<event>
11    1  0.7577197E-009  0.1863784E+03  0.7561462E-02  0.1064597E+00
         22   -1    0    0    0    0  0.00000000000E+00  0.00000000000E+00  0.56612308582E+03  0.56612308582E+03  0.00000000000E+00 0. -1.
         22   -1    0    0    0    0 -0.00000000000E+00 -0.00000000000E+00 -0.37390624489E+03  0.37390624489E+03  0.00000000000E+00 0.  1.
         24    2    1    2    0    0  0.94340643473E+02  0.96135219582E+02 -0.29296857274E+03  0.33106738372E+03  0.75052584848E+02 0.  0.
         25    2    1    2    0    0 -0.10861427805E+03 -0.18432589664E+03  0.34387979495E+03  0.42388011422E+03  0.12509172748E+03 0.  0.
        -24    2    1    2    0    0  0.14273634579E+02  0.88190677054E+02  0.14130561872E+03  0.18508183278E+03  0.79414575357E+02 0.  0.
        -11    1    3    3    0    0  0.41144953009E+02  0.82226307540E+02 -0.22868215618E+03  0.24647434221E+03  0.00000000000E+00 0.  1.
         12    1    3    3    0    0  0.53195690465E+02  0.13908912042E+02 -0.64286416562E+02  0.84593041514E+02  0.00000000000E+00 0. -1.
         11    1    5    5    0    0  0.29629649930E+02  0.54655949704E+02  0.13366385851E+03  0.14741511478E+03  0.00000000000E+00 0. -1.
        -12    1    5    5    0    0 -0.15356015351E+02  0.33534727350E+02  0.76417602123E+01  0.37666718003E+02  0.00000000000E+00 0.  1.
          5    1    4    4  501    0 -0.66947949422E+02 -0.18958435925E+03  0.24921940030E+03  0.32023747296E+03  0.41800000000E+01 0. -1.
         -5    1    4    4    0  501 -0.41666328630E+02  0.52584626088E+01  0.94660394655E+02  0.10364264126E+03  0.41800000000E+01 0. -1.
</event>
<event>
11    1  0.7577197E-009  0.1456974E+03  0.7561462E-02  0.1101358E+00
         22   -1    0    0    0    0  0.00000000000E+00  0.00000000000E+00  0.25790029823E+03  0.25790029823E+03  0.00000000000E+00 0. -1.
         22   -1    0    0    0    0 -0.00000000000E+00 -0.00000000000E+00 -0.19373677739E+04  0.19373677739E+04  0.00000000000E+00 0.  1.
         24    2    1    2    0    0  0.28187547190E+02 -0.70149997561E+02 -0.16911213034E+04  0.16947587130E+04  0.81242061690E+02 0.  0.
         25    2    1    2    0    0  0.39858651045E+02  0.80589542750E+02 -0.20687997471E+03  0.25793726959E+03  0.12509566197E+03 0.  0.
        -24    2    1    2    0    0 -0.68046198235E+02 -0.10439545189E+02  0.21853380247E+03  0.24257208948E+03  0.79655047394E+02 0.  0.
        -11    1    3    3    0    0  0.49094545058E+02 -0.26042007609E+02 -0.11811592951E+04  0.11824659577E+04  0.00000000000E+00 0.  1.
         12    1    3    3    0    0 -0.20906997868E+02 -0.44107989952E+02 -0.50996200824E+03  0.51229275535E+03  0.00000000000E+00 0. -1.
         13    1    5    5    0    0 -0.52579651934E+02 -0.34885612903E+02  0.19598965609E+03  0.20589699143E+03  0.00000000000E+00 0. -1.
        -14    1    5    5    0    0 -0.15466546301E+02  0.24446067713E+02  0.22544146378E+02  0.36675098051E+02  0.00000000000E+00 0.  1.
          5    1    4    4  501    0  0.33971044697E+02 -0.56293595384E+01 -0.10959102737E+01  0.34704394332E+02  0.41800000000E+01 0.  1.
         -5    1    4    4    0  501  0.58876063478E+01  0.86218902289E+02 -0.20578406444E+03  0.22323287526E+03  0.41800000000E+01 0.  1.
</event>
<event>
11    1  0.7577197E-009  0.1453184E+03  0.7561462E-02  0.1101761E+00
         22   -1    0    0    0    0  0.00000000000E+00  0.00000000000E+00  0.27694583794E+03  0.27694583794E+03  0.00000000000E+00 0.  1.
         22   -1    0    0    0    0 -0.00000000000E+00 -0.00000000000E+00 -0.49562907390E+03  0.49562907390E+03  0.00000000000E+00 0. -1.
        -24    2    1    2    0    0  0.40280120135E+02 -0.61671195328E+02 -0.42981107387E+03  0.44357399611E+03  0.81206566180E+02 0.  0.
         25    2    1    2    0    0 -0.49366192440E+02  0.62015447741E+02  0.65292572238E+02  0.16184296261E+03  0.12508832017E+03 0.  0.
         24    2    1    2    0    0  0.90860723051E+01 -0.34425241250E+00  0.14583526568E+03  0.16715795312E+03  0.81186090909E+02 0.  0.
        -11    1    5    5    0    0 -0.14347851022E+02  0.14750469550E+02  0.13607768353E+03  0.13762475480E+03  0.00000000000E+00 0.  1.
         12    1    5    5    0    0  0.23433923327E+02 -0.15094721962E+02  0.97575821552E+01  0.29533198322E+02  0.00000000000E+00 0. -1.
         13    1    3    3    0    0  0.33382363803E+02 -0.81013170908E+02 -0.37336177969E+03  0.38350558615E+03  0.00000000000E+00 0. -1.
        -14    1    3    3    0    0  0.68977563319E+01  0.19341975579E+02 -0.56449294184E+02  0.60068409964E+02  0.00000000000E+00 0.  1.
          5    1    4    4  501    0 -0.23429273043E+02  0.97679098257E+02  0.29161424132E+02  0.10468045725E+03  0.41800000000E+01 0. -1.
         -5    1    4    4    0  501 -0.25936919397E+02 -0.35663650516E+02  0.36131148106E+02  0.57162505363E+02  0.41800000000E+01 0. -1.
</event>
<event>
11    1  0.7577197E-009  0.1474831E+03  0.7561462E-02  0.1099479E+00
         22   -1    0    0    0    0  0.00000000000E+00  0.00000000000E+00  0.39519445258E+03  0.39519445258E+03  0.00000000000E+00 0.  1.
         22   -1    0    0    0    0 -0.00000000000E+00 -0.00000000000E+00 -0.30485995583E+04  0.30485995583E+04  0.00000000000E+00 0.  1.
        -24    2    1    2    0    0 -0.57087987415E+02  0.24384942168E+02 -0.25635224159E+04  0.25654154579E+04  0.76522096460E+02 0.  0.
         25    2    1    2    0    0  0.43095649911E+02 -0.10099297257E+03 -0.46108840732E+03  0.49021156147E+03  0.12509212639E+03 0.  0.
         24    2    1    2    0    0  0.13992337504E+02  0.76608030403E+02  0.37120571745E+03  0.38816699152E+03  0.82555150082E+02 0.  0.
        -11    1    5    5    0    0 -0.16261042559E+02  0.31230957448E+02  0.27766469450E+03  0.27988832912E+03  0.00000000000E+00 0.  1.
         12    1    5    5    0    0  0.30253380063E+02  0.45377072955E+02  0.93541022955E+02  0.10827866240E+03  0.00000000000E+00 0. -1.
         13    1    3    3    0    0  0.14948375161E+02  0.16915142918E+02 -0.36272913274E+03  0.36343087337E+03  0.00000000000E+00 0. -1.
        -14    1    3    3    0    0 -0.72036362576E+02  0.74697992497E+01 -0.22007932831E+04  0.22019845845E+04  0.00000000000E+00 0.  1.
          5    1    4    4  501    0 -0.38467277261E+02 -0.42105137198E+02 -0.24836112890E+03  0.25485936660E+03  0.41800000000E+01 0. -1.
         -5    1    4    4    0  501  0.81562927172E+02 -0.58887835373E+02 -0.21272727843E+03  0.23535219487E+03  0.41800000000E+01 0. -1.
</event>
<event>
11    1  0.7577197E-009  0.1303754E+03  0.7561462E-02  0.1118809E+00
         22   -1    0    0    0    0  0.00000000000E+00  0.00000000000E+00  0.24690772482E+03  0.24690772482E+03  0.00000000000E+00 0. -1.
         22   -1    0    0    0    0 -0.00000000000E+00 -0.00000000000E+00 -0.20956604198E+04  0.20956604198E+04  0.00000000000E+00 0. -1.
         24    2    1    2    0    0 -0.13684298832E+02 -0.11512283811E+01 -0.19035939434E+04  0.19053925122E+04  0.81621926662E+02 0.  0.
         25    2    1    2    0    0 -0.18578472620E+02  0.19731351780E+02 -0.16047241054E+03  0.20526481931E+03  0.12509102931E+03 0.  0.
        -24    2    1    2    0    0  0.32262771453E+02 -0.18580123399E+02  0.21531365899E+03  0.23191081306E+03  0.77695212583E+02 0.  0.
        -13    1    3    3    0    0 -0.92861576810E+01 -0.37394473987E+02 -0.57098094080E+03  0.57227948956E+03  0.00000000000E+00 0.  1.
         14    1    3    3    0    0 -0.43981411515E+01  0.36243245606E+02 -0.13326130026E+04  0.13331130227E+04  0.00000000000E+00 0. -1.
         11    1    5    5    0    0  0.31411796134E+02 -0.34514831557E+02  0.20995264135E+03  0.21507693076E+03  0.00000000000E+00 0. -1.
        -12    1    5    5    0    0  0.85097531919E+00  0.15934708158E+02  0.53610176338E+01  0.16833882296E+02  0.00000000000E+00 0.  1.
          5    1    4    4  501    0 -0.23320695499E+02  0.21213807519E+02  0.11014377630E+02  0.33655153878E+02  0.41800000000E+01 0.  1.
         -5    1    4    4    0  501  0.47422228782E+01 -0.14824557391E+01 -0.17148678817E+03  0.17160966543E+03  0.41800000000E+01 0.  1.
</event>
<event>
11    1  0.7577197E-009  0.1325033E+03  0.7561462E-02  0.1116231E+00
         22   -1    0    0    0    0  0.00000000000E+00  0.00000000000E+00  0.47339017701E+04  0.47339017701E+04  0.00000000000E+00 0.  1.
         22   -1    0    0    0    0 -0.00000000000E+00 -0.00000000000E+00 -0.11886251521E+03  0.11886251521E+03  0.00000000000E+00 0.  1.
        -24    2    1    2    0    0 -0.82834634454E+01  0.50185237601E+01 -0.92126019610E+02  0.12384529536E+03  0.82198858546E+02 0.  0.
         25    2    1    2    0    0  0.43538584182E+02 -0.30059382811E+02  0.43434664261E+03  0.45508705796E+03  0.12509216430E+03 0.  0.
         24    2    1    2    0    0 -0.35255120736E+02  0.25040859051E+02  0.42728186319E+04  0.42738319320E+04  0.82403602189E+02 0.  0.
        -13    1    5    5    0    0 -0.15920493306E+02  0.30851201057E+00  0.37703269004E+04  0.37703605256E+04  0.00000000000E+00 0.  1.
         14    1    5    5    0    0 -0.19334627430E+02  0.24732347041E+02  0.50249173156E+03  0.50347140643E+03  0.00000000000E+00 0. -1.
         11    1    3    3    0    0 -0.57052692292E+01  0.36729745751E+02 -0.14404221310E+02  0.39863591302E+02  0.00000000000E+00 0. -1.
        -12    1    3    3    0    0 -0.25781942162E+01 -0.31711221991E+02 -0.77721798300E+02  0.83981704059E+02  0.00000000000E+00 0.  1.
          5    1    4    4  501    0  0.18422825637E+02 -0.25870114850E+02  0.15750087603E+02  0.35695952240E+02  0.41800000000E+01 0.  1.
         -5    1    4    4    0  501  0.25115758544E+02 -0.41892679617E+01  0.41859655501E+03  0.41939110572E+03  0.41800000000E+01 0.  1.
</event>
<event>
11    1  0.7577197E-009  0.1838253E+03  0.7561462E-02  0.1066590E+00
         22   -1    0    0    0    0  0.00000000000E+00  0.00000000000E+00  0.36391079945E+03  0.36391079945E+03  0.00000000000E+00 0. -1.
         22   -1    0    0    0    0 -0.00000000000E+00 -0.00000000000E+00 -0.95082457993E+03  0.95082457993E+03  0.00000000000E+00 0.  1.
         24    2    1    2    0    0 -0.19883075789E+02 -0.14858017089E+03 -0.80836517663E+03  0.82568237470E+03  0.76326412398E+02 0.  0.
         25    2    1    2    0    0 -0.33482243216E+02  0.63027390464E+02 -0.77417900315E+02  0.16350860225E+03  0.12509204276E+03 0.  0.
        -24    2    1    2    0    0  0.53365319005E+02  0.85552780422E+02  0.29886929646E+03  0.32554440243E+03  0.80555360334E+02 0.  0.
        -11    1    3    3    0    0  0.11539472349E+02 -0.50204642530E+00 -0.13590384226E+03  0.13639378950E+03  0.00000000000E+00 0.  1.
         12    1    3    3    0    0 -0.31422548138E+02 -0.14807812446E+03 -0.67246133436E+03  0.68928858520E+03  0.00000000000E+00 0. -1.
         11    1    5    5    0    0  0.31672575587E+02 -0.82917805684E+01  0.76057331426E+02  0.82804730136E+02  0.00000000000E+00 0. -1.
        -12    1    5    5    0    0  0.21692743419E+02  0.93844560990E+02  0.22281196503E+03  0.24273967229E+03  0.00000000000E+00 0.  1.
          5    1    4    4  501    0 -0.38578200530E+02 -0.30144285610E+02 -0.38049377384E+02  0.62146464343E+02  0.41800000000E+01 0.  1.
         -5    1    4    4    0  501  0.50959573133E+01  0.93171676074E+02 -0.39368522932E+02  0.10136213791E+03  0.41800000000E+01 0.  1.
</event>
<event>
11    1  0.7577197E-009  0.1512046E+03  0.7561462E-02  0.1095654E+00
         22   -1    0    0    0    0  0.00000000000E+00  0.00000000000E+00  0.21655772942E+04  0.21655772942E+04  0.00000000000E+00 0. -1.
         22   -1    0    0    0    0 -0.00000000000E+00 -0.00000000000E+00 -0.28627942470E+03  0.28627942470E+03  0.00000000000E+00 0.  1.
        -24    2    1    2    0    0 -0.86229718916E+02 -0.79136296586E+00 -0.26510139495E+03  0.29021895725E+03  0.80697601357E+02 0.  0.
         25    2    1    2    0    0  0.15055045254E+02 -0.39436828264E+02  0.67812642694E+03  0.69085754848E+03  0.12508710391E+03 0.  0.
         24    2    1    2    0    0  0.71174673662E+02  0.40228191230E+02  0.14662728375E+04  0.14707802131E+04  0.80958383632E+02 0.  0.
        -13    1    5    5    0    0 -0.38548864402E+01  0.24505624035E+02  0.13224322108E+03  0.13454982453E+03  0.00000000000E+00 0.  1.
         14    1    5    5    0    0  0.75029560102E+02  0.15722567195E+02  0.13340296164E+04  0.13362303886E+04  0.00000000000E+00 0. -1.
         13    1    3    3    0    0 -0.48448864026E+02 -0.35448927156E+02 -0.93422252380E+02  0.11104790003E+03  0.00000000000E+00 0. -1.
        -14    1    3    3    0    0 -0.37780854891E+02  0.34657564191E+02 -0.17167914257E+03  0.17917105722E+03  0.00000000000E+00 0.  1.
          5    1    4    4  501    0 -0.12340711970E+02  0.30730303382E+02  0.43539674362E+03  0.43667429679E+03  0.41800000000E+01 0. -1.
         -5    1    4    4    0  501  0.27395757224E+02 -0.70167131646E+02  0.24272968332E+03  0.25418325170E+03  0.41800000000E+01 0. -1.
</event>
<event>
11    1  0.7577197E-009  0.1608233E+03  0.7561462E-02  0.1086306E+00
         22   -1    0    0    0    0  0.00000000000E+00  0.00000000000E+00  0.64781824120E+03  0.64781824120E+03  0.00000000000E+00 0.  1.
         22   -1    0    0    0    0 -0.00000000000E+00 -0.00000000000E+00 -0.60750172881E+03  0.60750172881E+03  0.00000000000E+00 0. -1.
        -24    2    1    2    0    0 -0.54066873327E+02  0.10184862811E+03 -0.41916810034E+03  0.44215161286E+03  0.80621229003E+02 0.  0.
         25    2    1    2    0    0  0.19710089211E+02 -0.63198446127E+02 -0.14435975768E+03  0.20216403378E+03  0.12509206893E+03 0.  0.
         24    2    1    2    0    0  0.34356784115E+02 -0.38650181981E+02  0.60384437041E+03  0.61100432338E+03  0.77614652795E+02 0.  0.
        -11    1    5    5    0    0  0.53972528002E+02 -0.24784985616E+02  0.53078208251E+03  0.53409451262E+03  0.00000000000E+00 0.  1.
         12    1    5    5    0    0 -0.19615743887E+02 -0.13865196365E+02  0.73062287897E+02  0.76909810761E+02  0.00000000000E+00 0. -1.
         13    1    3    3    0    0  0.73027145668E+01  0.62623320517E+02 -0.25271647216E+03  0.26046232974E+03  0.00000000000E+00 0. -1.
        -14    1    3    3    0    0 -0.61369587894E+02  0.39225307590E+02 -0.16645162818E+03  0.18168928311E+03  0.00000000000E+00 0.  1.
          5    1    4    4  501    0 -0.23843679944E+02 -0.63067414210E+02 -0.14326865969E+03  0.15839634168E+03  0.41800000000E+01 0.  1.
         -5    1    4    4    0  501  0.43553769156E+02 -0.13103191736E+00 -0.10910979890E+01  0.43767692101E+02  0.41800000000E+01 0.  1.
</event>
<event>
11    1  0.7577197E-009  0.1403633E+03  0.7561462E-02  0.1107153E+00
         22   -1    0    0    0    0  0.00000000000E+00  0.00000000000E+00  0.27733376138E+04  0.27733376138E+04  0.00000000000E+00 0.  1.
         22   -1    0    0    0    0 -0.00000000000E+00 -0.00000000000E+00 -0.30583704757E+02  0.30583704757E+02  0.00000000000E+00 0.  1.
        -24    2    1    2    0    0  0.78027686004E+01  0.62728778383E+01  0.71171457972E+02  0.10625670664E+03  0.78261606687E+02 0.  0.
         25    2    1    2    0    0 -0.58641845803E+02  0.31685235200E+02  0.41058079566E+03  0.43435816360E+03  0.12509038457E+03 0.  0.
         24    2    1    2    0    0  0.50839077203E+02 -0.37958113038E+02  0.22610016554E+04  0.22633064483E+04  0.80013518391E+02 0.  0.
        -11    1    5    5    0    0 -0.10083332438E+02 -0.18299168623E+02  0.13034007356E+04  0.13035681841E+04  0.00000000000E+00 0.  1.
         12    1    5    5    0    0  0.60922409640E+02 -0.19658944415E+02  0.95760091983E+03  0.95973826419E+03  0.00000000000E+00 0. -1.
         11    1    3    3    0    0 -0.77571506936E+01 -0.24077506395E+02  0.67341333104E+02  0.71935768887E+02  0.00000000000E+00 0. -1.
        -12    1    3    3    0    0  0.15559919294E+02  0.30350384233E+02  0.38301248672E+01  0.34320937750E+02  0.00000000000E+00 0.  1.
          5    1    4    4  501    0 -0.26859659848E+02  0.13141735219E+02  0.39156685331E+03  0.39272919365E+03  0.41800000000E+01 0.  1.
         -5    1    4    4    0  501 -0.31782185956E+02  0.18543499980E+02  0.19013942351E+02  0.41628969953E+02  0.41800000000E+01 0.  1.
</event>
<event>
11    1  0.7577197E-009  0.1470264E+03  0.7561462E-02  0.1099956E+00
         22   -1    0    0    0    0  0.00000000000E+00  0.00000000000E+00  0.49885981519E+03  0.49885981519E+03  0.00000000000E+00 0.  1.
         22   -1    0    0    0    0 -0.00000000000E+00 -0.00000000000E+00 -0.62329485356E+03  0.62329485356E+03  0.00000000000E+00 0. -1.
         24    2    1    2    0    0 -0.10802386253E+02  0.33979976064E+02 -0.41645983945E+03  0.42587077044E+03  0.81582994038E+02 0.  0.
         25    2    1    2    0    0  0.85888156859E+02 -0.16185083478E+02 -0.16565615686E+03  0.22522852606E+03  0.12508874543E+03 0.  0.
        -24    2    1    2    0    0 -0.75085770606E+02 -0.17794892586E+02  0.45768095794E+03  0.47105537225E+03  0.80416250342E+02 0.  0.
        -11    1    3    3    0    0 -0.28871624390E+02 -0.17595061066E+02 -0.13631870289E+03  0.14044908553E+03  0.00000000000E+00 0.  1.
         12    1    3    3    0    0  0.18069238137E+02  0.51575037130E+02 -0.28014113656E+03  0.28542168491E+03  0.00000000000E+00 0. -1.
         11    1    5    5    0    0 -0.25673696986E+02 -0.36808725453E+02  0.10173791684E+03  0.11119633407E+03  0.00000000000E+00 0. -1.
        -12    1    5    5    0    0 -0.49412073620E+02  0.19013832867E+02  0.35594304109E+03  0.35985903818E+03  0.00000000000E+00 0.  1.
          5    1    4    4  501    0  0.77044836954E+02  0.43804553270E+02 -0.11985465002E+03  0.14912194782E+03  0.41800000000E+01 0. -1.
         -5    1    4    4    0  501  0.88433199048E+01 -0.59989636748E+02 -0.45801506833E+02  0.76106578246E+02  0.41800000000E+01 0. -1.
</event>
<event>
11    1  0.7577197E-009  0.3861361E+03  0.7561462E-02  0.9691573E-01
         22   -1    0    0    0    0  0.00000000000E+00  0.00000000000E+00  0.18194750785E+04  0.18194750785E+04  0.00000000000E+00 0. -1.
         22   -1    0    0    0    0 -0.00000000000E+00 -0.00000000000E+00 -0.31995167915E+03  0.31995167915E+03  0.00000000000E+00 0. -1.
        -24    2    1    2    0    0  0.22947576079E+02  0.17220835950E+03  0.14808862865E+03  0.24109145002E+03  0.77540537820E+02 0.  0.
         25    2    1    2    0    0 -0.19362315146E+02 -0.52225499192E+03  0.40469793821E+02  0.53889741435E+03  0.12508974037E+03 0.  0.
         24    2    1    2    0    0 -0.35852609327E+01  0.35004663242E+03  0.13109649769E+04  0.13594378933E+04  0.83046469568E+02 0.  0.
        -11    1    5    5    0    0  0.24782529417E+02  0.17346553687E+03  0.76959312438E+03  0.78928958142E+03  0.00000000000E+00 0.  1.
         12    1    5    5    0    0 -0.28367790350E+02  0.17658109555E+03  0.54137185254E+03  0.57014831190E+03  0.00000000000E+00 0. -1.
         13    1    3    3    0    0  0.25407653049E+02  0.16777269030E+03  0.15678123562E+03  0.23102722845E+03  0.00000000000E+00 0. -1.
        -14    1    3    3    0    0 -0.24600769705E+01  0.44356691977E+01 -0.86926069622E+01  0.10064221566E+02  0.00000000000E+00 0.  1.
          5    1    4    4  501    0 -0.31241878051E+02 -0.40102896311E+03 -0.20161352461E+02  0.40277069994E+03  0.41800000000E+01 0. -1.
         -5    1    4    4    0  501  0.11879562905E+02 -0.12122602881E+03  0.60631146281E+02  0.13612671441E+03  0.41800000000E+01 0. -1.
</event>
<event>
11    1  0.7577197E-009  0.1316706E+03  0.7561462E-02  0.1117233E+00
         22   -1    0    0    0    0  0.00000000000E+00  0.00000000000E+00  0.14491898742E+04  0.14491898742E+04  0.00000000000E+00 0. -1.
         22   -1    0    0    0    0 -0.00000000000E+00 -0.00000000000E+00 -0.15266620030E+03  0.15266620030E+03  0.00000000000E+00 0.  1.
         24    2    1    2    0    0  0.39936052378E+01 -0.69405477768E+01 -0.13072547734E+03  0.15379816696E+03  0.80626333461E+02 0.  0.
         25    2    1    2    0    0 -0.11109260186E+02  0.45631153249E+02  0.55177058913E+03  0.56771797216E+03  0.12508914851E+03 0.  0.
        -24    2    1    2    0    0  0.71156549479E+01 -0.38690605472E+02  0.87547856215E+03  0.88033993543E+03  0.83594818194E+02 0.  0.
        -11    1    3    3    0    0  0.12820337908E+02  0.29324438507E+02 -0.10140328569E+03  0.10633395556E+03  0.00000000000E+00 0.  1.
         12    1    3    3    0    0 -0.88267326703E+01 -0.36264986284E+02 -0.29322191654E+02  0.47464211393E+02  0.00000000000E+00 0. -1.
         11    1    5    5    0    0 -0.81390022322E+01 -0.62958869636E+02  0.63173927204E+03  0.63492091670E+03  0.00000000000E+00 0. -1.
        -12    1    5    5    0    0  0.15254657180E+02  0.24268264164E+02  0.24373929011E+03  0.24541901873E+03  0.00000000000E+00 0.  1.
          5    1    4    4  501    0 -0.10414752551E+02  0.26550487252E+01 -0.24732395433E+01  0.11794306604E+02  0.41800000000E+01 0.  1.
         -5    1    4    4    0  501 -0.69450763490E+00  0.42976104524E+02  0.55424382868E+03  0.55592366556E+03  0.41800000000E+01 0.  1.
</event>
<event>
11    1  0.7577197E-009  0.1464712E+03  0.7561462E-02  0.1100540E+00
         22   -1    0    0    0    0  0.00000000000E+00  0.00000000000E+00  0.32243624957E+03  0.32243624957E+03  0.00000000000E+00 0. -1.
         22   -1    0    0    0    0 -0.00000000000E+00 -0.00000000000E+00 -0.64689173331E+03  0.64689173331E+03  0.00000000000E+00 0. -1.
        -24    2    1    2    0    0  0.75489471791E+02  0.16039956408E+02 -0.46310979904E+03  0.47562184848E+03  0.76088870595E+02 0.  0.
         25    2    1    2    0    0 -0.74867225869E+02  0.13623808294E+02 -0.13982960682E+03  0.20246129524E+03  0.12509015735E+03 0.  0.
         24    2    1    2    0    0 -0.62224592233E+00 -0.29663764703E+02  0.27848392213E+03  0.29124483916E+03  0.79937071017E+02 0.  0.
        -11    1    5    5    0    0 -0.11690752355E+02  0.17894806135E+02  0.24085650114E+02  0.32202737751E+02  0.00000000000E+00 0.  1.
         12    1    5    5    0    0  0.11068506432E+02 -0.47558570838E+02  0.25439827202E+03  0.25904210141E+03  0.00000000000E+00 0. -1.
         13    1    3    3    0    0  0.33171338874E+02  0.44276937646E+02 -0.19347346066E+03  0.20122814145E+03  0.00000000000E+00 0. -1.
        -14    1    3    3    0    0  0.42318132917E+02 -0.28236981238E+02 -0.26963633838E+03  0.27439370703E+03  0.00000000000E+00 0.  1.
          5    1    4    4  501    0 -0.28278572983E+02  0.58726955661E+02 -0.23875492829E+02  0.69541675052E+02  0.41800000000E+01 0.  1.
         -5    1    4    4    0  501 -0.46588652886E+02 -0.45103147367E+02 -0.11595411399E+03  0.13291962019E+03  0.41800000000E+01 0.  1.
</event>
<event>
11    1  0.7577197E-009  0.1553309E+03  0.7561462E-02  0.1091553E+00
         22   -1    0    0    0    0  0.00000000000E+00  0.00000000000E+00  0.51951507074E+03  0.51951507074E+03  0.00000000000E+00 0.  1.
         22   -1    0    0    0    0 -0.00000000000E+00 -0.00000000000E+00 -0.51387467584E+03  0.51387467584E+03  0.00000000000E+00 0.  1.
         24    2    1    2    0    0 -0.57751874113E+01  0.60690709364E+02 -0.45528346379E+03  0.46639529089E+03  0.80776357699E+02 0.  0.
         25    2    1    2    0    0  0.78205591182E+02 -0.10383140459E+03  0.14968722017E+03  0.23441725629E+03  0.12509241020E+03 0.  0.
        -24    2    1    2    0    0 -0.72430403771E+02  0.43140695228E+02  0.31123663853E+03  0.33257719941E+03  0.81437493983E+02 0.  0.
        -13    1    3    3    0    0 -0.33048510689E+02  0.62794787251E+02 -0.37282739103E+03  0.37952029309E+03  0.00000000000E+00 0.  1.
         14    1    3    3    0    0  0.27273323278E+02 -0.21040778873E+01 -0.82456072767E+02  0.86874997799E+02  0.00000000000E+00 0. -1.
         13    1    5    5    0    0 -0.17910748846E+01  0.34047763516E+02  0.42090725554E+02  0.54167216352E+02  0.00000000000E+00 0. -1.
        -14    1    5    5    0    0 -0.70639328886E+02  0.90929317126E+01  0.26914591298E+03  0.27840998305E+03  0.00000000000E+00 0.  1.
          5    1    4    4  501    0  0.62470653994E+02 -0.10185571489E+03  0.43897978438E+02  0.12736433636E+03  0.41800000000E+01 0. -1.
         -5    1    4    4    0  501  0.15734937188E+02 -0.19756897045E+01  0.10578924173E+03  0.10705291993E+03  0.41800000000E+01 0. -1.
</event>
<event>
11    1  0.7577197E-009  0.2466029E+03  0.7561462E-02  0.1025725E+00
         22   -1    0    0    0    0  0.00000000000E+00  0.00000000000E+00  0.56641413643E+03  0.56641413643E+03  0.00000000000E+00 0. -1.
         22   -1    0    0    0    0 -0.00000000000E+00 -0.00000000000E+00 -0.39399924560E+03  0.39399924560E+03  0.00000000000E+00 0. -1.
        -24    2    1    2    0    0  0.16537929977E+03 -0.10203780717E+03 -0.18257173725E+03  0.27843243811E+03  0.80188256406E+02 0.  0.
         25    2    1    2    0    0 -0.34398832009E+03  0.11131802670E+03  0.27176809297E+03  0.46928161864E+03  0.12509066235E+03 0.  0.
         24    2    1    2    0    0  0.17860902032E+03 -0.92802195299E+01  0.83218535101E+02  0.21269932528E+03  0.79551076514E+02 0.  0.
        -11    1    5    5    0    0  0.75278833446E+02 -0.41530785584E+02  0.23758414775E+02  0.89197372096E+02  0.00000000000E+00 0.  1.
         12    1    5    5    0    0  0.10333018688E+03  0.32250566054E+02  0.59460120326E+02  0.12350195318E+03  0.00000000000E+00 0. -1.
         11    1    3    3    0    0  0.15526035057E+03 -0.97482825733E+02 -0.13009770790E+03  0.22479789005E+03  0.00000000000E+00 0. -1.
        -12    1    3    3    0    0  0.10118949195E+02 -0.45549814407E+01 -0.52474029352E+02  0.53634548056E+02  0.00000000000E+00 0.  1.
          5    1    4    4  501    0 -0.53670118852E+02  0.13643620976E+02  0.10913048115E+03  0.12244821096E+03  0.41800000000E+01 0. -1.
         -5    1    4    4    0  501 -0.29031820124E+03  0.97674405727E+02  0.16263761183E+03  0.34683340768E+03  0.41800000000E+01 0. -1.
</event>
<event>
11    1  0.7577197E-009  0.2185334E+03  0.7561462E-02  0.1042140E+00
         22   -1    0    0    0    0  0.00000000000E+00  0.00000000000E+00  0.10839447316E+04  0.10839447316E+04  0.00000000000E+00 0.  1.
         22   -1    0    0    0    0 -0.00000000000E+00 -0.00000000000E+00 -0.17570827399E+04  0.17570827399E+04  0.00000000000E+00 0. -1.
         24    2    1    2    0    0 -0.50573770132E+02  0.17237623869E+03 -0.17192346265E+04  0.17304213515E+04  0.79492633267E+02 0.  0.
         25    2    1    2    0    0  0.20709546489E+00 -0.15742069639E+03  0.31781803221E+03  0.37608126904E+03  0.12508997076E+03 0.  0.
        -24    2    1    2    0    0  0.50366674667E+02 -0.14955542300E+02  0.72827858609E+03  0.73452485100E+03  0.79853538598E+02 0.  0.
        -13    1    3    3    0    0 -0.17600957262E+02  0.57819531128E+01 -0.38157375519E+03  0.38202323925E+03  0.00000000000E+00 0.  1.
         14    1    3    3    0    0 -0.32972812869E+02  0.16659428557E+03 -0.13376608713E+04  0.13483981122E+04  0.00000000000E+00 0. -1.
         13    1    5    5    0    0 -0.97704634454E+01 -0.30567517202E+02  0.19260074666E+03  0.19525594147E+03  0.00000000000E+00 0. -1.
        -14    1    5    5    0    0  0.60137138112E+02  0.15611974902E+02  0.53567783943E+03  0.53926890954E+03  0.00000000000E+00 0.  1.
          5    1    4    4  501    0  0.16655614037E+02  0.17713586464E+02  0.31386634881E+02  0.39922097560E+02  0.41800000000E+01 0.  1.
         -5    1    4    4    0  501 -0.16448518572E+02 -0.17513428285E+03  0.28643139733E+03  0.33615917148E+03  0.41800000000E+01 0.  1.
</event>
<event>
11    1  0.7577197E-009  0.1820489E+03  0.7561462E-02  0.1067997E+00
         22   -1    0    0    0    0  0.00000000000E+00  0.00000000000E+00  0.22930347625E+04  0.22930347625E+04  0.00000000000E+00 0.  1.
         22   -1    0    0    0    0 -0.00000000000E+00 -0.00000000000E+00 -0.55394525257E+02  0.55394525257E+02  0.00000000000E+00 0.  1.
         24    2    1    2    0    0  0.63114059964E+00 -0.14414687356E+03  0.14304404703E+03  0.22580327506E+03  0.98725883843E+02 0.  0.
         25    2    1    2    0    0  0.48085101922E+02  0.94687250454E+02  0.53925415331E+03  0.56366850995E+03  0.12509714151E+03 0.  0.
        -24    2    1    2    0    0 -0.48716242522E+02  0.49459623108E+02  0.15553420369E+04  0.15589575028E+04  0.80250339774E+02 0.  0.
        -13    1    3    3    0    0  0.36565673281E+02 -0.13352482416E+02  0.28104648056E+02  0.48012586803E+02  0.00000000000E+00 0.  1.
         14    1    3    3    0    0 -0.35934532681E+02 -0.13079439115E+03  0.11493939897E+03  0.17779068825E+03  0.00000000000E+00 0. -1.
         11    1    5    5    0    0 -0.97376601910E+01  0.62771567000E+02  0.81581134451E+03  0.81828066180E+03  0.00000000000E+00 0. -1.
        -12    1    5    5    0    0 -0.38978582331E+02 -0.13311943892E+02  0.73953069244E+03  0.74067684099E+03  0.00000000000E+00 0.  1.
          5    1    4    4  501    0  0.62865922500E+02  0.38310173540E+02  0.12357787014E+03  0.14390537167E+03  0.41800000000E+01 0.  1.
         -5    1    4    4    0  501 -0.14780820578E+02  0.56377076914E+02  0.41567628318E+03  0.41976313828E+03  0.41800000000E+01 0.  1.
</event>
<event>
11    1  0.7577197E-009  0.1695292E+03  0.7561462E-02  0.1078442E+00
         22   -1    0    0    0    0  0.00000000000E+00  0.00000000000E+00  0.71706915121E+03  0.71706915121E+03  0.00000000000E+00 0.  1.
         22   -1    0    0    0    0 -0.00000000000E+00 -0.00000000000E+00 -0.99929961571E+03  0.99929961571E+03  0.00000000000E+00 0. -1.
        -24    2    1    2    0    0 -0.69271632988E+02  0.51638164971E+02 -0.91712041214E+03  0.92463572540E+03  0.79851832201E+02 0.  0.
         25    2    1    2    0    0  0.13975811708E+03 -0.13016121112E+03  0.11545323245E+03  0.25583456111E+03  0.12509037375E+03 0.  0.
         24    2    1    2    0    0 -0.70486484093E+02  0.78523046153E+02  0.51943671519E+03  0.53589848041E+03  0.78983966678E+02 0.  0.
        -11    1    5    5    0    0 -0.66142624814E+02  0.94376561198E+02  0.44664227950E+03  0.46127118700E+03  0.00000000000E+00 0.  1.
         12    1    5    5    0    0 -0.43438592785E+01 -0.15853515045E+02  0.72794435695E+02  0.74627293405E+02  0.00000000000E+00 0. -1.
         13    1    3    3    0    0 -0.60691163567E+02  0.72616922597E+02 -0.71031670098E+03  0.71659364390E+03  0.00000000000E+00 0. -1.
        -14    1    3    3    0    0 -0.85804694219E+01 -0.20978757626E+02 -0.20680371116E+03  0.20804208150E+03  0.00000000000E+00 0.  1.
          5    1    4    4  501    0  0.76767363552E+02 -0.14426824388E+03  0.78637406256E+02  0.18140526001E+03  0.41800000000E+01 0.  1.
         -5    1    4    4    0  501  0.62990753529E+02  0.14107032754E+02  0.36815826199E+02  0.74429301099E+02  0.41800000000E+01 0.  1.
</event>
<event>
11    1  0.7577197E-009  0.2460709E+03  0.7561462E-02  0.1026013E+00
         22   -1    0    0    0    0  0.00000000000E+00  0.00000000000E+00  0.53123481104E+03  0.53123481104E+03  0.00000000000E+00 0.  1.
         22   -1    0    0    0    0 -0.00000000000E+00 -0.00000000000E+00 -0.50607863440E+03  0.50607863440E+03  0.00000000000E+00 0.  1.
         24    2    1    2    0    0  0.43847722454E+02  0.26040807045E+02 -0.27692076247E+03  0.29264457724E+03  0.79718213133E+02 0.  0.
         25    2    1    2    0    0 -0.96299346760E+02 -0.22640605882E+03 -0.93442605679E+02  0.29139677488E+03  0.12508913700E+03 0.  0.
        -24    2    1    2    0    0  0.52451624305E+02  0.20036525178E+03  0.39551954479E+03  0.45327209333E+03  0.78246234842E+02 0.  0.
        -11    1    3    3    0    0 -0.78808795075E+01 -0.58056443243E+01 -0.16509413519E+03  0.16538405982E+03  0.00000000000E+00 0.  1.
         12    1    3    3    0    0  0.51728601962E+02  0.31846451369E+02 -0.11182662728E+03  0.12726051742E+03  0.00000000000E+00 0. -1.
         11    1    5    5    0    0  0.65982225677E+01 -0.44666536489E+01  0.37306172616E+01  0.87980134704E+01  0.00000000000E+00 0. -1.
        -12    1    5    5    0    0  0.45853401738E+02  0.20483190543E+03  0.39178892753E+03  0.44447407986E+03  0.00000000000E+00 0.  1.
          5    1    4    4  501    0 -0.63534103671E+01 -0.10603586897E+03 -0.92737046531E+02  0.14107304325E+03  0.41800000000E+01 0.  1.
         -5    1    4    4    0  501 -0.89945936393E+02 -0.12037018985E+03 -0.70555914879E+00  0.15032373163E+03  0.41800000000E+01 0.  1.
</event>
<event>
11    1  0.7577197E-009  0.1264482E+03  0.7561462E-02  0.1123712E+00
         22   -1    0    0    0    0  0.00000000000E+00  0.00000000000E+00  0.20888794731E+03  0.20888794731E+03  0.00000000000E+00 0.  1.
         22   -1    0    0    0    0 -0.00000000000E+00 -0.00000000000E+00 -0.25591800065E+03  0.25591800065E+03  0.00000000000E+00 0.  1.
        -24    2    1    2    0    0 -0.13604544302E+02  0.42572869377E+01 -0.18230725444E+03  0.19962966605E+03  0.80080337335E+02 0.  0.
         25    2    1    2    0    0  0.28634924236E+02 -0.67823911188E+01  0.33097044817E+02  0.13269036000E+03  0.12508140368E+03 0.  0.
         24    2    1    2    0    0 -0.15030379934E+02  0.25251041811E+01  0.10218015628E+03  0.13248592190E+03  0.82942429988E+02 0.  0.
        -11    1    5    5    0    0 -0.22025902461E+02 -0.37109717676E+02  0.62634483376E+02  0.76061488501E+02  0.00000000000E+00 0.  1.
         12    1    5    5    0    0  0.69955225274E+01  0.39634821857E+02  0.39545672907E+02  0.56424433402E+02  0.00000000000E+00 0. -1.
         11    1    3    3    0    0 -0.22247133509E+02  0.31807208459E+01 -0.62078227568E+01  0.23314995128E+02  0.00000000000E+00 0. -1.
        -12    1    3    3    0    0  0.86425892065E+01  0.10765660918E+01 -0.17609943168E+03  0.17631467092E+03  0.00000000000E+00 0.  1.
          5    1    4    4  501    0 -0.49199028830E+02  0.44631641989E+01  0.16075566571E+02  0.52118715574E+02  0.41800000000E+01 0.  1.
         -5    1    4    4    0  501  0.77833953067E+02 -0.11245555318E+02  0.17021478246E+02  0.80571644429E+02  0.41800000000E+01 0.  1.
</event>
<event>
11    1  0.7577197E-009  0.1640845E+03  0.7561462E-02  0.1083297E+00
         22   -1    0    0    0    0  0.00000000000E+00  0.00000000000E+00  0.37064705585E+03  0.37064705585E+03  0.00000000000E+00 0. -1.
         22   -1    0    0    0    0 -0.00000000000E+00 -0.00000000000E+00 -0.87784249128E+03  0.87784249128E+03  0.00000000000E+00 0. -1.
         24    2    1    2    0    0 -0.25794541913E+02 -0.38283405824E+02 -0.56875700851E+03  0.57605739877E+03  0.78908899325E+02 0.  0.
         25    2    1    2    0    0  0.10926787608E+03  0.10145534430E+03 -0.26283575051E+03  0.32705344573E+03  0.12509464013E+03 0.  0.
        -24    2    1    2    0    0 -0.83473334172E+02 -0.63171938476E+02  0.32439732359E+03  0.34537870263E+03  0.55626732325E+02 0.  0.
        -13    1    3    3    0    0  0.18145725242E+02  0.90576231897E+01 -0.25005457030E+03  0.25087565846E+03  0.00000000000E+00 0.  1.
         14    1    3    3    0    0 -0.43940267155E+02 -0.47341029014E+02 -0.31870243822E+03  0.32518174031E+03  0.00000000000E+00 0. -1.
         11    1    5    5    0    0 -0.75682627267E+02 -0.73187309720E+02  0.27767495585E+03  0.29696401041E+03  0.00000000000E+00 0. -1.
        -12    1    5    5    0    0 -0.77907069053E+01  0.10015371244E+02  0.46722367736E+02  0.48414692214E+02  0.00000000000E+00 0.  1.
          5    1    4    4  501    0  0.15527161597E+02  0.91357435072E+02 -0.85432137927E+02  0.12610866854E+03  0.41800000000E+01 0. -1.
         -5    1    4    4    0  501  0.93740714487E+02  0.10097909227E+02 -0.17740361258E+03  0.20094477719E+03  0.41800000000E+01 0. -1.
</event>
<event>
11    1  0.7577197E-009  0.1732786E+03  0.7561462E-02  0.1075213E+00
         22   -1    0    0    0    0  0.00000000000E+00  0.00000000000E+00  0.24524849334E+03  0.24524849334E+03  0.00000000000E+00 0. -1.
         22   -1    0    0    0    0 -0.00000000000E+00 -0.00000000000E+00 -0.21462550800E+04  0.21462550800E+04  0.00000000000E+00 0. -1.
         24    2    1    2    0    0 -0.11759611293E+03 -0.27120898566E+02 -0.20061925810E+04  0.20113521333E+04  0.78513331308E+02 0.  0.
         25    2    1    2    0    0  0.10540837544E+03  0.63162454199E+01 -0.76339835104E+02  0.18062860790E+03  0.12509237786E+03 0.  0.
        -24    2    1    2    0    0  0.12187737491E+02  0.20804653146E+02  0.18152582952E+03  0.19952283206E+03  0.79223476286E+02 0.  0.
        -11    1    3    3    0    0  0.23321984415E+01 -0.24216253484E+00 -0.54351793649E+03  0.54352299407E+03  0.00000000000E+00 0.  1.
         12    1    3    3    0    0 -0.11992831137E+03 -0.26878736031E+02 -0.14626746445E+04  0.14678291393E+04  0.00000000000E+00 0. -1.
         13    1    5    5    0    0 -0.10241007335E+02  0.43890748680E+02  0.13941905595E+03  0.14652286243E+03  0.00000000000E+00 0. -1.
        -14    1    5    5    0    0  0.22428744826E+02 -0.23086095534E+02  0.42106773567E+02  0.52999969638E+02  0.00000000000E+00 0.  1.
          5    1    4    4  501    0  0.11533428331E+03  0.27316989920E+02 -0.20969942075E+02  0.12043847274E+03  0.41800000000E+01 0. -1.
         -5    1    4    4    0  501 -0.99259078742E+01 -0.21000744500E+02 -0.55369893029E+02  0.60190135161E+02  0.41800000000E+01 0. -1.
</event>
<event>
11    1  0.7577197E-009  0.1306897E+03  0.7561462E-02  0.1118424E+00
         22   -1    0    0    0    0  0.00000000000E+00  0.00000000000E+00  0.65705997475E+03  0.65705997475E+03  0.00000000000E+00 0.  1.
         22   -1    0    0    0    0 -0.00000000000E+00 -0.00000000000E+00 -0.26542332410E+04  0.26542332410E+04  0.00000000000E+00 0.  1.
        -24    2    1    2    0    0  0.56721982755E+00 -0.37464170662E+02 -0.25589688873E+04  0.25605391097E+04  0.81454773497E+02 0.  0.
         25    2    1    2    0    0 -0.21431731317E+02  0.63277498106E+02 -0.36622889112E+02  0.14646743031E+03  0.12509241088E+03 0.  0.
         24    2    1    2    0    0  0.20864511489E+02 -0.25813327444E+02  0.59841851016E+03  0.60428667578E+03  0.77175238996E+02 0.  0.
        -11    1    5    5    0    0  0.31416922627E+01 -0.46177895612E+02  0.21533543525E+03  0.22025353107E+03  0.00000000000E+00 0.  1.
         12    1    5    5    0    0  0.17722819227E+02  0.20364568168E+02  0.38308307491E+03  0.38403314471E+03  0.00000000000E+00 0. -1.
         11    1    3    3    0    0 -0.44670144137E+01  0.14640014712E+02 -0.11552769903E+03  0.11653726224E+03  0.00000000000E+00 0. -1.
        -12    1    3    3    0    0  0.50342342413E+01 -0.52104185374E+02 -0.24434411883E+04  0.24440018475E+04  0.00000000000E+00 0.  1.
          5    1    4    4  501    0  0.18258983115E+02  0.27149213944E+02  0.40614067846E+02  0.52320600046E+02  0.41800000000E+01 0. -1.
         -5    1    4    4    0  501 -0.39690714432E+02  0.36128284162E+02 -0.77236956957E+02  0.94146830263E+02  0.41800000000E+01 0. -1.
</event>
<event>
11    1  0.7577197E-009  0.1641575E+03  0.7561462E-02  0.1083231E+00
         22   -1    0    0    0    0  0.00000000000E+00  0.00000000000E+00  0.10152931402E+04  0.10152931402E+04  0.00000000000E+00 0.  1.
         22   -1    0    0    0    0 -0.00000000000E+00 -0.00000000000E+00 -0.18724273130E+04  0.18724273130E+04  0.00000000000E+00 0.  1.
        -24    2    1    2    0    0 -0.33299138136E+02  0.10114394150E+03 -0.18523638402E+04  0.18566528660E+04  0.67595405825E+02 0.  0.
         25    2    1    2    0    0  0.29550997910E+02 -0.70269997787E+02  0.34060386973E+03  0.37076916117E+03  0.12509053017E+03 0.  0.
         24    2    1    2    0    0  0.37481402256E+01 -0.30873943718E+02  0.65462579768E+03  0.66029842607E+03  0.80571878021E+02 0.  0.
        -11    1    5    5    0    0 -0.28324161545E+02 -0.42189301581E+02  0.32896923916E+03  0.33287077915E+03  0.00000000000E+00 0.  1.
         12    1    5    5    0    0  0.32072301770E+02  0.11315357863E+02  0.32565655852E+03  0.32742764693E+03  0.00000000000E+00 0. -1.
         11    1    3    3    0    0 -0.67245482717E+01 -0.19564935182E+01 -0.51824096655E+03  0.51828828544E+03  0.00000000000E+00 0. -1.
        -12    1    3    3    0    0 -0.26574589864E+02  0.10310043502E+03 -0.13341228737E+04  0.13383645806E+04  0.00000000000E+00 0.  1.
          5    1    4    4  501    0 -0.26586864463E+02  0.28380794959E+01  0.20482895207E+03  0.20660902222E+03  0.41800000000E+01 0. -1.
         -5    1    4    4    0  501  0.56137862373E+02 -0.73108077283E+02  0.13577491766E+03  0.16416013895E+03  0.41800000000E+01 0. -1.
</event>
<event>
11    1  0.7577197E-009  0.1475968E+03  0.7561462E-02  0.1099360E+00
         22   -1    0    0    0    0  0.00000000000E+00  0.00000000000E+00  0.88326006880E+03  0.88326006880E+03  0.00000000000E+00 0.  1.
         22   -1    0    0    0    0 -0.00000000000E+00 -0.00000000000E+00 -0.64394894719E+03  0.64394894719E+03  0.00000000000E+00 0.  1.
        -24    2    1    2    0    0 -0.33589045135E+02 -0.63602053181E+02 -0.59817643049E+03  0.60793411413E+03  0.81212068116E+02 0.  0.
         25    2    1    2    0    0  0.10804268642E+03  0.57698239296E+02  0.17566952991E+03  0.24800945239E+03  0.12508635350E+03 0.  0.
         24    2    1    2    0    0 -0.74453641283E+02  0.59038138855E+01  0.66181802219E+03  0.67126544947E+03  0.83761622693E+02 0.  0.
        -11    1    5    5    0    0 -0.44916183975E+02 -0.19455168583E+02  0.56195216733E+03  0.56407996378E+03  0.00000000000E+00 0.  1.
         12    1    5    5    0    0 -0.29537457308E+02  0.25358982469E+02  0.99865854857E+02  0.10718548569E+03  0.00000000000E+00 0. -1.
         11    1    3    3    0    0  0.79253867175E+01  0.15699048150E+02 -0.13961346374E+03  0.14071670521E+03  0.00000000000E+00 0. -1.
        -12    1    3    3    0    0 -0.41514431853E+02 -0.79301101331E+02 -0.45856296675E+03  0.46721740892E+03  0.00000000000E+00 0.  1.
          5    1    4    4  501    0  0.48761539920E+02 -0.27355500525E+02  0.17296569941E+02  0.58674141801E+02  0.41800000000E+01 0. -1.
         -5    1    4    4    0  501  0.59281146499E+02  0.85053739821E+02  0.15837295997E+03  0.18933531059E+03  0.41800000000E+01 0. -1.
</event>
<event>
11    1  0.7577197E-009  0.1404454E+03  0.7561462E-02  0.1107062E+00
         22   -1    0    0    0    0  0.00000000000E+00  0.00000000000E+00  0.53072655225E+03  0.53072655225E+03  0.00000000000E+00 0. -1.
         22   -1    0    0    0    0 -0.00000000000E+00 -0.00000000000E+00 -0.19947728495E+03  0.19947728495E+03  0.00000000000E+00 0. -1.
        -24    2    1    2    0    0 -0.41254683546E+02 -0.54416681592E+02 -0.15269827653E+03  0.18720697163E+03  0.84062848041E+02 0.  0.
         25    2    1    2    0    0  0.37188690473E+02 -0.15031469317E+02  0.18397564229E+03  0.22605615578E+03  0.12508159274E+03 0.  0.
         24    2    1    2    0    0  0.40659930733E+01  0.69448150909E+02  0.29997190153E+03  0.31694070979E+03  0.75024621594E+02 0.  0.
        -13    1    5    5    0    0  0.11298452961E+02  0.10782850420E+02  0.54436183108E+01  0.16539585328E+02  0.00000000000E+00 0.  1.
         14    1    5    5    0    0 -0.72324598878E+01  0.58665300489E+02  0.29452828322E+03  0.30040112446E+03  0.00000000000E+00 0. -1.
         13    1    3    3    0    0 -0.56245283458E+02 -0.21296832419E+02 -0.49828500556E+02  0.78102281977E+02  0.00000000000E+00 0. -1.
        -14    1    3    3    0    0  0.14990599911E+02 -0.33119849173E+02 -0.10286977597E+03  0.10910468965E+03  0.00000000000E+00 0.  1.
          5    1    4    4  501    0  0.71221060432E+02  0.50357354323E+01  0.16915394403E+03  0.18365273551E+03  0.41800000000E+01 0.  1.
         -5    1    4    4    0  501 -0.34032369959E+02 -0.20067204749E+02  0.14821698266E+02  0.42403420274E+02  0.41800000000E+01 0.  1.
</event>
<event>
11    1  0.1492545E-008  0.1474505E+03  0.7561462E-02  0.1099513E+00
         22   -1    0    0    0    0  0.00000000000E+00  0.00000000000E+00  0.15490510771E+04  0.15490510771E+04  0.00000000000E+00 0.  1.
         22   -1    0    0    0    0 -0.00000000000E+00 -0.00000000000E+00 -0.93501035519E+03  0.93501035519E+03  0.00000000000E+00 0.  1.
         24    2    1    2    0    0 -0.19066757068E+02 -0.30977485397E+02 -0.81293269298E+03  0.81778406804E+03  0.81166944052E+02 0.  0.
         25    2    1    2    0    0 -0.18577505549E+02 -0.38104208265E+02 -0.80454944032E+02  0.15466677812E+03  0.12510699355E+03 0.  0.
        -24    2    1    2    0    0  0.37644262617E+02  0.69081693662E+02  0.15074283589E+04  0.15116105861E+04  0.80230517280E+02 0.  0.
        -11    1    3    3    0    0  0.12086347754E+02 -0.19765940116E+02 -0.63069406308E+02  0.67190194245E+02  0.00000000000E+00 0.  1.
         12    1    3    3    0    0 -0.31153104822E+02 -0.11211545281E+02 -0.74986328667E+03  0.75059387380E+03  0.00000000000E+00 0. -1.
         13    1    5    5    0    0  0.21737995043E+02  0.59505243411E+01  0.93268815132E+02  0.95953223211E+02  0.00000000000E+00 0. -1.
        -14    1    5    5    0    0  0.15906267574E+02  0.63131169321E+02  0.14141595438E+04  0.14156573629E+04  0.00000000000E+00 0.  1.
          5    1    4    4  501    0  0.42253409174E+02 -0.50800371457E+02 -0.59323178096E+02  0.88897357590E+02  0.41800000000E+01 0.  1.
         -5    1    4    4    0  501 -0.60830914723E+02  0.12696163193E+02 -0.21131765936E+02  0.65769420534E+02  0.41800000000E+01 0.  1.
</event>
<event>
11    1  0.7577197E-009  0.2386949E+03  0.7561462E-02  0.1030100E+00
         22   -1    0    0    0    0  0.00000000000E+00  0.00000000000E+00  0.10658956195E+04  0.10658956195E+04  0.00000000000E+00 0.  1.
         22   -1    0    0    0    0 -0.00000000000E+00 -0.00000000000E+00 -0.12290332521E+04  0.12290332521E+04  0.00000000000E+00 0.  1.
        -24    2    1    2    0    0 -0.95170572268E+02  0.16951272548E+03 -0.74242856679E+03  0.77174899817E+03  0.81267074910E+02 0.  0.
         25    2    1    2    0    0  0.51573632847E+02 -0.22663933938E+03 -0.43075965915E+03  0.50519495612E+03  0.12507129958E+03 0.  0.
         24    2    1    2    0    0  0.43596939421E+02  0.57126613906E+02  0.10100505934E+04  0.10179849174E+04  0.10453204160E+03 0.  0.
        -13    1    5    5    0    0 -0.19085915132E+02  0.60778400832E+02  0.54681087059E+03  0.55050923186E+03  0.00000000000E+00 0.  1.
         14    1    5    5    0    0  0.62682854553E+02 -0.36517869258E+01  0.46323972277E+03  0.46747568553E+03  0.00000000000E+00 0. -1.
         13    1    3    3    0    0 -0.30281544099E+02  0.57855349424E+02 -0.40907376762E+03  0.41425301535E+03  0.00000000000E+00 0. -1.
        -14    1    3    3    0    0 -0.64889028168E+02  0.11165737605E+03 -0.33335479917E+03  0.35749598282E+03  0.00000000000E+00 0.  1.
          5    1    4    4  501    0  0.40784261973E+02 -0.45784092284E+02 -0.21404025575E+03  0.22268866745E+03  0.41800000000E+01 0. -1.
         -5    1    4    4    0  501  0.10789370874E+02 -0.18085524710E+03 -0.21671940341E+03  0.28250628867E+03  0.41800000000E+01 0. -1.
</event>
<event>
11    1  0.7577197E-009  0.1480882E+03  0.7561462E-02  0.1098848E+00
         22   -1    0    0    0    0  0.00000000000E+00  0.00000000000E+00  0.15519010827E+04  0.15519010827E+04  0.00000000000E+00 0.  1.
         22   -1    0    0    0    0 -0.00000000000E+00 -0.00000000000E+00 -0.15190100183E+03  0.15190100183E+03  0.00000000000E+00 0.  1.
        -24    2    1    2    0    0  0.33440778878E+01 -0.68348104775E+02 -0.71322483663E+02  0.12638281176E+03  0.78759584492E+02 0.  0.
         25    2    1    2    0    0  0.56123796908E+02  0.12601925249E+02  0.43082892888E+02  0.14426461407E+03  0.12508978421E+03 0.  0.
         24    2    1    2    0    0 -0.59467874796E+02  0.55746179526E+02  0.14282396717E+04  0.14331546587E+04  0.86137398459E+02 0.  0.
        -11    1    5    5    0    0 -0.64479118140E+02  0.42956132559E+02  0.13955110637E+04  0.13976601572E+04  0.00000000000E+00 0.  1.
         12    1    5    5    0    0  0.50112433441E+01  0.12790046967E+02  0.32728607947E+02  0.35494501538E+02  0.00000000000E+00 0. -1.
         13    1    3    3    0    0 -0.22406492970E+02  0.71775953794E+01 -0.92231398873E+01  0.25271230916E+02  0.00000000000E+00 0. -1.
        -14    1    3    3    0    0  0.25750570858E+02 -0.75525700154E+02 -0.62099343776E+02  0.10111158084E+03  0.00000000000E+00 0.  1.
          5    1    4    4  501    0  0.29715252287E+02 -0.25337045894E+02  0.77230258351E+02  0.86642641453E+02  0.41800000000E+01 0. -1.
         -5    1    4    4    0  501  0.26408544621E+02  0.37938971142E+02 -0.34147365463E+02  0.57621972618E+02  0.41800000000E+01 0. -1.
</event>
<event>
11    1  0.9121583E-009  0.1542008E+03  0.7561462E-02  0.1092662E+00
         22   -1    0    0    0    0  0.00000000000E+00  0.00000000000E+00  0.20489235812E+04  0.20489235812E+04  0.00000000000E+00 0. -1.
         22   -1    0    0    0    0 -0.00000000000E+00 -0.00000000000E+00 -0.79649224470E+03  0.79649224470E+03  0.00000000000E+00 0. -1.
        -24    2    1    2    0    0 -0.49389870232E+02 -0.48728560554E+02 -0.72462579213E+03  0.73282479476E+03  0.84473719556E+02 0.  0.
         25    2    1    2    0    0  0.29923253750E+02 -0.40950235771E+02  0.32278412649E+01  0.13501909989E+03  0.12508962967E+03 0.  0.
         24    2    1    2    0    0  0.19466616482E+02  0.89678796325E+02  0.19738292874E+04  0.19775719313E+04  0.79796315266E+02 0.  0.
        -11    1    5    5    0    0  0.88212224791E+01 -0.14071477683E+02  0.20570982755E+03  0.20637915011E+03  0.00000000000E+00 0.  1.
         12    1    5    5    0    0  0.10645394003E+02  0.10375027401E+03  0.17681194599E+04  0.17711927812E+04  0.00000000000E+00 0. -1.
         11    1    3    3    0    0 -0.20584031840E+02 -0.18279346264E+02 -0.61253441104E+03  0.61315270657E+03  0.00000000000E+00 0. -1.
        -12    1    3    3    0    0 -0.28805838392E+02 -0.30449214290E+02 -0.11209138109E+03  0.11967208819E+03  0.00000000000E+00 0.  1.
          5    1    4    4  501    0  0.61057680881E+02  0.16107264147E+02  0.22384357298E+02  0.67126866488E+02  0.41800000000E+01 0.  1.
         -5    1    4    4    0  501 -0.31134427132E+02 -0.57057499918E+02 -0.19156516033E+02  0.67892233401E+02  0.41800000000E+01 0.  1.
</event>
<event>
11    1  0.7577197E-009  0.1737302E+03  0.7561462E-02  0.1074830E+00
         22   -1    0    0    0    0  0.00000000000E+00  0.00000000000E+00  0.18443656730E+03  0.18443656730E+03  0.00000000000E+00 0. -1.
         22   -1    0    0    0    0 -0.00000000000E+00 -0.00000000000E+00 -0.64379246713E+03  0.64379246713E+03  0.00000000000E+00 0. -1.
         24    2    1    2    0    0  0.42727924135E+02  0.99809047004E+01 -0.48964943898E+03  0.49922592928E+03  0.86860010429E+02 0.  0.
         25    2    1    2    0    0 -0.14087008967E+03 -0.46112817106E+02  0.48021862317E+01  0.19401321135E+03  0.12508913271E+03 0.  0.
        -24    2    1    2    0    0  0.98142165533E+02  0.36131912406E+02  0.25491352917E+02  0.13498989380E+03  0.81455893623E+02 0.  0.
        -11    1    3    3    0    0  0.48614979961E+02  0.97110015753E+01 -0.12419583446E+03  0.13372481118E+03  0.00000000000E+00 0.  1.
         12    1    3    3    0    0 -0.58870558261E+01  0.26990312509E+00 -0.36545360452E+03  0.36550111810E+03  0.00000000000E+00 0. -1.
         11    1    5    5    0    0  0.11004157856E+03  0.26747747413E+02  0.10595489913E+02  0.11374029810E+03  0.00000000000E+00 0. -1.
        -12    1    5    5    0    0 -0.11899413031E+02  0.93841649925E+01  0.14895863004E+02  0.21249595707E+02  0.00000000000E+00 0.  1.
          5    1    4    4  501    0 -0.14041976524E+03  0.25099704308E+01  0.22104865860E+02  0.14223258387E+03  0.41800000000E+01 0. -1.
         -5    1    4    4    0  501 -0.45032443280E+00 -0.48622787537E+02 -0.17302679629E+02  0.51780627481E+02  0.41800000000E+01 0. -1.
</event>
<event>
11    1  0.7577197E-009  0.1323095E+03  0.7561462E-02  0.1116464E+00
         22   -1    0    0    0    0  0.00000000000E+00  0.00000000000E+00  0.46856953657E+03  0.46856953657E+03  0.00000000000E+00 0. -1.
         22   -1    0    0    0    0 -0.00000000000E+00 -0.00000000000E+00 -0.35263679170E+03  0.35263679170E+03  0.00000000000E+00 0. -1.
        -24    2    1    2    0    0 -0.35633739485E+02  0.24272750898E+02 -0.31687940239E+03  0.33054632582E+03  0.83602559951E+02 0.  0.
         25    2    1    2    0    0  0.39568331429E+02 -0.20719311517E+02  0.17084881542E+03  0.21639642761E+03  0.12507259264E+03 0.  0.
         24    2    1    2    0    0 -0.39345919442E+01 -0.35534393815E+01  0.26196333183E+03  0.27426357483E+03  0.81040812611E+02 0.  0.
        -11    1    5    5    0    0 -0.52614282253E+00 -0.38560525248E+02  0.78523318156E+02  0.87482012025E+02  0.00000000000E+00 0.  1.
         12    1    5    5    0    0 -0.34084491217E+01  0.35007085867E+02  0.18344001368E+03  0.18678156281E+03  0.00000000000E+00 0. -1.
         13    1    3    3    0    0 -0.47098031709E+02  0.46781350167E+02 -0.25943781925E+03  0.26779600701E+03  0.00000000000E+00 0. -1.
        -14    1    3    3    0    0  0.11464292224E+02 -0.22508599269E+02 -0.57441583136E+02  0.62750318808E+02  0.00000000000E+00 0.  1.
          5    1    4    4  501    0 -0.20941731739E+02 -0.37825419974E+02  0.13930978708E+03  0.14592466447E+03  0.41800000000E+01 0. -1.
         -5    1    4    4    0  501  0.60510063168E+02  0.17106108457E+02  0.31539028341E+02  0.70471763139E+02  0.41800000000E+01 0. -1.
</event>
<event>
11    1  0.8276627E-009  0.1628818E+03  0.7561462E-02  0.1084398E+00
         22   -1    0    0    0    0  0.00000000000E+00  0.00000000000E+00  0.23224082853E+03  0.23224082853E+03  0.00000000000E+00 0.  1.
         22   -1    0    0    0    0 -0.00000000000E+00 -0.00000000000E+00 -0.12124477879E+04  0.12124477879E+04  0.00000000000E+00 0.  1.
         24    2    1    2    0    0 -0.55631566526E+02  0.14320725016E+02 -0.10143717977E+04  0.10194256830E+04  0.83538164475E+02 0.  0.
         25    2    1    2    0    0  0.40377823616E+02  0.91539649406E+02 -0.13254500201E+03  0.20790978269E+03  0.12509366142E+03 0.  0.
        -24    2    1    2    0    0  0.15253742910E+02 -0.10586037442E+03  0.16670984039E+03  0.21735315064E+03  0.89504891848E+02 0.  0.
        -11    1    3    3    0    0 -0.70385330614E+02 -0.65133277603E+01 -0.57772681460E+03  0.58203504235E+03  0.00000000000E+00 0.  1.
         12    1    3    3    0    0  0.14753764088E+02  0.20834052776E+02 -0.43664498310E+03  0.43739064070E+03  0.00000000000E+00 0. -1.
         13    1    5    5    0    0  0.33000329404E+01  0.27668727816E+01 -0.92588042245E+01  0.10211329887E+02  0.00000000000E+00 0. -1.
        -14    1    5    5    0    0  0.11953709970E+02 -0.10862724720E+03  0.17596864462E+03  0.20714182076E+03  0.00000000000E+00 0.  1.
          5    1    4    4  501    0  0.13757770394E+02  0.21632573982E+02 -0.13039635358E+03  0.13295836164E+03  0.41800000000E+01 0. -1.
         -5    1    4    4    0  501  0.26620053222E+02  0.69907075424E+02 -0.21486484332E+01  0.74951421054E+02  0.41800000000E+01 0. -1.
</event>
<event>
11    1  0.7577197E-009  0.1339301E+03  0.7561462E-02  0.1114532E+00
         22   -1    0    0    0    0  0.00000000000E+00  0.00000000000E+00  0.32340528499E+03  0.32340528499E+03  0.00000000000E+00 0. -1.
         22   -1    0    0    0    0 -0.00000000000E+00 -0.00000000000E+00 -0.44821696191E+03  0.44821696191E+03  0.00000000000E+00 0. -1.
         24    2    1    2    0    0 -0.65317452958E+01  0.41801578536E+02 -0.24547560191E+03  0.26180203251E+03  0.80572932371E+02 0.  0.
         25    2    1    2    0    0  0.20953085542E+02 -0.63086468011E+02 -0.16180850861E+03  0.21505812143E+03  0.12509623452E+03 0.  0.
        -24    2    1    2    0    0 -0.14421340246E+02  0.21284889476E+02  0.28247243359E+03  0.29476209296E+03  0.80205948231E+02 0.  0.
        -11    1    3    3    0    0 -0.32664265829E+02  0.19493671003E+02 -0.47436524437E+02  0.60804451498E+02  0.00000000000E+00 0.  1.
         12    1    3    3    0    0  0.26132520534E+02  0.22307907533E+02 -0.19803907747E+03  0.20099758102E+03  0.00000000000E+00 0. -1.
         13    1    5    5    0    0 -0.30924524175E+02  0.25559628845E+01  0.25781220004E+03  0.25967285116E+03  0.00000000000E+00 0. -1.
        -14    1    5    5    0    0  0.16503183928E+02  0.18728926591E+02  0.24660233555E+02  0.35089241799E+02  0.00000000000E+00 0.  1.
          5    1    4    4  501    0  0.42355752411E+02 -0.62146115773E+01 -0.14589610554E+03  0.15210449425E+03  0.41800000000E+01 0.  1.
         -5    1    4    4    0  501 -0.21402666869E+02 -0.56871856434E+02 -0.15912403077E+02  0.62953627179E+02  0.41800000000E+01 0.  1.
</event>
<event>
11    1  0.7577197E-009  0.2103551E+03  0.7561462E-02  0.1047433E+00
         22   -1    0    0    0    0  0.00000000000E+00  0.00000000000E+00  0.65236635861E+03  0.65236635861E+03  0.00000000000E+00 0.  1.
         22   -1    0    0    0    0 -0.00000000000E+00 -0.00000000000E+00 -0.17558812993E+03  0.17558812993E+03  0.00000000000E+00 0. -1.
        -24    2    1    2    0    0 -0.12219426465E+03 -0.94066049122E+02 -0.25886827656E+02  0.17872070376E+03  0.86551153622E+02 0.  0.
         25    2    1    2    0    0  0.13951802060E+03  0.18666193413E+03  0.23650095998E+03  0.35480754494E+03  0.12509090354E+03 0.  0.
         24    2    1    2    0    0 -0.17323755947E+02 -0.92595885004E+02  0.26616409635E+03  0.29442623984E+03  0.83482777154E+02 0.  0.
        -13    1    5    5    0    0  0.15662487163E+02 -0.23776146481E+02  0.16640541853E+03  0.16882352313E+03  0.00000000000E+00 0.  1.
         14    1    5    5    0    0 -0.32986243110E+02 -0.68819738522E+02  0.99758677817E+02  0.12560271671E+03  0.00000000000E+00 0. -1.
         13    1    3    3    0    0 -0.70045648380E+02 -0.92467596685E+02  0.83730373818E+01  0.11630458739E+03  0.00000000000E+00 0. -1.
        -14    1    3    3    0    0 -0.52148616274E+02 -0.15984524376E+01 -0.34259865038E+02  0.62416116363E+02  0.00000000000E+00 0.  1.
          5    1    4    4  501    0  0.13754894673E+02 -0.11585513399E+02 -0.37786170539E+01  0.18845996791E+02  0.41800000000E+01 0. -1.
         -5    1    4    4    0  501  0.12576312593E+03  0.19824744753E+03  0.24027957704E+03  0.33596154815E+03  0.41800000000E+01 0. -1.
</event>
<event>
11    1  0.7577197E-009  0.1360048E+03  0.7561462E-02  0.1112104E+00
         22   -1    0    0    0    0  0.00000000000E+00  0.00000000000E+00  0.14542255021E+04  0.14542255021E+04  0.00000000000E+00 0. -1.
         22   -1    0    0    0    0 -0.00000000000E+00 -0.00000000000E+00 -0.36601413051E+03  0.36601413051E+03  0.00000000000E+00 0.  1.
        -24    2    1    2    0    0  0.46847657322E+02 -0.41625637473E+02 -0.23687900479E+03  0.25686200104E+03  0.77065089242E+02 0.  0.
         25    2    1    2    0    0 -0.32623852885E+02 -0.89021140081E+01 -0.81771371038E+02  0.15322842010E+03  0.12509527647E+03 0.  0.
         24    2    1    2    0    0 -0.14223804438E+02  0.50527751481E+02  0.14068617474E+04  0.14101492115E+04  0.80656382045E+02 0.  0.
        -13    1    5    5    0    0 -0.33287250321E+02 -0.61928793724E+01  0.67336614863E+03  0.67421685154E+03  0.00000000000E+00 0.  1.
         14    1    5    5    0    0  0.19063445883E+02  0.56720630854E+02  0.73349559882E+03  0.73593235995E+03  0.00000000000E+00 0. -1.
         11    1    3    3    0    0 -0.13305759113E+02  0.41015350907E+01 -0.85125426251E+01  0.16319595510E+02  0.00000000000E+00 0. -1.
        -12    1    3    3    0    0  0.60153416436E+02 -0.45727172564E+02 -0.22836646216E+03  0.24054240553E+03  0.00000000000E+00 0.  1.
          5    1    4    4  501    0 -0.38468980396E+02 -0.63521004636E+02 -0.43750758349E+02  0.86292419938E+02  0.41800000000E+01 0. -1.
         -5    1    4    4    0  501  0.58451275117E+01  0.54618890628E+02 -0.38020612689E+02  0.66936000167E+02  0.41800000000E+01 0. -1.
</event>
<event>
11    1  0.7577197E-009  0.1417210E+03  0.7561462E-02  0.1105652E+00
         22   -1    0    0    0    0  0.00000000000E+00  0.00000000000E+00  0.26362491970E+04  0.26362491970E+04  0.00000000000E+00 0.  1.
         22   -1    0    0    0    0 -0.00000000000E+00 -0.00000000000E+00 -0.38087364917E+03  0.38087364917E+03  0.00000000000E+00 0. -1.
         24    2    1    2    0    0  0.19523860822E+02 -0.70311772003E+02 -0.25823312216E+03  0.27985887728E+03  0.79446330243E+02 0.  0.
         25    2    1    2    0    0  0.26955123692E+02  0.48774075331E+02 -0.68725451317E+02  0.15318912414E+03  0.12505291271E+03 0.  0.
        -24    2    1    2    0    0 -0.46478984514E+02  0.21537696673E+02  0.25823341213E+04  0.25840748447E+04  0.79806771872E+02 0.  0.
        -11    1    3    3    0    0 -0.45289991719E+01  0.70717495352E+01  0.80986036478E+00  0.84366669247E+01  0.00000000000E+00 0.  1.
         12    1    3    3    0    0  0.24052859994E+02 -0.77383521539E+02 -0.25904298252E+03  0.27142221035E+03  0.00000000000E+00 0. -1.
         13    1    5    5    0    0 -0.23387324820E+02  0.38262144211E+02  0.65655318340E+03  0.65808285290E+03  0.00000000000E+00 0. -1.
        -14    1    5    5    0    0 -0.23091659694E+02 -0.16724447538E+02  0.19257809379E+04  0.19259919918E+04  0.00000000000E+00 0.  1.
          5    1    4    4  501    0 -0.28073049745E+02  0.19847659192E+02  0.23524845766E+02  0.41867845247E+02  0.41800000000E+01 0. -1.
         -5    1    4    4    0  501  0.55028173437E+02  0.28926416139E+02 -0.92250297083E+02  0.11132127889E+03  0.41800000000E+01 0. -1.
</event>
<event>
11    1  0.7577197E-009  0.1454597E+03  0.7561462E-02  0.1101610E+00
         22   -1    0    0    0    0  0.00000000000E+00  0.00000000000E+00  0.68149552824E+03  0.68149552824E+03  0.00000000000E+00 0. -1.
         22   -1    0    0    0    0 -0.00000000000E+00 -0.00000000000E+00 -0.20525775379E+04  0.20525775379E+04  0.00000000000E+00 0.  1.
         24    2    1    2    0    0  0.27912603406E+02  0.69647585932E+02 -0.19982108433E+04  0.20012558243E+04  0.80922186015E+02 0.  0.
         25    2    1    2    0    0 -0.24403818073E+02 -0.22215325710E+02  0.36056147342E+02  0.13430004212E+03  0.12508952202E+03 0.  0.
        -24    2    1    2    0    0 -0.35087853330E+01 -0.47432260222E+02  0.59107268631E+03  0.59851719975E+03  0.81202136733E+02 0.  0.
        -13    1    3    3    0    0  0.11277284766E+02  0.57769041477E+02 -0.19013865309E+04  0.19022973425E+04  0.00000000000E+00 0.  1.
         14    1    3    3    0    0  0.16635318640E+02  0.11878544455E+02 -0.96824312368E+02  0.98958481750E+02  0.00000000000E+00 0. -1.
         13    1    5    5    0    0  0.33914966595E+02 -0.16826585447E+02  0.38465334750E+03  0.38651203951E+03  0.00000000000E+00 0. -1.
        -14    1    5    5    0    0 -0.37423751928E+02 -0.30605674775E+02  0.20641933881E+03  0.21200516025E+03  0.00000000000E+00 0.  1.
          5    1    4    4  501    0 -0.36698856932E+02  0.45973786345E+02  0.83557651528E+01  0.59562457490E+02  0.41800000000E+01 0.  1.
         -5    1    4    4    0  501  0.12295038859E+02 -0.68189112055E+02  0.27700382189E+02  0.74737584633E+02  0.41800000000E+01 0.  1.
</event>
<event>
11    1  0.7577197E-009  0.1444555E+03  0.7561462E-02  0.1102683E+00
         22   -1    0    0    0    0  0.00000000000E+00  0.00000000000E+00  0.46187131469E+03  0.46187131469E+03  0.00000000000E+00 0.  1.
         22   -1    0    0    0    0 -0.00000000000E+00 -0.00000000000E+00 -0.26551812199E+03  0.26551812199E+03  0.00000000000E+00 0. -1.
         24    2    1    2    0    0 -0.19729877719E+02  0.99649881530E+00 -0.21108829100E+03  0.22608847080E+03  0.78533234673E+02 0.  0.
         25    2    1    2    0    0 -0.26934914625E+02 -0.58983385643E+02  0.93436814819E+02  0.16906441637E+03  0.12509120317E+03 0.  0.
        -24    2    1    2    0    0  0.46664792344E+02  0.57986886828E+02  0.31400466888E+03  0.33223654952E+03  0.79007030508E+02 0.  0.
        -13    1    3    3    0    0 -0.41707907627E+02 -0.17925211469E+01 -0.58316812613E+02  0.71718988588E+02  0.00000000000E+00 0.  1.
         14    1    3    3    0    0  0.21978029908E+02  0.27890199622E+01 -0.15277147838E+03  0.15436948221E+03  0.00000000000E+00 0. -1.
         13    1    5    5    0    0  0.84594117658E+01 -0.36515242167E+01 -0.74196427747E+00  0.92436890643E+01  0.00000000000E+00 0. -1.
        -14    1    5    5    0    0  0.38205380578E+02  0.61638411045E+02  0.31474663315E+03  0.32299286045E+03  0.00000000000E+00 0.  1.
          5    1    4    4  501    0 -0.60976925549E+01  0.22562333591E+02  0.80350289488E+02  0.83784737109E+02  0.41800000000E+01 0.  1.
         -5    1    4    4    0  501 -0.20837222070E+02 -0.81545719235E+02  0.13086525331E+02  0.85279679258E+02  0.41800000000E+01 0.  1.
</event>
<event>
11    1  0.7577197E-009  0.1510217E+03  0.7561462E-02  0.1095839E+00
         22   -1    0    0    0    0  0.00000000000E+00  0.00000000000E+00  0.13989201011E+03  0.13989201011E+03  0.00000000000E+00 0. -1.
         22   -1    0    0    0    0 -0.00000000000E+00 -0.00000000000E+00 -0.23504120305E+04  0.23504120305E+04  0.00000000000E+00 0.  1.
         24    2    1    2    0    0  0.50983678537E+02 -0.51953065081E+02 -0.18634523849E+04  0.18666323485E+04  0.81012821409E+02 0.  0.
         25    2    1    2    0    0 -0.10185399445E+03 -0.16393340639E+02 -0.44023536943E+03  0.46914658924E+03  0.12509342069E+03 0.  0.
        -24    2    1    2    0    0  0.50870315909E+02  0.68346405720E+02  0.93167733959E+02  0.15452510284E+03  0.89099722459E+02 0.  0.
        -13    1    3    3    0    0  0.64903996024E+02 -0.62878850473E+02 -0.14620518362E+04  0.14648419199E+04  0.00000000000E+00 0.  1.
         14    1    3    3    0    0 -0.13920317486E+02  0.10925785392E+02 -0.40140054865E+03  0.40179042856E+03  0.00000000000E+00 0. -1.
         13    1    5    5    0    0 -0.17365159485E+02  0.26292790786E+02  0.60018921946E+02  0.67787392654E+02  0.00000000000E+00 0. -1.
        -14    1    5    5    0    0  0.68235475393E+02  0.42053614934E+02  0.33148812014E+02  0.86737710190E+02  0.00000000000E+00 0.  1.
          5    1    4    4  501    0 -0.52564055602E+02 -0.10402628763E+02 -0.40394197490E+03  0.40750188479E+03  0.41800000000E+01 0.  1.
         -5    1    4    4    0  501 -0.49289938844E+02 -0.59907118763E+01 -0.36293394532E+02  0.61644704450E+02  0.41800000000E+01 0.  1.
</event>
<event>
11    1  0.7577197E-009  0.1383848E+03  0.7561462E-02  0.1109376E+00
         22   -1    0    0    0    0  0.00000000000E+00  0.00000000000E+00  0.54837828426E+03  0.54837828426E+03  0.00000000000E+00 0.  1.
         22   -1    0    0    0    0 -0.00000000000E+00 -0.00000000000E+00 -0.52959463595E+03  0.52959463595E+03  0.00000000000E+00 0. -1.
        -24    2    1    2    0    0  0.46401971950E+01  0.65028290136E+02 -0.42877886784E+03  0.44141540807E+03  0.82134250041E+02 0.  0.
         25    2    1    2    0    0 -0.96640071469E+01 -0.16294768218E+02 -0.46010266267E+02  0.13462469486E+03  0.12509177175E+03 0.  0.
         24    2    1    2    0    0  0.50238099519E+01 -0.48733521918E+02  0.49357278242E+03  0.50193281727E+03  0.76956264745E+02 0.  0.
        -11    1    5    5    0    0  0.24531533777E+02 -0.46056501437E+02  0.46046333441E+03  0.46341070317E+03  0.00000000000E+00 0.  1.
         12    1    5    5    0    0 -0.19507723825E+02 -0.26770204809E+01  0.33109448005E+02  0.38522114099E+02  0.00000000000E+00 0. -1.
         13    1    3    3    0    0  0.39445829076E+02  0.56684299414E+02 -0.28564070789E+03  0.29387020475E+03  0.00000000000E+00 0. -1.
        -14    1    3    3    0    0 -0.34805631881E+02  0.83439907214E+01 -0.14313815995E+03  0.14754520333E+03  0.00000000000E+00 0.  1.
          5    1    4    4  501    0 -0.49208140494E+02  0.28661134005E+02  0.29403063020E+01  0.57175339915E+02  0.41800000000E+01 0. -1.
         -5    1    4    4    0  501  0.39544133347E+02 -0.44955902223E+02 -0.48950572569E+02  0.77449354947E+02  0.41800000000E+01 0. -1.
</event>
<event>
11    1  0.7577197E-009  0.1816836E+03  0.7561462E-02  0.1068289E+00
         22   -1    0    0    0    0  0.00000000000E+00  0.00000000000E+00  0.60146606625E+03  0.60146606625E+03  0.00000000000E+00 0. -1.
         22   -1    0    0    0    0 -0.00000000000E+00 -0.00000000000E+00 -0.21097794305E+03  0.21097794305E+03  0.00000000000E+00 0. -1.
         24    2    1    2    0    0  0.19149145187E+02 -0.49901310359E+02 -0.12715263927E+03  0.15904736963E+03  0.79192433824E+02 0.  0.
         25    2    1    2    0    0 -0.14258418952E+03  0.73516563883E+02  0.13760744766E+03  0.24559569867E+03  0.12508597558E+03 0.  0.
        -24    2    1    2    0    0  0.12343504433E+03 -0.23615253524E+02  0.38003331480E+03  0.40780094100E+03  0.77989722077E+02 0.  0.
        -11    1    3    3    0    0 -0.26468293436E+02 -0.45620715746E-01 -0.23990797313E+02  0.35722975721E+02  0.00000000000E+00 0.  1.
         12    1    3    3    0    0  0.45617438623E+02 -0.49855689644E+02 -0.10316184196E+03  0.12332439390E+03  0.00000000000E+00 0. -1.
         13    1    5    5    0    0  0.36781510296E+02 -0.35248371335E+02  0.21594821046E+03  0.22187599416E+03  0.00000000000E+00 0. -1.
        -14    1    5    5    0    0  0.86653534036E+02  0.11633117811E+02  0.16408510434E+03  0.18592494684E+03  0.00000000000E+00 0.  1.
          5    1    4    4  501    0 -0.12349525617E+03  0.47703128910E+01  0.11928573498E+03  0.17181499688E+03  0.41800000000E+01 0. -1.
         -5    1    4    4    0  501 -0.19088933348E+02  0.68746250992E+02  0.18321712683E+02  0.73780701796E+02  0.41800000000E+01 0. -1.
</event>
<event>
11    1  0.7577197E-009  0.1334570E+03  0.7561462E-02  0.1115093E+00
         22   -1    0    0    0    0  0.00000000000E+00  0.00000000000E+00  0.11377800123E+04  0.11377800123E+04  0.00000000000E+00 0. -1.
         22   -1    0    0    0    0 -0.00000000000E+00 -0.00000000000E+00 -0.37622365248E+03  0.37622365248E+03  0.00000000000E+00 0.  1.
         24    2    1    2    0    0 -0.76077948146E+01  0.54611205819E+01 -0.35215568762E+03  0.36145700024E+03  0.80931034339E+02 0.  0.
         25    2    1    2    0    0  0.77943465167E+01  0.41725078930E+02  0.24025084041E+03  0.27417119003E+03  0.12509053151E+03 0.  0.
        -24    2    1    2    0    0 -0.18655170212E+00 -0.47186199512E+02  0.87346120702E+03  0.87837547452E+03  0.79890060992E+02 0.  0.
        -11    1    3    3    0    0  0.18521222399E+01  0.17383543409E+02 -0.34350736078E+03  0.34395192229E+03  0.00000000000E+00 0.  1.
         12    1    3    3    0    0 -0.94599170545E+01 -0.11922422827E+02 -0.86483268347E+01  0.17505077943E+02  0.00000000000E+00 0. -1.
         11    1    5    5    0    0 -0.22836772932E+02 -0.56638115112E+02  0.75101125260E+03  0.75349007679E+03  0.00000000000E+00 0. -1.
        -12    1    5    5    0    0  0.22650221229E+02  0.94519156001E+01  0.12244995442E+03  0.12488539773E+03  0.00000000000E+00 0.  1.
          5    1    4    4  501    0 -0.53426567951E+02  0.35409035927E+02  0.16375282940E+03  0.17589957227E+03  0.41800000000E+01 0.  1.
         -5    1    4    4    0  501  0.61220914467E+02  0.63160430037E+01  0.76498011008E+02  0.98271617752E+02  0.41800000000E+01 0.  1.
</event>
<event>
11    1  0.7577197E-009  0.1938803E+03  0.7561462E-02  0.1058938E+00
         22   -1    0    0    0    0  0.00000000000E+00  0.00000000000E+00  0.93405946327E+03  0.93405946327E+03  0.00000000000E+00 0.  1.
         22   -1    0    0    0    0 -0.00000000000E+00 -0.00000000000E+00 -0.36009914545E+03  0.36009914545E+03  0.00000000000E+00 0.  1.
        -24    2    1    2    0    0  0.85599589717E+01  0.40820289973E+02 -0.23041792851E+03  0.24577877220E+03  0.74667356416E+02 0.  0.
         25    2    1    2    0    0  0.13983330514E+03 -0.28408949232E+02 -0.34581690339E+02  0.19288373329E+03  0.12509124526E+03 0.  0.
         24    2    1    2    0    0 -0.14839326411E+03 -0.12411340741E+02  0.83895993668E+03  0.85549610323E+03  0.76453940869E+02 0.  0.
        -13    1    5    5    0    0 -0.83940932380E+02 -0.56298653665E+01  0.65649454778E+03  0.66186317830E+03  0.00000000000E+00 0.  1.
         14    1    5    5    0    0 -0.64452331728E+02 -0.67814753743E+01  0.18246538889E+03  0.19363292493E+03  0.00000000000E+00 0. -1.
         11    1    3    3    0    0  0.15982953938E+02  0.31166403319E+01 -0.18736265819E+03  0.18806896062E+03  0.00000000000E+00 0. -1.
        -12    1    3    3    0    0 -0.74229949666E+01  0.37703649641E+02 -0.43055270319E+02  0.57709811582E+02  0.00000000000E+00 0.  1.
          5    1    4    4  501    0  0.14380534628E+03  0.41063776914E+01 -0.54980478352E+02  0.15406870336E+03  0.41800000000E+01 0. -1.
         -5    1    4    4    0  501 -0.39720411435E+01 -0.32515326924E+02  0.20398788014E+02  0.38815029927E+02  0.41800000000E+01 0. -1.
</event>
<event>
11    1  0.7577197E-009  0.1993758E+03  0.7561462E-02  0.1054966E+00
         22   -1    0    0    0    0  0.00000000000E+00  0.00000000000E+00  0.46941271165E+03  0.46941271165E+03  0.00000000000E+00 0. -1.
         22   -1    0    0    0    0 -0.00000000000E+00 -0.00000000000E+00 -0.37238449186E+04  0.37238449186E+04  0.00000000000E+00 0. -1.
         24    2    1    2    0    0 -0.14581934656E+03 -0.52328715984E+02 -0.36463120217E+04  0.36505413304E+04  0.82819494036E+02 0.  0.
         25    2    1    2    0    0  0.16661749780E+03  0.74633342210E+02  0.11043869442E+03  0.24734409672E+03  0.12510343966E+03 0.  0.
        -24    2    1    2    0    0 -0.20798151245E+02 -0.22304626226E+02  0.28144112035E+03  0.29537220316E+03  0.84294571188E+02 0.  0.
        -11    1    3    3    0    0 -0.18869023207E+02 -0.42141735073E+02 -0.73896126871E+03  0.74040240580E+03  0.00000000000E+00 0.  1.
         12    1    3    3    0    0 -0.12695032335E+03 -0.10186980911E+02 -0.29073507530E+04  0.29101389246E+04  0.00000000000E+00 0. -1.
         13    1    5    5    0    0  0.22997432629E+01 -0.39650910036E+02  0.24809689837E+03  0.25125595409E+03  0.00000000000E+00 0. -1.
        -14    1    5    5    0    0 -0.23097894508E+02  0.17346283811E+02  0.33344221980E+02  0.44116249072E+02  0.00000000000E+00 0.  1.
          5    1    4    4  501    0  0.76579010319E+02  0.92076848850E+02  0.26023929671E+02  0.12262629502E+03  0.41800000000E+01 0.  1.
         -5    1    4    4    0  501  0.90038487484E+02 -0.17443506640E+02  0.84414764753E+02  0.12471780170E+03  0.41800000000E+01 0.  1.
</event>
<event>
11    1  0.7577197E-009  0.1359742E+03  0.7561462E-02  0.1112139E+00
         22   -1    0    0    0    0  0.00000000000E+00  0.00000000000E+00  0.74970620780E+03  0.74970620780E+03  0.00000000000E+00 0.  1.
         22   -1    0    0    0    0 -0.00000000000E+00 -0.00000000000E+00 -0.99738673298E+02  0.99738673298E+02  0.00000000000E+00 0. -1.
        -24    2    1    2    0    0 -0.29622817177E+02 -0.41719315257E+02 -0.20335773475E+02  0.98264566876E+02  0.81390225810E+02 0.  0.
         25    2    1    2    0    0  0.49454925033E+02  0.38083960574E+02  0.93207947928E+02  0.16802714830E+03  0.12509685586E+03 0.  0.
         24    2    1    2    0    0 -0.19832107856E+02  0.36353546836E+01  0.57709536005E+03  0.58315316592E+03  0.81375868837E+02 0.  0.
        -13    1    5    5    0    0 -0.10555603259E+02  0.21573456461E+02  0.54296371040E+03  0.54349464173E+03  0.00000000000E+00 0.  1.
         14    1    5    5    0    0 -0.92765045963E+01 -0.17938101777E+02  0.34131649650E+02  0.39658524188E+02  0.00000000000E+00 0. -1.
         11    1    3    3    0    0 -0.71237613908E+01 -0.57788081036E+02 -0.33998607153E+02  0.67424888391E+02  0.00000000000E+00 0. -1.
        -12    1    3    3    0    0 -0.22499055786E+02  0.16068765779E+02  0.13662833678E+02  0.30839678485E+02  0.00000000000E+00 0.  1.
          5    1    4    4  501    0 -0.41736657490E+02  0.20599375438E+02  0.27826257023E+02  0.54388011793E+02  0.41800000000E+01 0. -1.
         -5    1    4    4    0  501  0.91191582523E+02  0.17484585136E+02  0.65381690905E+02  0.11363913651E+03  0.41800000000E+01 0. -1.
</event>
<event>
11    1  0.8240391E-009  0.1429627E+03  0.7561462E-02  0.1104294E+00
         22   -1    0    0    0    0  0.00000000000E+00  0.00000000000E+00  0.77275216324E+03  0.77275216324E+03  0.00000000000E+00 0. -1.
         22   -1    0    0    0    0 -0.00000000000E+00 -0.00000000000E+00 -0.14212157288E+04  0.14212157288E+04  0.00000000000E+00 0. -1.
         24    2    1    2    0    0 -0.17685923873E+02  0.53362361146E+01 -0.12349132141E+04  0.12377363200E+04  0.81481803902E+02 0.  0.
         25    2    1    2    0    0  0.21355092138E+01 -0.72829398507E+02 -0.15218482742E+03  0.21001538293E+03  0.12505022065E+03 0.  0.
        -24    2    1    2    0    0  0.15550414659E+02  0.67493162393E+02  0.73863447597E+03  0.74621618902E+03  0.80377666687E+02 0.  0.
        -11    1    3    3    0    0 -0.14123812866E+02 -0.26546532795E+02 -0.19292302689E+03  0.19525238743E+03  0.00000000000E+00 0.  1.
         12    1    3    3    0    0 -0.35621110068E+01  0.31882768910E+02 -0.10419901872E+04  0.10424839326E+04  0.00000000000E+00 0. -1.
         13    1    5    5    0    0  0.26023787618E+02  0.55366780212E+02  0.71529193177E+03  0.71790338175E+03  0.00000000000E+00 0. -1.
        -14    1    5    5    0    0 -0.10473372960E+02  0.12126382181E+02  0.23342544204E+02  0.28312807276E+02  0.00000000000E+00 0.  1.
          5    1    4    4  501    0  0.62327505908E+02 -0.47168857252E+02 -0.94287120906E+02  0.12254449256E+03  0.41800000000E+01 0.  1.
         -5    1    4    4    0  501 -0.60191996695E+02 -0.25660541255E+02 -0.57897706515E+02  0.87470890377E+02  0.41800000000E+01 0.  1.
</event>
<event>
11    1  0.7577197E-009  0.1843416E+03  0.7561462E-02  0.1066184E+00
         22   -1    0    0    0    0  0.00000000000E+00  0.00000000000E+00  0.36610315725E+03  0.36610315725E+03  0.00000000000E+00 0. -1.
         22   -1    0    0    0    0 -0.00000000000E+00 -0.00000000000E+00 -0.37556485976E+03  0.37556485976E+03  0.00000000000E+00 0. -1.
        -24    2    1    2    0    0  0.53411000303E+02  0.39903147839E+02 -0.10857185147E+03  0.15063617849E+03  0.80364265555E+02 0.  0.
         25    2    1    2    0    0 -0.18376472904E+03 -0.23924206679E+02 -0.16988259328E+03  0.28079258300E+03  0.12507012379E+03 0.  0.
         24    2    1    2    0    0  0.13035372873E+03 -0.15978941160E+02  0.26899274224E+03  0.31023925552E+03  0.81509994065E+02 0.  0.
        -11    1    5    5    0    0  0.19300691302E+02 -0.14006688505E+02  0.57606028064E+01  0.24533417053E+02  0.00000000000E+00 0.  1.
         12    1    5    5    0    0  0.11105303743E+03 -0.19722526550E+01  0.26323213943E+03  0.28570583847E+03  0.00000000000E+00 0. -1.
         13    1    3    3    0    0  0.42358380874E+02  0.64413678384E+02 -0.86326484503E+02  0.11573943287E+03  0.00000000000E+00 0. -1.
        -14    1    3    3    0    0  0.11052619429E+02 -0.24510530545E+02 -0.22245366963E+02  0.34896745624E+02  0.00000000000E+00 0.  1.
          5    1    4    4  501    0 -0.11444508564E+03 -0.70003700236E+02 -0.72275437993E+02  0.15244476708E+03  0.41800000000E+01 0.  1.
         -5    1    4    4    0  501 -0.69319643398E+02  0.46079493558E+02 -0.97607155284E+02  0.12834781591E+03  0.41800000000E+01 0.  1.
</event>
<event>
11    1  0.7577197E-009  0.1531224E+03  0.7561462E-02  0.1093730E+00
         22   -1    0    0    0    0  0.00000000000E+00  0.00000000000E+00  0.23441851204E+04  0.23441851204E+04  0.00000000000E+00 0.  1.
         22   -1    0    0    0    0 -0.00000000000E+00 -0.00000000000E+00 -0.22064609037E+03  0.22064609037E+03  0.00000000000E+00 0.  1.
         24    2    1    2    0    0 -0.47655217997E+02 -0.73690317543E+02 -0.19296149429E+03  0.22753279378E+03  0.82678602214E+02 0.  0.
         25    2    1    2    0    0  0.51731415443E+02  0.10111267313E+03  0.76655145012E+03  0.78495177938E+03  0.12509299844E+03 0.  0.
        -24    2    1    2    0    0 -0.40761974454E+01 -0.27422355588E+02  0.15499490742E+04  0.15523466376E+04  0.81666086767E+02 0.  0.
        -13    1    3    3    0    0 -0.41712837423E+02 -0.67452047716E+02 -0.20079418119E+03  0.21588895930E+03  0.00000000000E+00 0.  1.
         14    1    3    3    0    0 -0.59423805746E+01 -0.62382698263E+01  0.78326869005E+01  0.11643834480E+02  0.00000000000E+00 0. -1.
         11    1    5    5    0    0  0.18765311417E+02 -0.78807631477E+01  0.13497430914E+04  0.13498965353E+04  0.00000000000E+00 0. -1.
        -12    1    5    5    0    0 -0.22841508862E+02 -0.19541592440E+02  0.20020598282E+03  0.20245010229E+03  0.00000000000E+00 0.  1.
          5    1    4    4  501    0 -0.36038981353E+02  0.13264526953E+02  0.10608205797E+03  0.11289655121E+03  0.41800000000E+01 0. -1.
         -5    1    4    4    0  501  0.87770396796E+02  0.87848146178E+02  0.66046939215E+03  0.67205522816E+03  0.41800000000E+01 0. -1.
</event>
<event>
11    1  0.7577197E-009  0.1816476E+03  0.7561462E-02  0.1068318E+00
         22   -1    0    0    0    0  0.00000000000E+00  0.00000000000E+00  0.78395947049E+03  0.78395947049E+03  0.00000000000E+00 0.  1.
         22   -1    0    0    0    0 -0.00000000000E+00 -0.00000000000E+00 -0.93479333146E+02  0.93479333146E+02  0.00000000000E+00 0. -1.
         24    2    1    2    0    0 -0.27799755654E+02  0.13498955633E+03  0.22357078190E+02  0.16065580296E+03  0.79469751154E+02 0.  0.
         25    2    1    2    0    0  0.11809843647E+02 -0.10658474863E+03  0.35422804566E+03  0.39067206476E+03  0.12508945920E+03 0.  0.
        -24    2    1    2    0    0  0.15989912007E+02 -0.28404807696E+02  0.31389501349E+03  0.32611093592E+03  0.82193385631E+02 0.  0.
        -11    1    3    3    0    0  0.26072238525E+02  0.27216675566E+02 -0.19542735790E+01  0.37740273393E+02  0.00000000000E+00 0.  1.
         12    1    3    3    0    0 -0.53871994179E+02  0.10777288076E+03  0.24311351769E+02  0.12291552957E+03  0.00000000000E+00 0. -1.
         13    1    5    5    0    0  0.16929966238E+02 -0.23222122183E+01  0.75938207719E+01  0.18699800542E+02  0.00000000000E+00 0. -1.
        -14    1    5    5    0    0 -0.94005423157E+00 -0.26082595478E+02  0.30630119272E+03  0.30741113537E+03  0.00000000000E+00 0.  1.
          5    1    4    4  501    0  0.32083528769E+02 -0.27069343419E+02  0.26899765292E+03  0.27228535004E+03  0.41800000000E+01 0. -1.
         -5    1    4    4    0  501 -0.20273685122E+02 -0.79515405211E+02  0.85230392739E+02  0.11838671471E+03  0.41800000000E+01 0. -1.
</event>
<event>
11    1  0.7577197E-009  0.1496506E+03  0.7561462E-02  0.1097236E+00
         22   -1    0    0    0    0  0.00000000000E+00  0.00000000000E+00  0.30475641373E+03  0.30475641373E+03  0.00000000000E+00 0.  1.
         22   -1    0    0    0    0 -0.00000000000E+00 -0.00000000000E+00 -0.59934479494E+03  0.59934479494E+03  0.00000000000E+00 0.  1.
        -24    2    1    2    0    0 -0.82232551046E+02 -0.65043722631E+01 -0.54502306642E+03  0.55708235095E+03  0.80536348910E+02 0.  0.
         25    2    1    2    0    0  0.68658583511E+02  0.49933444356E+02  0.12938657214E+03  0.19898621830E+03  0.12508908853E+03 0.  0.
         24    2    1    2    0    0  0.13573967534E+02 -0.43429072093E+02  0.12104811307E+03  0.14803263942E+03  0.72046372284E+02 0.  0.
        -11    1    5    5    0    0 -0.13376150808E+02 -0.54110621827E+01  0.91988413868E+02  0.93113206853E+02  0.00000000000E+00 0.  1.
         12    1    5    5    0    0  0.26950118343E+02 -0.38018009910E+02  0.29059699203E+02  0.54919432571E+02  0.00000000000E+00 0. -1.
         13    1    3    3    0    0  0.77538941919E+00 -0.25030247099E+02 -0.66479686267E+02  0.71039870388E+02  0.00000000000E+00 0. -1.
        -14    1    3    3    0    0 -0.83007940465E+02  0.18525874836E+02 -0.47854338015E+03  0.48604248056E+03  0.00000000000E+00 0.  1.
          5    1    4    4  501    0  0.35072683491E+02  0.10948910653E+01  0.13476745050E+03  0.13932347264E+03  0.41800000000E+01 0. -1.
         -5    1    4    4    0  501  0.33585900020E+02  0.48838553290E+02 -0.53808783647E+01  0.59662745660E+02  0.41800000000E+01 0. -1.
</event>
<event>
11    1  0.7577197E-009  0.1647400E+03  0.7561462E-02  0.1082702E+00
         22   -1    0    0    0    0  0.00000000000E+00  0.00000000000E+00  0.53781204352E+03  0.53781204352E+03  0.00000000000E+00 0. -1.
         22   -1    0    0    0    0 -0.00000000000E+00 -0.00000000000E+00 -0.90450874260E+03  0.90450874260E+03  0.00000000000E+00 0.  1.
        -24    2    1    2    0    0 -0.10666354463E+03 -0.26265101758E+02 -0.84329164570E+03  0.85414230669E+03  0.79695125591E+02 0.  0.
         25    2    1    2    0    0  0.61663106691E+02 -0.13179903390E+01  0.45055057136E+02  0.14659592628E+03  0.12512526365E+03 0.  0.
         24    2    1    2    0    0  0.45000437943E+02  0.27583092097E+02  0.43153988948E+03  0.44158255315E+03  0.77347324761E+02 0.  0.
        -11    1    5    5    0    0  0.53982930788E+02 -0.94113239235E+01  0.28186420852E+03  0.28714136218E+03  0.00000000000E+00 0.  1.
         12    1    5    5    0    0 -0.89824928452E+01  0.36994416020E+02  0.14967568097E+03  0.15444119097E+03  0.00000000000E+00 0. -1.
         11    1    3    3    0    0  0.10787944120E+02 -0.88791895857E+01 -0.46523309724E+02  0.48576106202E+02  0.00000000000E+00 0. -1.
        -12    1    3    3    0    0 -0.11745148875E+03 -0.17385912172E+02 -0.79676833598E+03  0.80556620049E+03  0.00000000000E+00 0.  1.
          5    1    4    4  501    0  0.93188404493E+02 -0.54486202726E+01  0.60176122183E+02  0.11114137068E+03  0.41800000000E+01 0. -1.
         -5    1    4    4    0  501 -0.31525297802E+02  0.41306299336E+01 -0.15121065046E+02  0.35454555607E+02  0.41800000000E+01 0. -1.
</event>
<event>
11    1  0.7577197E-009  0.1831434E+03  0.7561462E-02  0.1067128E+00
         22   -1    0    0    0    0  0.00000000000E+00  0.00000000000E+00  0.11829505202E+04  0.11829505202E+04  0.00000000000E+00 0. -1.
         22   -1    0    0    0    0 -0.00000000000E+00 -0.00000000000E+00 -0.70483699521E+03  0.70483699521E+03  0.00000000000E+00 0. -1.
        -24    2    1    2    0    0  0.70081390623E+01  0.23365955116E+02 -0.64301482046E+03  0.64866693673E+03  0.81888055328E+02 0.  0.
         25    2    1    2    0    0 -0.13985479143E+03 -0.13424126052E+02  0.11380550741E+03  0.21985951250E+03  0.12508773671E+03 0.  0.
         24    2    1    2    0    0  0.13284665237E+03 -0.99418290639E+01  0.10073228380E+04  0.10192610662E+04  0.80291643213E+02 0.  0.
        -13    1    5    5    0    0  0.37754409098E+02  0.32404962809E+02  0.39990924348E+03  0.40299240693E+03  0.00000000000E+00 0.  1.
         14    1    5    5    0    0  0.95092243267E+02 -0.42346791872E+02  0.60741359456E+03  0.61626865925E+03  0.00000000000E+00 0. -1.
         11    1    3    3    0    0  0.34759639228E+02  0.13370802608E+02 -0.54596163823E+03  0.54723040970E+03  0.00000000000E+00 0. -1.
        -12    1    3    3    0    0 -0.27751500166E+02  0.99951525085E+01 -0.97053182226E+02  0.10143652703E+03  0.00000000000E+00 0.  1.
          5    1    4    4  501    0 -0.13824192394E+03  0.32110755119E+02  0.79996450277E+02  0.16296881476E+03  0.41800000000E+01 0. -1.
         -5    1    4    4    0  501 -0.16128674883E+01 -0.45534881172E+02  0.33809057133E+02  0.56890697738E+02  0.41800000000E+01 0. -1.
</event>
<event>
11    1  0.7577197E-009  0.1348590E+03  0.7561462E-02  0.1113439E+00
         22   -1    0    0    0    0  0.00000000000E+00  0.00000000000E+00  0.32970824403E+03  0.32970824403E+03  0.00000000000E+00 0. -1.
         22   -1    0    0    0    0 -0.00000000000E+00 -0.00000000000E+00 -0.45458789062E+03  0.45458789062E+03  0.00000000000E+00 0.  1.
        -24    2    1    2    0    0 -0.39997075280E+02 -0.28603982830E+02 -0.39785231155E+03  0.40897100880E+03  0.80949801528E+02 0.  0.
         25    2    1    2    0    0  0.87314736731E+02  0.22218649548E+02  0.11545931591E+03  0.19260184866E+03  0.12508831616E+03 0.  0.
         24    2    1    2    0    0 -0.47317661451E+02  0.63853332819E+01  0.15751334905E+03  0.18272327720E+03  0.79357465536E+02 0.  0.
        -13    1    5    5    0    0 -0.45817971091E+02 -0.19984358207E+02  0.45352491364E+02  0.67494514746E+02  0.00000000000E+00 0.  1.
         14    1    5    5    0    0 -0.14996903596E+01  0.26369691489E+02  0.11216085769E+03  0.11522876246E+03  0.00000000000E+00 0. -1.
         11    1    3    3    0    0  0.16961512217E+02 -0.25540593212E+02 -0.73452958549E+02  0.79594923946E+02  0.00000000000E+00 0. -1.
        -12    1    3    3    0    0 -0.56958587498E+02 -0.30633896181E+01 -0.32439935300E+03  0.32937608485E+03  0.00000000000E+00 0.  1.
          5    1    4    4  501    0 -0.25048785015E+02  0.17309607247E+02  0.59366500589E+02  0.66849965789E+02  0.41800000000E+01 0. -1.
         -5    1    4    4    0  501  0.11236352175E+03  0.49090423010E+01  0.56092815318E+02  0.12575188287E+03  0.41800000000E+01 0. -1.
</event>
<event>
11    1  0.7577197E-009  0.1348210E+03  0.7561462E-02  0.1113483E+00
         22   -1    0    0    0    0  0.00000000000E+00  0.00000000000E+00  0.10657638473E+04  0.10657638473E+04  0.00000000000E+00 0. -1.
         22   -1    0    0    0    0 -0.00000000000E+00 -0.00000000000E+00 -0.13867266461E+03  0.13867266461E+03  0.00000000000E+00 0. -1.
        -24    2    1    2    0    0  0.26773966936E+02 -0.72564991258E+01 -0.11155137118E+03  0.13615093169E+03  0.72964825110E+02 0.  0.
         25    2    1    2    0    0 -0.49823915288E+02  0.46487185949E+02  0.43403130861E+03  0.45680845691E+03  0.12508920201E+03 0.  0.
         24    2    1    2    0    0  0.23049948352E+02 -0.39230686824E+02  0.60461124530E+03  0.61147712335E+03  0.79241198397E+02 0.  0.
        -11    1    5    5    0    0 -0.27416545657E+02 -0.68531412064E+00  0.15575891833E+03  0.15815491542E+03  0.00000000000E+00 0.  1.
         12    1    5    5    0    0  0.50466494009E+02 -0.38545372703E+02  0.44885232697E+03  0.45332220793E+03  0.00000000000E+00 0. -1.
         11    1    3    3    0    0  0.33900720199E+02  0.22481044300E+02 -0.34800647951E+02  0.53532618847E+02  0.00000000000E+00 0. -1.
        -12    1    3    3    0    0 -0.71267532638E+01 -0.29737543426E+02 -0.76750723229E+02  0.82618312845E+02  0.00000000000E+00 0.  1.
          5    1    4    4  501    0 -0.10556543852E+02 -0.16859033792E+02  0.31920474282E+03  0.31985122773E+03  0.41800000000E+01 0. -1.
         -5    1    4    4    0  501 -0.39267371435E+02  0.63346219741E+02  0.11482656579E+03  0.13695722919E+03  0.41800000000E+01 0. -1.
</event>
<event>
11    1  0.7577197E-009  0.1669141E+03  0.7561462E-02  0.1080749E+00
         22   -1    0    0    0    0  0.00000000000E+00  0.00000000000E+00  0.31077564856E+04  0.31077564856E+04  0.00000000000E+00 0. -1.
         22   -1    0    0    0    0 -0.00000000000E+00 -0.00000000000E+00 -0.13813950284E+03  0.13813950284E+03  0.00000000000E+00 0.  1.
        -24    2    1    2    0    0 -0.99288701575E+02 -0.18194739221E+02 -0.57110917236E+02  0.14062724296E+03  0.79530307423E+02 0.  0.
         25    2    1    2    0    0  0.18440664791E+03  0.34010765672E+02  0.29815750716E+03  0.37377482956E+03  0.12508868919E+03 0.  0.
         24    2    1    2    0    0 -0.85117946337E+02 -0.15816026451E+02  0.27285703929E+04  0.27314939159E+04  0.92018544871E+02 0.  0.
        -13    1    5    5    0    0  0.80227007603E+01 -0.43844282421E+01  0.12059115494E+04  0.12059462060E+04  0.00000000000E+00 0.  1.
         14    1    5    5    0    0 -0.93140647097E+02 -0.11431598209E+02  0.15226588435E+04  0.15255477099E+04  0.00000000000E+00 0. -1.
         11    1    3    3    0    0 -0.76856857914E+01  0.10957218653E+02  0.15262124522E+02  0.20299331309E+02  0.00000000000E+00 0. -1.
        -12    1    3    3    0    0 -0.91603015783E+02 -0.29151957874E+02 -0.72373041758E+02  0.12032791165E+03  0.00000000000E+00 0.  1.
          5    1    4    4  501    0  0.65170920777E+02  0.50414797368E+02  0.46300029565E+02  0.94604787650E+02  0.41800000000E+01 0. -1.
         -5    1    4    4    0  501  0.11923572713E+03 -0.16404031696E+02  0.25185747759E+03  0.27917004191E+03  0.41800000000E+01 0. -1.
</event>
<event>
11    1  0.7577197E-009  0.1554840E+03  0.7561462E-02  0.1091403E+00
         22   -1    0    0    0    0  0.00000000000E+00  0.00000000000E+00  0.97222248094E+03  0.97222248094E+03  0.00000000000E+00 0.  1.
         22   -1    0    0    0    0 -0.00000000000E+00 -0.00000000000E+00 -0.97077213901E+02  0.97077213901E+02  0.00000000000E+00 0.  1.
         24    2    1    2    0    0 -0.13743722668E+02  0.11692340786E+02 -0.53447050527E+02  0.95487538444E+02  0.77043377667E+02 0.  0.
         25    2    1    2    0    0 -0.38708927061E+02  0.70078506179E+02  0.32200618285E+03  0.35460619741E+03  0.12509274713E+03 0.  0.
        -24    2    1    2    0    0  0.52452649729E+02 -0.81770846966E+02  0.60658613472E+03  0.61920595899E+03  0.77662918691E+02 0.  0.
        -13    1    3    3    0    0  0.54347575136E+01 -0.19779558367E+02 -0.54896810589E+02  0.58603987333E+02  0.00000000000E+00 0.  1.
         14    1    3    3    0    0 -0.19178480181E+02  0.31471899153E+02  0.14497600629E+01  0.36883551111E+02  0.00000000000E+00 0. -1.
         11    1    5    5    0    0  0.72750052332E+02 -0.58977586674E+02  0.44181278811E+03  0.45162978819E+03  0.00000000000E+00 0. -1.
        -12    1    5    5    0    0 -0.20297402603E+02 -0.22793260292E+02  0.16477334661E+03  0.16757617080E+03  0.00000000000E+00 0.  1.
          5    1    4    4  501    0  0.32359190487E+02  0.31434110414E+02  0.37560339055E+02  0.58851269965E+02  0.41800000000E+01 0. -1.
         -5    1    4    4    0  501 -0.71068117549E+02  0.38644395766E+02  0.28444584379E+03  0.29575492744E+03  0.41800000000E+01 0. -1.
</event>
<event>
11    1  0.7577197E-009  0.1598795E+03  0.7561462E-02  0.1087191E+00
         22   -1    0    0    0    0  0.00000000000E+00  0.00000000000E+00  0.17107766097E+03  0.17107766097E+03  0.00000000000E+00 0.  1.
         22   -1    0    0    0    0 -0.00000000000E+00 -0.00000000000E+00 -0.17333929625E+04  0.17333929625E+04  0.00000000000E+00 0. -1.
        -24    2    1    2    0    0  0.33085539228E+02  0.83646992605E+02 -0.11417729834E+04  0.11480453741E+04  0.79190674525E+02 0.  0.
         25    2    1    2    0    0 -0.33427960044E+02 -0.15018544597E+03 -0.55332816504E+03  0.58778604376E+03  0.12508908154E+03 0.  0.
         24    2    1    2    0    0  0.34242081567E+00  0.66538453361E+02  0.13278584698E+03  0.16863920561E+03  0.79872507675E+02 0.  0.
        -11    1    5    5    0    0  0.17379346603E+02  0.55914387048E+02  0.13621852387E+03  0.14826984391E+03  0.00000000000E+00 0.  1.
         12    1    5    5    0    0 -0.17036925787E+02  0.10624066313E+02 -0.34326768931E+01  0.20369361697E+02  0.00000000000E+00 0. -1.
         13    1    3    3    0    0  0.55032206213E+02  0.79826069588E+02 -0.87958443200E+03  0.88491215277E+03  0.00000000000E+00 0. -1.
        -14    1    3    3    0    0 -0.21946666985E+02  0.38209230170E+01 -0.26218855144E+03  0.26313322130E+03  0.00000000000E+00 0.  1.
          5    1    4    4  501    0 -0.39228400493E+02 -0.16026617587E+03 -0.55102680305E+03  0.57521485083E+03  0.41800000000E+01 0.  1.
         -5    1    4    4    0  501  0.58004404492E+01  0.10080729903E+02 -0.23013619916E+01  0.12571192935E+02  0.41800000000E+01 0.  1.
</event>
<event>
11    1  0.7577197E-009  0.1444898E+03  0.7561462E-02  0.1102646E+00
         22   -1    0    0    0    0  0.00000000000E+00  0.00000000000E+00  0.37335776115E+03  0.37335776115E+03  0.00000000000E+00 0.  1.
         22   -1    0    0    0    0 -0.00000000000E+00 -0.00000000000E+00 -0.14916687615E+04  0.14916687615E+04  0.00000000000E+00 0. -1.
        -24    2    1    2    0    0 -0.46399653027E+02  0.54785123279E+02 -0.14121613815E+04  0.14162173085E+04  0.79481820818E+02 0.  0.
         25    2    1    2    0    0  0.42949959336E+02 -0.88441536924E+02  0.18056255602E+02  0.16012518429E+03  0.12508973506E+03 0.  0.
         24    2    1    2    0    0  0.34496936912E+01  0.33656413646E+02  0.27579412558E+03  0.28868402986E+03  0.78303351304E+02 0.  0.
        -11    1    5    5    0    0  0.35152622675E+02  0.17662617957E+01  0.74049912779E+02  0.81989122109E+02  0.00000000000E+00 0.  1.
         12    1    5    5    0    0 -0.31702928984E+02  0.31890151850E+02  0.20174421280E+03  0.20669490775E+03  0.00000000000E+00 0. -1.
         11    1    3    3    0    0  0.95528077324E+01  0.11015226648E+02 -0.77009301737E+03  0.77023103467E+03  0.00000000000E+00 0. -1.
        -12    1    3    3    0    0 -0.55952460760E+02  0.43769896631E+02 -0.64206836414E+03  0.64598627381E+03  0.00000000000E+00 0.  1.
          5    1    4    4  501    0 -0.43574561702E+02 -0.17847077249E+02  0.77389597871E+01  0.47902238908E+02  0.41800000000E+01 0. -1.
         -5    1    4    4    0  501  0.86524521038E+02 -0.70594459676E+02  0.10317295815E+02  0.11222294538E+03  0.41800000000E+01 0. -1.
</event>
<event>
11    1  0.7577197E-009  0.2219173E+03  0.7561462E-02  0.1040023E+00
         22   -1    0    0    0    0  0.00000000000E+00  0.00000000000E+00  0.53479053521E+03  0.53479053521E+03  0.00000000000E+00 0. -1.
         22   -1    0    0    0    0 -0.00000000000E+00 -0.00000000000E+00 -0.53561329736E+03  0.53561329736E+03  0.00000000000E+00 0.  1.
         24    2    1    2    0    0 -0.13510336974E+01 -0.18187355803E+03 -0.43238052327E+03  0.47576304670E+03  0.79484232978E+02 0.  0.
         25    2    1    2    0    0 -0.55348412745E+02  0.19523861603E+03  0.11498666047E+03  0.26467427716E+03  0.12509587091E+03 0.  0.
        -24    2    1    2    0    0  0.56699446443E+02 -0.13365057998E+02  0.31657110066E+03  0.32996650872E+03  0.72575361544E+02 0.  0.
        -11    1    3    3    0    0 -0.13927176983E+02 -0.12219444559E+03 -0.36359960994E+03  0.38383606545E+03  0.00000000000E+00 0.  1.
         12    1    3    3    0    0  0.12576143286E+02 -0.59679112445E+02 -0.68780913333E+02  0.91926981247E+02  0.00000000000E+00 0. -1.
         13    1    5    5    0    0  0.65260606052E+02 -0.23894016055E+02  0.30264530777E+03  0.31052222629E+03  0.00000000000E+00 0. -1.
        -14    1    5    5    0    0 -0.85611596092E+01  0.10528958057E+02  0.13925792885E+02  0.19444282427E+02  0.00000000000E+00 0.  1.
          5    1    4    4  501    0  0.10441841538E+02  0.59278098518E+02 -0.18445692187E+02  0.63092321077E+02  0.41800000000E+01 0. -1.
         -5    1    4    4    0  501 -0.65790254283E+02  0.13596051751E+03  0.13343235266E+03  0.20158195608E+03  0.41800000000E+01 0. -1.
</event>
<event>
11    1  0.7577197E-009  0.2478740E+03  0.7561462E-02  0.1025038E+00
         22   -1    0    0    0    0  0.00000000000E+00  0.00000000000E+00  0.25995693129E+04  0.25995693129E+04  0.00000000000E+00 0.  1.
         22   -1    0    0    0    0 -0.00000000000E+00 -0.00000000000E+00 -0.10710017128E+03  0.10710017128E+03  0.00000000000E+00 0.  1.
        -24    2    1    2    0    0  0.18576193609E+03 -0.97117548360E+02  0.57657270619E+02  0.23129940757E+03  0.78966701770E+02 0.  0.
         25    2    1    2    0    0 -0.25378297388E+03  0.49720483960E+02  0.11484464479E+04  0.11838305794E+04  0.12509065742E+03 0.  0.
         24    2    1    2    0    0  0.68021037794E+02  0.47397064400E+02  0.12863654230E+04  0.12915394972E+04  0.80404775252E+02 0.  0.
        -13    1    5    5    0    0  0.48425193048E+02  0.63899360910E+02  0.11497969353E+04  0.11525888773E+04  0.00000000000E+00 0.  1.
         14    1    5    5    0    0  0.19595844746E+02 -0.16502296510E+02  0.13656848771E+03  0.13895061985E+03  0.00000000000E+00 0. -1.
         11    1    3    3    0    0  0.10515287950E+02 -0.36183229434E+02  0.26236517012E+01  0.37771429960E+02  0.00000000000E+00 0. -1.
        -12    1    3    3    0    0  0.17524664814E+03 -0.60934318926E+02  0.55033618917E+02  0.19352797761E+03  0.00000000000E+00 0.  1.
          5    1    4    4  501    0 -0.26458466988E+03  0.39695895321E+02  0.10215381787E+04  0.10560012001E+04  0.41800000000E+01 0.  1.
         -5    1    4    4    0  501  0.10801695998E+02  0.10024588639E+02  0.12690826923E+03  0.12782937930E+03  0.41800000000E+01 0.  1.
</event>
<event>
11    1  0.7577197E-009  0.1574242E+03  0.7561462E-02  0.1089525E+00
         22   -1    0    0    0    0  0.00000000000E+00  0.00000000000E+00  0.30668495143E+04  0.30668495143E+04  0.00000000000E+00 0.  1.
         22   -1    0    0    0    0 -0.00000000000E+00 -0.00000000000E+00 -0.59050916232E+03  0.59050916232E+03  0.00000000000E+00 0. -1.
         24    2    1    2    0    0 -0.92210092385E+02 -0.11371793532E+02 -0.50225848442E+03  0.51696341391E+03  0.79721812094E+02 0.  0.
         25    2    1    2    0    0  0.13166986595E+03  0.22323774005E+02  0.24111157954E+02  0.18456515233E+03  0.12509053934E+03 0.  0.
        -24    2    1    2    0    0 -0.39459773561E+02 -0.10951980473E+02  0.29544876785E+04  0.29558301104E+04  0.79102337390E+02 0.  0.
        -13    1    3    3    0    0 -0.65067899311E+02 -0.27178337134E+02 -0.18223686996E+03  0.19540412049E+03  0.00000000000E+00 0.  1.
         14    1    3    3    0    0 -0.27142193073E+02  0.15806543602E+02 -0.32002161446E+03  0.32155929342E+03  0.00000000000E+00 0. -1.
         11    1    5    5    0    0 -0.36701818111E+02 -0.55728406968E+01  0.51549022476E+03  0.51682516563E+03  0.00000000000E+00 0. -1.
        -12    1    5    5    0    0 -0.27579554499E+01 -0.53791397763E+01  0.24389974537E+04  0.24390049448E+04  0.00000000000E+00 0.  1.
          5    1    4    4  501    0  0.69934338036E+02 -0.50353587905E+02  0.67526627620E+00  0.86279915600E+02  0.41800000000E+01 0.  1.
         -5    1    4    4    0  501  0.61735527910E+02  0.72677361910E+02  0.23435891678E+02  0.98285236731E+02  0.41800000000E+01 0.  1.
</event>
<event>
11    1  0.7577197E-009  0.1521444E+03  0.7561462E-02  0.1094708E+00
         22   -1    0    0    0    0  0.00000000000E+00  0.00000000000E+00  0.18731767278E+04  0.18731767278E+04  0.00000000000E+00 0. -1.
         22   -1    0    0    0    0 -0.00000000000E+00 -0.00000000000E+00 -0.49199428871E+03  0.49199428871E+03  0.00000000000E+00 0.  1.
        -24    2    1    2    0    0  0.21022598223E+02 -0.85581823354E+01 -0.43370509877E+03  0.44185470691E+03  0.81365085876E+02 0.  0.
         25    2    1    2    0    0 -0.79933068175E+02 -0.54516710341E+02  0.67465734055E+02  0.17193099708E+03  0.12508906984E+03 0.  0.
         24    2    1    2    0    0  0.58910469952E+02  0.63074892677E+02  0.17474218038E+04  0.17513853125E+04  0.80116583257E+02 0.  0.
        -11    1    5    5    0    0 -0.10541544139E+02 -0.10528177109E+02  0.14265620181E+03  0.14343206957E+03  0.00000000000E+00 0.  1.
         12    1    5    5    0    0  0.69452014091E+02  0.73603069786E+02  0.16047656020E+04  0.16079532429E+04  0.00000000000E+00 0. -1.
         13    1    3    3    0    0 -0.20845417026E+01  0.34714681452E+02 -0.15374963549E+03  0.15763376807E+03  0.00000000000E+00 0. -1.
        -14    1    3    3    0    0  0.23107139925E+02 -0.43272863787E+02 -0.27995546328E+03  0.28422093884E+03  0.00000000000E+00 0.  1.
          5    1    4    4  501    0 -0.44283690500E+02 -0.80191890212E+02  0.46620910080E+00  0.91703185609E+02  0.41800000000E+01 0. -1.
         -5    1    4    4    0  501 -0.35649377675E+02  0.25675179870E+02  0.66999524955E+02  0.80227811475E+02  0.41800000000E+01 0. -1.
</event>
<event>
11    1  0.7577197E-009  0.1721003E+03  0.7561462E-02  0.1076218E+00
         22   -1    0    0    0    0  0.00000000000E+00  0.00000000000E+00  0.21049745226E+03  0.21049745226E+03  0.00000000000E+00 0.  1.
         22   -1    0    0    0    0 -0.00000000000E+00 -0.00000000000E+00 -0.13378311148E+04  0.13378311148E+04  0.00000000000E+00 0.  1.
        -24    2    1    2    0    0 -0.47545640700E+02 -0.88632199896E+02 -0.85847215880E+03  0.86810552688E+03  0.80724863354E+02 0.  0.
         25    2    1    2    0    0  0.89778462267E+02  0.19217835045E+03 -0.41018868920E+03  0.47842891094E+03  0.12508705529E+03 0.  0.
         24    2    1    2    0    0 -0.42232821567E+02 -0.10354615056E+03  0.14132718551E+03  0.20179412919E+03  0.90785905850E+02 0.  0.
        -11    1    5    5    0    0 -0.34334887157E+02 -0.11899033845E+03  0.10843348565E+03  0.16460682225E+03  0.00000000000E+00 0.  1.
         12    1    5    5    0    0 -0.78979344100E+01  0.15444187891E+02  0.32893699859E+02  0.37187306948E+02  0.00000000000E+00 0. -1.
         11    1    3    3    0    0 -0.20024150374E+02 -0.55373278014E+02 -0.20720220996E+03  0.21540641199E+03  0.00000000000E+00 0. -1.
        -12    1    3    3    0    0 -0.27521490325E+02 -0.33258921882E+02 -0.65126994884E+03  0.65269911489E+03  0.00000000000E+00 0.  1.
          5    1    4    4  501    0  0.35271518500E+02 -0.23043600210E+01 -0.25056662441E+02  0.43528138314E+02  0.41800000000E+01 0. -1.
         -5    1    4    4    0  501  0.54506943767E+02  0.19448271047E+03 -0.38513202676E+03  0.43490077262E+03  0.41800000000E+01 0. -1.
</event>
<event>
11    1  0.7577197E-009  0.1398660E+03  0.7561462E-02  0.1107708E+00
         22   -1    0    0    0    0  0.00000000000E+00  0.00000000000E+00  0.86251809908E+03  0.86251809908E+03  0.00000000000E+00 0.  1.
         22   -1    0    0    0    0 -0.00000000000E+00 -0.00000000000E+00 -0.10945867611E+03  0.10945867611E+03  0.00000000000E+00 0. -1.
        -24    2    1    2    0    0 -0.45078017291E+02  0.46999737682E+02 -0.47114308432E+02  0.11202950927E+03  0.78037490371E+02 0.  0.
         25    2    1    2    0    0  0.47056295604E+02 -0.22535206098E+02  0.14145072685E+03  0.19590449626E+03  0.12509249801E+03 0.  0.
         24    2    1    2    0    0 -0.19782783137E+01 -0.24464531584E+02  0.65872300455E+03  0.66404276967E+03  0.80214564347E+02 0.  0.
        -13    1    5    5    0    0  0.24084370774E+02 -0.38378132119E+02  0.23739543935E+03  0.24168064168E+03  0.00000000000E+00 0.  1.
         14    1    5    5    0    0 -0.26062649088E+02  0.13913600535E+02  0.42132756520E+03  0.42236212798E+03  0.00000000000E+00 0. -1.
         11    1    3    3    0    0 -0.64090200283E+02  0.43332753261E+02 -0.22221255077E+02  0.80492642239E+02  0.00000000000E+00 0. -1.
        -12    1    3    3    0    0  0.19012182992E+02  0.36669844216E+01 -0.24893053354E+02  0.31536867032E+02  0.00000000000E+00 0.  1.
          5    1    4    4  501    0  0.63203881055E+02 -0.27290723069E+02  0.18053898507E+02  0.71294668786E+02  0.41800000000E+01 0. -1.
         -5    1    4    4    0  501 -0.16147585451E+02  0.47555169705E+01  0.12339682834E+03  0.12460982747E+03  0.41800000000E+01 0. -1.
</event>
<event>
11    1  0.7577197E-009  0.1830736E+03  0.7561462E-02  0.1067183E+00
         22   -1    0    0    0    0  0.00000000000E+00  0.00000000000E+00  0.18502427325E+04  0.18502427325E+04  0.00000000000E+00 0. -1.
         22   -1    0    0    0    0 -0.00000000000E+00 -0.00000000000E+00 -0.96625887745E+03  0.96625887745E+03  0.00000000000E+00 0. -1.
        -24    2    1    2    0    0 -0.12122015440E+02 -0.56927529372E+02 -0.92756404426E+03  0.93258619501E+03  0.77163903913E+02 0.  0.
         25    2    1    2    0    0  0.13849206280E+03  0.11217570885E+02  0.23824769681E+03  0.30284608598E+03  0.12509157207E+03 0.  0.
         24    2    1    2    0    0 -0.12637004736E+03  0.45709958487E+02  0.15733002025E+04  0.15810693289E+04  0.80298858052E+02 0.  0.
        -11    1    5    5    0    0  0.11095269700E+02  0.88370795272E+01  0.15276208622E+03  0.15341920992E+03  0.00000000000E+00 0.  1.
         12    1    5    5    0    0 -0.13746531706E+03  0.36872878960E+02  0.14205381163E+04  0.14276501190E+04  0.00000000000E+00 0. -1.
         13    1    3    3    0    0  0.11676985482E+02 -0.52962242568E+02 -0.84029516250E+03  0.84204353287E+03  0.00000000000E+00 0. -1.
        -14    1    3    3    0    0 -0.23799000922E+02 -0.39652868045E+01 -0.87268881757E+02  0.90542662140E+02  0.00000000000E+00 0.  1.
          5    1    4    4  501    0  0.85457943708E+02 -0.30705071439E+02  0.21116583716E+03  0.22990072801E+03  0.41800000000E+01 0.  1.
         -5    1    4    4    0  501  0.53034119092E+02  0.41922642324E+02  0.27081859648E+02  0.72945357969E+02  0.41800000000E+01 0.  1.
</event>
<event>
11    1  0.7577197E-009  0.1452322E+03  0.7561462E-02  0.1101853E+00
         22   -1    0    0    0    0  0.00000000000E+00  0.00000000000E+00  0.86442882922E+03  0.86442882922E+03  0.00000000000E+00 0. -1.
         22   -1    0    0    0    0 -0.00000000000E+00 -0.00000000000E+00 -0.22350228795E+03  0.22350228795E+03  0.00000000000E+00 0. -1.
         24    2    1    2    0    0  0.65536861015E+02  0.33944794262E+02 -0.18970102459E+03  0.21902407106E+03  0.80856266094E+02 0.  0.
         25    2    1    2    0    0 -0.70723795450E+02 -0.23002828254E+02  0.31732983114E+03  0.34910837663E+03  0.12508977396E+03 0.  0.
        -24    2    1    2    0    0  0.51869344352E+01 -0.10941966008E+02  0.51329773471E+03  0.51979866948E+03  0.81052214181E+02 0.  0.
        -11    1    3    3    0    0  0.56166133895E+02  0.58824587272E+02 -0.15754999659E+03  0.17730473229E+03  0.00000000000E+00 0.  1.
         12    1    3    3    0    0  0.93707271201E+01 -0.24879793010E+02 -0.32151027994E+02  0.41719338778E+02  0.00000000000E+00 0. -1.
         13    1    5    5    0    0 -0.32813866339E+02  0.75632887707E+01  0.13455340478E+03  0.13870317912E+03  0.00000000000E+00 0. -1.
        -14    1    5    5    0    0  0.38000800775E+02 -0.18505254778E+02  0.37874432994E+03  0.38109549036E+03  0.00000000000E+00 0.  1.
          5    1    4    4  501    0 -0.21991030597E+02 -0.69039580962E+02  0.21300277735E+03  0.22502827539E+03  0.41800000000E+01 0.  1.
         -5    1    4    4    0  501 -0.48732764854E+02  0.46036752708E+02  0.10432705379E+03  0.12408010124E+03  0.41800000000E+01 0.  1.
</event>
<event>
11    1  0.7577197E-009  0.1507408E+03  0.7561462E-02  0.1096124E+00
         22   -1    0    0    0    0  0.00000000000E+00  0.00000000000E+00  0.10165019252E+03  0.10165019252E+03  0.00000000000E+00 0.  1.
         22   -1    0    0    0    0 -0.00000000000E+00 -0.00000000000E+00 -0.21683278211E+04  0.21683278211E+04  0.00000000000E+00 0.  1.
        -24    2    1    2    0    0  0.55463726727E+02 -0.42719991195E+02 -0.12232199979E+04  0.12276867397E+04  0.77758246012E+02 0.  0.
         25    2    1    2    0    0 -0.13667731151E+03  0.34122500600E+02 -0.88799235910E+03  0.90775692072E+03  0.12508862769E+03 0.  0.
         24    2    1    2    0    0  0.81213584780E+02  0.85974905956E+01  0.44534728419E+02  0.13453435325E+03  0.97193554167E+02 0.  0.
        -13    1    5    5    0    0  0.72471219379E+02  0.47714207595E+02  0.32925273985E+02  0.92805155631E+02  0.00000000000E+00 0.  1.
         14    1    5    5    0    0  0.87423654011E+01 -0.39116716999E+02  0.11609454434E+02  0.41729197618E+02  0.00000000000E+00 0. -1.
         13    1    3    3    0    0 -0.13184904725E+02 -0.15676658392E+02 -0.10170620207E+03  0.10374849816E+03  0.00000000000E+00 0. -1.
        -14    1    3    3    0    0  0.68648631452E+02 -0.27043332803E+02 -0.11215137959E+04  0.11239382415E+04  0.00000000000E+00 0.  1.
          5    1    4    4  501    0 -0.35521692964E+02 -0.35497760840E+02 -0.45141451510E+03  0.45421847005E+03  0.41800000000E+01 0.  1.
         -5    1    4    4    0  501 -0.10115561854E+03  0.69620261440E+02 -0.43657784400E+03  0.45353845067E+03  0.41800000000E+01 0.  1.
</event>
<event>
11    1  0.7577197E-009  0.2025156E+03  0.7561462E-02  0.1052759E+00
         22   -1    0    0    0    0  0.00000000000E+00  0.00000000000E+00  0.20975939961E+04  0.20975939961E+04  0.00000000000E+00 0. -1.
         22   -1    0    0    0    0 -0.00000000000E+00 -0.00000000000E+00 -0.15087513858E+03  0.15087513858E+03  0.00000000000E+00 0. -1.
         24    2    1    2    0    0  0.70312793495E+02 -0.11399161126E+03  0.98044387734E+01  0.15631670480E+03  0.80005054924E+02 0.  0.
         25    2    1    2    0    0 -0.11729131607E+03  0.19432735856E+03  0.14667242065E+03  0.29780271075E+03  0.12511307062E+03 0.  0.
        -24    2    1    2    0    0  0.46978522576E+02 -0.80335747304E+02  0.17902419981E+04  0.17943497191E+04  0.77869691833E+02 0.  0.
        -11    1    3    3    0    0  0.44309600161E+02 -0.96406569114E+01 -0.11277969197E+02  0.46727674041E+02  0.00000000000E+00 0.  1.
         12    1    3    3    0    0  0.26003193334E+02 -0.10435095435E+03  0.21082407970E+02  0.10958903076E+03  0.00000000000E+00 0. -1.
         11    1    5    5    0    0 -0.39051065012E+01 -0.64771176025E+02  0.11840954930E+04  0.11858721228E+04  0.00000000000E+00 0. -1.
        -12    1    5    5    0    0  0.50883629077E+02 -0.15564571279E+02  0.60614650510E+03  0.60847759633E+03  0.00000000000E+00 0.  1.
          5    1    4    4  501    0 -0.29665644304E+02  0.66200913076E+02  0.11994478090E+03  0.14023849047E+03  0.41800000000E+01 0.  1.
         -5    1    4    4    0  501 -0.87625671766E+02  0.12812644549E+03  0.26727639745E+02  0.15756422028E+03  0.41800000000E+01 0.  1.
</event>
<event>
11    1  0.7577197E-009  0.6205035E+03  0.7561462E-02  0.9158424E-01
         22   -1    0    0    0    0  0.00000000000E+00  0.00000000000E+00  0.45144795448E+03  0.45144795448E+03  0.00000000000E+00 0.  1.
         22   -1    0    0    0    0 -0.00000000000E+00 -0.00000000000E+00 -0.11841366267E+04  0.11841366267E+04  0.00000000000E+00 0. -1.
         24    2    1    2    0    0 -0.50861731928E+02 -0.73420911590E+02 -0.23565378431E+03  0.26434224797E+03  0.79790801270E+02 0.  0.
         25    2    1    2    0    0 -0.29178713884E+02  0.63350526945E+03 -0.55262879754E+02  0.64875389883E+03  0.12508921458E+03 0.  0.
        -24    2    1    2    0    0  0.80040445812E+02 -0.56008435786E+03 -0.44177200820E+03  0.72248843442E+03  0.82012619548E+02 0.  0.
        -13    1    3    3    0    0 -0.38907233256E+02  0.58474844124E+01 -0.85905292060E+02  0.94486428006E+02  0.00000000000E+00 0.  1.
         14    1    3    3    0    0 -0.11954498672E+02 -0.79268396002E+02 -0.14974849225E+03  0.16985581996E+03  0.00000000000E+00 0. -1.
         11    1    5    5    0    0  0.72912219350E+02 -0.49017150605E+03 -0.34908527300E+03  0.60617227328E+03  0.00000000000E+00 0. -1.
        -12    1    5    5    0    0  0.71282264622E+01 -0.69912851811E+02 -0.92686735199E+02  0.11631616114E+03  0.00000000000E+00 0.  1.
          5    1    4    4  501    0  0.40274413453E+02  0.10824746872E+03  0.37369194746E+01  0.11563295305E+03  0.41800000000E+01 0.  1.
         -5    1    4    4    0  501 -0.69453127338E+02  0.52525780073E+03 -0.58999799229E+02  0.53312094578E+03  0.41800000000E+01 0.  1.
</event>
<event>
11    1  0.7577197E-009  0.1974088E+03  0.7561462E-02  0.1056371E+00
         22   -1    0    0    0    0  0.00000000000E+00  0.00000000000E+00  0.74941131205E+03  0.74941131205E+03  0.00000000000E+00 0.  1.
         22   -1    0    0    0    0 -0.00000000000E+00 -0.00000000000E+00 -0.66932653402E+03  0.66932653402E+03  0.00000000000E+00 0.  1.
         24    2    1    2    0    0  0.14097528501E+03 -0.26428929515E+02 -0.50649842260E+03  0.53262050371E+03  0.81064354570E+02 0.  0.
         25    2    1    2    0    0 -0.26357801993E+03  0.52705881122E+01  0.11257906974E+02  0.29201993863E+03  0.12509097648E+03 0.  0.
        -24    2    1    2    0    0  0.12260273492E+03  0.21158341402E+02  0.57532529366E+03  0.59409740373E+03  0.80457601116E+02 0.  0.
        -13    1    3    3    0    0  0.13564502963E+03 -0.12915262844E+02 -0.35218816747E+03  0.37762796955E+03  0.00000000000E+00 0.  1.
         14    1    3    3    0    0  0.53302553766E+01 -0.13513666670E+02 -0.15431025513E+03  0.15499253417E+03  0.00000000000E+00 0. -1.
         13    1    5    5    0    0  0.16835342929E+02  0.34548693278E+02  0.10424202249E+03  0.11110103614E+03  0.00000000000E+00 0. -1.
        -14    1    5    5    0    0  0.10576739199E+03 -0.13390351875E+02  0.47108327116E+03  0.48299636759E+03  0.00000000000E+00 0.  1.
          5    1    4    4  501    0 -0.18255273989E+03 -0.15474246458E+02 -0.47993054206E+02  0.18943537367E+03  0.41800000000E+01 0.  1.
         -5    1    4    4    0  501 -0.81025280037E+02  0.20744834570E+02  0.59250961181E+02  0.10258456496E+03  0.41800000000E+01 0.  1.
</event>
<event>
11    1  0.7577197E-009  0.1363368E+03  0.7561462E-02  0.1111719E+00
         22   -1    0    0    0    0  0.00000000000E+00  0.00000000000E+00  0.36607505963E+03  0.36607505963E+03  0.00000000000E+00 0. -1.
         22   -1    0    0    0    0 -0.00000000000E+00 -0.00000000000E+00 -0.62408998232E+03  0.62408998232E+03  0.00000000000E+00 0.  1.
         24    2    1    2    0    0 -0.83948466260E+01  0.52842281654E+02 -0.51592836115E+03  0.52473526123E+03  0.79386651017E+02 0.  0.
         25    2    1    2    0    0  0.30310955916E+02 -0.58170160671E+02 -0.48049534867E+02  0.14919247026E+03  0.12508842369E+03 0.  0.
        -24    2    1    2    0    0 -0.21916109290E+02  0.53278790167E+01  0.30596297332E+03  0.31623731046E+03  0.76707192219E+02 0.  0.
        -11    1    3    3    0    0  0.33629795641E+02  0.11429632414E+02 -0.23587896405E+03  0.23853822615E+03  0.00000000000E+00 0.  1.
         12    1    3    3    0    0 -0.42024642267E+02  0.41412649240E+02 -0.28004939710E+03  0.28619703508E+03  0.00000000000E+00 0. -1.
         13    1    5    5    0    0 -0.46822214357E+02  0.71393524505E+00  0.25570069876E+03  0.25995322042E+03  0.00000000000E+00 0. -1.
        -14    1    5    5    0    0  0.24906105068E+02  0.46139437716E+01  0.50262274566E+02  0.56284090037E+02  0.00000000000E+00 0.  1.
          5    1    4    4  501    0 -0.31737914020E+02 -0.39571010121E+02  0.20422572983E+02  0.54842628635E+02  0.41800000000E+01 0.  1.
         -5    1    4    4    0  501  0.62048869936E+02 -0.18599150550E+02 -0.68472107850E+02  0.94349841626E+02  0.41800000000E+01 0.  1.
</event>
<event>
11    1  0.7577197E-009  0.1983407E+03  0.7561462E-02  0.1055703E+00
         22   -1    0    0    0    0  0.00000000000E+00  0.00000000000E+00  0.92397045806E+03  0.92397045806E+03  0.00000000000E+00 0. -1.
         22   -1    0    0    0    0 -0.00000000000E+00 -0.00000000000E+00 -0.25835955221E+03  0.25835955221E+03  0.00000000000E+00 0. -1.
        -24    2    1    2    0    0 -0.61747131682E+01  0.17569522790E+02 -0.16799815986E+03  0.18769004073E+03  0.81592612767E+02 0.  0.
         25    2    1    2    0    0  0.32538049118E+02  0.13605593496E+03  0.53464081239E+02  0.19513205377E+03  0.12509263907E+03 0.  0.
         24    2    1    2    0    0 -0.26363335950E+02 -0.15362545775E+03  0.78014498446E+03  0.79950791577E+03  0.79315218252E+02 0.  0.
        -11    1    5    5    0    0  0.82335113384E+01  0.52334981339E+01  0.21102696333E+02  0.23248741991E+02  0.00000000000E+00 0.  1.
         12    1    5    5    0    0 -0.34596847288E+02 -0.15885895588E+03  0.75904228813E+03  0.77625917378E+03  0.00000000000E+00 0. -1.
         11    1    3    3    0    0  0.18439431932E+01  0.44239438324E+02 -0.14488202863E+03  0.15149696449E+03  0.00000000000E+00 0. -1.
        -12    1    3    3    0    0 -0.80186563614E+01 -0.26669915533E+02 -0.23116131225E+02  0.36193076233E+02  0.00000000000E+00 0.  1.
          5    1    4    4  501    0  0.67814063755E+02  0.29825882804E+02  0.95237367005E+01  0.74809788723E+02  0.41800000000E+01 0. -1.
         -5    1    4    4    0  501 -0.35276014637E+02  0.10623005215E+03  0.43940344539E+02  0.12032226505E+03  0.41800000000E+01 0. -1.
</event>
<event>
11    1  0.7577197E-009  0.1604364E+03  0.7561462E-02  0.1086668E+00
         22   -1    0    0    0    0  0.00000000000E+00  0.00000000000E+00  0.14990568048E+03  0.14990568048E+03  0.00000000000E+00 0.  1.
         22   -1    0    0    0    0 -0.00000000000E+00 -0.00000000000E+00 -0.62805907805E+03  0.62805907805E+03  0.00000000000E+00 0. -1.
         24    2    1    2    0    0  0.68521053957E+02  0.69406399385E+02 -0.43082274559E+03  0.44913718130E+03  0.81262453820E+02 0.  0.
         25    2    1    2    0    0 -0.17991879655E+02 -0.15260663561E+03 -0.44162688636E+02  0.20300476232E+03  0.12509235584E+03 0.  0.
        -24    2    1    2    0    0 -0.50529174303E+02  0.83200236230E+02 -0.31679633401E+01  0.12582281490E+03  0.79660956525E+02 0.  0.
        -13    1    3    3    0    0 -0.38468503291E+01 -0.36232640329E+01 -0.14987600879E+03  0.14996914453E+03  0.00000000000E+00 0.  1.
         14    1    3    3    0    0  0.72367904286E+02  0.73029663418E+02 -0.28094673680E+03  0.29916803678E+03  0.00000000000E+00 0. -1.
         11    1    5    5    0    0 -0.47510038168E+02  0.65550212444E+01 -0.93736080669E+01  0.48867540949E+02  0.00000000000E+00 0. -1.
        -12    1    5    5    0    0 -0.30191361347E+01  0.76645214985E+02  0.62056447268E+01  0.76955273956E+02  0.00000000000E+00 0.  1.
          5    1    4    4  501    0 -0.14658482906E+02 -0.13822071401E+03  0.16864334790E+02  0.14007753242E+03  0.41800000000E+01 0. -1.
         -5    1    4    4    0  501 -0.33333967489E+01 -0.14385921608E+02 -0.61027023426E+02  0.62927229898E+02  0.41800000000E+01 0. -1.
</event>
<event>
11    1  0.7577197E-009  0.1518036E+03  0.7561462E-02  0.1095050E+00
         22   -1    0    0    0    0  0.00000000000E+00  0.00000000000E+00  0.56491921043E+03  0.56491921043E+03  0.00000000000E+00 0.  1.
         22   -1    0    0    0    0 -0.00000000000E+00 -0.00000000000E+00 -0.23105761008E+03  0.23105761008E+03  0.00000000000E+00 0. -1.
        -24    2    1    2    0    0  0.33179685223E+02  0.53638726846E+02 -0.16532188005E+03  0.19390755138E+03  0.79314626193E+02 0.  0.
         25    2    1    2    0    0  0.55804169918E+02 -0.23225730624E+02  0.70379721178E+02  0.15573827627E+03  0.12509022983E+03 0.  0.
         24    2    1    2    0    0 -0.88983855141E+02 -0.30412996222E+02  0.42880375923E+03  0.44633099286E+03  0.80595374833E+02 0.  0.
        -13    1    5    5    0    0 -0.96521836658E+02 -0.45052365292E+02  0.35113226176E+03  0.36693329887E+03  0.00000000000E+00 0.  1.
         14    1    5    5    0    0  0.75379815177E+01  0.14639369070E+02  0.77671497472E+02  0.79397693995E+02  0.00000000000E+00 0. -1.
         13    1    3    3    0    0  0.18020594725E+02  0.56263888120E+02 -0.16818399989E+03  0.17825887008E+03  0.00000000000E+00 0. -1.
        -14    1    3    3    0    0  0.15159090498E+02 -0.26251612744E+01  0.28621198429E+01  0.15648681300E+02  0.00000000000E+00 0.  1.
          5    1    4    4  501    0 -0.27019102660E+02  0.18090086805E+02 -0.87106956287E+01  0.33920963541E+02  0.41800000000E+01 0.  1.
         -5    1    4    4    0  501  0.82823272579E+02 -0.41315817429E+02  0.79090416807E+02  0.12181731273E+03  0.41800000000E+01 0.  1.
</event>
<event>
11    1  0.7577197E-009  0.1254237E+03  0.7561462E-02  0.1125023E+00
         22   -1    0    0    0    0  0.00000000000E+00  0.00000000000E+00  0.47274817858E+03  0.47274817858E+03  0.00000000000E+00 0. -1.
         22   -1    0    0    0    0 -0.00000000000E+00 -0.00000000000E+00 -0.73294200637E+03  0.73294200637E+03  0.00000000000E+00 0.  1.
        -24    2    1    2    0    0 -0.89135180317E+01  0.32090597381E+01 -0.67973281035E+03  0.68465596769E+03  0.81408548423E+02 0.  0.
         25    2    1    2    0    0  0.13396410951E+01  0.14241258031E+02  0.38877513284E+02  0.13177278381E+03  0.12509195595E+03 0.  0.
         24    2    1    2    0    0  0.75738769367E+01 -0.17450317769E+02  0.38066146928E+03  0.38926143346E+03  0.79116573399E+02 0.  0.
        -13    1    5    5    0    0 -0.15815623857E+02 -0.23202311741E+02  0.47126509257E+02  0.54857899184E+02  0.00000000000E+00 0.  1.
         14    1    5    5    0    0  0.23389500793E+02  0.57519939724E+01  0.33353496002E+03  0.33440353428E+03  0.00000000000E+00 0. -1.
         11    1    3    3    0    0 -0.22834655100E+02 -0.24327899101E+02 -0.13544127129E+03  0.13949052340E+03  0.00000000000E+00 0. -1.
        -12    1    3    3    0    0  0.13921137069E+02  0.27536958839E+02 -0.54429153906E+03  0.54516544429E+03  0.00000000000E+00 0.  1.
          5    1    4    4  501    0  0.38068639132E+02 -0.37343964648E+02  0.42333778467E+02  0.68215937876E+02  0.41800000000E+01 0. -1.
         -5    1    4    4    0  501 -0.36728998037E+02  0.51585222679E+02 -0.34562651832E+01  0.63556845931E+02  0.41800000000E+01 0. -1.
</event>
<event>
11    1  0.7577197E-009  0.1340783E+03  0.7561462E-02  0.1114357E+00
         22   -1    0    0    0    0  0.00000000000E+00  0.00000000000E+00  0.11355736387E+04  0.11355736387E+04  0.00000000000E+00 0. -1.
         22   -1    0    0    0    0 -0.00000000000E+00 -0.00000000000E+00 -0.18007207467E+04  0.18007207467E+04  0.00000000000E+00 0.  1.
        -24    2    1    2    0    0 -0.15764531990E+02 -0.20486584562E+02 -0.17613605030E+04  0.17631631202E+04  0.75399908122E+02 0.  0.
         25    2    1    2    0    0  0.61505910572E+02  0.31618318394E+02  0.10488142553E+03  0.17728481147E+03  0.12508835223E+03 0.  0.
         24    2    1    2    0    0 -0.45741378582E+02 -0.11131733832E+02  0.99133196940E+03  0.99584645375E+03  0.82188178496E+02 0.  0.
        -13    1    5    5    0    0 -0.65421788442E+01  0.30817475969E+02  0.20338379993E+03  0.20580934625E+03  0.00000000000E+00 0.  1.
         14    1    5    5    0    0 -0.39199199738E+02 -0.41949209800E+02  0.78794816947E+03  0.79003710750E+03  0.00000000000E+00 0. -1.
         13    1    3    3    0    0 -0.26949255881E+02 -0.18559401088E+02 -0.30357116451E+03  0.30532960171E+03  0.00000000000E+00 0. -1.
        -14    1    3    3    0    0  0.11184723891E+02 -0.19271834741E+01 -0.14577893385E+04  0.14578335185E+04  0.00000000000E+00 0.  1.
          5    1    4    4  501    0 -0.92989738736E+01  0.16455303905E+01 -0.24576263702E+02  0.26657903573E+02  0.41800000000E+01 0.  1.
         -5    1    4    4    0  501  0.70804884446E+02  0.29972788004E+02  0.12945768923E+03  0.15062690790E+03  0.41800000000E+01 0.  1.
</event>
<event>
11    1  0.7577197E-009  0.1355805E+03  0.7561462E-02  0.1112596E+00
         22   -1    0    0    0    0  0.00000000000E+00  0.00000000000E+00  0.63068225868E+03  0.63068225868E+03  0.00000000000E+00 0. -1.
         22   -1    0    0    0    0 -0.00000000000E+00 -0.00000000000E+00 -0.16211364289E+03  0.16211364289E+03  0.00000000000E+00 0. -1.
        -24    2    1    2    0    0 -0.20663812758E+01  0.48729560485E+02 -0.11173451027E+03  0.15268202712E+03  0.91914964090E+02 0.  0.
         25    2    1    2    0    0  0.26301736840E+02 -0.10415066734E+03  0.28749680704E+03  0.33142317585E+03  0.12509102510E+03 0.  0.
         24    2    1    2    0    0 -0.24235355564E+02  0.55421106854E+02  0.29280631903E+03  0.30869069860E+03  0.76782520119E+02 0.  0.
        -13    1    5    5    0    0 -0.26221178647E+02  0.42776040100E+02  0.73389469617E+02  0.88900810271E+02  0.00000000000E+00 0.  1.
         14    1    5    5    0    0  0.19858230830E+01  0.12645066755E+02  0.21941684941E+03  0.21978988833E+03  0.00000000000E+00 0. -1.
         11    1    3    3    0    0 -0.11336681875E+02  0.21890844985E+02 -0.12047595819E+03  0.12297229749E+03  0.00000000000E+00 0. -1.
        -12    1    3    3    0    0  0.92703005990E+01  0.26838715500E+02  0.87414479146E+01  0.29709729627E+02  0.00000000000E+00 0.  1.
          5    1    4    4  501    0 -0.16591054593E+02 -0.95724920200E+02  0.26459475153E+03  0.28189781549E+03  0.41800000000E+01 0. -1.
         -5    1    4    4    0  501  0.42892791433E+02 -0.84257471395E+01  0.22902055509E+02  0.49525360355E+02  0.41800000000E+01 0. -1.
</event>
<event>
11    1  0.7577197E-009  0.1293083E+03  0.7561462E-02  0.1120122E+00
         22   -1    0    0    0    0  0.00000000000E+00  0.00000000000E+00  0.15519471323E+04  0.15519471323E+04  0.00000000000E+00 0.  1.
         22   -1    0    0    0    0 -0.00000000000E+00 -0.00000000000E+00 -0.17768632465E+04  0.17768632465E+04  0.00000000000E+00 0. -1.
        -24    2    1    2    0    0  0.10857909198E+02 -0.18201774814E+02 -0.14259901057E+04  0.14284536184E+04  0.81134207849E+02 0.  0.
         25    2    1    2    0    0 -0.18449995978E+02  0.49983400192E+02 -0.33515231283E+03  0.36168234340E+03  0.12509317361E+03 0.  0.
         24    2    1    2    0    0  0.75920867800E+01 -0.31781625378E+02  0.15362263043E+04  0.15386744169E+04  0.80374074155E+02 0.  0.
        -11    1    5    5    0    0  0.29615549750E+02 -0.16123031050E+02  0.13573229769E+04  0.13577417636E+04  0.00000000000E+00 0.  1.
         12    1    5    5    0    0 -0.22023462970E+02 -0.15658594328E+02  0.17890332743E+03  0.18093265339E+03  0.00000000000E+00 0. -1.
         13    1    3    3    0    0 -0.51279839784E+01 -0.24413757904E+02 -0.13613036539E+04  0.13615322126E+04  0.00000000000E+00 0. -1.
        -14    1    3    3    0    0  0.15985893176E+02  0.62119830901E+01 -0.64686451752E+02  0.66921405805E+02  0.00000000000E+00 0.  1.
          5    1    4    4  501    0  0.14579121212E+02 -0.31445003404E+02 -0.17974023425E+03  0.18309932611E+03  0.41800000000E+01 0.  1.
         -5    1    4    4    0  501 -0.33029117189E+02  0.81428403597E+02 -0.15541207858E+03  0.17858301728E+03  0.41800000000E+01 0.  1.
</event>
<event>
11    1  0.7577197E-009  0.1354691E+03  0.7561462E-02  0.1112726E+00
         22   -1    0    0    0    0  0.00000000000E+00  0.00000000000E+00  0.99473737090E+02  0.99473737090E+02  0.00000000000E+00 0. -1.
         22   -1    0    0    0    0 -0.00000000000E+00 -0.00000000000E+00 -0.12189162483E+04  0.12189162483E+04  0.00000000000E+00 0. -1.
        -24    2    1    2    0    0 -0.46403892318E+01  0.49057381410E+02 -0.98718834617E+03  0.99168776022E+03  0.80471256113E+02 0.  0.
         25    2    1    2    0    0  0.61187233940E+00 -0.87225987580E+02 -0.17231531973E+03  0.23010767517E+03  0.12509286734E+03 0.  0.
         24    2    1    2    0    0  0.40285168924E+01  0.38168606170E+02  0.40061154671E+02  0.96594550032E+02  0.79073001315E+02 0.  0.
        -11    1    5    5    0    0  0.21855406869E+02  0.53858987630E+01 -0.17143755586E+02  0.28294435327E+02  0.00000000000E+00 0.  1.
         12    1    5    5    0    0 -0.17826889976E+02  0.32782707407E+02  0.57204910257E+02  0.68300114705E+02  0.00000000000E+00 0. -1.
         11    1    3    3    0    0  0.31023804464E+02  0.33497117250E+02 -0.74461381942E+03  0.74601224747E+03  0.00000000000E+00 0. -1.
        -12    1    3    3    0    0 -0.35664193696E+02  0.15560264160E+02 -0.24257452675E+03  0.24567551275E+03  0.00000000000E+00 0.  1.
          5    1    4    4  501    0 -0.39826437438E+02 -0.42219073372E+02 -0.15716949173E+03  0.16759569448E+03  0.41800000000E+01 0. -1.
         -5    1    4    4    0  501  0.40438309777E+02 -0.45006914208E+02 -0.15145828000E+02  0.62511980691E+02  0.41800000000E+01 0. -1.
</event>
<event>
11    1  0.7577197E-009  0.2108994E+03  0.7561462E-02  0.1047073E+00
         22   -1    0    0    0    0  0.00000000000E+00  0.00000000000E+00  0.20497785740E+04  0.20497785740E+04  0.00000000000E+00 0. -1.
         22   -1    0    0    0    0 -0.00000000000E+00 -0.00000000000E+00 -0.53697335409E+02  0.53697335409E+02  0.00000000000E+00 0.  1.
         24    2    1    2    0    0 -0.11675597787E+03  0.11265564599E+03  0.20197833598E+03  0.27191477004E+03  0.82578090434E+02 0.  0.
         25    2    1    2    0    0  0.18821126619E+03 -0.91668825100E+02  0.97824932964E+03  0.10081888969E+04  0.12508575715E+03 0.  0.
        -24    2    1    2    0    0 -0.71455288322E+02 -0.20986820895E+02  0.81585357295E+03  0.82337224246E+03  0.82331599514E+02 0.  0.
        -11    1    3    3    0    0 -0.11873199358E+03  0.11870430076E+03  0.20491078387E+03  0.26490833634E+03  0.00000000000E+00 0.  1.
         12    1    3    3    0    0  0.19760157081E+01 -0.60486547605E+01 -0.29324478966E+01  0.70064336974E+01  0.00000000000E+00 0. -1.
         13    1    5    5    0    0 -0.67380157764E+02  0.14061675197E+02  0.38732994140E+03  0.39339839841E+03  0.00000000000E+00 0. -1.
        -14    1    5    5    0    0 -0.40751305583E+01 -0.35048496092E+02  0.42852363155E+03  0.42997384405E+03  0.00000000000E+00 0.  1.
          5    1    4    4  501    0  0.10310724730E+03  0.77231778702E+01  0.57449937255E+03  0.58374459602E+03  0.41800000000E+01 0. -1.
         -5    1    4    4    0  501  0.85104018885E+02 -0.99392002970E+02  0.40374995709E+03  0.42444430086E+03  0.41800000000E+01 0. -1.
</event>
<event>
11    1  0.7577197E-009  0.1525949E+03  0.7561462E-02  0.1094256E+00
         22   -1    0    0    0    0  0.00000000000E+00  0.00000000000E+00  0.22272435644E+03  0.22272435644E+03  0.00000000000E+00 0.  1.
         22   -1    0    0    0    0 -0.00000000000E+00 -0.00000000000E+00 -0.96382461880E+03  0.96382461880E+03  0.00000000000E+00 0. -1.
        -24    2    1    2    0    0  0.16823118127E+01 -0.12627495649E+02 -0.73401337464E+03  0.73851378425E+03  0.80403305706E+02 0.  0.
         25    2    1    2    0    0  0.30340497161E+02  0.92965919584E+02 -0.17880482253E+03  0.23912715129E+03  0.12508965565E+03 0.  0.
         24    2    1    2    0    0 -0.32022808974E+02 -0.80338423935E+02  0.17171793480E+03  0.20890803970E+03  0.81705552224E+02 0.  0.
        -11    1    5    5    0    0 -0.34623354471E+02  0.32885420401E+01  0.59718300404E+02  0.69107644922E+02  0.00000000000E+00 0.  1.
         12    1    5    5    0    0  0.26005454966E+01 -0.83626965975E+02  0.11199963440E+03  0.13980039478E+03  0.00000000000E+00 0. -1.
         11    1    3    3    0    0 -0.38839769248E+02 -0.10302296905E+01 -0.38892774946E+03  0.39086363779E+03  0.00000000000E+00 0. -1.
        -12    1    3    3    0    0  0.40522081061E+02 -0.11597265958E+02 -0.34508562518E+03  0.34765014646E+03  0.00000000000E+00 0.  1.
          5    1    4    4  501    0 -0.40815918393E+02  0.74651843052E+02 -0.96173330036E+02  0.12847419459E+03  0.41800000000E+01 0.  1.
         -5    1    4    4    0  501  0.71156415555E+02  0.18314076532E+02 -0.82631492493E+02  0.11065295670E+03  0.41800000000E+01 0.  1.
</event>
<event>
11    1  0.7577197E-009  0.1294257E+03  0.7561462E-02  0.1119977E+00
         22   -1    0    0    0    0  0.00000000000E+00  0.00000000000E+00  0.17544135915E+04  0.17544135915E+04  0.00000000000E+00 0. -1.
         22   -1    0    0    0    0 -0.00000000000E+00 -0.00000000000E+00 -0.46222024691E+02  0.46222024691E+02  0.00000000000E+00 0. -1.
        -24    2    1    2    0    0  0.25820195956E+02  0.27115956717E+02  0.36248069117E+02  0.94902277561E+02  0.79313064142E+02 0.  0.
         25    2    1    2    0    0 -0.17604724449E+02 -0.61361667785E+01  0.23952234946E+03  0.27086103958E+03  0.12508864059E+03 0.  0.
         24    2    1    2    0    0 -0.82154715065E+01 -0.20979789939E+02  0.14324211482E+04  0.14348722990E+04  0.80749756202E+02 0.  0.
        -11    1    5    5    0    0 -0.41423523575E+02 -0.24461212542E+01  0.97114426312E+03  0.97203038616E+03  0.00000000000E+00 0.  1.
         12    1    5    5    0    0  0.33208052068E+02 -0.18533668685E+02  0.46127688508E+03  0.46284191287E+03  0.00000000000E+00 0. -1.
         11    1    3    3    0    0  0.18932606667E+02 -0.11548124427E+02 -0.17559643374E+02  0.28286814037E+02  0.00000000000E+00 0. -1.
        -12    1    3    3    0    0  0.68875892891E+01  0.38664081144E+02  0.53807712491E+02  0.66615463523E+02  0.00000000000E+00 0.  1.
          5    1    4    4  501    0 -0.37353845865E+02 -0.44259066307E+02  0.50421679138E+02  0.76902489416E+02  0.41800000000E+01 0.  1.
         -5    1    4    4    0  501  0.19749121416E+02  0.38122899528E+02  0.18910067032E+03  0.19395855016E+03  0.41800000000E+01 0.  1.
</event>
<event>
11    1  0.7577197E-009  0.3135073E+03  0.7561462E-02  0.9946313E-01
         22   -1    0    0    0    0  0.00000000000E+00  0.00000000000E+00  0.40800052264E+03  0.40800052264E+03  0.00000000000E+00 0. -1.
         22   -1    0    0    0    0 -0.00000000000E+00 -0.00000000000E+00 -0.27848260748E+03  0.27848260748E+03  0.00000000000E+00 0. -1.
         24    2    1    2    0    0 -0.13886038441E+02 -0.11544615173E+03 -0.48494992387E+02  0.15114122495E+03  0.83494129022E+02 0.  0.
         25    2    1    2    0    0  0.89526302156E+01 -0.11490101609E+03 -0.72773962291E+02  0.18500307758E+03  0.12509075121E+03 0.  0.
        -24    2    1    2    0    0  0.49334082255E+01  0.23034716782E+03  0.25078686983E+03  0.35033882759E+03  0.82213647249E+02 0.  0.
        -11    1    3    3    0    0  0.10273876480E+02 -0.22941857938E+02  0.21154629477E+02  0.32854219392E+02  0.00000000000E+00 0.  1.
         12    1    3    3    0    0 -0.24159914921E+02 -0.92504293789E+02 -0.69649621864E+02  0.11828700556E+03  0.00000000000E+00 0. -1.
         13    1    5    5    0    0 -0.19992133973E+02  0.20794749969E+03  0.19810619273E+03  0.28790260792E+03  0.00000000000E+00 0. -1.
        -14    1    5    5    0    0  0.24925542198E+02  0.22399668128E+02  0.52680677103E+02  0.62436219666E+02  0.00000000000E+00 0.  1.
          5    1    4    4  501    0  0.38031776638E+02 -0.64323226119E+02  0.18037342722E+02  0.76985138729E+02  0.41800000000E+01 0.  1.
         -5    1    4    4    0  501 -0.29079146422E+02 -0.50577789974E+02 -0.90811305013E+02  0.10801793885E+03  0.41800000000E+01 0.  1.
</event>
<event>
11    1  0.7577197E-009  0.1815042E+03  0.7561462E-02  0.1068433E+00
         22   -1    0    0    0    0  0.00000000000E+00  0.00000000000E+00  0.16532011902E+03  0.16532011902E+03  0.00000000000E+00 0.  1.
         22   -1    0    0    0    0 -0.00000000000E+00 -0.00000000000E+00 -0.14899427821E+04  0.14899427821E+04  0.00000000000E+00 0. -1.
         24    2    1    2    0    0  0.70490149929E+02  0.10334942901E+03 -0.11068671172E+04  0.11169748449E+04  0.82631854138E+02 0.  0.
         25    2    1    2    0    0 -0.72357607027E+02 -0.15910446130E+03 -0.32742632739E+03  0.39165191230E+03  0.12503346608E+03 0.  0.
        -24    2    1    2    0    0  0.18674570973E+01  0.55755032290E+02  0.10967078154E+03  0.14663614388E+03  0.79764449149E+02 0.  0.
        -13    1    3    3    0    0  0.47649751164E+02  0.50886405176E+01 -0.29550793986E+03  0.29936822739E+03  0.00000000000E+00 0.  1.
         14    1    3    3    0    0  0.22840398766E+02  0.98260788490E+02 -0.81135917734E+03  0.81760661753E+03  0.00000000000E+00 0. -1.
         11    1    5    5    0    0  0.35064694856E+01  0.39371803182E+02  0.40442013678E+01  0.39733987703E+02  0.00000000000E+00 0. -1.
        -12    1    5    5    0    0 -0.16390123883E+01  0.16383229108E+02  0.10562658017E+03  0.10690215618E+03  0.00000000000E+00 0.  1.
          5    1    4    4  501    0 -0.44632108835E+02 -0.13658840431E+02 -0.16634144752E+03  0.17281648829E+03  0.41800000000E+01 0.  1.
         -5    1    4    4    0  501 -0.27725498191E+02 -0.14544562087E+03 -0.16108487987E+03  0.21883542401E+03  0.41800000000E+01 0.  1.
</event>
<event>
11    1  0.7577197E-009  0.1486968E+03  0.7561462E-02  0.1098218E+00
         22   -1    0    0    0    0  0.00000000000E+00  0.00000000000E+00  0.88725300544E+03  0.88725300544E+03  0.00000000000E+00 0.  1.
         22   -1    0    0    0    0 -0.00000000000E+00 -0.00000000000E+00 -0.51696548096E+03  0.51696548096E+03  0.00000000000E+00 0.  1.
         24    2    1    2    0    0 -0.10589905131E+02  0.79367619901E+01 -0.48337891303E+03  0.49505904301E+03  0.10608083815E+03 0.  0.
         25    2    1    2    0    0  0.84342606810E+02 -0.33621863643E+02  0.24024059162E+03  0.28567164295E+03  0.12509452700E+03 0.  0.
        -24    2    1    2    0    0 -0.73752701679E+02  0.25685101653E+02  0.61342584588E+03  0.62348780045E+03  0.79665447071E+02 0.  0.
        -13    1    3    3    0    0  0.13788191386E+02 -0.13984603808E+02 -0.44120134880E+03  0.44163821568E+03  0.00000000000E+00 0.  1.
         14    1    3    3    0    0 -0.24378096517E+02  0.21921365798E+02 -0.42177564228E+02  0.53420827329E+02  0.00000000000E+00 0. -1.
         13    1    5    5    0    0 -0.46944738146E+02  0.83830048868E+01  0.12142550606E+03  0.13045396404E+03  0.00000000000E+00 0. -1.
        -14    1    5    5    0    0 -0.26807963533E+02  0.17302096766E+02  0.49200033982E+03  0.49303383641E+03  0.00000000000E+00 0.  1.
          5    1    4    4  501    0  0.53070648812E+02 -0.66622370970E+01  0.13714373629E+02  0.55375406206E+02  0.41800000000E+01 0. -1.
         -5    1    4    4    0  501  0.31271957998E+02 -0.26959626546E+02  0.22652621799E+03  0.23029623674E+03  0.41800000000E+01 0. -1.
</event>
<event>
11    1  0.7577197E-009  0.1319627E+03  0.7561462E-02  0.1116881E+00
         22   -1    0    0    0    0  0.00000000000E+00  0.00000000000E+00  0.20393590272E+04  0.20393590272E+04  0.00000000000E+00 0.  1.
         22   -1    0    0    0    0 -0.00000000000E+00 -0.00000000000E+00 -0.19598345655E+03  0.19598345655E+03  0.00000000000E+00 0.  1.
         24    2    1    2    0    0 -0.23401320437E+02  0.34902958152E+02 -0.17879295538E+03  0.20028151193E+03  0.79874431716E+02 0.  0.
         25    2    1    2    0    0  0.27091958630E+02 -0.23838735187E+02  0.86025852792E+03  0.87005898927E+03  0.12512254163E+03 0.  0.
        -24    2    1    2    0    0 -0.36906381939E+01 -0.11064222966E+02  0.11619099982E+04  0.11650019826E+04  0.84016294874E+02 0.  0.
        -13    1    3    3    0    0 -0.19215868349E+02  0.19579861039E+02 -0.18201729626E+03  0.18407312865E+03  0.00000000000E+00 0.  1.
         14    1    3    3    0    0 -0.41854520874E+01  0.15323097113E+02  0.32243408811E+01  0.16208383276E+02  0.00000000000E+00 0. -1.
         13    1    5    5    0    0  0.52411319092E+01 -0.28868063274E+02  0.14715021775E+03  0.15004672980E+03  0.00000000000E+00 0. -1.
        -14    1    5    5    0    0 -0.89317701031E+01  0.17803840309E+02  0.10147597804E+04  0.10149552528E+04  0.00000000000E+00 0.  1.
          5    1    4    4  501    0  0.31124782603E+02  0.46103810841E+02  0.49375166415E+03  0.49689283725E+03  0.41800000000E+01 0.  1.
         -5    1    4    4    0  501 -0.40328239730E+01 -0.69942546028E+02  0.36650686377E+03  0.37316615201E+03  0.41800000000E+01 0.  1.
</event>
<event>
11    1  0.7577197E-009  0.1492144E+03  0.7561462E-02  0.1097684E+00
         22   -1    0    0    0    0  0.00000000000E+00  0.00000000000E+00  0.98995421355E+03  0.98995421355E+03  0.00000000000E+00 0.  1.
         22   -1    0    0    0    0 -0.00000000000E+00 -0.00000000000E+00 -0.96645793805E+03  0.96645793805E+03  0.00000000000E+00 0.  1.
        -24    2    1    2    0    0 -0.11289664719E+02  0.57520677504E+02 -0.91646796469E+03  0.92188286974E+03  0.80736672945E+02 0.  0.
         25    2    1    2    0    0  0.61053336243E+01 -0.13405539330E+03  0.15037070758E+03  0.23720654524E+03  0.12508985504E+03 0.  0.
         24    2    1    2    0    0  0.51843310946E+01  0.76534715798E+02  0.78959353261E+03  0.79732273662E+03  0.79882160585E+02 0.  0.
        -13    1    5    5    0    0 -0.24055003280E+01 -0.69046135249E+01  0.33457171671E+03  0.33465160054E+03  0.00000000000E+00 0.  1.
         14    1    5    5    0    0  0.75898314226E+01  0.83439329323E+02  0.45502181590E+03  0.46267113608E+03  0.00000000000E+00 0. -1.
         11    1    3    3    0    0  0.82019726700E+01 -0.73429359202E+01 -0.19751237685E+02  0.22611998003E+02  0.00000000000E+00 0. -1.
        -12    1    3    3    0    0 -0.19491637389E+02  0.64863613424E+02 -0.89671672700E+03  0.89927087174E+03  0.00000000000E+00 0.  1.
          5    1    4    4  501    0 -0.20217462667E+02 -0.12336386642E+03  0.16331236132E+03  0.20570801903E+03  0.41800000000E+01 0. -1.
         -5    1    4    4    0  501  0.26322796292E+02 -0.10691526886E+02 -0.12941653738E+02  0.31498526208E+02  0.41800000000E+01 0. -1.
</event>
<event>
11    1  0.7577197E-009  0.1847309E+03  0.7561462E-02  0.1065879E+00
         22   -1    0    0    0    0  0.00000000000E+00  0.00000000000E+00  0.24538826057E+03  0.24538826057E+03  0.00000000000E+00 0.  1.
         22   -1    0    0    0    0 -0.00000000000E+00 -0.00000000000E+00 -0.72154269042E+03  0.72154269042E+03  0.00000000000E+00 0.  1.
         24    2    1    2    0    0 -0.76750095729E+01  0.13953182488E+03 -0.58155985505E+03  0.60347760440E+03  0.80282738403E+02 0.  0.
         25    2    1    2    0    0  0.41584178949E+01 -0.11476723378E+03 -0.57917458259E+02  0.17941708006E+03  0.12508895337E+03 0.  0.
        -24    2    1    2    0    0  0.35165916780E+01 -0.24764591097E+02  0.16332288345E+03  0.18403626653E+03  0.81051414248E+02 0.  0.
        -11    1    3    3    0    0 -0.41611723923E+02  0.10285049232E+03 -0.41590196529E+03  0.43044651709E+03  0.00000000000E+00 0.  1.
         12    1    3    3    0    0  0.33936714350E+02  0.36681332560E+02 -0.16565788975E+03  0.17303108731E+03  0.00000000000E+00 0. -1.
         13    1    5    5    0    0  0.59731179969E+01 -0.40459773440E+02  0.32464203026E+02  0.52216816100E+02  0.00000000000E+00 0. -1.
        -14    1    5    5    0    0 -0.24565263189E+01  0.15695182343E+02  0.13085868042E+03  0.13181945043E+03  0.00000000000E+00 0.  1.
          5    1    4    4  501    0  0.37558110352E+02  0.11049907351E+02 -0.17134316409E+02  0.42939134883E+02  0.41800000000E+01 0.  1.
         -5    1    4    4    0  501 -0.33399692457E+02 -0.12581714114E+03 -0.40783141850E+02  0.13647794517E+03  0.41800000000E+01 0.  1.
</event>
<event>
11    1  0.7577197E-009  0.1351320E+03  0.7561462E-02  0.1113119E+00
         22   -1    0    0    0    0  0.00000000000E+00  0.00000000000E+00  0.20220879477E+04  0.20220879477E+04  0.00000000000E+00 0. -1.
         22   -1    0    0    0    0 -0.00000000000E+00 -0.00000000000E+00 -0.10202094946E+03  0.10202094946E+03  0.00000000000E+00 0.  1.
        -24    2    1    2    0    0  0.19637264895E+02 -0.41570397279E+02 -0.51594529980E+02  0.10619789796E+03  0.80636703212E+02 0.  0.
         25    2    1    2    0    0  0.18909082281E+02  0.43938858644E+01  0.16188387536E+03  0.20550213731E+03  0.12509148537E+03 0.  0.
         24    2    1    2    0    0 -0.38546347176E+02  0.37176511415E+02  0.18097776529E+04  0.18124088619E+04  0.81626074164E+02 0.  0.
        -11    1    5    5    0    0  0.25321922576E+02  0.14782276745E+02  0.45753879812E+03  0.45847733559E+03  0.00000000000E+00 0.  1.
         12    1    5    5    0    0 -0.63868269752E+02  0.22394234670E+02  0.13522388548E+04  0.13539315263E+04  0.00000000000E+00 0. -1.
         11    1    3    3    0    0  0.50926238658E+02 -0.22230396851E+02 -0.25753907144E+02  0.61244886001E+02  0.00000000000E+00 0. -1.
        -12    1    3    3    0    0 -0.31288973763E+02 -0.19340000428E+02 -0.25840622836E+02  0.44953011960E+02  0.00000000000E+00 0.  1.
          5    1    4    4  501    0 -0.38583221724E+02 -0.15151111290E+02  0.11428135738E+02  0.43200646504E+02  0.41800000000E+01 0. -1.
         -5    1    4    4    0  501  0.57492304005E+02  0.19544997154E+02  0.15045573962E+03  0.16230149080E+03  0.41800000000E+01 0. -1.
</event>
<event>
11    1  0.7577197E-009  0.1758049E+03  0.7561462E-02  0.1073088E+00
         22   -1    0    0    0    0  0.00000000000E+00  0.00000000000E+00  0.34417107918E+04  0.34417107918E+04  0.00000000000E+00 0.  1.
         22   -1    0    0    0    0 -0.00000000000E+00 -0.00000000000E+00 -0.19909760963E+03  0.19909760963E+03  0.00000000000E+00 0.  1.
        -24    2    1    2    0    0  0.57495831797E+01  0.65978549540E+02 -0.17199402208E+03  0.20104589817E+03  0.80319878203E+02 0.  0.
         25    2    1    2    0    0 -0.12792529616E+03 -0.62649386792E+02  0.86347094827E+03  0.88403563618E+03  0.12508837064E+03 0.  0.
         24    2    1    2    0    0  0.12217571298E+03 -0.33291627472E+01  0.25511362560E+04  0.25557268671E+04  0.92225996073E+02 0.  0.
        -13    1    5    5    0    0  0.31310839484E+02  0.63514811802E+01  0.15747107306E+04  0.15750347917E+04  0.00000000000E+00 0.  1.
         14    1    5    5    0    0  0.90864873495E+02 -0.96806439274E+01  0.97642552543E+03  0.98069207543E+03  0.00000000000E+00 0. -1.
         11    1    3    3    0    0 -0.13525431249E+02 -0.16271998352E+01  0.16391321909E+01  0.13721218026E+02  0.00000000000E+00 0. -1.
        -12    1    3    3    0    0  0.19275014429E+02  0.67605749375E+02 -0.17363315427E+03  0.18732468015E+03  0.00000000000E+00 0.  1.
          5    1    4    4  501    0 -0.38363184253E+01 -0.62705912268E+02  0.36119027326E+03  0.36663692485E+03  0.41800000000E+01 0. -1.
         -5    1    4    4    0  501 -0.12408897773E+03  0.56525475241E-01  0.50228067502E+03  0.51739871133E+03  0.41800000000E+01 0. -1.
</event>
<event>
11    1  0.7577197E-009  0.1429835E+03  0.7561462E-02  0.1104272E+00
         22   -1    0    0    0    0  0.00000000000E+00  0.00000000000E+00  0.41810277204E+02  0.41810277204E+02  0.00000000000E+00 0. -1.
         22   -1    0    0    0    0 -0.00000000000E+00 -0.00000000000E+00 -0.24719957459E+04  0.24719957459E+04  0.00000000000E+00 0. -1.
         24    2    1    2    0    0  0.41386529221E+02  0.47289038959E+02 -0.15675780698E+04  0.15709071423E+04  0.80617285333E+02 0.  0.
         25    2    1    2    0    0 -0.79443030382E+02 -0.61427160428E+02 -0.82617728830E+03  0.84160578375E+03  0.12508753910E+03 0.  0.
        -24    2    1    2    0    0  0.38056501161E+02  0.14138121469E+02 -0.36430110608E+02  0.10129309709E+03  0.85351946671E+02 0.  0.
        -13    1    3    3    0    0  0.21451017701E+02  0.69271286767E+02 -0.11277962704E+04  0.11301252518E+04  0.00000000000E+00 0.  1.
         14    1    3    3    0    0  0.19935511520E+02 -0.21982247808E+02 -0.43978179945E+03  0.44078189047E+03  0.00000000000E+00 0. -1.
         11    1    5    5    0    0  0.13019671398E+02  0.40020868138E+02  0.92858485138E+01  0.43097664815E+02  0.00000000000E+00 0. -1.
        -12    1    5    5    0    0  0.25036829763E+02 -0.25882746669E+02 -0.45715959122E+02  0.58195432279E+02  0.00000000000E+00 0.  1.
          5    1    4    4  501    0  0.30857131582E+02  0.50674366550E+01 -0.16160633621E+03  0.16465698220E+03  0.41800000000E+01 0. -1.
         -5    1    4    4    0  501 -0.11030016196E+03 -0.66494597083E+02 -0.66457095209E+03  0.67694880156E+03  0.41800000000E+01 0. -1.
</event>
<event>
11    1  0.7577197E-009  0.3353790E+03  0.7561462E-02  0.9862385E-01
         22   -1    0    0    0    0  0.00000000000E+00  0.00000000000E+00  0.11063598318E+04  0.11063598318E+04  0.00000000000E+00 0.  1.
         22   -1    0    0    0    0 -0.00000000000E+00 -0.00000000000E+00 -0.69048194806E+03  0.69048194806E+03  0.00000000000E+00 0. -1.
         24    2    1    2    0    0 -0.21234847942E+03 -0.24524515892E+03 -0.55873802898E+03  0.65096422645E+03  0.79556108557E+02 0.  0.
         25    2    1    2    0    0 -0.11584336451E+03  0.73220844817E+02  0.15129723019E+03  0.23941333264E+03  0.12508762835E+03 0.  0.
        -24    2    1    2    0    0  0.32819184392E+03  0.17202431411E+03  0.82331868252E+03  0.90646422076E+03  0.80755677592E+02 0.  0.
        -11    1    3    3    0    0  0.22929074764E+01 -0.26567318082E+02 -0.59323502947E+02  0.65041200917E+02  0.00000000000E+00 0.  1.
         12    1    3    3    0    0 -0.21464138689E+03 -0.21867784084E+03 -0.49941452603E+03  0.58592302553E+03  0.00000000000E+00 0. -1.
         11    1    5    5    0    0  0.35097753917E+02  0.39970074087E+02  0.17359735438E+03  0.18156403994E+03  0.00000000000E+00 0. -1.
        -12    1    5    5    0    0  0.29309409001E+03  0.13205424002E+03  0.64972132814E+03  0.72490018081E+03  0.00000000000E+00 0.  1.
          5    1    4    4  501    0 -0.35217845702E+02  0.81911046054E+02  0.31427955059E+02  0.94630359192E+02  0.41800000000E+01 0.  1.
         -5    1    4    4    0  501 -0.80625518805E+02 -0.86902012371E+01  0.11986927513E+03  0.14478297345E+03  0.41800000000E+01 0.  1.
</event>
<event>
11    1  0.7577197E-009  0.1848145E+03  0.7561462E-02  0.1065814E+00
         22   -1    0    0    0    0  0.00000000000E+00  0.00000000000E+00  0.10997179441E+04  0.10997179441E+04  0.00000000000E+00 0. -1.
         22   -1    0    0    0    0 -0.00000000000E+00 -0.00000000000E+00 -0.53849318133E+03  0.53849318133E+03  0.00000000000E+00 0.  1.
         24    2    1    2    0    0  0.13694736213E+03 -0.25712837269E+02 -0.41318878517E+03  0.44648918059E+03  0.95978571552E+02 0.  0.
         25    2    1    2    0    0 -0.12880363133E+03 -0.89916793431E+02 -0.63028261498E+01  0.20090721677E+03  0.12509428024E+03 0.  0.
        -24    2    1    2    0    0 -0.81437308076E+01  0.11562963070E+03  0.98071637405E+03  0.99081472801E+03  0.80453011610E+02 0.  0.
        -13    1    3    3    0    0  0.26086640028E+01  0.23273283887E+02 -0.91545524615E+02  0.94493565642E+02  0.00000000000E+00 0.  1.
         14    1    3    3    0    0  0.13433869813E+03 -0.48986121156E+02 -0.32164326056E+03  0.35199561495E+03  0.00000000000E+00 0. -1.
         11    1    5    5    0    0 -0.28557719537E+02  0.10806318703E+03  0.90956841623E+03  0.91641033360E+03  0.00000000000E+00 0. -1.
        -12    1    5    5    0    0  0.20413988730E+02  0.75664436695E+01  0.71147957821E+02  0.74404394411E+02  0.00000000000E+00 0.  1.
          5    1    4    4  501    0 -0.12742281117E+03 -0.86472979936E+02  0.36029164666E+02  0.15820784485E+03  0.41800000000E+01 0.  1.
         -5    1    4    4    0  501 -0.13808201512E+01 -0.34438134942E+01 -0.42331990815E+02  0.42699371916E+02  0.41800000000E+01 0.  1.
</event>
<event>
11    1  0.7577197E-009  0.1626116E+03  0.7561462E-02  0.1084646E+00
         22   -1    0    0    0    0  0.00000000000E+00  0.00000000000E+00  0.82590182589E+03  0.82590182589E+03  0.00000000000E+00 0. -1.
         22   -1    0    0    0    0 -0.00000000000E+00 -0.00000000000E+00 -0.20397114639E+03  0.20397114639E+03  0.00000000000E+00 0.  1.
        -24    2    1    2    0    0 -0.79945587550E+02  0.37499059745E+02 -0.11792055823E+03  0.16828800912E+03  0.81351825500E+02 0.  0.
         25    2    1    2    0    0  0.16502539558E+03 -0.77610676220E+02  0.17195965167E+03  0.28013358814E+03  0.12509159505E+03 0.  0.
         24    2    1    2    0    0 -0.85079808026E+02  0.40111616475E+02  0.56789158606E+03  0.58145137501E+03  0.82081255324E+02 0.  0.
        -13    1    5    5    0    0 -0.26713014287E+02  0.57907124686E+02  0.29828774883E+03  0.30502852542E+03  0.00000000000E+00 0.  1.
         14    1    5    5    0    0 -0.58366793739E+02 -0.17795508211E+02  0.26960383723E+03  0.27642284959E+03  0.00000000000E+00 0. -1.
         13    1    3    3    0    0 -0.58067402231E+02  0.20643880053E+02 -0.17392294113E+02  0.64035028539E+02  0.00000000000E+00 0. -1.
        -14    1    3    3    0    0 -0.21878185319E+02  0.16855179692E+02 -0.10052826411E+03  0.10425298059E+03  0.00000000000E+00 0.  1.
          5    1    4    4  501    0  0.15551624287E+03 -0.46255755909E+02  0.18365366251E+03  0.24509393486E+03  0.41800000000E+01 0.  1.
         -5    1    4    4    0  501  0.95091527046E+01 -0.31354920311E+02 -0.11694010834E+02  0.35039653284E+02  0.41800000000E+01 0.  1.
</event>
<event>
11    1  0.7577197E-009  0.1282298E+03  0.7561462E-02  0.1121463E+00
         22   -1    0    0    0    0  0.00000000000E+00  0.00000000000E+00  0.18318198124E+03  0.18318198124E+03  0.00000000000E+00 0. -1.
         22   -1    0    0    0    0 -0.00000000000E+00 -0.00000000000E+00 -0.12092073753E+04  0.12092073753E+04  0.00000000000E+00 0.  1.
        -24    2    1    2    0    0  0.22479683051E+02  0.17052268070E+02 -0.11269082294E+04  0.11303053756E+04  0.82897337474E+02 0.  0.
         25    2    1    2    0    0 -0.11686356693E+02 -0.30111228159E+02 -0.24400389096E+01  0.12921621451E+03  0.12509044451E+03 0.  0.
         24    2    1    2    0    0 -0.10793326358E+02  0.13058960089E+02  0.10332287425E+03  0.13286776646E+03  0.81799723040E+02 0.  0.
        -13    1    5    5    0    0 -0.11991531905E+02 -0.12348639666E+02 -0.77806616104E+01  0.18889797090E+02  0.00000000000E+00 0.  1.
         14    1    5    5    0    0  0.11982055466E+01  0.25407599755E+02  0.11110353586E+03  0.11397796937E+03  0.00000000000E+00 0. -1.
         11    1    3    3    0    0 -0.15284927105E+02 -0.25465728939E+02 -0.47156900881E+03  0.47250339937E+03  0.00000000000E+00 0. -1.
        -12    1    3    3    0    0  0.37764610157E+02  0.42517997010E+02 -0.65533922059E+03  0.65780197620E+03  0.00000000000E+00 0.  1.
          5    1    4    4  501    0 -0.32602101983E+02 -0.31985912074E+02  0.52820014822E+02  0.69952998440E+02  0.41800000000E+01 0. -1.
         -5    1    4    4    0  501  0.20915745290E+02  0.18746839151E+01 -0.55260053731E+02  0.59263216072E+02  0.41800000000E+01 0. -1.
</event>
<event>
11    1  0.7577197E-009  0.1354899E+03  0.7561462E-02  0.1112702E+00
         22   -1    0    0    0    0  0.00000000000E+00  0.00000000000E+00  0.50762071056E+03  0.50762071056E+03  0.00000000000E+00 0. -1.
         22   -1    0    0    0    0 -0.00000000000E+00 -0.00000000000E+00 -0.43090585814E+03  0.43090585814E+03  0.00000000000E+00 0. -1.
         24    2    1    2    0    0 -0.37363147099E+02 -0.63163060623E+01 -0.36449356512E+03  0.37530461642E+03  0.81006762752E+02 0.  0.
         25    2    1    2    0    0  0.51630308602E+01  0.49137903215E+02  0.26336478853E+02  0.13704827847E+03  0.12508968820E+03 0.  0.
        -24    2    1    2    0    0  0.32200116239E+02 -0.42821597153E+02  0.41487193868E+03  0.42617367381E+03  0.81453901500E+02 0.  0.
        -13    1    3    3    0    0 -0.32053564143E+02  0.63300435337E+01 -0.45496289944E+02  0.56012613080E+02  0.00000000000E+00 0.  1.
         14    1    3    3    0    0 -0.53095829562E+01 -0.12646349596E+02 -0.31899727518E+03  0.31929200334E+03  0.00000000000E+00 0. -1.
         11    1    5    5    0    0 -0.66325391763E+01 -0.53748965076E+02  0.28783058558E+03  0.29288118379E+03  0.00000000000E+00 0. -1.
        -12    1    5    5    0    0  0.38832655415E+02  0.10927367923E+02  0.12704135310E+03  0.13329249001E+03  0.00000000000E+00 0.  1.
          5    1    4    4  501    0  0.16637347131E+02  0.49154886315E+02 -0.42456925302E+02  0.67179364944E+02  0.41800000000E+01 0. -1.
         -5    1    4    4    0  501 -0.11474316271E+02 -0.16983099864E-01  0.68793404155E+02  0.69868913528E+02  0.41800000000E+01 0. -1.
</event>
<event>
11    1  0.7577197E-009  0.1427611E+03  0.7561462E-02  0.1104514E+00
         22   -1    0    0    0    0  0.00000000000E+00  0.00000000000E+00  0.14801543444E+04  0.14801543444E+04  0.00000000000E+00 0. -1.
         22   -1    0    0    0    0 -0.00000000000E+00 -0.00000000000E+00 -0.53734275508E+03  0.53734275508E+03  0.00000000000E+00 0.  1.
         24    2    1    2    0    0  0.22255062394E+02 -0.13160505451E+02 -0.49427153827E+03  0.50197098827E+03  0.83678150166E+02 0.  0.
         25    2    1    2    0    0 -0.22429855314E+02 -0.56320041337E+02  0.92916004765E+02  0.16720116654E+03  0.12509116949E+03 0.  0.
        -24    2    1    2    0    0  0.17479292026E+00  0.69480546788E+02  0.13441671228E+04  0.13483249446E+04  0.79795522327E+02 0.  0.
        -11    1    3    3    0    0  0.94497707183E+01 -0.11002814465E+02 -0.48674624544E+03  0.48696228555E+03  0.00000000000E+00 0.  1.
         12    1    3    3    0    0  0.12805291676E+02 -0.21576909855E+01 -0.75252928278E+01  0.15008702723E+02  0.00000000000E+00 0. -1.
         11    1    5    5    0    0 -0.29070960453E+02  0.45225170273E+02  0.10908654274E+04  0.10921894605E+04  0.00000000000E+00 0. -1.
        -12    1    5    5    0    0  0.29245753373E+02  0.24255376515E+02  0.25330169534E+03  0.25613548416E+03  0.00000000000E+00 0.  1.
          5    1    4    4  501    0 -0.29244084249E+02  0.29444755744E+02  0.17023134576E+01  0.41744225654E+02  0.41800000000E+01 0. -1.
         -5    1    4    4    0  501  0.68142289346E+01 -0.85764797080E+02  0.91213691308E+02  0.12545694088E+03  0.41800000000E+01 0. -1.
</event>
<event>
11    1  0.7577197E-009  0.1344694E+03  0.7561462E-02  0.1113896E+00
         22   -1    0    0    0    0  0.00000000000E+00  0.00000000000E+00  0.27884474066E+04  0.27884474066E+04  0.00000000000E+00 0. -1.
         22   -1    0    0    0    0 -0.00000000000E+00 -0.00000000000E+00 -0.37126054350E+03  0.37126054350E+03  0.00000000000E+00 0. -1.
        -24    2    1    2    0    0  0.96660526659E+01 -0.47215826905E+02 -0.32892619405E+03  0.34208912908E+03  0.80683109868E+02 0.  0.
         25    2    1    2    0    0  0.97396642851E+01  0.80040101404E+02  0.12358841488E+03  0.19345206226E+03  0.12509326604E+03 0.  0.
         24    2    1    2    0    0 -0.19405716951E+02 -0.32824274499E+02  0.26225246423E+04  0.26241667588E+04  0.84626612692E+02 0.  0.
        -11    1    5    5    0    0 -0.40112271488E+02  0.13223943440E+02  0.11355988723E+04  0.11363840310E+04  0.00000000000E+00 0.  1.
         12    1    5    5    0    0  0.20706554537E+02 -0.46048217938E+02  0.14869257700E+04  0.14877827278E+04  0.00000000000E+00 0. -1.
         11    1    3    3    0    0 -0.25193169696E+02 -0.52291562135E+02 -0.22445802457E+03  0.23184155810E+03  0.00000000000E+00 0. -1.
        -12    1    3    3    0    0  0.34859222362E+02  0.50757352298E+01 -0.10446816948E+03  0.11024757098E+03  0.00000000000E+00 0.  1.
          5    1    4    4  501    0 -0.45564117684E+02  0.53357952966E+02  0.20205664391E+02  0.73136182827E+02  0.41800000000E+01 0.  1.
         -5    1    4    4    0  501  0.55303781970E+02  0.26682148438E+02  0.10338275049E+03  0.12031587943E+03  0.41800000000E+01 0.  1.
</event>
<event>
11    1  0.7577197E-009  0.1539569E+03  0.7561462E-02  0.1092903E+00
         22   -1    0    0    0    0  0.00000000000E+00  0.00000000000E+00  0.40193659858E+03  0.40193659858E+03  0.00000000000E+00 0. -1.
         22   -1    0    0    0    0 -0.00000000000E+00 -0.00000000000E+00 -0.61723765883E+03  0.61723765883E+03  0.00000000000E+00 0.  1.
        -24    2    1    2    0    0  0.36036789318E+02  0.85767381967E+02 -0.54142164787E+03  0.55509034495E+03  0.79581381496E+02 0.  0.
         25    2    1    2    0    0 -0.48499323325E+02 -0.35857867324E+02  0.16435295597E+02  0.13984036855E+03  0.12508892326E+03 0.  0.
         24    2    1    2    0    0  0.12462534007E+02 -0.49909514643E+02  0.30968529203E+03  0.32424354391E+03  0.81133354808E+02 0.  0.
        -13    1    5    5    0    0 -0.64236761182E+01 -0.19424035737E+02  0.10648277135E+02  0.23063880530E+02  0.00000000000E+00 0.  1.
         14    1    5    5    0    0  0.18886210125E+02 -0.30485478907E+02  0.29903701489E+03  0.30117966338E+03  0.00000000000E+00 0. -1.
         13    1    3    3    0    0  0.27270872484E+02 -0.20074120232E+01 -0.22320032116E+03  0.22486910315E+03  0.00000000000E+00 0. -1.
        -14    1    3    3    0    0  0.87659168340E+01  0.87774793990E+02 -0.31822132672E+03  0.33022124180E+03  0.00000000000E+00 0.  1.
          5    1    4    4  501    0 -0.29571127526E+02  0.36636143362E+02 -0.25676817194E+02  0.53790611865E+02  0.41800000000E+01 0. -1.
         -5    1    4    4    0  501 -0.18928195798E+02 -0.72494010685E+02  0.42112112791E+02  0.86049756683E+02  0.41800000000E+01 0. -1.
</event>
<event>
11    1  0.7577197E-009  0.1708901E+03  0.7561462E-02  0.1077260E+00
         22   -1    0    0    0    0  0.00000000000E+00  0.00000000000E+00  0.48546239398E+03  0.48546239398E+03  0.00000000000E+00 0.  1.
         22   -1    0    0    0    0 -0.00000000000E+00 -0.00000000000E+00 -0.11681020629E+04  0.11681020629E+04  0.00000000000E+00 0.  1.
         24    2    1    2    0    0  0.62956311163E+02  0.12864172544E+03 -0.82740152841E+03  0.84357583192E+03  0.80713718450E+02 0.  0.
         25    2    1    2    0    0 -0.40934733494E+02 -0.52404323184E+02 -0.31001727651E+03  0.34085329704E+03  0.12509353649E+03 0.  0.
        -24    2    1    2    0    0 -0.22021577669E+02 -0.76237402258E+02  0.45477913602E+03  0.46913532790E+03  0.83467370540E+02 0.  0.
        -11    1    3    3    0    0  0.69764071883E+02  0.60532992022E+02 -0.38589423628E+03  0.39679419154E+03  0.00000000000E+00 0.  1.
         12    1    3    3    0    0 -0.68077607199E+01  0.68108733420E+02 -0.44150729213E+03  0.44678164038E+03  0.00000000000E+00 0. -1.
         13    1    5    5    0    0 -0.12360321779E+02 -0.55449035987E+02  0.11193964932E+03  0.12553030804E+03  0.00000000000E+00 0. -1.
        -14    1    5    5    0    0 -0.96612558900E+01 -0.20788366270E+02  0.34283948670E+03  0.34360501987E+03  0.00000000000E+00 0.  1.
          5    1    4    4  501    0 -0.30417286698E+02 -0.11099555243E+02 -0.52207985197E+01  0.33062676749E+02  0.41800000000E+01 0. -1.
         -5    1    4    4    0  501 -0.10517446797E+02 -0.41304767941E+02 -0.30479647799E+03  0.30779062029E+03  0.41800000000E+01 0. -1.
</event>
<event>
11    1  0.7577197E-009  0.1421680E+03  0.7561462E-02  0.1105161E+00
         22   -1    0    0    0    0  0.00000000000E+00  0.00000000000E+00  0.70300617312E+02  0.70300617312E+02  0.00000000000E+00 0. -1.
         22   -1    0    0    0    0 -0.00000000000E+00 -0.00000000000E+00 -0.16958809940E+04  0.16958809940E+04  0.00000000000E+00 0.  1.
         24    2    1    2    0    0  0.58760178571E+02 -0.30728545072E+02 -0.10074585078E+04  0.10140865980E+04  0.94878770794E+02 0.  0.
         25    2    1    2    0    0 -0.52848729178E+02  0.49487430878E+02 -0.64774325784E+03  0.66367163071E+03  0.12508681520E+03 0.  0.
        -24    2    1    2    0    0 -0.59114493939E+01 -0.18758885806E+02  0.29621388962E+02  0.88423382639E+02  0.80959415034E+02 0.  0.
        -13    1    3    3    0    0  0.16921684775E+02 -0.29225342418E+02 -0.86360057683E+03  0.86426062062E+03  0.00000000000E+00 0.  1.
         14    1    3    3    0    0  0.41838493797E+02 -0.15032026536E+01 -0.14385793097E+03  0.14982597733E+03  0.00000000000E+00 0. -1.
         13    1    5    5    0    0  0.13449892708E+02 -0.10617981547E+02  0.53760815770E+02  0.56425760590E+02  0.00000000000E+00 0. -1.
        -14    1    5    5    0    0 -0.19361342102E+02 -0.81409042591E+01 -0.24139426808E+02  0.31997622048E+02  0.00000000000E+00 0.  1.
          5    1    4    4  501    0 -0.20910458839E+02 -0.35632561521E+02 -0.34653282871E+03  0.34901203490E+03  0.41800000000E+01 0.  1.
         -5    1    4    4    0  501 -0.31938270339E+02  0.85119992399E+02 -0.30121042913E+03  0.31465959581E+03  0.41800000000E+01 0.  1.
</event>
<event>
11    1  0.7577197E-009  0.1344653E+03  0.7561462E-02  0.1113901E+00
         22   -1    0    0    0    0  0.00000000000E+00  0.00000000000E+00  0.67673140070E+03  0.67673140070E+03  0.00000000000E+00 0.  1.
         22   -1    0    0    0    0 -0.00000000000E+00 -0.00000000000E+00 -0.17686191379E+03  0.17686191379E+03  0.00000000000E+00 0. -1.
         24    2    1    2    0    0 -0.46043173859E+02 -0.18088653848E+01 -0.98915997842E+02  0.13644074533E+03  0.81905167746E+02 0.  0.
         25    2    1    2    0    0 -0.20750241963E+01  0.21546819841E+02  0.17374980578E+02  0.12813250482E+03  0.12508987837E+03 0.  0.
        -24    2    1    2    0    0  0.48118198056E+02 -0.19737954457E+02  0.58141050417E+03  0.58902006434E+03  0.78749692127E+02 0.  0.
        -11    1    3    3    0    0  0.99003498925E+01  0.46109248234E+01  0.93689762491E+01  0.14389415265E+02  0.00000000000E+00 0.  1.
         12    1    3    3    0    0 -0.55943523752E+02 -0.64197902082E+01 -0.10828497409E+03  0.12205133006E+03  0.00000000000E+00 0. -1.
         11    1    5    5    0    0  0.49410935921E+02 -0.14148383232E+02  0.17070632757E+03  0.17827581891E+03  0.00000000000E+00 0. -1.
        -12    1    5    5    0    0 -0.12927378657E+01 -0.55895712243E+01  0.41070417660E+03  0.41074424543E+03  0.00000000000E+00 0.  1.
          5    1    4    4  501    0 -0.22031824675E+02 -0.19096745796E+02 -0.43263912695E+02  0.52338566471E+02  0.41800000000E+01 0.  1.
         -5    1    4    4    0  501  0.19956800479E+02  0.40643565638E+02  0.60638893273E+02  0.75793938349E+02  0.41800000000E+01 0.  1.
</event>
<event>
11    1  0.7577197E-009  0.2945077E+03  0.7561462E-02  0.1002543E+00
         22   -1    0    0    0    0  0.00000000000E+00  0.00000000000E+00  0.36717369153E+03  0.36717369153E+03  0.00000000000E+00 0. -1.
         22   -1    0    0    0    0 -0.00000000000E+00 -0.00000000000E+00 -0.25722186409E+04  0.25722186409E+04  0.00000000000E+00 0.  1.
        -24    2    1    2    0    0 -0.19896940254E+03 -0.17047303536E+03 -0.17573761017E+04  0.17786472679E+04  0.81027537824E+02 0.  0.
         25    2    1    2    0    0  0.61369604674E+02  0.34109357140E+03 -0.71578306758E+03  0.80504958506E+03  0.12509349199E+03 0.  0.
         24    2    1    2    0    0  0.13759979787E+03 -0.17062053603E+03  0.26811421992E+03  0.35569547946E+03  0.81172455277E+02 0.  0.
        -11    1    5    5    0    0  0.17985066228E+02  0.78516680733E-01  0.26500267138E+01  0.18179422809E+02  0.00000000000E+00 0.  1.
         12    1    5    5    0    0  0.11961473164E+03 -0.17069905272E+03  0.26546419321E+03  0.33751605665E+03  0.00000000000E+00 0. -1.
         11    1    3    3    0    0 -0.13072553883E+03 -0.58857270601E+02 -0.89961513487E+03  0.91096692349E+03  0.00000000000E+00 0. -1.
        -12    1    3    3    0    0 -0.68243863713E+02 -0.11161576476E+03 -0.85776096686E+03  0.86768034445E+03  0.00000000000E+00 0.  1.
          5    1    4    4  501    0  0.11946944336E+02  0.30926127012E+03 -0.60118740385E+03  0.67618712619E+03  0.41800000000E+01 0. -1.
         -5    1    4    4    0  501  0.49422660338E+02  0.31832301273E+02 -0.11459566373E+03  0.12886245887E+03  0.41800000000E+01 0. -1.
</event>
<event>
11    1  0.8513741E-009  0.1522817E+03  0.7561462E-02  0.1094570E+00
         22   -1    0    0    0    0  0.00000000000E+00  0.00000000000E+00  0.31858356757E+03  0.31858356757E+03  0.00000000000E+00 0. -1.
         22   -1    0    0    0    0 -0.00000000000E+00 -0.00000000000E+00 -0.10251171250E+04  0.10251171250E+04  0.00000000000E+00 0. -1.
         24    2    1    2    0    0 -0.60739027528E+02 -0.47700112379E+02 -0.79755244394E+03  0.80607299861E+03  0.87745359212E+02 0.  0.
         25    2    1    2    0    0  0.14056150351E+03  0.20348675232E+02 -0.16807414986E+03  0.25311623376E+03  0.12508918055E+03 0.  0.
        -24    2    1    2    0    0 -0.79822475982E+02  0.27351437147E+02  0.25909303632E+03  0.28451146026E+03  0.81840337008E+02 0.  0.
        -13    1    3    3    0    0 -0.79330293729E+02 -0.20527458059E+02 -0.49529622652E+03  0.50202890758E+03  0.00000000000E+00 0.  1.
         14    1    3    3    0    0  0.18591266201E+02 -0.27172654319E+02 -0.30225621742E+03  0.30404409103E+03  0.00000000000E+00 0. -1.
         13    1    5    5    0    0 -0.58488931867E+02  0.12483206766E+02  0.24985918927E+03  0.25691710738E+03  0.00000000000E+00 0. -1.
        -14    1    5    5    0    0 -0.21333544115E+02  0.14868230381E+02  0.92338470467E+01  0.27594352872E+02  0.00000000000E+00 0.  1.
          5    1    4    4  501    0  0.11633828264E+02  0.29278144055E+00 -0.10921962332E+03  0.10991737896E+03  0.41800000000E+01 0. -1.
         -5    1    4    4    0  501  0.12892767525E+03  0.20055893791E+02 -0.58854526540E+02  0.14319885479E+03  0.41800000000E+01 0. -1.
</event>
<event>
11    1  0.7577197E-009  0.1425106E+03  0.7561462E-02  0.1104787E+00
         22   -1    0    0    0    0  0.00000000000E+00  0.00000000000E+00  0.27137027497E+03  0.27137027497E+03  0.00000000000E+00 0. -1.
         22   -1    0    0    0    0 -0.00000000000E+00 -0.00000000000E+00 -0.18732500546E+03  0.18732500546E+03  0.00000000000E+00 0. -1.
         24    2    1    2    0    0  0.32595409571E+02  0.60577550421E+02 -0.64098446320E+02  0.12221032107E+03  0.78068248446E+02 0.  0.
         25    2    1    2    0    0 -0.88113681871E+02 -0.19818759525E+02  0.69654215418E+00  0.15428948123E+03  0.12509178504E+03 0.  0.
        -24    2    1    2    0    0  0.55518272300E+02 -0.40758790896E+02  0.14744717368E+03  0.18219547813E+03  0.81920483572E+02 0.  0.
        -11    1    3    3    0    0 -0.29409626720E+01  0.61927663424E+02 -0.19134504661E+02  0.64883079669E+02  0.00000000000E+00 0.  1.
         12    1    3    3    0    0  0.35536372243E+02 -0.13501130032E+01 -0.44963941658E+02  0.57327241402E+02  0.00000000000E+00 0. -1.
         11    1    5    5    0    0  0.66546281823E+02 -0.50569937700E+02  0.14481241613E+03  0.16720156126E+03  0.00000000000E+00 0. -1.
        -12    1    5    5    0    0 -0.11028009522E+02  0.98111468041E+01  0.26347575556E+01  0.14993916867E+02  0.00000000000E+00 0.  1.
          5    1    4    4  501    0 -0.12081094306E+02  0.49596001480E+02 -0.12670119647E+01  0.51232742672E+02  0.41800000000E+01 0. -1.
         -5    1    4    4    0  501 -0.76032587566E+02 -0.69414761005E+02  0.19635541188E+01  0.10305673856E+03  0.41800000000E+01 0. -1.
</event>
<event>
11    1  0.7577197E-009  0.1397984E+03  0.7561462E-02  0.1107784E+00
         22   -1    0    0    0    0  0.00000000000E+00  0.00000000000E+00  0.33275558223E+03  0.33275558223E+03  0.00000000000E+00 0.  1.
         22   -1    0    0    0    0 -0.00000000000E+00 -0.00000000000E+00 -0.42495104857E+03  0.42495104857E+03  0.00000000000E+00 0. -1.
         24    2    1    2    0    0  0.11447722549E+02 -0.25190337326E+02 -0.35991646887E+03  0.36968401112E+03  0.79754624130E+02 0.  0.
         25    2    1    2    0    0  0.26837907793E+02 -0.30945444638E+02  0.42419656733E+02  0.13829188157E+03  0.12508926170E+03 0.  0.
        -24    2    1    2    0    0 -0.38285630342E+02  0.56135781963E+02  0.22530134579E+03  0.24973073811E+03  0.83592641028E+02 0.  0.
        -11    1    3    3    0    0 -0.82816209730E+01  0.26512670764E+02 -0.91533049961E+02  0.95654619294E+02  0.00000000000E+00 0.  1.
         12    1    3    3    0    0  0.19729343522E+02 -0.51703008090E+02 -0.26838341891E+03  0.27402939183E+03  0.00000000000E+00 0. -1.
         11    1    5    5    0    0 -0.53726127398E+02  0.46164520282E+01  0.11052420816E+03  0.12297727019E+03  0.00000000000E+00 0. -1.
        -12    1    5    5    0    0  0.15440497056E+02  0.51519329935E+02  0.11477713763E+03  0.12675346792E+03  0.00000000000E+00 0.  1.
          5    1    4    4  501    0 -0.38425969310E+02 -0.19599207678E+02 -0.19497067147E+02  0.47521490785E+02  0.41800000000E+01 0. -1.
         -5    1    4    4    0  501  0.65263877103E+02 -0.11346236959E+02  0.61916723881E+02  0.90770390788E+02  0.41800000000E+01 0. -1.
</event>
<event>
11    1  0.7577197E-009  0.2169031E+03  0.7561462E-02  0.1043175E+00
         22   -1    0    0    0    0  0.00000000000E+00  0.00000000000E+00  0.16446290709E+03  0.16446290709E+03  0.00000000000E+00 0. -1.
         22   -1    0    0    0    0 -0.00000000000E+00 -0.00000000000E+00 -0.90802509783E+03  0.90802509783E+03  0.00000000000E+00 0. -1.
         24    2    1    2    0    0 -0.54687710001E+01  0.15037483575E+02 -0.55003352107E+03  0.55609275300E+03  0.80288493954E+02 0.  0.
         25    2    1    2    0    0 -0.16316087728E+03  0.46284104585E+02 -0.23697668418E+03  0.31712706245E+03  0.12509170506E+03 0.  0.
        -24    2    1    2    0    0  0.16862964828E+03 -0.61321588161E+02  0.43448014520E+02  0.19926818949E+03  0.74991905701E+02 0.  0.
        -11    1    3    3    0    0  0.37476508221E+02  0.77896615243E+01 -0.26568282710E+03  0.26842602726E+03  0.00000000000E+00 0.  1.
         12    1    3    3    0    0 -0.42945279221E+02  0.72478220510E+01 -0.28435069397E+03  0.28766672573E+03  0.00000000000E+00 0. -1.
         11    1    5    5    0    0  0.16457742836E+03 -0.36127610810E+02  0.33015509271E+02  0.17170019814E+03  0.00000000000E+00 0. -1.
        -12    1    5    5    0    0  0.40522199207E+01 -0.25193977351E+02  0.10432505249E+02  0.27567991345E+02  0.00000000000E+00 0.  1.
          5    1    4    4  501    0 -0.15488467519E+02 -0.17838014449E+02 -0.10847319486E+03  0.11109452637E+03  0.41800000000E+01 0.  1.
         -5    1    4    4    0  501 -0.14767240976E+03  0.64122119034E+02 -0.12850348932E+03  0.20603253608E+03  0.41800000000E+01 0.  1.
</event>
<event>
11    1  0.7577197E-009  0.2252186E+03  0.7561462E-02  0.1037997E+00
         22   -1    0    0    0    0  0.00000000000E+00  0.00000000000E+00  0.12329725347E+04  0.12329725347E+04  0.00000000000E+00 0.  1.
         22   -1    0    0    0    0 -0.00000000000E+00 -0.00000000000E+00 -0.68760069847E+03  0.68760069847E+03  0.00000000000E+00 0.  1.
        -24    2    1    2    0    0 -0.86278258640E+02  0.16832100528E+03 -0.49079620108E+03  0.53213601203E+03  0.80696502863E+02 0.  0.
         25    2    1    2    0    0  0.12345662521E+03 -0.13844828663E+03 -0.10240660022E+03  0.24605727180E+03  0.12509037875E+03 0.  0.
         24    2    1    2    0    0 -0.37178366571E+02 -0.29872718657E+02  0.11385746376E+04  0.11423799494E+04  0.80032075820E+02 0.  0.
        -11    1    5    5    0    0 -0.12113910356E+02 -0.51262504188E+02  0.90005798099E+03  0.90159800371E+03  0.00000000000E+00 0.  1.
         12    1    5    5    0    0 -0.25064456215E+02  0.21389785532E+02  0.23851665657E+03  0.24078194565E+03  0.00000000000E+00 0. -1.
         11    1    3    3    0    0 -0.83076450885E+02  0.79526627811E+02 -0.24166146592E+03  0.26763117407E+03  0.00000000000E+00 0. -1.
        -12    1    3    3    0    0 -0.32018077556E+01  0.88794377474E+02 -0.24913473515E+03  0.26450483796E+03  0.00000000000E+00 0.  1.
          5    1    4    4  501    0 -0.14660989378E+02 -0.65160925280E+02 -0.37506404018E+02  0.76714363292E+02  0.41800000000E+01 0. -1.
         -5    1    4    4    0  501  0.13811761459E+03 -0.73287361348E+02 -0.64900196204E+02  0.16934290850E+03  0.41800000000E+01 0. -1.
</event>
<event>
11    1  0.7577197E-009  0.1518437E+03  0.7561462E-02  0.1095010E+00
         22   -1    0    0    0    0  0.00000000000E+00  0.00000000000E+00  0.42045692729E+03  0.42045692729E+03  0.00000000000E+00 0.  1.
         22   -1    0    0    0    0 -0.00000000000E+00 -0.00000000000E+00 -0.39719588618E+03  0.39719588618E+03  0.00000000000E+00 0.  1.
         24    2    1    2    0    0 -0.71488820650E+02  0.24275425227E+02 -0.30984011128E+03  0.32881355497E+03  0.80109372888E+02 0.  0.
         25    2    1    2    0    0  0.36945873802E+02 -0.10338045129E+03  0.36523238461E+02  0.17039357162E+03  0.12508999560E+03 0.  0.
        -24    2    1    2    0    0  0.34542946849E+02  0.79105026067E+02  0.29657791393E+03  0.31844568689E+03  0.77449184223E+02 0.  0.
        -11    1    3    3    0    0 -0.40597357875E+02  0.27965009617E+02 -0.62874687883E+02  0.79896267784E+02  0.00000000000E+00 0.  1.
         12    1    3    3    0    0 -0.30891462775E+02 -0.36895843902E+01 -0.24696542340E+03  0.24891728719E+03  0.00000000000E+00 0. -1.
         11    1    5    5    0    0 -0.91418887362E+01  0.16030205421E+02  0.84851074564E+01  0.20311047832E+02  0.00000000000E+00 0. -1.
        -12    1    5    5    0    0  0.43684835585E+02  0.63074820646E+02  0.28809280648E+03  0.29813463905E+03  0.00000000000E+00 0.  1.
          5    1    4    4  501    0  0.48528732600E+02 -0.11663060224E+03  0.60688545413E+02  0.14020808540E+03  0.41800000000E+01 0.  1.
         -5    1    4    4    0  501 -0.11582858799E+02  0.13250150947E+02 -0.24165306952E+02  0.30185486217E+02  0.41800000000E+01 0.  1.
</event>
<event>
11    1  0.7577197E-009  0.1452941E+03  0.7561462E-02  0.1101787E+00
         22   -1    0    0    0    0  0.00000000000E+00  0.00000000000E+00  0.13816713608E+03  0.13816713608E+03  0.00000000000E+00 0. -1.
         22   -1    0    0    0    0 -0.00000000000E+00 -0.00000000000E+00 -0.93902807176E+03  0.93902807176E+03  0.00000000000E+00 0.  1.
         24    2    1    2    0    0 -0.18544868297E+02  0.79156581482E+02 -0.52600956715E+03  0.53899766186E+03  0.84986694415E+02 0.  0.
         25    2    1    2    0    0  0.44437020213E+02 -0.48083520304E+02 -0.37653748548E+03  0.40213805901E+03  0.12509143396E+03 0.  0.
        -24    2    1    2    0    0 -0.25892151916E+02 -0.31073061178E+02  0.10168611694E+03  0.13605948696E+03  0.80846638471E+02 0.  0.
        -11    1    3    3    0    0  0.19302475539E+02  0.53476411276E+01 -0.24981386341E+03  0.25061554058E+03  0.00000000000E+00 0.  1.
         12    1    3    3    0    0 -0.37847343836E+02  0.73808940354E+02 -0.27619570374E+03  0.28838212128E+03  0.00000000000E+00 0. -1.
         13    1    5    5    0    0 -0.42104262021E+02  0.10417271384E+01  0.88017768526E+02  0.97575517688E+02  0.00000000000E+00 0. -1.
        -14    1    5    5    0    0  0.16212110105E+02 -0.32114788316E+02  0.13668348414E+02  0.38483969273E+02  0.00000000000E+00 0.  1.
          5    1    4    4  501    0  0.82387619528E+02 -0.91959416560E+01 -0.27000324327E+03  0.28247390848E+03  0.41800000000E+01 0. -1.
         -5    1    4    4    0  501 -0.37950599315E+02 -0.38887578648E+02 -0.10653424220E+03  0.11966415054E+03  0.41800000000E+01 0. -1.
</event>
<event>
11    1  0.7577197E-009  0.2524406E+03  0.7561462E-02  0.1022607E+00
         22   -1    0    0    0    0  0.00000000000E+00  0.00000000000E+00  0.19443408361E+04  0.19443408361E+04  0.00000000000E+00 0. -1.
         22   -1    0    0    0    0 -0.00000000000E+00 -0.00000000000E+00 -0.13628207088E+04  0.13628207088E+04  0.00000000000E+00 0. -1.
        -24    2    1    2    0    0 -0.13930021752E+03  0.96097457748E+01 -0.12691397093E+04  0.12792528923E+04  0.79217819312E+02 0.  0.
         25    2    1    2    0    0  0.25786450537E+03 -0.18434984913E+03  0.27992982148E+03  0.44101414674E+03  0.12511515761E+03 0.  0.
         24    2    1    2    0    0 -0.11856428784E+03  0.17474010336E+03  0.15707300151E+04  0.15868945059E+04  0.80310636640E+02 0.  0.
        -13    1    5    5    0    0 -0.73887256934E+01  0.77106580483E+02  0.59111428648E+03  0.59616786034E+03  0.00000000000E+00 0.  1.
         14    1    5    5    0    0 -0.11117556215E+03  0.97633522877E+02  0.97961572861E+03  0.99072664552E+03  0.00000000000E+00 0. -1.
         13    1    3    3    0    0 -0.10224548554E+03 -0.29655222844E+02 -0.82165628441E+03  0.82852436371E+03  0.00000000000E+00 0. -1.
        -14    1    3    3    0    0 -0.37054731988E+02  0.39264968619E+02 -0.44748342486E+03  0.45072852855E+03  0.00000000000E+00 0.  1.
          5    1    4    4  501    0  0.30918239494E+02 -0.33066994854E+01 -0.77172430529E+01  0.32309441890E+02  0.41800000000E+01 0. -1.
         -5    1    4    4    0  501  0.22694626587E+03 -0.18104314965E+03  0.28764706454E+03  0.40870470485E+03  0.41800000000E+01 0. -1.
</event>
<event>
11    1  0.7577197E-009  0.2828130E+03  0.7561462E-02  0.1007739E+00
         22   -1    0    0    0    0  0.00000000000E+00  0.00000000000E+00  0.18165859421E+04  0.18165859421E+04  0.00000000000E+00 0. -1.
         22   -1    0    0    0    0 -0.00000000000E+00 -0.00000000000E+00 -0.15758980640E+04  0.15758980640E+04  0.00000000000E+00 0.  1.
         24    2    1    2    0    0  0.23334160570E+03 -0.92072348898E+02 -0.13560299624E+04  0.13813133497E+04  0.79269720643E+02 0.  0.
         25    2    1    2    0    0 -0.25780865253E+03  0.10587669674E+03 -0.92964245929E+02  0.31931876845E+03  0.12508776369E+03 0.  0.
        -24    2    1    2    0    0  0.24467046834E+02 -0.13804347845E+02  0.16896820865E+04  0.16918518880E+04  0.80920091305E+02 0.  0.
        -11    1    3    3    0    0  0.19453368503E+03 -0.43514699538E+02 -0.96505317549E+03  0.98542605771E+03  0.00000000000E+00 0.  1.
         12    1    3    3    0    0  0.38807920674E+02 -0.48557649360E+02 -0.39097678695E+03  0.39588729198E+03  0.00000000000E+00 0. -1.
         13    1    5    5    0    0  0.15246025160E+02  0.42546146734E+01  0.15924190412E+04  0.15924977067E+04  0.00000000000E+00 0. -1.
        -14    1    5    5    0    0  0.92210216738E+01 -0.18058962518E+02  0.97263045210E+02  0.99354181248E+02  0.00000000000E+00 0.  1.
          5    1    4    4  501    0 -0.19422984490E+03  0.59525150205E+02 -0.78611632124E+01  0.20334145284E+03  0.41800000000E+01 0.  1.
         -5    1    4    4    0  501 -0.63578807633E+02  0.46351546538E+02 -0.85103082717E+02  0.11597731560E+03  0.41800000000E+01 0.  1.
</event>
<event>
11    1  0.7577197E-009  0.1283682E+03  0.7561462E-02  0.1121290E+00
         22   -1    0    0    0    0  0.00000000000E+00  0.00000000000E+00  0.34269250227E+04  0.34269250227E+04  0.00000000000E+00 0.  1.
         22   -1    0    0    0    0 -0.00000000000E+00 -0.00000000000E+00 -0.85157695539E+02  0.85157695539E+02  0.00000000000E+00 0.  1.
         24    2    1    2    0    0  0.27645817373E+02  0.55626850457E+01 -0.53074652927E+02  0.10309779902E+03  0.83767551577E+02 0.  0.
         25    2    1    2    0    0 -0.48089289158E+02  0.46966178946E+01  0.69262292592E+03  0.70548464549E+03  0.12508968608E+03 0.  0.
        -24    2    1    2    0    0  0.20443471785E+02 -0.10259302940E+02  0.27022190542E+04  0.27035002737E+04  0.80017026136E+02 0.  0.
        -13    1    3    3    0    0 -0.31911543349E+01  0.10514612203E+02 -0.67717739620E+02  0.68603445941E+02  0.00000000000E+00 0.  1.
         14    1    3    3    0    0  0.30836971708E+02 -0.49519271572E+01  0.14643086693E+02  0.34494353083E+02  0.00000000000E+00 0. -1.
         11    1    5    5    0    0 -0.21183674362E+02 -0.56682972636E+01  0.26028298146E+03  0.26120510732E+03  0.00000000000E+00 0. -1.
        -12    1    5    5    0    0  0.41627146147E+02 -0.45910056767E+01  0.24419360727E+04  0.24422951664E+04  0.00000000000E+00 0.  1.
          5    1    4    4  501    0 -0.79553665614E+02 -0.65259951557E+01  0.62346213962E+03  0.62856494196E+03  0.41800000000E+01 0. -1.
         -5    1    4    4    0  501  0.31464376456E+02  0.11222613050E+02  0.69160786301E+02  0.76919703531E+02  0.41800000000E+01 0. -1.
</event>
<event>
11    1  0.7577197E-009  0.1470678E+03  0.7561462E-02  0.1099913E+00
         22   -1    0    0    0    0  0.00000000000E+00  0.00000000000E+00  0.14971845436E+04  0.14971845436E+04  0.00000000000E+00 0. -1.
         22   -1    0    0    0    0 -0.00000000000E+00 -0.00000000000E+00 -0.96548843675E+03  0.96548843675E+03  0.00000000000E+00 0.  1.
         24    2    1    2    0    0  0.84314416644E+01 -0.31688096066E+02 -0.90362187606E+03  0.90775571939E+03  0.80079501453E+02 0.  0.
         25    2    1    2    0    0  0.68860067595E+02  0.37987128325E+02  0.37285531184E+02  0.15238987005E+03  0.12509089028E+03 0.  0.
        -24    2    1    2    0    0 -0.77291509260E+02 -0.62990322593E+01  0.13980324517E+04  0.14025273909E+04  0.81084468150E+02 0.  0.
        -13    1    3    3    0    0 -0.75108746539E+01 -0.56477399160E+02 -0.61434845483E+03  0.61698471116E+03  0.00000000000E+00 0.  1.
         14    1    3    3    0    0  0.15942316318E+02  0.24789303094E+02 -0.28927342123E+03  0.29077100823E+03  0.00000000000E+00 0. -1.
         13    1    5    5    0    0 -0.81114631123E+02  0.14178152484E+02  0.82101979041E+03  0.82513883659E+03  0.00000000000E+00 0. -1.
        -14    1    5    5    0    0  0.38231218635E+01 -0.20477184743E+02  0.57701266129E+03  0.57738855431E+03  0.00000000000E+00 0.  1.
          5    1    4    4  501    0  0.83142678679E+02  0.72291258572E+02  0.25272707236E+02  0.11311460213E+03  0.41800000000E+01 0. -1.
         -5    1    4    4    0  501 -0.14282611083E+02 -0.34304130247E+02  0.12012823948E+02  0.39275267924E+02  0.41800000000E+01 0. -1.
</event>
<event>
11    1  0.7577197E-009  0.1283947E+03  0.7561462E-02  0.1121257E+00
         22   -1    0    0    0    0  0.00000000000E+00  0.00000000000E+00  0.10070102284E+03  0.10070102284E+03  0.00000000000E+00 0.  1.
         22   -1    0    0    0    0 -0.00000000000E+00 -0.00000000000E+00 -0.45065275996E+03  0.45065275996E+03  0.00000000000E+00 0. -1.
        -24    2    1    2    0    0  0.42157333911E+00  0.29326302424E+02 -0.32195059699E+03  0.33304811125E+03  0.80054030305E+02 0.  0.
         25    2    1    2    0    0  0.64269727628E+01 -0.26402824586E+02 -0.47356285565E+02  0.13647329740E+03  0.12507568907E+03 0.  0.
         24    2    1    2    0    0 -0.68485461019E+01 -0.29234778382E+01  0.19355145439E+02  0.81832374146E+02  0.79161016271E+02 0.  0.
        -13    1    5    5    0    0 -0.25597525239E+02  0.18484208808E+02 -0.16844868929E+02  0.35786154905E+02  0.00000000000E+00 0.  1.
         14    1    5    5    0    0  0.18748979137E+02 -0.21407686646E+02  0.36200014368E+02  0.46046219242E+02  0.00000000000E+00 0. -1.
         13    1    3    3    0    0 -0.18204820305E+02  0.16340815317E+02 -0.30149782994E+03  0.30248864307E+03  0.00000000000E+00 0. -1.
        -14    1    3    3    0    0  0.18626393644E+02  0.12985487108E+02 -0.20452767052E+02  0.30559468184E+02  0.00000000000E+00 0.  1.
          5    1    4    4  501    0 -0.56276207098E+02  0.21177056606E+01 -0.34789289189E+02  0.66326941772E+02  0.41800000000E+01 0.  1.
         -5    1    4    4    0  501  0.62703179861E+02 -0.28520530247E+02 -0.12566996376E+02  0.70146355629E+02  0.41800000000E+01 0.  1.
</event>
<event>
11    1  0.7577197E-009  0.1957655E+03  0.7561462E-02  0.1057559E+00
         22   -1    0    0    0    0  0.00000000000E+00  0.00000000000E+00  0.33557095875E+04  0.33557095875E+04  0.00000000000E+00 0.  1.
         22   -1    0    0    0    0 -0.00000000000E+00 -0.00000000000E+00 -0.15948040607E+04  0.15948040607E+04  0.00000000000E+00 0.  1.
         24    2    1    2    0    0  0.13811446515E+03 -0.53275722854E+02 -0.14534207839E+04  0.14631598104E+04  0.80565176089E+02 0.  0.
         25    2    1    2    0    0 -0.17660830818E+03  0.13277921069E+03 -0.16393004478E+02  0.25443433918E+03  0.12508912443E+03 0.  0.
        -24    2    1    2    0    0  0.38493843023E+02 -0.79503487834E+02  0.32307193152E+04  0.32329194987E+04  0.80116231392E+02 0.  0.
        -13    1    3    3    0    0  0.47303212692E+02 -0.61147343283E+02 -0.68902871914E+03  0.69335212361E+03  0.00000000000E+00 0.  1.
         14    1    3    3    0    0  0.90811252460E+02  0.78716204295E+01 -0.76439206480E+03  0.76980768683E+03  0.00000000000E+00 0. -1.
         13    1    5    5    0    0 -0.15722709367E+02 -0.49496890341E+02  0.19627000409E+04  0.19633870216E+04  0.00000000000E+00 0. -1.
        -14    1    5    5    0    0  0.54216552390E+02 -0.30006597493E+02  0.12680192743E+04  0.12695324771E+04  0.00000000000E+00 0.  1.
          5    1    4    4  501    0 -0.60414843516E+02 -0.17637504915E+02  0.41570690121E+01  0.63212249758E+02  0.41800000000E+01 0. -1.
         -5    1    4    4    0  501 -0.11619346466E+03  0.15041671560E+03 -0.20550073490E+02  0.19122208942E+03  0.41800000000E+01 0. -1.
</event>
<event>
11    1  0.7577197E-009  0.2917107E+03  0.7561462E-02  0.1003762E+00
         22   -1    0    0    0    0  0.00000000000E+00  0.00000000000E+00  0.26294702138E+03  0.26294702138E+03  0.00000000000E+00 0. -1.
         22   -1    0    0    0    0 -0.00000000000E+00 -0.00000000000E+00 -0.13247444533E+04  0.13247444533E+04  0.00000000000E+00 0.  1.
         24    2    1    2    0    0  0.13164576061E+03  0.61867422139E+01 -0.97381860572E+03  0.98564811110E+03  0.76227554108E+02 0.  0.
         25    2    1    2    0    0 -0.34507124616E+03  0.61070419702E+01 -0.56916466992E+02  0.37148302870E+03  0.12509474612E+03 0.  0.
        -24    2    1    2    0    0  0.21342548555E+03 -0.12293784184E+02 -0.31062359195E+02  0.23056033487E+03  0.80570607834E+02 0.  0.
        -11    1    3    3    0    0  0.58452474291E+02 -0.35131064193E+02 -0.43774444434E+03  0.44302492252E+03  0.00000000000E+00 0.  1.
         12    1    3    3    0    0  0.73193286319E+02  0.41317806407E+02 -0.53607416138E+03  0.54262318858E+03  0.00000000000E+00 0. -1.
         13    1    5    5    0    0  0.18590475185E+03 -0.39116997307E+02 -0.27682324124E+02  0.19198184109E+03  0.00000000000E+00 0. -1.
        -14    1    5    5    0    0  0.27520733694E+02  0.26823213122E+02 -0.33800350711E+01  0.38578493780E+02  0.00000000000E+00 0.  1.
          5    1    4    4  501    0 -0.28518515181E+03  0.16159900759E+02  0.35375578058E+01  0.28569511707E+03  0.41800000000E+01 0. -1.
         -5    1    4    4    0  501 -0.59886094349E+02 -0.10052858789E+02 -0.60454024798E+02  0.85787911622E+02  0.41800000000E+01 0. -1.
</event>
<event>
11    1  0.7577197E-009  0.1533479E+03  0.7561462E-02  0.1093506E+00
         22   -1    0    0    0    0  0.00000000000E+00  0.00000000000E+00  0.21707168005E+04  0.21707168005E+04  0.00000000000E+00 0. -1.
         22   -1    0    0    0    0 -0.00000000000E+00 -0.00000000000E+00 -0.98828616037E+02  0.98828616037E+02  0.00000000000E+00 0. -1.
        -24    2    1    2    0    0 -0.62908675702E+02 -0.58802830317E+02 -0.15944947630E+02  0.11737901333E+03  0.78155723292E+02 0.  0.
         25    2    1    2    0    0  0.34816199682E+02  0.10524362031E+03  0.19483440880E+03  0.25670315906E+03  0.12509067768E+03 0.  0.
         24    2    1    2    0    0  0.28092476020E+02 -0.46440789994E+02  0.18929987233E+04  0.18954632442E+04  0.79942537791E+02 0.  0.
        -13    1    5    5    0    0 -0.23347798993E+02  0.29938687169E+01  0.33089498827E+03  0.33173118067E+03  0.00000000000E+00 0.  1.
         14    1    5    5    0    0  0.51440275013E+02 -0.49434658711E+02  0.15621037350E+04  0.15637320635E+04  0.00000000000E+00 0. -1.
         13    1    3    3    0    0 -0.45595739778E+02 -0.17139540051E+02 -0.42826835438E+02  0.64860412831E+02  0.00000000000E+00 0. -1.
        -14    1    3    3    0    0 -0.17312935925E+02 -0.41663290266E+02  0.26881887808E+02  0.52518600498E+02  0.00000000000E+00 0.  1.
          5    1    4    4  501    0  0.71822686907E+02  0.78479567546E+02  0.80377226834E+02  0.13339981960E+03  0.41800000000E+01 0. -1.
         -5    1    4    4    0  501 -0.37006487225E+02  0.26764052764E+02  0.11445718197E+03  0.12330333946E+03  0.41800000000E+01 0. -1.
</event>
<event>
11    1  0.7577197E-009  0.3943833E+03  0.7561462E-02  0.9666477E-01
         22   -1    0    0    0    0  0.00000000000E+00  0.00000000000E+00  0.20581027074E+03  0.20581027074E+03  0.00000000000E+00 0. -1.
         22   -1    0    0    0    0 -0.00000000000E+00 -0.00000000000E+00 -0.10307230029E+04  0.10307230029E+04  0.00000000000E+00 0.  1.
        -24    2    1    2    0    0 -0.36666500152E+03 -0.59191914048E+02 -0.55492759416E+03  0.67249320201E+03  0.79721803552E+02 0.  0.
         25    2    1    2    0    0  0.36607451691E+03  0.10481525680E+03 -0.24239992952E+03  0.46840365880E+03  0.12508985470E+03 0.  0.
         24    2    1    2    0    0  0.59048461062E+00 -0.45623342756E+02 -0.27585208515E+02  0.95636412871E+02  0.79394846569E+02 0.  0.
        -13    1    5    5    0    0  0.21242399046E+02  0.98044838947E+01 -0.27995939609E+02  0.36484792123E+02  0.00000000000E+00 0.  1.
         14    1    5    5    0    0 -0.20651914436E+02 -0.55427826650E+02  0.41073109352E+00  0.59151620748E+02  0.00000000000E+00 0. -1.
         11    1    3    3    0    0 -0.19327502006E+03  0.30104463371E+01 -0.24662165320E+03  0.31334730890E+03  0.00000000000E+00 0. -1.
        -12    1    3    3    0    0 -0.17338998146E+03 -0.62202360386E+02 -0.30830594096E+03  0.35914589311E+03  0.00000000000E+00 0.  1.
          5    1    4    4  501    0  0.19660450483E+03  0.80598777215E+02 -0.65955531889E+02  0.22252437798E+03  0.41800000000E+01 0. -1.
         -5    1    4    4    0  501  0.16947001208E+03  0.24216479589E+02 -0.17644439763E+03  0.24587928081E+03  0.41800000000E+01 0. -1.
</event>
<event>
11    1  0.7577197E-009  0.1541539E+03  0.7561462E-02  0.1092708E+00
         22   -1    0    0    0    0  0.00000000000E+00  0.00000000000E+00  0.21769866239E+03  0.21769866239E+03  0.00000000000E+00 0. -1.
         22   -1    0    0    0    0 -0.00000000000E+00 -0.00000000000E+00 -0.71586937657E+03  0.71586937657E+03  0.00000000000E+00 0.  1.
         24    2    1    2    0    0  0.27537635090E+02  0.47979580021E+02 -0.49195079418E+03  0.50154796271E+03  0.80463740628E+02 0.  0.
         25    2    1    2    0    0 -0.10285372422E+03  0.17699305705E+01 -0.16591805535E+03  0.23185862855E+03  0.12509037254E+03 0.  0.
        -24    2    1    2    0    0  0.75316089133E+02 -0.49749510592E+02  0.15969813535E+03  0.20016144770E+03  0.80084852652E+02 0.  0.
        -13    1    3    3    0    0  0.21043434385E+02  0.68402296182E+02 -0.43187028851E+03  0.43775980440E+03  0.00000000000E+00 0.  1.
         14    1    3    3    0    0  0.64942007050E+01 -0.20422716161E+02 -0.60080505673E+02  0.63788158306E+02  0.00000000000E+00 0. -1.
         13    1    5    5    0    0  0.49219234771E+02 -0.14132636304E+02  0.14475716125E+03  0.15354771315E+03  0.00000000000E+00 0. -1.
        -14    1    5    5    0    0  0.26096854362E+02 -0.35616874288E+02  0.14940974101E+02  0.46613734550E+02  0.00000000000E+00 0.  1.
          5    1    4    4  501    0 -0.90388878412E+01  0.45882881764E+02 -0.16125418663E+02  0.49643145141E+02  0.41800000000E+01 0.  1.
         -5    1    4    4    0  501 -0.93814836382E+02 -0.44112951194E+02 -0.14979263668E+03  0.18221548341E+03  0.41800000000E+01 0.  1.
</event>
<event>
11    1  0.7577197E-009  0.2000012E+03  0.7561462E-02  0.1054523E+00
         22   -1    0    0    0    0  0.00000000000E+00  0.00000000000E+00  0.42608712192E+03  0.42608712192E+03  0.00000000000E+00 0.  1.
         22   -1    0    0    0    0 -0.00000000000E+00 -0.00000000000E+00 -0.12309246103E+04  0.12309246103E+04  0.00000000000E+00 0.  1.
        -24    2    1    2    0    0  0.14414382323E+02 -0.66289852218E+02 -0.10986252066E+04  0.11037058166E+04  0.81160741709E+02 0.  0.
         25    2    1    2    0    0 -0.21940797388E+02  0.20962181743E+03  0.36831888639E+02  0.24784227084E+03  0.12508596350E+03 0.  0.
         24    2    1    2    0    0  0.75264150643E+01 -0.14333196521E+03  0.25695582962E+03  0.30546364479E+03  0.81737633564E+02 0.  0.
        -11    1    5    5    0    0 -0.29242842788E+02 -0.17503512037E+02  0.53150632559E+02  0.63138787836E+02  0.00000000000E+00 0.  1.
         12    1    5    5    0    0  0.36769257852E+02 -0.12582845317E+03  0.20380519706E+03  0.24232485695E+03  0.00000000000E+00 0. -1.
         13    1    3    3    0    0 -0.33141674308E+02 -0.24963696630E+02 -0.35502903221E+03  0.35744533909E+03  0.00000000000E+00 0. -1.
        -14    1    3    3    0    0  0.47556056631E+02 -0.41326155588E+02 -0.74359617439E+03  0.74626047747E+03  0.00000000000E+00 0.  1.
          5    1    4    4  501    0 -0.59416061517E+02  0.14160748342E+03  0.62639808180E+02  0.16590408583E+03  0.41800000000E+01 0.  1.
         -5    1    4    4    0  501  0.37475264129E+02  0.68014334008E+02 -0.25807919540E+02  0.81938185012E+02  0.41800000000E+01 0.  1.
</event>
<event>
11    1  0.7577197E-009  0.1410617E+03  0.7561462E-02  0.1106379E+00
         22   -1    0    0    0    0  0.00000000000E+00  0.00000000000E+00  0.12922927624E+04  0.12922927624E+04  0.00000000000E+00 0.  1.
         22   -1    0    0    0    0 -0.00000000000E+00 -0.00000000000E+00 -0.18325660235E+03  0.18325660235E+03  0.00000000000E+00 0.  1.
        -24    2    1    2    0    0  0.28351168557E+02 -0.21249666486E+02 -0.14996541128E+03  0.17354616962E+03  0.79833021521E+02 0.  0.
         25    2    1    2    0    0 -0.69936114821E+01 -0.43932271243E+02  0.21374513826E+03  0.25162627389E+03  0.12509933062E+03 0.  0.
         24    2    1    2    0    0 -0.21357557075E+02  0.65181937730E+02  0.10452564331E+04  0.10503769212E+04  0.77626255593E+02 0.  0.
        -11    1    5    5    0    0  0.70506073756E+01  0.66302560839E+02  0.89322031551E+03  0.89570546090E+03  0.00000000000E+00 0.  1.
         12    1    5    5    0    0 -0.28408164450E+02 -0.11206231099E+01  0.15203611756E+03  0.15467146034E+03  0.00000000000E+00 0. -1.
         13    1    3    3    0    0  0.27399423689E+02 -0.46250036788E+02 -0.61843075367E+02  0.81941200213E+02  0.00000000000E+00 0. -1.
        -14    1    3    3    0    0  0.95174486785E+00  0.25000370302E+02 -0.88122335909E+02  0.91604969404E+02  0.00000000000E+00 0.  1.
          5    1    4    4  501    0  0.56729382226E+02 -0.86209228058E+01  0.11765625538E+03  0.13096950007E+03  0.41800000000E+01 0. -1.
         -5    1    4    4    0  501 -0.63722993708E+02 -0.35311348438E+02  0.96088882881E+02  0.12065677382E+03  0.41800000000E+01 0. -1.
</event>
<event>
11    1  0.7577197E-009  0.1326384E+03  0.7561462E-02  0.1116069E+00
         22   -1    0    0    0    0  0.00000000000E+00  0.00000000000E+00  0.57824174097E+03  0.57824174097E+03  0.00000000000E+00 0.  1.
         22   -1    0    0    0    0 -0.00000000000E+00 -0.00000000000E+00 -0.54160054398E+03  0.54160054398E+03  0.00000000000E+00 0. -1.
         24    2    1    2    0    0 -0.12670084384E+02 -0.41421196595E+02 -0.50064637281E+03  0.50895896259E+03  0.80722911425E+02 0.  0.
         25    2    1    2    0    0  0.38400077407E+02  0.68298448424E+02  0.13999460366E+03  0.20343459527E+03  0.12509157245E+03 0.  0.
        -24    2    1    2    0    0 -0.25729993023E+02 -0.26877251829E+02  0.39729296615E+03  0.40744872708E+03  0.82391413676E+02 0.  0.
        -13    1    3    3    0    0  0.28888228072E+02  0.44865898609E+01 -0.18500916749E+03  0.18730470166E+03  0.00000000000E+00 0.  1.
         14    1    3    3    0    0 -0.41558312456E+02 -0.45907786455E+02 -0.31563720532E+03  0.32165426092E+03  0.00000000000E+00 0. -1.
         11    1    5    5    0    0 -0.75392621013E+01  0.29703952553E+02  0.11927950568E+03  0.12315342360E+03  0.00000000000E+00 0. -1.
        -12    1    5    5    0    0 -0.18190730922E+02 -0.56581204382E+02  0.27801346047E+03  0.28429530348E+03  0.00000000000E+00 0.  1.
          5    1    4    4  501    0  0.39209037958E+02  0.30912937929E+01  0.13176403208E+03  0.13757229847E+03  0.41800000000E+01 0.  1.
         -5    1    4    4    0  501 -0.80896055105E+00  0.65207154631E+02  0.82305715747E+01  0.65862296807E+02  0.41800000000E+01 0.  1.
</event>
<event>
11    1  0.7577197E-009  0.1355236E+03  0.7561462E-02  0.1112663E+00
         22   -1    0    0    0    0  0.00000000000E+00  0.00000000000E+00  0.16844308482E+04  0.16844308482E+04  0.00000000000E+00 0.  1.
         22   -1    0    0    0    0 -0.00000000000E+00 -0.00000000000E+00 -0.93800501656E+02  0.93800501656E+02  0.00000000000E+00 0. -1.
         24    2    1    2    0    0  0.37990530269E+02  0.23598813004E+02 -0.20867576565E+02  0.93858902720E+02  0.79836417147E+02 0.  0.
         25    2    1    2    0    0 -0.88514673166E+02 -0.21330197928E+02  0.13654956305E+03  0.20635865596E+03  0.12509311336E+03 0.  0.
        -24    2    1    2    0    0  0.50524142897E+02 -0.22686150761E+01  0.14749483601E+04  0.14780137912E+04  0.80587011659E+02 0.  0.
        -13    1    3    3    0    0  0.24456537730E+02  0.32985946856E+02  0.22954554446E+02  0.47043665860E+02  0.00000000000E+00 0.  1.
         14    1    3    3    0    0  0.13533992540E+02 -0.93871338523E+01 -0.43822131010E+02  0.46815236861E+02  0.00000000000E+00 0. -1.
         13    1    5    5    0    0 -0.61556636948E+01  0.23700222569E+02  0.19253847799E+03  0.19408930484E+03  0.00000000000E+00 0. -1.
        -14    1    5    5    0    0  0.56679806592E+02 -0.25968837645E+02  0.12824098821E+04  0.12839244863E+04  0.00000000000E+00 0.  1.
          5    1    4    4  501    0 -0.45050996450E+02 -0.34024775659E+01  0.15045832875E+03  0.15715072454E+03  0.41800000000E+01 0.  1.
         -5    1    4    4    0  501 -0.43463676716E+02 -0.17927720362E+02 -0.13908765696E+02  0.49207931416E+02  0.41800000000E+01 0.  1.
</event>
<event>
11    1  0.7577197E-009  0.2626130E+03  0.7561462E-02  0.1017387E+00
         22   -1    0    0    0    0  0.00000000000E+00  0.00000000000E+00  0.19149969904E+03  0.19149969904E+03  0.00000000000E+00 0.  1.
         22   -1    0    0    0    0 -0.00000000000E+00 -0.00000000000E+00 -0.13619365410E+04  0.13619365410E+04  0.00000000000E+00 0. -1.
         24    2    1    2    0    0 -0.21827926432E+01  0.19352877289E+02 -0.54178681847E+03  0.54754330595E+03  0.76755565141E+02 0.  0.
         25    2    1    2    0    0 -0.76717587010E+02 -0.23426874579E+03 -0.70032282448E+03  0.75291556660E+03  0.12514934490E+03 0.  0.
        -24    2    1    2    0    0  0.78900379653E+02  0.21491586850E+03  0.71672800992E+02  0.25297736750E+03  0.80289835104E+02 0.  0.
        -11    1    3    3    0    0 -0.51805646636E+01  0.10775215809E+02 -0.97460377802E+01  0.15424940142E+02  0.00000000000E+00 0.  1.
         12    1    3    3    0    0  0.29977720204E+01  0.85776614793E+01 -0.53204078069E+03  0.53211836581E+03  0.00000000000E+00 0. -1.
         11    1    5    5    0    0  0.61968389262E+02  0.59642155551E+02  0.32526324071E+02  0.91952323212E+02  0.00000000000E+00 0. -1.
        -12    1    5    5    0    0  0.16931990391E+02  0.15527371295E+03  0.39146476922E+02  0.16102504429E+03  0.00000000000E+00 0.  1.
          5    1    4    4  501    0 -0.69240174041E+01 -0.85228066445E+02 -0.10621975337E+03  0.13642534124E+03  0.41800000000E+01 0. -1.
         -5    1    4    4    0  501 -0.69793569606E+02 -0.14904067934E+03 -0.59410307112E+03  0.61649022536E+03  0.41800000000E+01 0. -1.
</event>
<event>
11    1  0.7577197E-009  0.1319892E+03  0.7561462E-02  0.1116849E+00
         22   -1    0    0    0    0  0.00000000000E+00  0.00000000000E+00  0.74217452231E+02  0.74217452231E+02  0.00000000000E+00 0.  1.
         22   -1    0    0    0    0 -0.00000000000E+00 -0.00000000000E+00 -0.19734749747E+04  0.19734749747E+04  0.00000000000E+00 0.  1.
        -24    2    1    2    0    0  0.12244189636E+02 -0.15243725011E+01 -0.16404579391E+04  0.16424016679E+04  0.78922396697E+02 0.  0.
         25    2    1    2    0    0  0.30573486553E+02  0.89560447400E+01 -0.28191547319E+03  0.31005398511E+03  0.12506874447E+03 0.  0.
         24    2    1    2    0    0 -0.42817676189E+02 -0.74316722388E+01  0.23115889866E+02  0.95236773926E+02  0.81529844824E+02 0.  0.
        -11    1    5    5    0    0  0.86012596882E+00 -0.84292529790E+01  0.45406083537E+02  0.46189874915E+02  0.00000000000E+00 0.  1.
         12    1    5    5    0    0 -0.43677802158E+02  0.99758074018E+00 -0.22290193671E+02  0.49046899011E+02  0.00000000000E+00 0. -1.
         13    1    3    3    0    0 -0.27515928656E+02  0.12993863548E+02 -0.37374459287E+03  0.37498131623E+03  0.00000000000E+00 0. -1.
        -14    1    3    3    0    0  0.39760118292E+02 -0.14518236050E+02 -0.12667133463E+04  0.12674203517E+04  0.00000000000E+00 0.  1.
          5    1    4    4  501    0  0.39874688485E+02  0.49234175133E+02 -0.71702713751E+02  0.95774455582E+02  0.41800000000E+01 0. -1.
         -5    1    4    4    0  501 -0.93012019321E+01 -0.40278130393E+02 -0.21021275944E+03  0.21427952953E+03  0.41800000000E+01 0. -1.
</event>
<event>
11    1  0.7577197E-009  0.1624917E+03  0.7561462E-02  0.1084757E+00
         22   -1    0    0    0    0  0.00000000000E+00  0.00000000000E+00  0.82140385293E+03  0.82140385293E+03  0.00000000000E+00 0. -1.
         22   -1    0    0    0    0 -0.00000000000E+00 -0.00000000000E+00 -0.21013078213E+04  0.21013078213E+04  0.00000000000E+00 0. -1.
        -24    2    1    2    0    0 -0.89170364233E+02  0.52696469958E+02 -0.20720161987E+04  0.20761590294E+04  0.80354935884E+02 0.  0.
         25    2    1    2    0    0  0.11666433395E+03 -0.50311159908E+02  0.32029989902E+03  0.36658035892E+03  0.12508938648E+03 0.  0.
         24    2    1    2    0    0 -0.27493969721E+02 -0.23853100502E+01  0.47181233130E+03  0.47997228596E+03  0.83695347868E+02 0.  0.
        -13    1    5    5    0    0  0.26909874535E+02 -0.19022532635E+01  0.80597101271E+02  0.84992074032E+02  0.00000000000E+00 0.  1.
         14    1    5    5    0    0 -0.54403844256E+02 -0.48305678661E+00  0.39121523002E+03  0.39498021193E+03  0.00000000000E+00 0. -1.
         13    1    3    3    0    0 -0.57859091547E+02 -0.10844078526E+02 -0.10925172855E+04  0.10941020463E+04  0.00000000000E+00 0. -1.
        -14    1    3    3    0    0 -0.31311272686E+02  0.63540548484E+02 -0.97949891319E+03  0.98205698310E+03  0.00000000000E+00 0.  1.
          5    1    4    4  501    0  0.13041997814E+03 -0.57496715584E+01  0.25090619450E+03  0.28286714242E+03  0.41800000000E+01 0. -1.
         -5    1    4    4    0  501 -0.13755644187E+02 -0.44561488350E+02  0.69393704520E+02  0.83713216507E+02  0.41800000000E+01 0. -1.
</event>
<event>
11    1  0.7577197E-009  0.1443659E+03  0.7561462E-02  0.1102779E+00
         22   -1    0    0    0    0  0.00000000000E+00  0.00000000000E+00  0.10314122390E+04  0.10314122390E+04  0.00000000000E+00 0. -1.
         22   -1    0    0    0    0 -0.00000000000E+00 -0.00000000000E+00 -0.19274338969E+03  0.19274338969E+03  0.00000000000E+00 0.  1.
        -24    2    1    2    0    0  0.30034312412E+02  0.37332404359E+02 -0.16227564258E+03  0.18731707701E+03  0.80365009968E+02 0.  0.
         25    2    1    2    0    0 -0.71154950665E+02 -0.79316804832E+02  0.50869084626E+03  0.53457096056E+03  0.12508218204E+03 0.  0.
         24    2    1    2    0    0  0.41120638253E+02  0.41984400473E+02  0.49225364560E+03  0.50226759108E+03  0.80656584808E+02 0.  0.
        -13    1    5    5    0    0  0.11441439982E+02  0.99128084790E+01  0.10237991753E+02  0.18275305632E+02  0.00000000000E+00 0.  1.
         14    1    5    5    0    0  0.29679198271E+02  0.32071591994E+02  0.48201565385E+03  0.48399228545E+03  0.00000000000E+00 0. -1.
         13    1    3    3    0    0  0.31567247196E+02  0.56498197102E+02 -0.80388340572E+02  0.10320282298E+03  0.00000000000E+00 0. -1.
        -14    1    3    3    0    0 -0.15329347844E+01 -0.19165792743E+02 -0.81887302011E+02  0.84114254031E+02  0.00000000000E+00 0.  1.
          5    1    4    4  501    0 -0.97595287152E+02 -0.65640621445E+02  0.47524993990E+03  0.48960546263E+03  0.41800000000E+01 0.  1.
         -5    1    4    4    0  501  0.26440336488E+02 -0.13676183388E+02  0.33440906361E+02  0.44965497927E+02  0.41800000000E+01 0.  1.
</event>
<event>
11    1  0.7577197E-009  0.1451428E+03  0.7561462E-02  0.1101948E+00
         22   -1    0    0    0    0  0.00000000000E+00  0.00000000000E+00  0.10998219389E+04  0.10998219389E+04  0.00000000000E+00 0. -1.
         22   -1    0    0    0    0 -0.00000000000E+00 -0.00000000000E+00 -0.24633113422E+03  0.24633113422E+03  0.00000000000E+00 0.  1.
         24    2    1    2    0    0  0.32269004538E+02  0.60121884192E+02 -0.18349122441E+03  0.21174208850E+03  0.80683040305E+02 0.  0.
         25    2    1    2    0    0 -0.80417048800E+02 -0.10928026314E+03  0.14340375984E+03  0.23371218302E+03  0.12509064116E+03 0.  0.
        -24    2    1    2    0    0  0.48148044262E+02  0.49158378949E+02  0.89357826929E+03  0.90069880164E+03  0.89674006992E+02 0.  0.
        -11    1    3    3    0    0  0.52198721240E+02  0.61925727530E+02 -0.16776226718E+03  0.18628923887E+03  0.00000000000E+00 0.  1.
         12    1    3    3    0    0 -0.19929716702E+02 -0.18038433378E+01 -0.15728957229E+02  0.25452849627E+02  0.00000000000E+00 0. -1.
         11    1    5    5    0    0  0.65762487560E+02  0.10126990314E+02  0.64881330112E+03  0.65221619147E+03  0.00000000000E+00 0. -1.
        -12    1    5    5    0    0 -0.17614443298E+02  0.39031388635E+02  0.24476496817E+03  0.24848261017E+03  0.00000000000E+00 0.  1.
          5    1    4    4  501    0 -0.35291728535E+02 -0.12524027864E+03  0.12965983933E+03  0.18373834612E+03  0.41800000000E+01 0.  1.
         -5    1    4    4    0  501 -0.45125320266E+02  0.15960015504E+02  0.13743920512E+02  0.49973836905E+02  0.41800000000E+01 0.  1.
</event>
<event>
11    1  0.7577197E-009  0.2214796E+03  0.7561462E-02  0.1040295E+00
         22   -1    0    0    0    0  0.00000000000E+00  0.00000000000E+00  0.19459436880E+03  0.19459436880E+03  0.00000000000E+00 0.  1.
         22   -1    0    0    0    0 -0.00000000000E+00 -0.00000000000E+00 -0.37266456287E+03  0.37266456287E+03  0.00000000000E+00 0.  1.
         24    2    1    2    0    0  0.44342693598E+02 -0.42572634354E+01 -0.67586225699E+02  0.11398868336E+03  0.80256608842E+02 0.  0.
         25    2    1    2    0    0  0.15241912862E+03  0.23215328469E+02 -0.13261741795E+03  0.23875732760E+03  0.12508852743E+03 0.  0.
        -24    2    1    2    0    0 -0.19676182221E+03 -0.18958065033E+02  0.22133449584E+02  0.21451292070E+03  0.80319864592E+02 0.  0.
        -11    1    3    3    0    0  0.53376223854E+02 -0.25577844283E+02 -0.68855818510E+02  0.90798519446E+02  0.00000000000E+00 0.  1.
         12    1    3    3    0    0 -0.90335302555E+01  0.21320580847E+02  0.12695928102E+01  0.23190163916E+02  0.00000000000E+00 0. -1.
         13    1    5    5    0    0 -0.84385203187E+01  0.16119986446E+02  0.13680034986E+02  0.22764137265E+02  0.00000000000E+00 0. -1.
        -14    1    5    5    0    0 -0.18832330190E+03 -0.35078051480E+02  0.84534145980E+01  0.19174878344E+03  0.00000000000E+00 0.  1.
          5    1    4    4  501    0  0.13330217049E+03 -0.31857956978E+02 -0.11108608221E+03  0.17647092718E+03  0.41800000000E+01 0. -1.
         -5    1    4    4    0  501  0.19116958129E+02  0.55073285447E+02 -0.21531335741E+02  0.62286400416E+02  0.41800000000E+01 0. -1.
</event>
<event>
11    1  0.7577197E-009  0.1601806E+03  0.7561462E-02  0.1086908E+00
         22   -1    0    0    0    0  0.00000000000E+00  0.00000000000E+00  0.82259888807E+03  0.82259888807E+03  0.00000000000E+00 0. -1.
         22   -1    0    0    0    0 -0.00000000000E+00 -0.00000000000E+00 -0.10916322315E+04  0.10916322315E+04  0.00000000000E+00 0.  1.
        -24    2    1    2    0    0  0.59728706265E+02  0.81179470150E+02 -0.10399035026E+04  0.10469219396E+04  0.66997224105E+02 0.  0.
         25    2    1    2    0    0 -0.38498140483E+02 -0.66294618426E+02  0.72478861964E+02  0.16362426221E+03  0.12507050211E+03 0.  0.
         24    2    1    2    0    0 -0.21230565781E+02 -0.14884851724E+02  0.69839129725E+03  0.70368491778E+03  0.82156945528E+02 0.  0.
        -13    1    5    5    0    0  0.51580213011E+01  0.31525652098E+02  0.30996521315E+03  0.31160697246E+03  0.00000000000E+00 0.  1.
         14    1    5    5    0    0 -0.26388587083E+02 -0.46410503822E+02  0.38842608410E+03  0.39207794532E+03  0.00000000000E+00 0. -1.
         11    1    3    3    0    0  0.13784403975E+02  0.22609743745E+02 -0.82874621059E+02  0.87002374225E+02  0.00000000000E+00 0. -1.
        -12    1    3    3    0    0  0.45944302290E+02  0.58569726405E+02 -0.95702888158E+03  0.95991956535E+03  0.00000000000E+00 0.  1.
          5    1    4    4  501    0 -0.68720636394E+02 -0.30540423195E+01  0.61866842640E+02  0.92611185389E+02  0.41800000000E+01 0. -1.
         -5    1    4    4    0  501  0.30222495911E+02 -0.63240576107E+02  0.10612019325E+02  0.71013076821E+02  0.41800000000E+01 0. -1.
</event>
<event>
11    1  0.7577197E-009  0.1860999E+03  0.7561462E-02  0.1064813E+00
         22   -1    0    0    0    0  0.00000000000E+00  0.00000000000E+00  0.25179410382E+04  0.25179410382E+04  0.00000000000E+00 0. -1.
         22   -1    0    0    0    0 -0.00000000000E+00 -0.00000000000E+00 -0.19417172196E+03  0.19417172196E+03  0.00000000000E+00 0.  1.
         24    2    1    2    0    0 -0.56048413245E+00 -0.11672501643E+03 -0.46776128865E+02  0.14914522947E+03  0.80195072409E+02 0.  0.
         25    2    1    2    0    0  0.13825780259E+03  0.10887580170E+03  0.31112934815E+02  0.21813880494E+03  0.12508942134E+03 0.  0.
        -24    2    1    2    0    0 -0.13769731846E+03  0.78492147279E+01  0.23394325103E+04  0.23448287258E+04  0.79089324514E+02 0.  0.
        -11    1    3    3    0    0 -0.13855893910E+02 -0.12490724666E+03 -0.44749203391E+02  0.13340276335E+03  0.00000000000E+00 0.  1.
         12    1    3    3    0    0  0.13295409777E+02  0.81822302309E+01 -0.20269254733E+01  0.15742466121E+02  0.00000000000E+00 0. -1.
         13    1    5    5    0    0 -0.87745838281E+02 -0.33492367193E+02  0.13217395303E+04  0.13250722459E+04  0.00000000000E+00 0. -1.
        -14    1    5    5    0    0 -0.49951480176E+02  0.41341581921E+02  0.10176929800E+04  0.10197564799E+04  0.00000000000E+00 0.  1.
          5    1    4    4  501    0  0.23949224125E+02  0.87755894764E+01  0.58257891625E+02  0.63734061878E+02  0.41800000000E+01 0. -1.
         -5    1    4    4    0  501  0.11430857846E+03  0.10010021223E+03 -0.27144956810E+02  0.15440474306E+03  0.41800000000E+01 0. -1.
</event>
<event>
11    1  0.7577197E-009  0.2204426E+03  0.7561462E-02  0.1040941E+00
         22   -1    0    0    0    0  0.00000000000E+00  0.00000000000E+00  0.58877873277E+03  0.58877873277E+03  0.00000000000E+00 0.  1.
         22   -1    0    0    0    0 -0.00000000000E+00 -0.00000000000E+00 -0.65344616432E+03  0.65344616432E+03  0.00000000000E+00 0. -1.
         24    2    1    2    0    0  0.15294659702E+03 -0.10838191192E+03 -0.58708147005E+03  0.62208994158E+03  0.84805321630E+02 0.  0.
         25    2    1    2    0    0 -0.12561354119E+03 -0.14565456768E+02  0.22278714264E+03  0.28508330211E+03  0.12508982355E+03 0.  0.
        -24    2    1    2    0    0 -0.27333055828E+02  0.12294736869E+03  0.29962689587E+03  0.33505165340E+03  0.81364502760E+02 0.  0.
        -11    1    3    3    0    0  0.95690918109E+01 -0.30126852470E+02 -0.39086491706E+02  0.50268763578E+02  0.00000000000E+00 0.  1.
         12    1    3    3    0    0  0.14337750521E+03 -0.78255059451E+02 -0.54799497834E+03  0.57182117801E+03  0.00000000000E+00 0. -1.
         13    1    5    5    0    0 -0.36046633240E+02  0.96352315996E+02  0.14425657391E+03  0.17718094616E+03  0.00000000000E+00 0. -1.
        -14    1    5    5    0    0  0.87135774122E+01  0.26595052693E+02  0.15537032195E+03  0.15787070724E+03  0.00000000000E+00 0.  1.
          5    1    4    4  501    0 -0.61084975587E+02 -0.31987537006E+02  0.20422028520E+03  0.21558750904E+03  0.41800000000E+01 0.  1.
         -5    1    4    4    0  501 -0.64528565605E+02  0.17422080238E+02  0.18566857433E+02  0.69495793065E+02  0.41800000000E+01 0.  1.
</event>
<event>
11    1  0.7577197E-009  0.1958579E+03  0.7561462E-02  0.1057492E+00
         22   -1    0    0    0    0  0.00000000000E+00  0.00000000000E+00  0.18017173839E+04  0.18017173839E+04  0.00000000000E+00 0. -1.
         22   -1    0    0    0    0 -0.00000000000E+00 -0.00000000000E+00 -0.76073706745E+03  0.76073706745E+03  0.00000000000E+00 0.  1.
         24    2    1    2    0    0 -0.38133242100E+02 -0.14801784360E+03 -0.72692682990E+03  0.74698987940E+03  0.78789832534E+02 0.  0.
         25    2    1    2    0    0  0.21124623603E+02  0.89935250104E+02  0.25111828075E+03  0.29536778935E+03  0.12508853315E+03 0.  0.
        -24    2    1    2    0    0  0.17008618496E+02  0.58082593494E+02  0.15167888656E+04  0.15200967826E+04  0.79892958932E+02 0.  0.
        -11    1    3    3    0    0 -0.60648234791E+02 -0.11156583428E+03 -0.59024638639E+03  0.60375155520E+03  0.00000000000E+00 0.  1.
         12    1    3    3    0    0  0.22514992691E+02 -0.36452009316E+02 -0.13668044352E+03  0.14323832420E+03  0.00000000000E+00 0. -1.
         13    1    5    5    0    0  0.56100226548E+01  0.60249450104E+02  0.14854022509E+04  0.14866342239E+04  0.00000000000E+00 0. -1.
        -14    1    5    5    0    0  0.11398595842E+02 -0.21668566101E+01  0.31386614744E+02  0.33462558776E+02  0.00000000000E+00 0.  1.
          5    1    4    4  501    0  0.63956247702E+02  0.10533197055E+02  0.97056756174E+02  0.11678542794E+03  0.41800000000E+01 0.  1.
         -5    1    4    4    0  501 -0.42831624099E+02  0.79402053049E+02  0.15406152457E+03  0.17858236141E+03  0.41800000000E+01 0.  1.
</event>
<event>
11    1  0.7577197E-009  0.1314981E+03  0.7561462E-02  0.1117442E+00
         22   -1    0    0    0    0  0.00000000000E+00  0.00000000000E+00  0.89202409306E+03  0.89202409306E+03  0.00000000000E+00 0. -1.
         22   -1    0    0    0    0 -0.00000000000E+00 -0.00000000000E+00 -0.23401827864E+04  0.23401827864E+04  0.00000000000E+00 0.  1.
        -24    2    1    2    0    0 -0.16815449205E+02 -0.88135127457E+01 -0.22784354955E+04  0.22799264346E+04  0.80223454821E+02 0.  0.
         25    2    1    2    0    0  0.37913632006E+02 -0.25754190117E+02  0.17578598438E+02  0.13437438379E+03  0.12508695413E+03 0.  0.
         24    2    1    2    0    0 -0.21098182801E+02  0.34567702863E+02  0.81269820381E+03  0.81790606098E+03  0.82776172355E+02 0.  0.
        -11    1    5    5    0    0  0.24876775816E+02  0.29957009208E+02  0.22081579767E+03  0.22422286430E+03  0.00000000000E+00 0.  1.
         12    1    5    5    0    0 -0.45974958618E+02  0.46106936544E+01  0.59188240614E+03  0.59368319667E+03  0.00000000000E+00 0. -1.
         13    1    3    3    0    0  0.21945828711E+02  0.50424900459E+01 -0.23499483608E+03  0.23607121613E+03  0.00000000000E+00 0. -1.
        -14    1    3    3    0    0 -0.38761277916E+02 -0.13856002792E+02 -0.20434406595E+04  0.20438552185E+04  0.00000000000E+00 0.  1.
          5    1    4    4  501    0  0.66833552613E+02 -0.50317820195E+02 -0.13885606472E+02  0.84905178000E+02  0.41800000000E+01 0.  1.
         -5    1    4    4    0  501 -0.28919920607E+02  0.24563630078E+02  0.31464204910E+02  0.49469205786E+02  0.41800000000E+01 0.  1.
</event>
<event>
11    1  0.7577197E-009  0.1673420E+03  0.7561462E-02  0.1080368E+00
         22   -1    0    0    0    0  0.00000000000E+00  0.00000000000E+00  0.17594033336E+04  0.17594033336E+04  0.00000000000E+00 0. -1.
         22   -1    0    0    0    0 -0.00000000000E+00 -0.00000000000E+00 -0.66638694055E+03  0.66638694055E+03  0.00000000000E+00 0. -1.
         24    2    1    2    0    0 -0.82814896767E+02 -0.71445964481E+02 -0.58761696333E+03  0.60271220628E+03  0.77495000140E+02 0.  0.
         25    2    1    2    0    0  0.94646022893E+02  0.10685659037E+03  0.58680701130E+02  0.19866287400E+03  0.12508921723E+03 0.  0.
        -24    2    1    2    0    0 -0.11831126127E+02 -0.35410625888E+02  0.16219526552E+04  0.16244151938E+04  0.81242958140E+02 0.  0.
        -11    1    3    3    0    0  0.51266493541E+01 -0.19651145775E+01 -0.11211995806E+01  0.56036860549E+01  0.00000000000E+00 0.  1.
         12    1    3    3    0    0 -0.87941546121E+02 -0.69480849903E+02 -0.58649576375E+03  0.59710852023E+03  0.00000000000E+00 0. -1.
         11    1    5    5    0    0  0.18674289279E+02 -0.21994061985E+02  0.13656888705E+04  0.13659936160E+04  0.00000000000E+00 0. -1.
        -12    1    5    5    0    0 -0.30505415406E+02 -0.13416563903E+02  0.25626378469E+03  0.25842157785E+03  0.00000000000E+00 0.  1.
          5    1    4    4  501    0  0.91623998577E+01  0.10058825923E+03  0.48885213857E+02  0.11229062294E+03  0.41800000000E+01 0. -1.
         -5    1    4    4    0  501  0.85483623035E+02  0.62683311338E+01  0.97954872732E+01  0.86372251061E+02  0.41800000000E+01 0. -1.
</event>
<event>
11    1  0.7577197E-009  0.1376693E+03  0.7561462E-02  0.1110189E+00
         22   -1    0    0    0    0  0.00000000000E+00  0.00000000000E+00  0.24781313006E+03  0.24781313006E+03  0.00000000000E+00 0.  1.
         22   -1    0    0    0    0 -0.00000000000E+00 -0.00000000000E+00 -0.26597550446E+04  0.26597550446E+04  0.00000000000E+00 0.  1.
         24    2    1    2    0    0  0.51005597155E+02  0.45377201886E+00 -0.22732325982E+04  0.22751939612E+04  0.79494268494E+02 0.  0.
         25    2    1    2    0    0 -0.10255242396E+03  0.21958746735E+02 -0.35726944984E+03  0.39279685756E+03  0.12509486519E+03 0.  0.
        -24    2    1    2    0    0  0.51546826808E+02 -0.22412518754E+02  0.21856013350E+03  0.23957735591E+03  0.80432463348E+02 0.  0.
        -11    1    3    3    0    0  0.36361090230E+02  0.18858630343E+02 -0.20968566712E+04  0.20972567025E+04  0.00000000000E+00 0.  1.
         12    1    3    3    0    0  0.14644506926E+02 -0.18404858325E+02 -0.17637592706E+03  0.17793725872E+03  0.00000000000E+00 0. -1.
         11    1    5    5    0    0  0.48278457877E+02  0.10118228125E+02  0.59961533770E+02  0.77643889440E+02  0.00000000000E+00 0. -1.
        -12    1    5    5    0    0  0.32683689317E+01 -0.32530746879E+02  0.15859859973E+03  0.16193346647E+03  0.00000000000E+00 0.  1.
          5    1    4    4  501    0 -0.31138885285E+02 -0.27447697253E+02 -0.23483156839E+02  0.47874182149E+02  0.41800000000E+01 0. -1.
         -5    1    4    4    0  501 -0.71413538679E+02  0.49406443988E+02 -0.33378629300E+03  0.34492267541E+03  0.41800000000E+01 0. -1.
</event>
<event>
11    1  0.7577197E-009  0.1966357E+03  0.7561462E-02  0.1056929E+00
         22   -1    0    0    0    0  0.00000000000E+00  0.00000000000E+00  0.33143949974E+03  0.33143949974E+03  0.00000000000E+00 0.  1.
         22   -1    0    0    0    0 -0.00000000000E+00 -0.00000000000E+00 -0.27330915590E+04  0.27330915590E+04  0.00000000000E+00 0. -1.
        -24    2    1    2    0    0 -0.10106802057E+03  0.11412739346E+01 -0.17588111700E+04  0.17633844851E+04  0.76759776492E+02 0.  0.
         25    2    1    2    0    0  0.16206837115E+03 -0.13894216498E+03 -0.93263806205E+03  0.96490017352E+03  0.12508999941E+03 0.  0.
         24    2    1    2    0    0 -0.61000350580E+02  0.13780089105E+03  0.28979717277E+03  0.33624640013E+03  0.79806715957E+02 0.  0.
        -13    1    5    5    0    0 -0.42644003231E+02  0.85825368587E+02  0.25146069811E+03  0.26910404604E+03  0.00000000000E+00 0.  1.
         14    1    5    5    0    0 -0.18356347350E+02  0.51975522462E+02  0.38336474667E+02  0.67142354093E+02  0.00000000000E+00 0. -1.
         13    1    3    3    0    0 -0.94782269603E+02  0.22343153491E+02 -0.11311816791E+04  0.11353655298E+04  0.00000000000E+00 0. -1.
        -14    1    3    3    0    0 -0.62857509650E+01 -0.21201879556E+02 -0.62762949090E+03  0.62801895529E+03  0.00000000000E+00 0.  1.
          5    1    4    4  501    0  0.20931738119E+02  0.52353620544E+01 -0.18425154340E+02  0.28679354752E+02  0.41800000000E+01 0. -1.
         -5    1    4    4    0  501  0.14113663303E+03 -0.14417752704E+03 -0.91421290771E+03  0.93622081877E+03  0.41800000000E+01 0. -1.
</event>
<event>
11    1  0.7577197E-009  0.1966326E+03  0.7561462E-02  0.1056931E+00
         22   -1    0    0    0    0  0.00000000000E+00  0.00000000000E+00  0.33562310081E+03  0.33562310081E+03  0.00000000000E+00 0. -1.
         22   -1    0    0    0    0 -0.00000000000E+00 -0.00000000000E+00 -0.11736324170E+04  0.11736324170E+04  0.00000000000E+00 0. -1.
        -24    2    1    2    0    0  0.91971706266E+01 -0.13575023586E+03 -0.60561129299E+03  0.62613728992E+03  0.82280940406E+02 0.  0.
         25    2    1    2    0    0 -0.29293749485E+01  0.18690559661E+03 -0.52748235812E+03  0.57343312411E+03  0.12508247846E+03 0.  0.
         24    2    1    2    0    0 -0.62677956780E+01 -0.51155360751E+02  0.29508433491E+03  0.30968510378E+03  0.78574439836E+02 0.  0.
        -11    1    5    5    0    0  0.12082637840E+02  0.14188276138E+02  0.12787770983E+03  0.12922850300E+03  0.00000000000E+00 0.  1.
         12    1    5    5    0    0 -0.18350433518E+02 -0.65343636889E+02  0.16720662508E+03  0.18045660077E+03  0.00000000000E+00 0. -1.
         11    1    3    3    0    0  0.10067799918E+02 -0.14670332346E+03 -0.57820104501E+03  0.59660680030E+03  0.00000000000E+00 0. -1.
        -12    1    3    3    0    0 -0.87062929125E+00  0.10953087601E+02 -0.27410247973E+02  0.29530489622E+02  0.00000000000E+00 0.  1.
          5    1    4    4  501    0  0.14504177455E+02  0.45265532489E+01 -0.17909536343E+03  0.17978732561E+03  0.41800000000E+01 0. -1.
         -5    1    4    4    0  501 -0.17433552403E+02  0.18237904336E+03 -0.34838699469E+03  0.39364579850E+03  0.41800000000E+01 0. -1.
</event>
<event>
11    1  0.7577197E-009  0.1653326E+03  0.7561462E-02  0.1082166E+00
         22   -1    0    0    0    0  0.00000000000E+00  0.00000000000E+00  0.14534899789E+04  0.14534899789E+04  0.00000000000E+00 0.  1.
         22   -1    0    0    0    0 -0.00000000000E+00 -0.00000000000E+00 -0.70384611238E+02  0.70384611238E+02  0.00000000000E+00 0. -1.
        -24    2    1    2    0    0  0.34617030737E+02 -0.70234134716E+02  0.13600672565E+02  0.11252890710E+03  0.79665576898E+02 0.  0.
         25    2    1    2    0    0 -0.11206706742E+03  0.11824578417E+03  0.65492827003E+03  0.68638181130E+03  0.12509140224E+03 0.  0.
         24    2    1    2    0    0  0.77450036684E+02 -0.48011649450E+02  0.71457642505E+03  0.72496387173E+03  0.81544597667E+02 0.  0.
        -11    1    5    5    0    0  0.33750426915E+02 -0.30031701835E+02  0.58998849625E+03  0.59171565819E+03  0.00000000000E+00 0.  1.
         12    1    5    5    0    0  0.43699609769E+02 -0.17979947615E+02  0.12458792880E+03  0.13324821354E+03  0.00000000000E+00 0. -1.
         13    1    3    3    0    0  0.54608420969E+02 -0.68505679257E+02 -0.11654179648E+01  0.87615443446E+02  0.00000000000E+00 0. -1.
        -14    1    3    3    0    0 -0.19991390232E+02 -0.17284554583E+01  0.14766090529E+02  0.24913463653E+02  0.00000000000E+00 0.  1.
          5    1    4    4  501    0 -0.22648526794E+02  0.25468391594E+02  0.39246950646E+03  0.39396875592E+03  0.41800000000E+01 0. -1.
         -5    1    4    4    0  501 -0.89418540628E+02  0.92777392571E+02  0.26245876357E+03  0.29241305538E+03  0.41800000000E+01 0. -1.
</event>
<event>
11    1  0.7577197E-009  0.1428106E+03  0.7561462E-02  0.1104460E+00
         22   -1    0    0    0    0  0.00000000000E+00  0.00000000000E+00  0.17923174970E+04  0.17923174970E+04  0.00000000000E+00 0.  1.
         22   -1    0    0    0    0 -0.00000000000E+00 -0.00000000000E+00 -0.22342178940E+04  0.22342178940E+04  0.00000000000E+00 0.  1.
        -24    2    1    2    0    0  0.46120830230E+02  0.23231073847E+02 -0.21465198071E+04  0.21485798102E+04  0.78620003486E+02 0.  0.
         25    2    1    2    0    0  0.10675745964E+02 -0.63013599893E+02 -0.26994647106E+02  0.14304964149E+03  0.12509917520E+03 0.  0.
         24    2    1    2    0    0 -0.56796576194E+02  0.39782526045E+02  0.17316140572E+04  0.17349059393E+04  0.81258073377E+02 0.  0.
        -11    1    5    5    0    0 -0.33897332125E+02  0.53733448387E+02  0.15521552837E+04  0.15534549679E+04  0.00000000000E+00 0.  1.
         12    1    5    5    0    0 -0.22899244069E+02 -0.13950922342E+02  0.17945877355E+03  0.18145097139E+03  0.00000000000E+00 0. -1.
         13    1    3    3    0    0 -0.56294018116E+01  0.37285533042E+01 -0.16312380527E+02  0.17654632054E+02  0.00000000000E+00 0. -1.
        -14    1    3    3    0    0  0.51750232041E+02  0.19502520543E+02 -0.21302074265E+04  0.21309251782E+04  0.00000000000E+00 0.  1.
          5    1    4    4  501    0 -0.11791397001E+02 -0.97928769387E+02 -0.17719416633E+02  0.10030219859E+03  0.41800000000E+01 0. -1.
         -5    1    4    4    0  501  0.22467142965E+02  0.34915169495E+02 -0.92752304722E+01  0.42747442896E+02  0.41800000000E+01 0. -1.
</event>
<event>
11    1  0.7577197E-009  0.1417312E+03  0.7561462E-02  0.1105640E+00
         22   -1    0    0    0    0  0.00000000000E+00  0.00000000000E+00  0.70118793745E+03  0.70118793745E+03  0.00000000000E+00 0. -1.
         22   -1    0    0    0    0 -0.00000000000E+00 -0.00000000000E+00 -0.50624362048E+03  0.50624362048E+03  0.00000000000E+00 0.  1.
        -24    2    1    2    0    0 -0.60243341150E+02  0.23675821122E+02 -0.44328936319E+03  0.45403314455E+03  0.73829751243E+02 0.  0.
         25    2    1    2    0    0  0.56722540581E+02  0.44898950188E+02  0.45951298139E+02  0.15163015525E+03  0.12508724893E+03 0.  0.
         24    2    1    2    0    0  0.35208005693E+01 -0.68574771310E+02  0.59228238202E+03  0.60176825813E+03  0.81312490747E+02 0.  0.
        -13    1    5    5    0    0 -0.38062431309E+02 -0.26526019776E+02  0.29964131119E+03  0.30321163199E+03  0.00000000000E+00 0.  1.
         14    1    5    5    0    0  0.41583231878E+02 -0.42048751534E+02  0.29264107083E+03  0.29855662614E+03  0.00000000000E+00 0. -1.
         13    1    3    3    0    0 -0.39336669121E+02  0.23286164081E+02 -0.98281722709E+02  0.10839241668E+03  0.00000000000E+00 0. -1.
        -14    1    3    3    0    0 -0.20906672029E+02  0.38965704100E+00 -0.34500764048E+03  0.34564072787E+03  0.00000000000E+00 0.  1.
          5    1    4    4  501    0 -0.43246594027E+01 -0.31477007939E+02 -0.15985996872E+02  0.35812416893E+02  0.41800000000E+01 0.  1.
         -5    1    4    4    0  501  0.61047199984E+02  0.76375958127E+02  0.61937295011E+02  0.11581773836E+03  0.41800000000E+01 0.  1.
</event>
<event>
11    1  0.7577197E-009  0.1336765E+03  0.7561462E-02  0.1114832E+00
         22   -1    0    0    0    0  0.00000000000E+00  0.00000000000E+00  0.10654860679E+04  0.10654860679E+04  0.00000000000E+00 0.  1.
         22   -1    0    0    0    0 -0.00000000000E+00 -0.00000000000E+00 -0.10535600308E+03  0.10535600308E+03  0.00000000000E+00 0. -1.
         24    2    1    2    0    0 -0.48666904783E+02 -0.58825821626E+01 -0.90554042650E+01  0.94461561527E+02  0.80236611754E+02 0.  0.
         25    2    1    2    0    0  0.43194502844E+02  0.41976731708E+01  0.32561293498E+02  0.13635174528E+03  0.12509266594E+03 0.  0.
        -24    2    1    2    0    0  0.54724019391E+01  0.16849089917E+01  0.93662417556E+03  0.94002876414E+03  0.79727316924E+02 0.  0.
        -11    1    3    3    0    0 -0.69865505100E+02  0.21570388178E+01  0.39230607184E+00  0.69899896447E+02  0.00000000000E+00 0.  1.
         12    1    3    3    0    0  0.21198600317E+02 -0.80396209804E+01 -0.94477103369E+01  0.24561665080E+02  0.00000000000E+00 0. -1.
         13    1    5    5    0    0  0.17902588278E+02 -0.27955315929E+01  0.47996205631E+02  0.51302567372E+02  0.00000000000E+00 0. -1.
        -14    1    5    5    0    0 -0.12430186339E+02  0.44804405846E+01  0.88862796993E+03  0.88872619677E+03  0.00000000000E+00 0.  1.
          5    1    4    4  501    0 -0.38519485941E+02  0.26995419156E+02  0.15638884435E+02  0.49744854598E+02  0.41800000000E+01 0. -1.
         -5    1    4    4    0  501  0.81713988785E+02 -0.22797745985E+02  0.16922409063E+02  0.86606890683E+02  0.41800000000E+01 0. -1.
</event>
<event>
11    1  0.7577197E-009  0.1405356E+03  0.7561462E-02  0.1106962E+00
         22   -1    0    0    0    0  0.00000000000E+00  0.00000000000E+00  0.33411908114E+03  0.33411908114E+03  0.00000000000E+00 0. -1.
         22   -1    0    0    0    0 -0.00000000000E+00 -0.00000000000E+00 -0.33850561658E+03  0.33850561658E+03  0.00000000000E+00 0. -1.
         24    2    1    2    0    0  0.43388205665E+02 -0.65129259366E+02 -0.23097153994E+03  0.25713592476E+03  0.81527141018E+02 0.  0.
         25    2    1    2    0    0 -0.21472880823E+02 -0.80305869785E+00 -0.35578260601E+02  0.13181496177E+03  0.12509053523E+03 0.  0.
        -24    2    1    2    0    0 -0.21915324842E+02  0.65932318064E+02  0.26216326510E+03  0.28367381120E+03  0.83149874107E+02 0.  0.
        -13    1    3    3    0    0  0.18892358196E+02 -0.78841338440E+02 -0.13836064097E+03  0.16036378897E+03  0.00000000000E+00 0.  1.
         14    1    3    3    0    0  0.24495847468E+02  0.13712079073E+02 -0.92610898973E+02  0.96772135784E+02  0.00000000000E+00 0. -1.
         11    1    5    5    0    0 -0.47138525183E+02  0.68130479743E+02  0.20767210584E+03  0.22358780461E+03  0.00000000000E+00 0. -1.
        -12    1    5    5    0    0  0.25223200342E+02 -0.21981616793E+01  0.54491159261E+02  0.60086006589E+02  0.00000000000E+00 0.  1.
          5    1    4    4  501    0  0.43980703596E+02  0.29282267922E+02 -0.25961944351E+02  0.59019051652E+02  0.41800000000E+01 0.  1.
         -5    1    4    4    0  501 -0.65453584419E+02 -0.30085326620E+02 -0.96163162505E+01  0.72795910114E+02  0.41800000000E+01 0.  1.
</event>
<event>
11    1  0.7577197E-009  0.1408896E+03  0.7561462E-02  0.1106569E+00
         22   -1    0    0    0    0  0.00000000000E+00  0.00000000000E+00  0.90574100992E+02  0.90574100992E+02  0.00000000000E+00 0.  1.
         22   -1    0    0    0    0 -0.00000000000E+00 -0.00000000000E+00 -0.22943495304E+04  0.22943495304E+04  0.00000000000E+00 0.  1.
         24    2    1    2    0    0  0.24988008314E+02 -0.58760204263E+02 -0.19370606890E+04  0.19397788444E+04  0.80378418807E+02 0.  0.
         25    2    1    2    0    0 -0.79640566401E+01  0.79372028715E+02 -0.31527575086E+03  0.34844185304E+03  0.12509828427E+03 0.  0.
        -24    2    1    2    0    0 -0.17023951674E+02 -0.20611824453E+02  0.48561010393E+02  0.96702933997E+02  0.79237765463E+02 0.  0.
        -13    1    3    3    0    0  0.31666419958E+02 -0.74219194068E+02 -0.13040266016E+04  0.13065208106E+04  0.00000000000E+00 0.  1.
         14    1    3    3    0    0 -0.66784116443E+01  0.15458989805E+02 -0.63303408736E+03  0.63325803375E+03  0.00000000000E+00 0. -1.
         13    1    5    5    0    0 -0.32606860924E+02  0.16427154917E+02  0.42557965188E+02  0.56073516021E+02  0.00000000000E+00 0. -1.
        -14    1    5    5    0    0  0.15582909250E+02 -0.37038979369E+02  0.60030452046E+01  0.40629417977E+02  0.00000000000E+00 0.  1.
          5    1    4    4  501    0 -0.58168984825E+02  0.75985856284E+02 -0.17734030220E+03  0.20155529350E+03  0.41800000000E+01 0.  1.
         -5    1    4    4    0  501  0.50204928185E+02  0.33861724308E+01 -0.13793544866E+03  0.14688655954E+03  0.41800000000E+01 0.  1.
</event>
<event>
11    1  0.7577197E-009  0.2041096E+03  0.7561462E-02  0.1051655E+00
         22   -1    0    0    0    0  0.00000000000E+00  0.00000000000E+00  0.11155769706E+04  0.11155769706E+04  0.00000000000E+00 0.  1.
         22   -1    0    0    0    0 -0.00000000000E+00 -0.00000000000E+00 -0.38652243566E+03  0.38652243566E+03  0.00000000000E+00 0.  1.
         24    2    1    2    0    0  0.15009199092E+03 -0.39304280245E+02 -0.29674014946E+03  0.34435450170E+03  0.80329784987E+02 0.  0.
         25    2    1    2    0    0 -0.24133181482E+03  0.22734676243E+02  0.24256788945E+03  0.36502642245E+03  0.12508875948E+03 0.  0.
        -24    2    1    2    0    0  0.91239823898E+02  0.16569604002E+02  0.78322679494E+03  0.79271848209E+03  0.79744105077E+02 0.  0.
        -13    1    3    3    0    0  0.27141789216E+02  0.22144249870E+02 -0.84745914126E+02  0.91700133507E+02  0.00000000000E+00 0.  1.
         14    1    3    3    0    0  0.12295020171E+03 -0.61448530116E+02 -0.21199423534E+03  0.25265436820E+03  0.00000000000E+00 0. -1.
         11    1    5    5    0    0  0.64010530842E+01 -0.20951231543E+02  0.29121929360E+03  0.29204212804E+03  0.00000000000E+00 0. -1.
        -12    1    5    5    0    0  0.84838770814E+02  0.37520835546E+02  0.49200750134E+03  0.50067635405E+03  0.00000000000E+00 0.  1.
          5    1    4    4  501    0 -0.16224359450E+03 -0.42790380796E+02  0.12783029759E+03  0.21097880943E+03  0.41800000000E+01 0. -1.
         -5    1    4    4    0  501 -0.79088220320E+02  0.65525057038E+02  0.11473759186E+03  0.15404761303E+03  0.41800000000E+01 0. -1.
</event>
<event>
11    1  0.7577197E-009  0.1780548E+03  0.7561462E-02  0.1071227E+00
         22   -1    0    0    0    0  0.00000000000E+00  0.00000000000E+00  0.17543334931E+04  0.17543334931E+04  0.00000000000E+00 0. -1.
         22   -1    0    0    0    0 -0.00000000000E+00 -0.00000000000E+00 -0.57359968916E+03  0.57359968916E+03  0.00000000000E+00 0.  1.
         24    2    1    2    0    0 -0.34142783009E+02  0.11690208253E+03 -0.44638327551E+03  0.46947135338E+03  0.79457513536E+02 0.  0.
         25    2    1    2    0    0  0.21295930383E+02 -0.16889539972E+03 -0.16677720567E+02  0.21190590506E+03  0.12508714379E+03 0.  0.
        -24    2    1    2    0    0  0.12846852626E+02  0.51993317186E+02  0.16437948000E+04  0.16465559238E+04  0.78846173365E+02 0.  0.
        -11    1    3    3    0    0 -0.32784426905E+02  0.74984420881E+02 -0.39378663199E+03  0.40220068816E+03  0.00000000000E+00 0.  1.
         12    1    3    3    0    0 -0.13583561044E+01  0.41917661649E+02 -0.52596643516E+02  0.67270665216E+02  0.00000000000E+00 0. -1.
         11    1    5    5    0    0  0.85685582468E+01  0.48848963464E+02  0.16377887386E+04  0.16385394697E+04  0.00000000000E+00 0. -1.
        -12    1    5    5    0    0  0.42782943796E+01  0.31443537220E+01  0.60060613941E+01  0.80164541162E+01  0.00000000000E+00 0.  1.
          5    1    4    4  501    0 -0.15067202616E+02 -0.14287300489E+01 -0.36121630730E+02  0.39386628071E+02  0.41800000000E+01 0.  1.
         -5    1    4    4    0  501  0.36363132998E+02 -0.16746666967E+03  0.19443910163E+02  0.17251927699E+03  0.41800000000E+01 0.  1.
</event>
<event>
11    1  0.7577197E-009  0.1895829E+03  0.7561462E-02  0.1062145E+00
         22   -1    0    0    0    0  0.00000000000E+00  0.00000000000E+00  0.58593054783E+03  0.58593054783E+03  0.00000000000E+00 0. -1.
         22   -1    0    0    0    0 -0.00000000000E+00 -0.00000000000E+00 -0.13775841887E+03  0.13775841887E+03  0.00000000000E+00 0.  1.
        -24    2    1    2    0    0 -0.32998251875E+02 -0.19840408770E+02 -0.47419737454E+02  0.10116560752E+03  0.80643178243E+02 0.  0.
         25    2    1    2    0    0  0.13521551827E+03  0.10197560873E+03  0.20376534046E+03  0.29299711293E+03  0.12507890733E+03 0.  0.
         24    2    1    2    0    0 -0.10221726639E+03 -0.82135199960E+02  0.29182652595E+03  0.32952624625E+03  0.78932028341E+02 0.  0.
        -11    1    5    5    0    0 -0.45021462974E+02 -0.34064374754E+00  0.46746437030E+02  0.64902061150E+02  0.00000000000E+00 0.  1.
         12    1    5    5    0    0 -0.57195803419E+02 -0.81794556212E+02  0.24508008892E+03  0.26462418510E+03  0.00000000000E+00 0. -1.
         13    1    3    3    0    0 -0.33076602816E+02 -0.26669580392E+02  0.97466331402E+01  0.43592717622E+02  0.00000000000E+00 0. -1.
        -14    1    3    3    0    0  0.78350941206E-01  0.68291716221E+01 -0.57166370594E+02  0.57572889894E+02  0.00000000000E+00 0.  1.
          5    1    4    4  501    0  0.15941132400E+02 -0.27055718328E+02  0.14932086982E+02  0.35022438780E+02  0.41800000000E+01 0. -1.
         -5    1    4    4    0  501  0.11927438587E+03  0.12903132706E+03  0.18883325347E+03  0.25797467415E+03  0.41800000000E+01 0. -1.
</event>
<event>
11    1  0.7577197E-009  0.1688558E+03  0.7561462E-02  0.1079032E+00
         22   -1    0    0    0    0  0.00000000000E+00  0.00000000000E+00  0.48089187552E+03  0.48089187552E+03  0.00000000000E+00 0. -1.
         22   -1    0    0    0    0 -0.00000000000E+00 -0.00000000000E+00 -0.19487450010E+03  0.19487450010E+03  0.00000000000E+00 0.  1.
        -24    2    1    2    0    0  0.98633397157E+01  0.21240697729E+02 -0.32791525392E+02  0.91281481760E+02  0.81905873198E+02 0.  0.
         25    2    1    2    0    0 -0.22323229153E+02 -0.13181970713E+03 -0.50169924419E+02  0.18983774677E+03  0.12508631833E+03 0.  0.
         24    2    1    2    0    0  0.12459889438E+02  0.11057900940E+03  0.36897882523E+03  0.39464714708E+03  0.84958996386E+02 0.  0.
        -13    1    5    5    0    0 -0.14372286005E+01  0.16994095864E+02  0.38823435472E+01  0.17491069485E+02  0.00000000000E+00 0.  1.
         14    1    5    5    0    0  0.13897118038E+02  0.93584913536E+02  0.36509648168E+03  0.37715607760E+03  0.00000000000E+00 0. -1.
         13    1    3    3    0    0 -0.18677609120E+02 -0.18084240932E+02 -0.33847420613E+02  0.42679511884E+02  0.00000000000E+00 0. -1.
        -14    1    3    3    0    0  0.28540948835E+02  0.39324938661E+02  0.10558952211E+01  0.48601969876E+02  0.00000000000E+00 0.  1.
          5    1    4    4  501    0 -0.56537108508E+02 -0.13180481238E+03 -0.21657626836E+02  0.14510505989E+03  0.41800000000E+01 0.  1.
         -5    1    4    4    0  501  0.34213879354E+02 -0.14894752189E-01 -0.28512297583E+02  0.44732686883E+02  0.41800000000E+01 0.  1.
</event>
<event>
11    1  0.7577197E-009  0.1538640E+03  0.7561462E-02  0.1092995E+00
         22   -1    0    0    0    0  0.00000000000E+00  0.00000000000E+00  0.96129689673E+02  0.96129689673E+02  0.00000000000E+00 0. -1.
         22   -1    0    0    0    0 -0.00000000000E+00 -0.00000000000E+00 -0.10741623656E+04  0.10741623656E+04  0.00000000000E+00 0.  1.
        -24    2    1    2    0    0 -0.27826513571E+01  0.89136645106E+02 -0.90477952298E+03  0.91326353633E+03  0.86436201627E+02 0.  0.
         25    2    1    2    0    0 -0.25222678999E+02 -0.96056375913E+02 -0.52080274772E+02  0.16798520643E+03  0.12507463239E+03 0.  0.
         24    2    1    2    0    0  0.28005330356E+02  0.69197308072E+01 -0.21172878188E+02  0.89043312521E+02  0.81536737310E+02 0.  0.
        -11    1    5    5    0    0 -0.74921385925E+01 -0.31045637863E+02  0.22871160187E+01  0.32018661288E+02  0.00000000000E+00 0.  1.
         12    1    5    5    0    0  0.35497468948E+02  0.37965368670E+02 -0.23459994206E+02  0.57024651232E+02  0.00000000000E+00 0. -1.
         13    1    3    3    0    0 -0.69573251263E+00 -0.17342687240E+02 -0.10511453830E+03  0.10653787592E+03  0.00000000000E+00 0. -1.
        -14    1    3    3    0    0 -0.20869188444E+01  0.10647933235E+03 -0.79966498468E+03  0.80672566041E+03  0.00000000000E+00 0.  1.
          5    1    4    4  501    0 -0.73191641539E+02 -0.74773660861E+02 -0.47967775470E+02  0.11518027884E+03  0.41800000000E+01 0.  1.
         -5    1    4    4    0  501  0.47968962541E+02 -0.21282715052E+02 -0.41124993029E+01  0.52804927589E+02  0.41800000000E+01 0.  1.
</event>
<event>
11    1  0.7577197E-009  0.1413723E+03  0.7561462E-02  0.1106036E+00
         22   -1    0    0    0    0  0.00000000000E+00  0.00000000000E+00  0.10680291278E+04  0.10680291278E+04  0.00000000000E+00 0. -1.
         22   -1    0    0    0    0 -0.00000000000E+00 -0.00000000000E+00 -0.55480491711E+03  0.55480491711E+03  0.00000000000E+00 0.  1.
        -24    2    1    2    0    0  0.32338598191E+02  0.32148900291E+01 -0.49462015681E+03  0.50216689149E+03  0.80413723523E+02 0.  0.
         25    2    1    2    0    0  0.28771538577E+02 -0.31483098764E+02  0.28227754126E+02  0.13514067124E+03  0.12508880037E+03 0.  0.
         24    2    1    2    0    0 -0.61110136768E+02  0.28268208735E+02  0.97961661334E+03  0.98552648214E+03  0.84143909111E+02 0.  0.
        -11    1    5    5    0    0 -0.44937111589E+02 -0.21056558512E+02  0.31492151605E+03  0.31880759704E+03  0.00000000000E+00 0.  1.
         12    1    5    5    0    0 -0.16173025180E+02  0.49324767246E+02  0.66469509728E+03  0.66671888511E+03  0.00000000000E+00 0. -1.
         13    1    3    3    0    0  0.21841521115E+02  0.15220762586E+02 -0.45152007035E+02  0.52415907868E+02  0.00000000000E+00 0. -1.
        -14    1    3    3    0    0  0.10497077076E+02 -0.12005872557E+02 -0.44946814977E+03  0.44975098362E+03  0.00000000000E+00 0.  1.
          5    1    4    4  501    0  0.60493367149E+02 -0.51818511159E+02  0.47268086130E+02  0.92716503030E+02  0.41800000000E+01 0.  1.
         -5    1    4    4    0  501 -0.31721828571E+02  0.20335412395E+02 -0.19040332003E+02  0.42424168206E+02  0.41800000000E+01 0.  1.
</event>
<event>
11    1  0.7577197E-009  0.2203610E+03  0.7561462E-02  0.1040992E+00
         22   -1    0    0    0    0  0.00000000000E+00  0.00000000000E+00  0.17312417600E+03  0.17312417600E+03  0.00000000000E+00 0. -1.
         22   -1    0    0    0    0 -0.00000000000E+00 -0.00000000000E+00 -0.18866886519E+04  0.18866886519E+04  0.00000000000E+00 0.  1.
        -24    2    1    2    0    0  0.15551214123E+03  0.99346182592E+02 -0.16386006039E+04  0.16509424989E+04  0.80904298150E+02 0.  0.
         25    2    1    2    0    0 -0.11218826597E+03 -0.11650531006E+03 -0.17614307200E+03  0.26987606827E+03  0.12508803347E+03 0.  0.
         24    2    1    2    0    0 -0.43323875256E+02  0.17159127469E+02  0.10117920008E+03  0.13899426067E+03  0.83131102171E+02 0.  0.
        -11    1    5    5    0    0 -0.51841378042E+02  0.38122771701E+02  0.45265861462E+02  0.78675742217E+02  0.00000000000E+00 0.  1.
         12    1    5    5    0    0  0.85175027863E+01 -0.20963644231E+02  0.55913338617E+02  0.60318518454E+02  0.00000000000E+00 0. -1.
         13    1    3    3    0    0  0.52850713121E+02  0.65005640939E+02 -0.97257972710E+03  0.97618146715E+03  0.00000000000E+00 0. -1.
        -14    1    3    3    0    0  0.10266142811E+03  0.34340541653E+02 -0.66602087683E+03  0.67476103177E+03  0.00000000000E+00 0.  1.
          5    1    4    4  501    0 -0.11742881987E+03 -0.35252831677E+02 -0.99098305922E+02  0.15770300097E+03  0.41800000000E+01 0.  1.
         -5    1    4    4    0  501  0.52405538950E+01 -0.81252478384E+02 -0.77044766077E+02  0.11217306731E+03  0.41800000000E+01 0.  1.
</event>
<event>
11    1  0.7577197E-009  0.1988816E+03  0.7561462E-02  0.1055317E+00
         22   -1    0    0    0    0  0.00000000000E+00  0.00000000000E+00  0.17728685372E+04  0.17728685372E+04  0.00000000000E+00 0.  1.
         22   -1    0    0    0    0 -0.00000000000E+00 -0.00000000000E+00 -0.50693221970E+03  0.50693221970E+03  0.00000000000E+00 0.  1.
        -24    2    1    2    0    0  0.66943562828E+02 -0.20882870452E+02 -0.47041770846E+03  0.48298253362E+03  0.84034352875E+02 0.  0.
         25    2    1    2    0    0  0.94104713724E+02 -0.27115055712E+02  0.23373258105E+03  0.28261273084E+03  0.12509241701E+03 0.  0.
         24    2    1    2    0    0 -0.16104827655E+03  0.47997926164E+02  0.15026214449E+04  0.15142054924E+04  0.81894556171E+02 0.  0.
        -13    1    5    5    0    0 -0.63651708581E+02  0.24230042951E+02  0.95910093712E+03  0.96151611664E+03  0.00000000000E+00 0.  1.
         14    1    5    5    0    0 -0.97396567970E+02  0.23767883213E+02  0.54352050780E+03  0.55268937580E+03  0.00000000000E+00 0. -1.
         11    1    3    3    0    0  0.50398879524E+02 -0.25486843839E+02 -0.12532358659E+03  0.13746136774E+03  0.00000000000E+00 0. -1.
        -12    1    3    3    0    0  0.16544683303E+02  0.46039733877E+01 -0.34509412187E+03  0.34552116587E+03  0.00000000000E+00 0.  1.
          5    1    4    4  501    0  0.10117455815E+03 -0.26766265954E+02  0.88427304672E+02  0.13707510650E+03  0.41800000000E+01 0.  1.
         -5    1    4    4    0  501 -0.70698444236E+01 -0.34878975867E+00  0.14530527638E+03  0.14553762434E+03  0.41800000000E+01 0.  1.
</event>
<event>
11    1  0.7577197E-009  0.1513128E+03  0.7561462E-02  0.1095545E+00
         22   -1    0    0    0    0  0.00000000000E+00  0.00000000000E+00  0.22643342902E+04  0.22643342902E+04  0.00000000000E+00 0.  1.
         22   -1    0    0    0    0 -0.00000000000E+00 -0.00000000000E+00 -0.13392629296E+03  0.13392629296E+03  0.00000000000E+00 0.  1.
         24    2    1    2    0    0  0.15126870670E+02  0.73171285953E+02 -0.38325348036E+02  0.11727368184E+03  0.81862230881E+02 0.  0.
         25    2    1    2    0    0 -0.94772145082E-01 -0.12412946870E+03  0.86127452553E+02  0.19614655735E+03  0.12508956749E+03 0.  0.
        -24    2    1    2    0    0 -0.15032098525E+02  0.50958182748E+02  0.20826058928E+04  0.20848403440E+04  0.80555912747E+02 0.  0.
        -13    1    3    3    0    0  0.64147014626E+01  0.81611527861E+02 -0.53538956324E+02  0.97816203764E+02  0.00000000000E+00 0.  1.
         14    1    3    3    0    0  0.87121692072E+01 -0.84402419076E+01  0.15213608288E+02  0.19457478071E+02  0.00000000000E+00 0. -1.
         11    1    5    5    0    0 -0.16245602853E+02 -0.14839440752E+02  0.22601454499E+03  0.22708303142E+03  0.00000000000E+00 0. -1.
        -12    1    5    5    0    0  0.12135043279E+01  0.65797623500E+02  0.18565913478E+04  0.18577573126E+04  0.00000000000E+00 0.  1.
          5    1    4    4  501    0 -0.35890165147E+01  0.65931880141E+01 -0.23772717370E+02  0.25277770054E+02  0.41800000000E+01 0. -1.
         -5    1    4    4    0  501  0.34942443696E+01 -0.13072265672E+03  0.10990016992E+03  0.17086878729E+03  0.41800000000E+01 0. -1.
</event>
<event>
11    1  0.7577197E-009  0.2634351E+03  0.7561462E-02  0.1016976E+00
         22   -1    0    0    0    0  0.00000000000E+00  0.00000000000E+00  0.23450809931E+04  0.23450809931E+04  0.00000000000E+00 0. -1.
         22   -1    0    0    0    0 -0.00000000000E+00 -0.00000000000E+00 -0.20643708005E+03  0.20643708005E+03  0.00000000000E+00 0.  1.
        -24    2    1    2    0    0  0.12373150340E+03  0.27923370306E+02 -0.12988473645E+03  0.20036159652E+03  0.84767476406E+02 0.  0.
         25    2    1    2    0    0 -0.16781689726E+03 -0.24276126385E+03  0.75899446268E+03  0.82390209636E+03  0.12508608147E+03 0.  0.
         24    2    1    2    0    0  0.44085393856E+02  0.21483789355E+03  0.15095341868E+04  0.15272543803E+04  0.75588613192E+02 0.  0.
        -13    1    5    5    0    0 -0.10160791370E+02  0.57824717205E+01  0.33041650950E+02  0.35048956589E+02  0.00000000000E+00 0.  1.
         14    1    5    5    0    0  0.54246185226E+02  0.20905542183E+03  0.14764925359E+04  0.14922054237E+04  0.00000000000E+00 0. -1.
         13    1    3    3    0    0  0.19283527591E+02  0.27438507110E+02  0.19471564746E+00  0.33537501740E+02  0.00000000000E+00 0. -1.
        -14    1    3    3    0    0  0.10444797581E+03  0.48486319631E+00 -0.13007945209E+03  0.16682409478E+03  0.00000000000E+00 0.  1.
          5    1    4    4  501    0 -0.56861093087E+01 -0.86974892380E+02  0.30537834817E+03  0.31760096296E+03  0.41800000000E+01 0.  1.
         -5    1    4    4    0  501 -0.16213078795E+03 -0.15578637147E+03  0.45361611451E+03  0.50630113340E+03  0.41800000000E+01 0.  1.
</event>
<event>
11    1  0.7577197E-009  0.1344109E+03  0.7561462E-02  0.1113965E+00
         22   -1    0    0    0    0  0.00000000000E+00  0.00000000000E+00  0.16596151509E+03  0.16596151509E+03  0.00000000000E+00 0.  1.
         22   -1    0    0    0    0 -0.00000000000E+00 -0.00000000000E+00 -0.15367493102E+04  0.15367493102E+04  0.00000000000E+00 0. -1.
        -24    2    1    2    0    0  0.99293617098E+01  0.47014015707E+02 -0.11916986199E+04  0.11954701885E+04  0.81819686540E+02 0.  0.
         25    2    1    2    0    0  0.11883424917E+02 -0.61944412096E+02 -0.31607618656E+03  0.34571866075E+03  0.12505563044E+03 0.  0.
         24    2    1    2    0    0 -0.21812786627E+02  0.14930396389E+02  0.13698701131E+03  0.16152197605E+03  0.81395289083E+02 0.  0.
        -13    1    5    5    0    0 -0.50868362684E+02 -0.37477634926E+01  0.79488521093E+02  0.94446074767E+02  0.00000000000E+00 0.  1.
         14    1    5    5    0    0  0.29055576057E+02  0.18678159881E+02  0.57498490213E+02  0.67075901286E+02  0.00000000000E+00 0. -1.
         13    1    3    3    0    0  0.32945514738E+02  0.12681106569E+02 -0.91699624445E+03  0.91767550351E+03  0.00000000000E+00 0. -1.
        -14    1    3    3    0    0 -0.23016153028E+02  0.34332909139E+02 -0.27470237540E+03  0.27779468498E+03  0.00000000000E+00 0.  1.
          5    1    4    4  501    0 -0.55960263189E+02 -0.38929151645E+02 -0.15487117665E+03  0.16926187893E+03  0.41800000000E+01 0. -1.
         -5    1    4    4    0  501  0.67843688107E+02 -0.23015260451E+02 -0.16120500991E+03  0.17645678182E+03  0.41800000000E+01 0. -1.
</event>
<event>
11    1  0.7798892E-009  0.1424963E+03  0.7561462E-02  0.1104802E+00
         22   -1    0    0    0    0  0.00000000000E+00  0.00000000000E+00  0.13870452032E+04  0.13870452032E+04  0.00000000000E+00 0. -1.
         22   -1    0    0    0    0 -0.00000000000E+00 -0.00000000000E+00 -0.16579937606E+03  0.16579937606E+03  0.00000000000E+00 0.  1.
        -24    2    1    2    0    0  0.17871261359E+02 -0.61050282607E+02 -0.10293765525E+03  0.14558217287E+03  0.80941270076E+02 0.  0.
         25    2    1    2    0    0  0.51133917515E+02  0.63467695225E+02  0.10285581436E+03  0.18129639153E+03  0.12508491986E+03 0.  0.
         24    2    1    2    0    0 -0.69005178874E+02 -0.24174126177E+01  0.12213276680E+04  0.12259660149E+04  0.81140854818E+02 0.  0.
        -11    1    5    5    0    0  0.99374268799E+01  0.99765984276E+00  0.23490818799E+02  0.25525797657E+02  0.00000000000E+00 0.  1.
         12    1    5    5    0    0 -0.78942605754E+02 -0.34150724605E+01  0.11978368492E+04  0.12004402172E+04  0.00000000000E+00 0. -1.
         13    1    3    3    0    0 -0.45789816295E+01  0.13854301341E+02 -0.47598571058E+02  0.49784864217E+02  0.00000000000E+00 0. -1.
        -14    1    3    3    0    0  0.22450242989E+02 -0.74904583948E+02 -0.55339084190E+02  0.95797308656E+02  0.00000000000E+00 0.  1.
          5    1    4    4  501    0 -0.36845666910E+02  0.41231579549E+02  0.21919321426E+02  0.59628645582E+02  0.41800000000E+01 0. -1.
         -5    1    4    4    0  501  0.87979584425E+02  0.22236115676E+02  0.80936492938E+02  0.12166774595E+03  0.41800000000E+01 0. -1.
</event>
<event>
11    1  0.7577197E-009  0.3446824E+03  0.7561462E-02  0.9828742E-01
         22   -1    0    0    0    0  0.00000000000E+00  0.00000000000E+00  0.11132677596E+04  0.11132677596E+04  0.00000000000E+00 0. -1.
         22   -1    0    0    0    0 -0.00000000000E+00 -0.00000000000E+00 -0.15760646434E+04  0.15760646434E+04  0.00000000000E+00 0.  1.
         24    2    1    2    0    0 -0.24700812283E+03 -0.73489689415E+02 -0.59603787918E+03  0.65419063765E+03  0.79312607942E+02 0.  0.
         25    2    1    2    0    0  0.39838107498E+03  0.23233868173E+03 -0.87667081738E+03  0.99844253641E+03  0.12508809911E+03 0.  0.
        -24    2    1    2    0    0 -0.15137295215E+03 -0.15884899232E+03  0.10099118128E+04  0.10366992290E+04  0.81710762502E+02 0.  0.
        -13    1    3    3    0    0 -0.70189773607E+02 -0.51196252584E+02 -0.14251610308E+03  0.16690865836E+03  0.00000000000E+00 0.  1.
         14    1    3    3    0    0 -0.17681834923E+03 -0.22293436831E+02 -0.45352177609E+03  0.48728197929E+03  0.00000000000E+00 0. -1.
         11    1    5    5    0    0 -0.10179100332E+03 -0.92098929577E+02  0.44472875178E+03  0.46543236227E+03  0.00000000000E+00 0. -1.
        -12    1    5    5    0    0 -0.49581948821E+02 -0.66750062741E+02  0.56518306103E+03  0.57126686671E+03  0.00000000000E+00 0.  1.
          5    1    4    4  501    0  0.23189809292E+03  0.20308425604E+03 -0.54453587588E+03  0.62574494251E+03  0.41800000000E+01 0.  1.
         -5    1    4    4    0  501  0.16648298206E+03  0.29254425695E+02 -0.33213494150E+03  0.37269759390E+03  0.41800000000E+01 0.  1.
</event>
<event>
11    1  0.7577197E-009  0.1615839E+03  0.7561462E-02  0.1085597E+00
         22   -1    0    0    0    0  0.00000000000E+00  0.00000000000E+00  0.18421861713E+03  0.18421861713E+03  0.00000000000E+00 0. -1.
         22   -1    0    0    0    0 -0.00000000000E+00 -0.00000000000E+00 -0.90374317888E+03  0.90374317888E+03  0.00000000000E+00 0. -1.
         24    2    1    2    0    0 -0.36651831619E+02  0.87841989338E+02 -0.59074206067E+03  0.60408346206E+03  0.82952245475E+02 0.  0.
         25    2    1    2    0    0  0.44745632580E+02 -0.12477183206E+03 -0.26490395061E+03  0.32154657601E+03  0.12509162956E+03 0.  0.
        -24    2    1    2    0    0 -0.80938009603E+01  0.36929842726E+02  0.13612144952E+03  0.16233175794E+03  0.79957662036E+02 0.  0.
        -11    1    3    3    0    0  0.17722096970E+02 -0.19373482237E+01 -0.14799907931E+03  0.14906895557E+03  0.00000000000E+00 0.  1.
         12    1    3    3    0    0 -0.54373928590E+02  0.89779337562E+02 -0.44274298137E+03  0.45501450649E+03  0.00000000000E+00 0. -1.
         11    1    5    5    0    0 -0.42233284404E+00  0.15803473233E+02  0.13879928233E+03  0.13969670328E+03  0.00000000000E+00 0. -1.
        -12    1    5    5    0    0 -0.76714681163E+01  0.21126369493E+02 -0.26778328086E+01  0.22635054662E+02  0.00000000000E+00 0.  1.
          5    1    4    4  501    0  0.60885225030E+02 -0.11285994628E+03 -0.12155717460E+03  0.17674274299E+03  0.41800000000E+01 0.  1.
         -5    1    4    4    0  501 -0.16139592451E+02 -0.11911885785E+02 -0.14334677601E+03  0.14480383302E+03  0.41800000000E+01 0.  1.
</event>
<event>
11    1  0.7577197E-009  0.1362657E+03  0.7561462E-02  0.1111801E+00
         22   -1    0    0    0    0  0.00000000000E+00  0.00000000000E+00  0.10514441746E+04  0.10514441746E+04  0.00000000000E+00 0.  1.
         22   -1    0    0    0    0 -0.00000000000E+00 -0.00000000000E+00 -0.34896532669E+03  0.34896532669E+03  0.00000000000E+00 0.  1.
        -24    2    1    2    0    0  0.21130551193E+02 -0.52048658691E+02 -0.29059295699E+03  0.30681016644E+03  0.80824801329E+02 0.  0.
         25    2    1    2    0    0  0.18294727565E+01  0.32805520212E+02  0.38538549713E+02  0.13500043716E+03  0.12514131648E+03 0.  0.
         24    2    1    2    0    0 -0.22960023949E+02  0.19243138479E+02  0.95453325517E+03  0.95859889768E+03  0.82949685579E+02 0.  0.
        -11    1    5    5    0    0 -0.13926526467E+02  0.37183968072E+02  0.89274623999E+03  0.89362880696E+03  0.00000000000E+00 0.  1.
         12    1    5    5    0    0 -0.90334974824E+01 -0.17940829593E+02  0.61787015184E+02  0.64970090723E+02  0.00000000000E+00 0. -1.
         13    1    3    3    0    0  0.35496086930E+01  0.12098350059E+02 -0.49822287086E+01  0.13557005530E+02  0.00000000000E+00 0. -1.
        -14    1    3    3    0    0  0.17580942500E+02 -0.64147008751E+02 -0.28561072828E+03  0.29325316091E+03  0.00000000000E+00 0.  1.
          5    1    4    4  501    0  0.50780827734E+01 -0.25761782143E+02 -0.33010172623E+02  0.42386321384E+02  0.41800000000E+01 0. -1.
         -5    1    4    4    0  501 -0.32486100169E+01  0.58567302355E+02  0.71548722336E+02  0.92614115771E+02  0.41800000000E+01 0. -1.
</event>
<event>
11    1  0.7577197E-009  0.1365524E+03  0.7561462E-02  0.1111470E+00
         22   -1    0    0    0    0  0.00000000000E+00  0.00000000000E+00  0.62198312029E+03  0.62198312029E+03  0.00000000000E+00 0.  1.
         22   -1    0    0    0    0 -0.00000000000E+00 -0.00000000000E+00 -0.20983282405E+03  0.20983282405E+03  0.00000000000E+00 0.  1.
        -24    2    1    2    0    0 -0.19314592997E+02 -0.51091373119E+02 -0.16001889791E+03  0.18646506321E+03  0.78611641646E+02 0.  0.
         25    2    1    2    0    0  0.49067770169E+02  0.41028319687E+02  0.12114805743E+03  0.18551322528E+03  0.12508931148E+03 0.  0.
         24    2    1    2    0    0 -0.29753177172E+02  0.10063053432E+02  0.45102113672E+03  0.45983765585E+03  0.83929061550E+02 0.  0.
        -13    1    5    5    0    0 -0.54059521899E+02 -0.13536224284E+02  0.28329839328E+03  0.28872762408E+03  0.00000000000E+00 0.  1.
         14    1    5    5    0    0  0.24306344727E+02  0.23599277716E+02  0.16772274344E+03  0.17111003177E+03  0.00000000000E+00 0. -1.
         13    1    3    3    0    0 -0.68819575392E+01 -0.38569212020E+02 -0.17587767367E+02  0.42945023185E+02  0.00000000000E+00 0. -1.
        -14    1    3    3    0    0 -0.12432635458E+02 -0.12522161099E+02 -0.14243113054E+03  0.14352004003E+03  0.00000000000E+00 0.  1.
          5    1    4    4  501    0  0.52474252161E+02  0.82517255130E+02  0.75668263566E+02  0.12371662396E+03  0.41800000000E+01 0.  1.
         -5    1    4    4    0  501 -0.34064819920E+01 -0.41488935443E+02  0.45479793866E+02  0.61796601313E+02  0.41800000000E+01 0.  1.
</event>
<event>
11    1  0.7577197E-009  0.1630646E+03  0.7561462E-02  0.1084230E+00
         22   -1    0    0    0    0  0.00000000000E+00  0.00000000000E+00  0.35389201990E+04  0.35389201990E+04  0.00000000000E+00 0.  1.
         22   -1    0    0    0    0 -0.00000000000E+00 -0.00000000000E+00 -0.66775334833E+02  0.66775334833E+02  0.00000000000E+00 0. -1.
        -24    2    1    2    0    0  0.13047875417E+02  0.57212180359E+02  0.20758366008E+02  0.10150441846E+03  0.80179527139E+02 0.  0.
         25    2    1    2    0    0  0.60742675959E+02 -0.12905382878E+03  0.33451176804E+03  0.38456330393E+03  0.12508496459E+03 0.  0.
         24    2    1    2    0    0 -0.73790551375E+02  0.71841648425E+02  0.31168747302E+04  0.31196278115E+04  0.81014386254E+02 0.  0.
        -13    1    5    5    0    0 -0.87709344198E+02  0.54448601738E+02  0.21285025145E+04  0.21310045832E+04  0.00000000000E+00 0.  1.
         14    1    5    5    0    0  0.13918792823E+02  0.17393046688E+02  0.98837221566E+03  0.98862322831E+03  0.00000000000E+00 0. -1.
         13    1    3    3    0    0 -0.33986378434E+02  0.26152571016E+02  0.11349082050E+02  0.44360258714E+02  0.00000000000E+00 0. -1.
        -14    1    3    3    0    0  0.47034253851E+02  0.31059609343E+02  0.94092839579E+01  0.57144159741E+02  0.00000000000E+00 0.  1.
          5    1    4    4  501    0  0.62702238640E+02 -0.15261744659E+03  0.28051832118E+03  0.32547143754E+03  0.41800000000E+01 0. -1.
         -5    1    4    4    0  501 -0.19595626811E+01  0.23563617808E+02  0.53993446860E+02  0.59091866394E+02  0.41800000000E+01 0. -1.
</event>
<event>
11    1  0.7577197E-009  0.1377443E+03  0.7561462E-02  0.1110104E+00
         22   -1    0    0    0    0  0.00000000000E+00  0.00000000000E+00  0.41717482132E+03  0.41717482132E+03  0.00000000000E+00 0. -1.
         22   -1    0    0    0    0 -0.00000000000E+00 -0.00000000000E+00 -0.69193900635E+03  0.69193900635E+03  0.00000000000E+00 0. -1.
         24    2    1    2    0    0 -0.20843868465E+02  0.55188575039E+02 -0.65300032543E+03  0.66095772113E+03  0.83519090245E+02 0.  0.
         25    2    1    2    0    0 -0.30101515210E+01 -0.95431147850E+01  0.12393708656E+03  0.17637386639E+03  0.12508879753E+03 0.  0.
        -24    2    1    2    0    0  0.23854019986E+02 -0.45645460254E+02  0.25429905383E+03  0.27178224015E+03  0.80901514035E+02 0.  0.
        -11    1    3    3    0    0  0.28617387140E+02  0.19282758679E+01 -0.14802965556E+03  0.15078279749E+03  0.00000000000E+00 0.  1.
         12    1    3    3    0    0 -0.49461255605E+02  0.53260299171E+02 -0.50497066987E+03  0.51017492363E+03  0.00000000000E+00 0. -1.
         13    1    5    5    0    0  0.17074930335E+02 -0.68532658529E+02  0.16798893366E+03  0.18223216062E+03  0.00000000000E+00 0. -1.
        -14    1    5    5    0    0  0.67790896504E+01  0.22887198275E+02  0.86310120168E+02  0.89550079535E+02  0.00000000000E+00 0.  1.
          5    1    4    4  501    0  0.32800554975E+02  0.11170052560E+02 -0.98576506530E+01  0.36266956824E+02  0.41800000000E+01 0. -1.
         -5    1    4    4    0  501 -0.35810706496E+02 -0.20713167345E+02  0.13379473722E+03  0.14010690957E+03  0.41800000000E+01 0. -1.
</event>
<event>
11    1  0.7577197E-009  0.1367487E+03  0.7561462E-02  0.1111244E+00
         22   -1    0    0    0    0  0.00000000000E+00  0.00000000000E+00  0.15934944243E+03  0.15934944243E+03  0.00000000000E+00 0.  1.
         22   -1    0    0    0    0 -0.00000000000E+00 -0.00000000000E+00 -0.66962948055E+03  0.66962948055E+03  0.00000000000E+00 0.  1.
        -24    2    1    2    0    0 -0.12770684932E+02  0.17014616576E+02 -0.45005103146E+03  0.45771295186E+03  0.80638872870E+02 0.  0.
         25    2    1    2    0    0 -0.42779041648E+02 -0.24802653393E+02 -0.17471163867E+03  0.22049259914E+03  0.12509041358E+03 0.  0.
         24    2    1    2    0    0  0.55549726580E+02  0.77880368176E+01  0.11448263202E+03  0.15077337197E+03  0.80497894517E+02 0.  0.
        -13    1    5    5    0    0  0.42732472219E+02 -0.12592533467E+02  0.12903952298E+02  0.46380470739E+02  0.00000000000E+00 0.  1.
         14    1    5    5    0    0  0.12817254361E+02  0.20380570285E+02  0.10157867972E+03  0.10439290123E+03  0.00000000000E+00 0. -1.
         13    1    3    3    0    0 -0.43699727642E+02 -0.44959053844E+01 -0.19446626591E+03  0.19936651659E+03  0.00000000000E+00 0. -1.
        -14    1    3    3    0    0  0.30929042710E+02  0.21510521960E+02 -0.25558476555E+03  0.25834643527E+03  0.00000000000E+00 0.  1.
          5    1    4    4  501    0  0.39939589106E+02  0.12926575552E+02 -0.70255947172E+02  0.81948994176E+02  0.41800000000E+01 0.  1.
         -5    1    4    4    0  501 -0.82718630754E+02 -0.37729228945E+02 -0.10445569150E+03  0.13854360497E+03  0.41800000000E+01 0.  1.
</event>
<event>
11    1  0.7577197E-009  0.1286587E+03  0.7561462E-02  0.1120928E+00
         22   -1    0    0    0    0  0.00000000000E+00  0.00000000000E+00  0.30177323115E+03  0.30177323115E+03  0.00000000000E+00 0. -1.
         22   -1    0    0    0    0 -0.00000000000E+00 -0.00000000000E+00 -0.64710599857E+03  0.64710599857E+03  0.00000000000E+00 0. -1.
         24    2    1    2    0    0 -0.22957559258E+02 -0.20781629898E+02 -0.58932049046E+03  0.59592735568E+03  0.82896604910E+02 0.  0.
         25    2    1    2    0    0 -0.80640893700E+01  0.18617406320E+02  0.42432675755E+02  0.13364059759E+03  0.12509052721E+03 0.  0.
        -24    2    1    2    0    0  0.31021648628E+02  0.21642235788E+01  0.20155504728E+03  0.21931127645E+03  0.80659607917E+02 0.  0.
        -13    1    3    3    0    0 -0.86880102101E+01 -0.45912854947E+02 -0.19385107143E+03  0.19940338429E+03  0.00000000000E+00 0.  1.
         14    1    3    3    0    0 -0.14269549048E+02  0.25131225049E+02 -0.39546941902E+03  0.39652397139E+03  0.00000000000E+00 0. -1.
         11    1    5    5    0    0  0.22400922752E+02 -0.17023763017E+02  0.19536960952E+03  0.19738514172E+03  0.00000000000E+00 0. -1.
        -12    1    5    5    0    0  0.86207258763E+01  0.19187986596E+02  0.61854377604E+01  0.21926134738E+02  0.00000000000E+00 0.  1.
          5    1    4    4  501    0  0.48508465495E+02  0.37606315067E+02  0.40757202084E+02  0.73796531621E+02  0.41800000000E+01 0. -1.
         -5    1    4    4    0  501 -0.56572554865E+02 -0.18988908748E+02  0.16754736715E+01  0.59844065967E+02  0.41800000000E+01 0. -1.
</event>
<event>
11    1  0.7577197E-009  0.1505911E+03  0.7561462E-02  0.1096276E+00
         22   -1    0    0    0    0  0.00000000000E+00  0.00000000000E+00  0.20204515216E+03  0.20204515216E+03  0.00000000000E+00 0. -1.
         22   -1    0    0    0    0 -0.00000000000E+00 -0.00000000000E+00 -0.28784513883E+04  0.28784513883E+04  0.00000000000E+00 0.  1.
        -24    2    1    2    0    0  0.18799033775E+02 -0.29806402521E+02 -0.26255334642E+04  0.26271606958E+04  0.85472362755E+02 0.  0.
         25    2    1    2    0    0 -0.96721820011E+02  0.40883352824E+00 -0.20597119038E+03  0.25966048400E+03  0.12507660882E+03 0.  0.
         24    2    1    2    0    0  0.77922786236E+02  0.29397568993E+02  0.15509841841E+03  0.19367536066E+03  0.80736907654E+02 0.  0.
        -13    1    5    5    0    0 -0.16397225321E+02  0.90088447044E+01  0.17543796678E+02  0.25647867027E+02  0.00000000000E+00 0.  1.
         14    1    5    5    0    0  0.94320011557E+02  0.20388724288E+02  0.13755462173E+03  0.16802749363E+03  0.00000000000E+00 0. -1.
         11    1    3    3    0    0  0.26095566721E+02 -0.34687329138E+02 -0.58494841640E+03  0.58655676558E+03  0.00000000000E+00 0. -1.
        -12    1    3    3    0    0 -0.72965329459E+01  0.48809266174E+01 -0.20405850478E+04  0.20406039303E+04  0.00000000000E+00 0.  1.
          5    1    4    4  501    0  0.27260219832E+02  0.17578294928E+02 -0.47698652781E+02  0.57833812904E+02  0.41800000000E+01 0.  1.
         -5    1    4    4    0  501 -0.12398203984E+03 -0.17169461400E+02 -0.15827253760E+03  0.20182667110E+03  0.41800000000E+01 0.  1.
</event>
<event>
11    1  0.7577197E-009  0.2360887E+03  0.7561462E-02  0.1031582E+00
         22   -1    0    0    0    0  0.00000000000E+00  0.00000000000E+00  0.22093861785E+04  0.22093861785E+04  0.00000000000E+00 0. -1.
         22   -1    0    0    0    0 -0.00000000000E+00 -0.00000000000E+00 -0.10016441546E+03  0.10016441546E+03  0.00000000000E+00 0.  1.
         24    2    1    2    0    0 -0.30012511485E+02  0.65248703014E+02 -0.15588393258E+02  0.10793565846E+03  0.79050390708E+02 0.  0.
         25    2    1    2    0    0 -0.33328588749E+02 -0.24511256120E+03  0.57921688628E+03  0.64213058959E+03  0.12509408561E+03 0.  0.
        -24    2    1    2    0    0  0.63341100234E+02  0.17986385819E+03  0.15455932700E+04  0.15594843459E+04  0.82278589826E+02 0.  0.
        -13    1    3    3    0    0 -0.15910804940E+02  0.74801252033E+02 -0.33257877903E+02  0.83393449756E+02  0.00000000000E+00 0.  1.
         14    1    3    3    0    0 -0.14101706545E+02 -0.95525490192E+01  0.17669484645E+02  0.24542208700E+02  0.00000000000E+00 0. -1.
         13    1    5    5    0    0  0.79030035106E+02  0.11791756346E+03  0.11563891531E+04  0.11650691703E+04  0.00000000000E+00 0. -1.
        -14    1    5    5    0    0 -0.15688934872E+02  0.61946294730E+02  0.38920411689E+03  0.39441517556E+03  0.00000000000E+00 0.  1.
          5    1    4    4  501    0 -0.32646953996E+01 -0.18703056170E+03  0.28663064489E+03  0.34229473883E+03  0.41800000000E+01 0.  1.
         -5    1    4    4    0  501 -0.30063893349E+02 -0.58081999504E+02  0.29258624139E+03  0.29983585076E+03  0.41800000000E+01 0.  1.
</event>
<event>
11    1  0.7577197E-009  0.2105197E+03  0.7561462E-02  0.1047324E+00
         22   -1    0    0    0    0  0.00000000000E+00  0.00000000000E+00  0.12044019674E+04  0.12044019674E+04  0.00000000000E+00 0. -1.
         22   -1    0    0    0    0 -0.00000000000E+00 -0.00000000000E+00 -0.92182748624E+03  0.92182748624E+03  0.00000000000E+00 0. -1.
        -24    2    1    2    0    0  0.25060856311E+02  0.16566547828E+03 -0.76439452084E+03  0.78670254913E+03  0.80801114468E+02 0.  0.
         25    2    1    2    0    0 -0.21949893228E+02 -0.18162233689E+03 -0.59937950503E+02  0.22957913898E+03  0.12508218129E+03 0.  0.
         24    2    1    2    0    0 -0.31109630825E+01  0.15956858603E+02  0.11069069525E+04  0.11099477655E+04  0.80478203569E+02 0.  0.
        -13    1    5    5    0    0 -0.17540059583E+02 -0.15050924218E+02  0.89502284135E+03  0.89532121082E+03  0.00000000000E+00 0.  1.
         14    1    5    5    0    0  0.14429096501E+02  0.31007782821E+02  0.21188411117E+03  0.21462655472E+03  0.00000000000E+00 0. -1.
         11    1    3    3    0    0  0.43149873036E+01  0.16412153372E+03 -0.64875167549E+03  0.66920343199E+03  0.00000000000E+00 0. -1.
        -12    1    3    3    0    0  0.20745869007E+02  0.15439445640E+01 -0.11564284536E+03  0.11749911714E+03  0.00000000000E+00 0.  1.
          5    1    4    4  501    0 -0.38392969576E+02 -0.18334354446E+03 -0.22845642898E+02  0.18875452632E+03  0.41800000000E+01 0. -1.
         -5    1    4    4    0  501  0.16443076348E+02  0.17212075706E+01 -0.37092307605E+02  0.40824612659E+02  0.41800000000E+01 0. -1.
</event>
<event>
11    1  0.7577197E-009  0.1426753E+03  0.7561462E-02  0.1104607E+00
         22   -1    0    0    0    0  0.00000000000E+00  0.00000000000E+00  0.41911906242E+03  0.41911906242E+03  0.00000000000E+00 0.  1.
         22   -1    0    0    0    0 -0.00000000000E+00 -0.00000000000E+00 -0.11267793088E+03  0.11267793088E+03  0.00000000000E+00 0.  1.
         24    2    1    2    0    0  0.69382717010E+02 -0.37468362100E+02  0.19710130110E+02  0.12186978360E+03  0.90807022570E+02 0.  0.
         25    2    1    2    0    0 -0.66633436516E+02 -0.47162220433E+02  0.72169320688E+02  0.16589544527E+03  0.12509435645E+03 0.  0.
        -24    2    1    2    0    0 -0.27492804939E+01  0.84630582534E+02  0.21456168074E+03  0.24403176443E+03  0.79654837667E+02 0.  0.
        -11    1    3    3    0    0  0.20188313223E+02  0.62420167183E+01 -0.31881943782E+02  0.38249040548E+02  0.00000000000E+00 0.  1.
         12    1    3    3    0    0  0.49194403787E+02 -0.43710378819E+02  0.51592073893E+02  0.83620743054E+02  0.00000000000E+00 0. -1.
         11    1    5    5    0    0 -0.84389919745E+01  0.66569536430E+02  0.65495605867E+02  0.93767767137E+02  0.00000000000E+00 0. -1.
        -12    1    5    5    0    0  0.56897114806E+01  0.18061046104E+02  0.14906607488E+03  0.15026399729E+03  0.00000000000E+00 0.  1.
          5    1    4    4  501    0 -0.55873733172E+02 -0.74953822542E+02  0.90889652358E+02  0.13045440153E+03  0.41800000000E+01 0.  1.
         -5    1    4    4    0  501 -0.10759703344E+02  0.27791602108E+02 -0.18720331670E+02  0.35441043744E+02  0.41800000000E+01 0.  1.
</event>
<event>
11    1  0.7577197E-009  0.1587364E+03  0.7561462E-02  0.1088272E+00
         22   -1    0    0    0    0  0.00000000000E+00  0.00000000000E+00  0.86372571778E+03  0.86372571778E+03  0.00000000000E+00 0. -1.
         22   -1    0    0    0    0 -0.00000000000E+00 -0.00000000000E+00 -0.40818170585E+03  0.40818170585E+03  0.00000000000E+00 0. -1.
        -24    2    1    2    0    0 -0.95275417504E+02 -0.19219566782E+02 -0.32673482220E+03  0.35038219828E+03  0.81026192706E+02 0.  0.
         25    2    1    2    0    0  0.85634963767E+02  0.84750165132E+02  0.48398158557E+02  0.18029513539E+03  0.12509203246E+03 0.  0.
         24    2    1    2    0    0  0.96404537376E+01 -0.65530598349E+02  0.73388067557E+03  0.74123008996E+03  0.80336807365E+02 0.  0.
        -11    1    5    5    0    0  0.24269108006E+02  0.52825631437E+01  0.92151465849E+02  0.95439969273E+02  0.00000000000E+00 0.  1.
         12    1    5    5    0    0 -0.14628654268E+02 -0.70813161493E+02  0.64172920972E+03  0.64579012069E+03  0.00000000000E+00 0. -1.
         11    1    3    3    0    0 -0.53230409871E+01 -0.77107359645E+01 -0.16253066279E+03  0.16280051155E+03  0.00000000000E+00 0. -1.
        -12    1    3    3    0    0 -0.89952376517E+02 -0.11508830818E+02 -0.16420415941E+03  0.18758168673E+03  0.00000000000E+00 0.  1.
          5    1    4    4  501    0  0.53659180778E+02  0.28707477224E+02  0.86046515638E+02  0.10547465185E+03  0.41800000000E+01 0. -1.
         -5    1    4    4    0  501  0.31975782988E+02  0.56042687907E+02 -0.37648357081E+02  0.74820483535E+02  0.41800000000E+01 0. -1.
</event>
<event>
11    1  0.7577197E-009  0.1616111E+03  0.7561462E-02  0.1085572E+00
         22   -1    0    0    0    0  0.00000000000E+00  0.00000000000E+00  0.76583104636E+03  0.76583104636E+03  0.00000000000E+00 0.  1.
         22   -1    0    0    0    0 -0.00000000000E+00 -0.00000000000E+00 -0.26705022218E+03  0.26705022218E+03  0.00000000000E+00 0. -1.
        -24    2    1    2    0    0  0.26201213125E+02 -0.16004135475E+02 -0.20671148903E+03  0.22386606104E+03  0.80272894976E+02 0.  0.
         25    2    1    2    0    0 -0.51672084027E+02 -0.84270998141E+02  0.96741271308E+02  0.18648750329E+03  0.12508840838E+03 0.  0.
         24    2    1    2    0    0  0.25470870902E+02  0.10027513362E+03  0.60875104190E+03  0.62252770421E+03  0.79114118895E+02 0.  0.
        -11    1    5    5    0    0  0.48275605885E+02  0.86490215039E+02  0.53542363520E+03  0.54450854957E+03  0.00000000000E+00 0.  1.
         12    1    5    5    0    0 -0.22804734983E+02  0.13784918577E+02  0.73327406696E+02  0.78019154639E+02  0.00000000000E+00 0. -1.
         11    1    3    3    0    0  0.14124332778E+02  0.15927926295E+02 -0.17797062060E+03  0.17923932997E+03  0.00000000000E+00 0. -1.
        -12    1    3    3    0    0  0.12076880347E+02 -0.31932061770E+02 -0.28740868431E+02  0.44626731070E+02  0.00000000000E+00 0.  1.
          5    1    4    4  501    0  0.27560588428E+02 -0.52616372438E+01 -0.11630867429E+02  0.30659751110E+02  0.41800000000E+01 0. -1.
         -5    1    4    4    0  501 -0.79232672455E+02 -0.79009360897E+02  0.10837213874E+03  0.15582775218E+03  0.41800000000E+01 0. -1.
</event>
<event>
11    1  0.7577197E-009  0.1667985E+03  0.7561462E-02  0.1080852E+00
         22   -1    0    0    0    0  0.00000000000E+00  0.00000000000E+00  0.29050992910E+03  0.29050992910E+03  0.00000000000E+00 0. -1.
         22   -1    0    0    0    0 -0.00000000000E+00 -0.00000000000E+00 -0.13176362205E+04  0.13176362205E+04  0.00000000000E+00 0.  1.
        -24    2    1    2    0    0  0.10376745885E+03 -0.51110224512E+02 -0.94676860061E+03  0.95724645924E+03  0.81055906998E+02 0.  0.
         25    2    1    2    0    0 -0.88285778314E+02  0.30951280335E+02 -0.34186807307E+03  0.37586500500E+03  0.12509341386E+03 0.  0.
         24    2    1    2    0    0 -0.15481680536E+02  0.20158944178E+02  0.26151038232E+03  0.27503468533E+03  0.81303951985E+02 0.  0.
        -13    1    5    5    0    0  0.24463518042E+00  0.49233062546E+02  0.11983961753E+03  0.12955882148E+03  0.00000000000E+00 0.  1.
         14    1    5    5    0    0 -0.15726315716E+02 -0.29074118368E+02  0.14167076479E+03  0.14547586384E+03  0.00000000000E+00 0. -1.
         11    1    3    3    0    0 -0.10911165495E+02  0.57730623327E+01 -0.11893144732E+03  0.11957035980E+03  0.00000000000E+00 0. -1.
        -12    1    3    3    0    0  0.11467862435E+03 -0.56883286845E+02 -0.82783715329E+03  0.83767609944E+03  0.00000000000E+00 0.  1.
          5    1    4    4  501    0  0.23576696534E+02 -0.10880383619E+02 -0.12986393655E+03  0.13250040673E+03  0.41800000000E+01 0. -1.
         -5    1    4    4    0  501 -0.11186247485E+03  0.41831663954E+02 -0.21200413651E+03  0.24336459826E+03  0.41800000000E+01 0. -1.
</event>
<event>
11    1  0.8502278E-009  0.2175283E+03  0.7561462E-02  0.1042777E+00
         22   -1    0    0    0    0  0.00000000000E+00  0.00000000000E+00  0.23703672211E+04  0.23703672211E+04  0.00000000000E+00 0.  1.
         22   -1    0    0    0    0 -0.00000000000E+00 -0.00000000000E+00 -0.73601315224E+03  0.73601315224E+03  0.00000000000E+00 0. -1.
         24    2    1    2    0    0  0.10427416282E+03 -0.13631192664E+03 -0.60014373221E+03  0.62928944573E+03  0.79866543797E+02 0.  0.
         25    2    1    2    0    0 -0.20524348693E+03  0.16266083806E+03  0.57204174320E+02  0.29580935261E+03  0.12508964132E+03 0.  0.
        -24    2    1    2    0    0  0.10096932411E+03 -0.26348911419E+02  0.21772936267E+04  0.21812815750E+04  0.80577309657E+02 0.  0.
        -11    1    3    3    0    0  0.58265752323E+01 -0.59647552316E+02 -0.26444712361E+03  0.27115320514E+03  0.00000000000E+00 0.  1.
         12    1    3    3    0    0  0.98447587583E+02 -0.76664374325E+02 -0.33569660861E+03  0.35813624059E+03  0.00000000000E+00 0. -1.
         13    1    5    5    0    0  0.15900495174E+02 -0.10490211547E+02  0.81278953976E+02  0.83481367050E+02  0.00000000000E+00 0. -1.
        -14    1    5    5    0    0  0.85068828936E+02 -0.15858699872E+02  0.20960146727E+04  0.20978002079E+04  0.00000000000E+00 0.  1.
          5    1    4    4  501    0 -0.87849330940E+02  0.70787852800E+02 -0.37720035699E+02  0.11903234243E+03  0.41800000000E+01 0.  1.
         -5    1    4    4    0  501 -0.11739415599E+03  0.91872985261E+02  0.94924210019E+02  0.17677701018E+03  0.41800000000E+01 0.  1.
</event>
<event>
11    1  0.7577197E-009  0.1286671E+03  0.7561462E-02  0.1120918E+00
         22   -1    0    0    0    0  0.00000000000E+00  0.00000000000E+00  0.33481947086E+03  0.33481947086E+03  0.00000000000E+00 0.  1.
         22   -1    0    0    0    0 -0.00000000000E+00 -0.00000000000E+00 -0.19345605417E+03  0.19345605417E+03  0.00000000000E+00 0.  1.
         24    2    1    2    0    0  0.32833173273E+02 -0.10914316647E+02 -0.98200851759E+02  0.13021394304E+03  0.78199258949E+02 0.  0.
         25    2    1    2    0    0 -0.88003252778E+01  0.17858310493E+02 -0.17301817123E+02  0.12783822629E+03  0.12508754633E+03 0.  0.
        -24    2    1    2    0    0 -0.24032847995E+02 -0.69439938460E+01  0.25686608556E+03  0.27022335570E+03  0.80091692585E+02 0.  0.
        -11    1    3    3    0    0  0.50555777391E+02  0.14808982187E+01 -0.95957446514E+02  0.10847078514E+03  0.00000000000E+00 0.  1.
         12    1    3    3    0    0 -0.17722604119E+02 -0.12395214866E+02 -0.22434052451E+01  0.21743157899E+02  0.00000000000E+00 0. -1.
         13    1    5    5    0    0 -0.48076225405E+02  0.13161426880E+02  0.12255149489E+03  0.13230047432E+03  0.00000000000E+00 0. -1.
        -14    1    5    5    0    0  0.24043377410E+02 -0.20105420726E+02  0.13431459068E+03  0.13792288138E+03  0.00000000000E+00 0.  1.
          5    1    4    4  501    0 -0.57229005748E+02  0.26628447828E+02 -0.38537448186E+02  0.74073211388E+02  0.41800000000E+01 0. -1.
         -5    1    4    4    0  501  0.48428680471E+02 -0.87701373344E+01  0.21235631063E+02  0.53765014904E+02  0.41800000000E+01 0. -1.
</event>
<event>
11    1  0.7577197E-009  0.1436193E+03  0.7561462E-02  0.1103583E+00
         22   -1    0    0    0    0  0.00000000000E+00  0.00000000000E+00  0.33481969686E+03  0.33481969686E+03  0.00000000000E+00 0.  1.
         22   -1    0    0    0    0 -0.00000000000E+00 -0.00000000000E+00 -0.36663691162E+03  0.36663691162E+03  0.00000000000E+00 0. -1.
        -24    2    1    2    0    0 -0.26814291741E+02  0.65212979479E+02 -0.31935061168E+03  0.33702805552E+03  0.81433151070E+02 0.  0.
         25    2    1    2    0    0  0.28896262019E+02 -0.65635318227E+02  0.16772605755E+03  0.22118438308E+03  0.12509001551E+03 0.  0.
         24    2    1    2    0    0 -0.20819702771E+01  0.42233874802E+00  0.11980733937E+03  0.14324416988E+03  0.78489366584E+02 0.  0.
        -13    1    5    5    0    0  0.26430627235E+02  0.25269651802E+02  0.81920851322E+02  0.89711533481E+02  0.00000000000E+00 0.  1.
         14    1    5    5    0    0 -0.28512597512E+02 -0.24847313054E+02  0.37886488049E+02  0.53532636397E+02  0.00000000000E+00 0. -1.
         11    1    3    3    0    0 -0.14359108176E+02  0.41154395200E+02 -0.30138589343E+03  0.30452146885E+03  0.00000000000E+00 0. -1.
        -12    1    3    3    0    0 -0.12455183565E+02  0.24058584279E+02 -0.17964718250E+02  0.32506586670E+02  0.00000000000E+00 0.  1.
          5    1    4    4  501    0  0.45431163026E+02  0.16399030768E+02  0.22336259934E+02  0.53378831871E+02  0.41800000000E+01 0. -1.
         -5    1    4    4    0  501 -0.16534901007E+02 -0.82034348996E+02  0.14538979761E+03  0.16780555121E+03  0.41800000000E+01 0. -1.
</event>
<event>
11    1  0.7577197E-009  0.1618597E+03  0.7561462E-02  0.1085341E+00
         22   -1    0    0    0    0  0.00000000000E+00  0.00000000000E+00  0.35348840410E+03  0.35348840410E+03  0.00000000000E+00 0. -1.
         22   -1    0    0    0    0 -0.00000000000E+00 -0.00000000000E+00 -0.26502252593E+03  0.26502252593E+03  0.00000000000E+00 0.  1.
        -24    2    1    2    0    0  0.63942462543E+02  0.16729528512E+01 -0.18341109436E+03  0.21133676725E+03  0.83259608277E+02 0.  0.
         25    2    1    2    0    0  0.98656887289E+01  0.88871642297E+02  0.98257249867E+02  0.18247552459E+03  0.12508928534E+03 0.  0.
         24    2    1    2    0    0 -0.73808151272E+02 -0.90544595148E+02  0.17361972266E+03  0.22469863819E+03  0.81851713503E+02 0.  0.
        -13    1    5    5    0    0 -0.43596626592E+02 -0.87279058568E+02  0.79676135996E+02  0.12596263955E+03  0.00000000000E+00 0.  1.
         14    1    5    5    0    0 -0.30211524680E+02 -0.32655365799E+01  0.93943586660E+02  0.98735998639E+02  0.00000000000E+00 0. -1.
         11    1    3    3    0    0 -0.15729834701E+02  0.12203782961E+02 -0.15663678115E+02  0.25332011969E+02  0.00000000000E+00 0. -1.
        -12    1    3    3    0    0  0.79672297244E+02 -0.10530830110E+02 -0.16774741624E+03  0.18600475528E+03  0.00000000000E+00 0.  1.
          5    1    4    4  501    0 -0.28978192130E+02  0.49750779971E+02  0.11155932411E+03  0.12560983609E+03  0.41800000000E+01 0.  1.
         -5    1    4    4    0  501  0.38843880859E+02  0.39120862326E+02 -0.13302074247E+02  0.56865688500E+02  0.41800000000E+01 0.  1.
</event>
<event>
11    1  0.7577197E-009  0.1423786E+03  0.7561462E-02  0.1104931E+00
         22   -1    0    0    0    0  0.00000000000E+00  0.00000000000E+00  0.52070925835E+02  0.52070925835E+02  0.00000000000E+00 0.  1.
         22   -1    0    0    0    0 -0.00000000000E+00 -0.00000000000E+00 -0.11209563587E+04  0.11209563587E+04  0.00000000000E+00 0.  1.
         24    2    1    2    0    0  0.54691441590E+01  0.65521381139E+02 -0.78451211253E+03  0.79104446334E+03  0.77260114848E+02 0.  0.
         25    2    1    2    0    0 -0.92914469845E+01 -0.81579842075E+02 -0.25381941321E+03  0.29464106975E+03  0.12508982308E+03 0.  0.
        -24    2    1    2    0    0  0.38223028255E+01  0.16058460935E+02 -0.30553907087E+02  0.87341751418E+02  0.80140851854E+02 0.  0.
        -11    1    3    3    0    0  0.11088294899E+02  0.76876295155E+02 -0.75423133731E+03  0.75822016936E+03  0.00000000000E+00 0.  1.
         12    1    3    3    0    0 -0.56191507404E+01 -0.11354914016E+02 -0.30280775223E+02  0.32824293983E+02  0.00000000000E+00 0. -1.
         11    1    5    5    0    0 -0.18822714059E+02 -0.23960601044E+02 -0.27851126392E+02  0.41280627518E+02  0.00000000000E+00 0. -1.
        -12    1    5    5    0    0  0.22645016885E+02  0.40019061980E+02 -0.27027806959E+01  0.46061123900E+02  0.00000000000E+00 0.  1.
          5    1    4    4  501    0 -0.31703022115E+02 -0.65151994523E+02 -0.25635130372E+03  0.26642696433E+03  0.41800000000E+01 0.  1.
         -5    1    4    4    0  501  0.22411575131E+02 -0.16427847552E+02  0.25318905072E+01  0.28214105418E+02  0.41800000000E+01 0.  1.
</event>
<event>
11    1  0.1755454E-008  0.1752838E+03  0.7561462E-02  0.1073523E+00
         22   -1    0    0    0    0  0.00000000000E+00  0.00000000000E+00  0.49925647759E+03  0.49925647759E+03  0.00000000000E+00 0.  1.
         22   -1    0    0    0    0 -0.00000000000E+00 -0.00000000000E+00 -0.11786057165E+04  0.11786057165E+04  0.00000000000E+00 0.  1.
        -24    2    1    2    0    0  0.74396746635E+01  0.10152629853E+03 -0.83818710188E+03  0.84620790390E+03  0.56100452908E+02 0.  0.
         25    2    1    2    0    0 -0.10638999801E+03 -0.17047266937E+03 -0.28199825801E+03  0.36817098290E+03  0.12508833860E+03 0.  0.
         24    2    1    2    0    0  0.98950323348E+02  0.68946370830E+02  0.44083612094E+03  0.46348330732E+03  0.77042339629E+02 0.  0.
        -11    1    5    5    0    0  0.47772390406E+02  0.37919115153E+02  0.34604972049E+03  0.35138365020E+03  0.00000000000E+00 0.  1.
         12    1    5    5    0    0  0.51177932942E+02  0.31027255677E+02  0.94786400457E+02  0.11209965712E+03  0.00000000000E+00 0. -1.
         13    1    3    3    0    0 -0.15685646610E+02  0.15169686290E+02 -0.85933725475E+02  0.88660950061E+02  0.00000000000E+00 0. -1.
        -14    1    3    3    0    0  0.23125321273E+02  0.86356612244E+02 -0.75225337640E+03  0.75754695384E+03  0.00000000000E+00 0.  1.
          5    1    4    4  501    0 -0.66830323375E+02 -0.44109963270E+02 -0.34178050709E+02  0.87164170003E+02  0.41800000000E+01 0. -1.
         -5    1    4    4    0  501 -0.39559674636E+02 -0.12636270610E+03 -0.24782020730E+03  0.28100681290E+03  0.41800000000E+01 0. -1.
</event>
<event>
11    1  0.7577197E-009  0.1714438E+03  0.7561462E-02  0.1076782E+00
         22   -1    0    0    0    0  0.00000000000E+00  0.00000000000E+00  0.28660452128E+04  0.28660452128E+04  0.00000000000E+00 0.  1.
         22   -1    0    0    0    0 -0.00000000000E+00 -0.00000000000E+00 -0.22112903950E+03  0.22112903950E+03  0.00000000000E+00 0. -1.
        -24    2    1    2    0    0  0.24827446246E+02  0.62797395089E+02 -0.52789367892E+02  0.12304809245E+03  0.88284770924E+02 0.  0.
         25    2    1    2    0    0  0.79382733244E+02 -0.75731419195E+01 -0.89522327320E+02  0.17326563662E+03  0.12509101858E+03 0.  0.
         24    2    1    2    0    0 -0.10421017949E+03 -0.55224253169E+02  0.27872278685E+04  0.27908605232E+04  0.79710660868E+02 0.  0.
        -13    1    5    5    0    0 -0.11072452955E+03 -0.30052628064E+02  0.24164533943E+04  0.24191754977E+04  0.00000000000E+00 0.  1.
         14    1    5    5    0    0  0.65143500578E+01 -0.25171625105E+02  0.37077447418E+03  0.37168502548E+03  0.00000000000E+00 0. -1.
         11    1    3    3    0    0 -0.72856936201E+01 -0.61487436885E+01 -0.45673547746E+02  0.46657918343E+02  0.00000000000E+00 0. -1.
        -12    1    3    3    0    0  0.32113139866E+02  0.68946138777E+02 -0.71158201468E+01  0.76390174111E+02  0.00000000000E+00 0.  1.
          5    1    4    4  501    0 -0.18534696030E+02 -0.35886157967E+02 -0.52474093888E+01  0.40943363270E+02  0.41800000000E+01 0.  1.
         -5    1    4    4    0  501  0.97917429274E+02  0.28313016048E+02 -0.84274917931E+02  0.13232227335E+03  0.41800000000E+01 0.  1.
</event>
<event>
11    1  0.7577197E-009  0.1467369E+03  0.7561462E-02  0.1100260E+00
         22   -1    0    0    0    0  0.00000000000E+00  0.00000000000E+00  0.18690617132E+04  0.18690617132E+04  0.00000000000E+00 0.  1.
         22   -1    0    0    0    0 -0.00000000000E+00 -0.00000000000E+00 -0.14874047762E+03  0.14874047762E+03  0.00000000000E+00 0.  1.
        -24    2    1    2    0    0 -0.34324203196E+02 -0.53275993134E+01 -0.11794084220E+03  0.14845761349E+03  0.83205087011E+02 0.  0.
         25    2    1    2    0    0  0.70993638224E+02  0.69106444697E+02  0.46301998988E+03  0.48974567199E+03  0.12509002692E+03 0.  0.
         24    2    1    2    0    0 -0.36669435027E+02 -0.63778845384E+02  0.13752420879E+04  0.13795989054E+04  0.81178511380E+02 0.  0.
        -11    1    5    5    0    0 -0.25077348299E+02  0.81642097144E+01  0.68777942752E+03  0.68828487463E+03  0.00000000000E+00 0.  1.
         12    1    5    5    0    0 -0.11592086729E+02 -0.71943055098E+02  0.68746266043E+03  0.69131403077E+03  0.00000000000E+00 0. -1.
         11    1    3    3    0    0  0.22701959835E+02 -0.20216355523E+02 -0.30955950911E+02  0.43386068130E+02  0.00000000000E+00 0. -1.
        -12    1    3    3    0    0 -0.57026163031E+02  0.14888756210E+02 -0.86984891287E+02  0.10507154536E+03  0.00000000000E+00 0.  1.
          5    1    4    4  501    0  0.63845354569E+02 -0.19797803787E+02  0.24892341553E+03  0.25777610737E+03  0.41800000000E+01 0.  1.
         -5    1    4    4    0  501  0.71482836544E+01  0.88904248484E+02  0.21409657435E+03  0.23196956461E+03  0.41800000000E+01 0.  1.
</event>
<event>
11    1  0.7577197E-009  0.1962858E+03  0.7561462E-02  0.1057182E+00
         22   -1    0    0    0    0  0.00000000000E+00  0.00000000000E+00  0.96190787689E+02  0.96190787689E+02  0.00000000000E+00 0.  1.
         22   -1    0    0    0    0 -0.00000000000E+00 -0.00000000000E+00 -0.12457942290E+04  0.12457942290E+04  0.00000000000E+00 0. -1.
         24    2    1    2    0    0 -0.13778822181E+03  0.60118984228E+02 -0.91319146291E+03  0.92904594687E+03  0.81288603946E+02 0.  0.
         25    2    1    2    0    0  0.14226126044E+03 -0.61922311703E+02 -0.26672914841E+03  0.33296319244E+03  0.12508960787E+03 0.  0.
        -24    2    1    2    0    0 -0.44730386272E+01  0.18033274746E+01  0.30317170034E+02  0.79975877359E+02  0.73849509788E+02 0.  0.
        -11    1    3    3    0    0 -0.10109682888E+03  0.11616743839E+02 -0.42162878828E+03  0.43373534863E+03  0.00000000000E+00 0.  1.
         12    1    3    3    0    0 -0.36691392930E+02  0.48502240389E+02 -0.49156267463E+03  0.49531059824E+03  0.00000000000E+00 0. -1.
         11    1    5    5    0    0 -0.64186823314E+01  0.28575677382E+02 -0.10508680490E+02  0.31115931391E+02  0.00000000000E+00 0. -1.
        -12    1    5    5    0    0  0.19456437042E+01 -0.26772349907E+02  0.40825850525E+02  0.48859945968E+02  0.00000000000E+00 0.  1.
          5    1    4    4  501    0  0.10739443956E+02 -0.66486513330E+02 -0.96631939122E+02  0.11786007029E+03  0.41800000000E+01 0. -1.
         -5    1    4    4    0  501  0.13152181648E+03  0.45642016272E+01 -0.17009720929E+03  0.21510312214E+03  0.41800000000E+01 0. -1.
</event>
<event>
11    1  0.7577197E-009  0.1431141E+03  0.7561462E-02  0.1104130E+00
         22   -1    0    0    0    0  0.00000000000E+00  0.00000000000E+00  0.14606196305E+04  0.14606196305E+04  0.00000000000E+00 0. -1.
         22   -1    0    0    0    0 -0.00000000000E+00 -0.00000000000E+00 -0.42779910893E+03  0.42779910893E+03  0.00000000000E+00 0. -1.
        -24    2    1    2    0    0 -0.11466084686E+03 -0.59338829831E+02 -0.33803381673E+03  0.37035989646E+03  0.78939122887E+02 0.  0.
         25    2    1    2    0    0 -0.22408174209E+01  0.47408255983E+02 -0.58657704249E+01  0.13392251758E+03  0.12509304318E+03 0.  0.
         24    2    1    2    0    0  0.11690166428E+03  0.11930573849E+02  0.13767201087E+04  0.13841363254E+04  0.81650301848E+02 0.  0.
        -13    1    5    5    0    0 -0.61392958995E+01 -0.15528318850E+02  0.13332874466E+03  0.13437028612E+03  0.00000000000E+00 0.  1.
         14    1    5    5    0    0  0.12304096018E+03  0.27458892699E+02  0.12433913640E+04  0.12497660392E+04  0.00000000000E+00 0. -1.
         13    1    3    3    0    0 -0.21641515807E+02  0.99858825722E+01 -0.12998766857E+03  0.13215470872E+03  0.00000000000E+00 0. -1.
        -14    1    3    3    0    0 -0.93019331056E+02 -0.69324712404E+02 -0.20804614816E+03  0.23820518774E+03  0.00000000000E+00 0.  1.
          5    1    4    4  501    0 -0.19590049944E+01 -0.41663384262E+01  0.54249409325E+02  0.54604641640E+02  0.41800000000E+01 0.  1.
         -5    1    4    4    0  501 -0.28181242648E+00  0.51574594409E+02 -0.60115179750E+02  0.79317875936E+02  0.41800000000E+01 0.  1.
</event>
<event>
11    1  0.7577197E-009  0.7615688E+03  0.7561462E-02  0.8946189E-01
         22   -1    0    0    0    0  0.00000000000E+00  0.00000000000E+00  0.67400657273E+03  0.67400657273E+03  0.00000000000E+00 0.  1.
         22   -1    0    0    0    0 -0.00000000000E+00 -0.00000000000E+00 -0.37943599229E+04  0.37943599229E+04  0.00000000000E+00 0.  1.
         24    2    1    2    0    0 -0.43673281580E+03  0.53079561660E+03 -0.10534454956E+04  0.12604881414E+04  0.81261328589E+02 0.  0.
         25    2    1    2    0    0  0.92065000879E+03  0.58637441969E+02 -0.22364480531E+04  0.24224742056E+04  0.12508634698E+03 0.  0.
        -24    2    1    2    0    0 -0.48391719299E+03 -0.58943305857E+03  0.16954019853E+03  0.78540414860E+03  0.80676003411E+02 0.  0.
        -11    1    3    3    0    0 -0.33854692744E+03  0.44899557074E+03 -0.81882129046E+03  0.99331734624E+03  0.00000000000E+00 0.  1.
         12    1    3    3    0    0 -0.98185888359E+02  0.81800045862E+02 -0.23462420510E+03  0.26717079518E+03  0.00000000000E+00 0. -1.
         11    1    5    5    0    0 -0.29756058245E+03 -0.29939374055E+03  0.90101197004E+02  0.43162152149E+03  0.00000000000E+00 0. -1.
        -12    1    5    5    0    0 -0.18635661053E+03 -0.29003931802E+03  0.79439001524E+02  0.35378262712E+03  0.00000000000E+00 0.  1.
          5    1    4    4  501    0  0.68463484316E+03  0.92927993010E+02 -0.16006350420E+04  0.17433905157E+04  0.41800000000E+01 0.  1.
         -5    1    4    4    0  501  0.23601516563E+03 -0.34290551041E+02 -0.63581301117E+03  0.67908368989E+03  0.41800000000E+01 0.  1.
</event>
<event>
11    1  0.7577197E-009  0.1610441E+03  0.7561462E-02  0.1086099E+00
         22   -1    0    0    0    0  0.00000000000E+00  0.00000000000E+00  0.75687087556E+03  0.75687087556E+03  0.00000000000E+00 0. -1.
         22   -1    0    0    0    0 -0.00000000000E+00 -0.00000000000E+00 -0.24635955361E+03  0.24635955361E+03  0.00000000000E+00 0.  1.
        -24    2    1    2    0    0  0.56126384850E+02  0.39248915390E+01 -0.19206606972E+03  0.21561005465E+03  0.80204393135E+02 0.  0.
         25    2    1    2    0    0 -0.12607597749E+03 -0.65226612392E+02  0.22310330676E+03  0.29252652734E+03  0.12508805157E+03 0.  0.
         24    2    1    2    0    0  0.69949592637E+02  0.61301720853E+02  0.47947408491E+03  0.49509384719E+03  0.81065855563E+02 0.  0.
        -11    1    5    5    0    0  0.12433638619E+02 -0.16759378010E+02  0.40746517627E+02  0.45779371111E+02  0.00000000000E+00 0.  1.
         12    1    5    5    0    0  0.57515954018E+02  0.78061098863E+02  0.43872756728E+03  0.44931447608E+03  0.00000000000E+00 0. -1.
         11    1    3    3    0    0  0.33472604446E+02  0.35765135639E+02 -0.57761110616E+02  0.75735764836E+02  0.00000000000E+00 0. -1.
        -12    1    3    3    0    0  0.22653780404E+02 -0.31840244100E+02 -0.13430495910E+03  0.13987428981E+03  0.00000000000E+00 0.  1.
          5    1    4    4  501    0 -0.14472774070E+03 -0.44199010802E+02  0.21505125852E+03  0.26299085094E+03  0.41800000000E+01 0.  1.
         -5    1    4    4    0  501  0.18651763217E+02 -0.21027601589E+02  0.80520482431E+01  0.29535676404E+02  0.41800000000E+01 0.  1.
</event>
<event>
11    1  0.7577197E-009  0.1404596E+03  0.7561462E-02  0.1107046E+00
         22   -1    0    0    0    0  0.00000000000E+00  0.00000000000E+00  0.13658773607E+04  0.13658773607E+04  0.00000000000E+00 0. -1.
         22   -1    0    0    0    0 -0.00000000000E+00 -0.00000000000E+00 -0.88892813706E+02  0.88892813706E+02  0.00000000000E+00 0. -1.
         24    2    1    2    0    0  0.39251478686E+02  0.55540980039E+02 -0.32279501437E+02  0.10966024242E+03  0.79736588295E+02 0.  0.
         25    2    1    2    0    0 -0.54163048376E+02  0.13004679341E+01  0.28344749906E+03  0.31452382258E+03  0.12508966075E+03 0.  0.
        -24    2    1    2    0    0  0.14911569690E+02 -0.56841447973E+02  0.10258165494E+04  0.10305861094E+04  0.79717192581E+02 0.  0.
        -11    1    3    3    0    0  0.23068916931E+02  0.68555495031E+01  0.23665499761E+02  0.33752472003E+02  0.00000000000E+00 0.  1.
         12    1    3    3    0    0  0.16182561755E+02  0.48685430536E+02 -0.55945001198E+02  0.75907770422E+02  0.00000000000E+00 0. -1.
         11    1    5    5    0    0 -0.69184907533E+01 -0.66351016495E+02  0.52758830630E+03  0.53178919117E+03  0.00000000000E+00 0. -1.
        -12    1    5    5    0    0  0.21830060443E+02  0.95095685215E+01  0.49822824306E+03  0.49879691821E+03  0.00000000000E+00 0.  1.
          5    1    4    4  501    0 -0.59182513435E+02  0.33339120321E+02  0.27119832554E+03  0.27960699386E+03  0.41800000000E+01 0.  1.
         -5    1    4    4    0  501  0.50194650598E+01 -0.32038652387E+02  0.12249173516E+02  0.34916828723E+02  0.41800000000E+01 0.  1.
</event>
<event>
11    1  0.7577197E-009  0.1433348E+03  0.7561462E-02  0.1103891E+00
         22   -1    0    0    0    0  0.00000000000E+00  0.00000000000E+00  0.18961960178E+03  0.18961960178E+03  0.00000000000E+00 0.  1.
         22   -1    0    0    0    0 -0.00000000000E+00 -0.00000000000E+00 -0.35467742475E+04  0.35467742475E+04  0.00000000000E+00 0.  1.
        -24    2    1    2    0    0 -0.48285470732E+02  0.77601374729E+01 -0.33264672931E+04  0.33277967434E+04  0.80341815207E+02 0.  0.
         25    2    1    2    0    0 -0.26205833867E+01 -0.59500161521E+02 -0.17459448218E+03  0.22288239347E+03  0.12508473701E+03 0.  0.
         24    2    1    2    0    0  0.50906054119E+02  0.51740024048E+02  0.14390712949E+03  0.18571471243E+03  0.92261780073E+02 0.  0.
        -11    1    5    5    0    0  0.26286475367E+02  0.45760765675E+02  0.15054286889E+03  0.15952486276E+03  0.00000000000E+00 0.  1.
         12    1    5    5    0    0  0.24619578751E+02  0.59792583733E+01 -0.66357394076E+01  0.26189849676E+02  0.00000000000E+00 0. -1.
         11    1    3    3    0    0  0.43194846412E+01  0.34689806895E+02 -0.12292155440E+04  0.12297125251E+04  0.00000000000E+00 0. -1.
        -12    1    3    3    0    0 -0.52604955373E+02 -0.26929669422E+02 -0.20972517490E+04  0.20980842183E+04  0.00000000000E+00 0.  1.
          5    1    4    4  501    0  0.10355299444E+02 -0.62231204922E+02 -0.19110817305E+03  0.20129520933E+03  0.41800000000E+01 0.  1.
         -5    1    4    4    0  501 -0.12975882831E+02  0.27310434007E+01  0.16513690865E+02  0.21587184144E+02  0.41800000000E+01 0.  1.
</event>
<event>
11    1  0.7577197E-009  0.1410861E+03  0.7561462E-02  0.1106352E+00
         22   -1    0    0    0    0  0.00000000000E+00  0.00000000000E+00  0.24770624838E+04  0.24770624838E+04  0.00000000000E+00 0. -1.
         22   -1    0    0    0    0 -0.00000000000E+00 -0.00000000000E+00 -0.39042988258E+03  0.39042988258E+03  0.00000000000E+00 0.  1.
         24    2    1    2    0    0 -0.20851047357E+02 -0.66484264187E+02 -0.23153103956E+03  0.25418446822E+03  0.78410446006E+02 0.  0.
         25    2    1    2    0    0 -0.31035346561E+02  0.59531675207E+02 -0.11223011209E+03  0.18097037943E+03  0.12508983605E+03 0.  0.
        -24    2    1    2    0    0  0.51886393918E+02  0.69525889800E+01  0.24303937528E+04  0.24323375187E+04  0.81923590387E+02 0.  0.
        -13    1    3    3    0    0 -0.14287973496E-01 -0.62862749159E+02 -0.22246135885E+03  0.23117262299E+03  0.00000000000E+00 0.  1.
         14    1    3    3    0    0 -0.20836759384E+02 -0.36215150274E+01 -0.90696807047E+01  0.23011845228E+02  0.00000000000E+00 0. -1.
         11    1    5    5    0    0  0.54883685249E+02  0.16069866399E+02  0.23945008524E+04  0.23951836655E+04  0.00000000000E+00 0. -1.
        -12    1    5    5    0    0 -0.29972913306E+01 -0.91172774188E+01  0.35892900462E+02  0.37153853184E+02  0.00000000000E+00 0.  1.
          5    1    4    4  501    0 -0.16027827500E+02 -0.34993628651E+02 -0.82486431031E+01  0.39584817968E+02  0.41800000000E+01 0.  1.
         -5    1    4    4    0  501 -0.15007519061E+02  0.94525303858E+02 -0.10398146899E+03  0.14138556146E+03  0.41800000000E+01 0.  1.
</event>
<event>
11    1  0.7577197E-009  0.1815001E+03  0.7561462E-02  0.1068436E+00
         22   -1    0    0    0    0  0.00000000000E+00  0.00000000000E+00  0.11414457298E+03  0.11414457298E+03  0.00000000000E+00 0.  1.
         22   -1    0    0    0    0 -0.00000000000E+00 -0.00000000000E+00 -0.17322581229E+04  0.17322581229E+04  0.00000000000E+00 0.  1.
         24    2    1    2    0    0 -0.10334237171E+03  0.75367997474E+02 -0.12044025977E+04  0.12139332523E+04  0.81782289609E+02 0.  0.
         25    2    1    2    0    0  0.16605383404E+03 -0.16246320489E+02 -0.46052313496E+03  0.50553662127E+03  0.12509156198E+03 0.  0.
        -24    2    1    2    0    0 -0.62711462326E+02 -0.59121676985E+02  0.46812182767E+02  0.12693282227E+03  0.80575807275E+02 0.  0.
        -11    1    3    3    0    0 -0.28902521319E+02  0.87986326249E+01 -0.64358646415E+03  0.64429520292E+03  0.00000000000E+00 0.  1.
         12    1    3    3    0    0 -0.74439850391E+02  0.66569364849E+02 -0.56081613358E+03  0.56963804942E+03  0.00000000000E+00 0. -1.
         13    1    5    5    0    0 -0.80459804200E+01  0.19313967827E+02  0.16470443872E+02  0.26627855255E+02  0.00000000000E+00 0. -1.
        -14    1    5    5    0    0 -0.54665481906E+02 -0.78435644812E+02  0.30341738895E+02  0.10030496702E+03  0.00000000000E+00 0.  1.
          5    1    4    4  501    0  0.11781369512E+03  0.31007606318E+02 -0.18297407515E+03  0.21986023511E+03  0.41800000000E+01 0. -1.
         -5    1    4    4    0  501  0.48240138915E+02 -0.47253926807E+02 -0.27754905982E+03  0.28567638615E+03  0.41800000000E+01 0. -1.
</event>
<event>
11    1  0.7577197E-009  0.1419954E+03  0.7561462E-02  0.1105350E+00
         22   -1    0    0    0    0  0.00000000000E+00  0.00000000000E+00  0.84505660626E+03  0.84505660626E+03  0.00000000000E+00 0.  1.
         22   -1    0    0    0    0 -0.00000000000E+00 -0.00000000000E+00 -0.40852903517E+03  0.40852903517E+03  0.00000000000E+00 0.  1.
        -24    2    1    2    0    0  0.12371719542E+02  0.63295362903E+02 -0.33503770987E+03  0.35027860487E+03  0.79280966080E+02 0.  0.
         25    2    1    2    0    0  0.26622213185E+01 -0.10818506394E+03  0.46061557951E+02  0.17169482946E+03  0.12508537828E+03 0.  0.
         24    2    1    2    0    0 -0.15033940860E+02  0.44889701041E+02  0.72550372301E+03  0.73161220710E+03  0.81606769603E+02 0.  0.
        -13    1    5    5    0    0 -0.33697132096E+02  0.60967115899E+02  0.54633635512E+03  0.55075938381E+03  0.00000000000E+00 0.  1.
         14    1    5    5    0    0  0.18663191236E+02 -0.16077414859E+02  0.17916736789E+03  0.18085282329E+03  0.00000000000E+00 0. -1.
         13    1    3    3    0    0  0.42310755418E+01  0.95462159226E+01  0.41450619375E+00  0.10450074357E+02  0.00000000000E+00 0. -1.
        -14    1    3    3    0    0  0.81406440001E+01  0.53749146981E+02 -0.33545221607E+03  0.33982853051E+03  0.00000000000E+00 0.  1.
          5    1    4    4  501    0  0.16111351073E+02 -0.11046792288E+03 -0.11580302181E+02  0.11231346053E+03  0.41800000000E+01 0. -1.
         -5    1    4    4    0  501 -0.13449129755E+02  0.22828589329E+01  0.57641860132E+02  0.59381368927E+02  0.41800000000E+01 0. -1.
</event>
<event>
11    1  0.7577197E-009  0.1772179E+03  0.7561462E-02  0.1071916E+00
         22   -1    0    0    0    0  0.00000000000E+00  0.00000000000E+00  0.22171087116E+03  0.22171087116E+03  0.00000000000E+00 0. -1.
         22   -1    0    0    0    0 -0.00000000000E+00 -0.00000000000E+00 -0.20619360871E+03  0.20619360871E+03  0.00000000000E+00 0.  1.
        -24    2    1    2    0    0 -0.76203278656E+02 -0.95156570027E+02 -0.51233612211E+02  0.15386053192E+03  0.78654102027E+02 0.  0.
         25    2    1    2    0    0  0.82088579263E+02  0.10458335865E+03  0.28507540063E+02  0.18478677441E+03  0.12512896709E+03 0.  0.
         24    2    1    2    0    0 -0.58853006068E+01 -0.94267886247E+01  0.38243334596E+02  0.89257173541E+02  0.79879842767E+02 0.  0.
        -11    1    5    5    0    0 -0.20447957366E+02 -0.10307345576E+02 -0.19266368574E+02  0.29925796419E+02  0.00000000000E+00 0.  1.
         12    1    5    5    0    0  0.14562656759E+02  0.88055695118E+00  0.57509703171E+02  0.59331377122E+02  0.00000000000E+00 0. -1.
         11    1    3    3    0    0 -0.54686890999E+02 -0.94265566113E+01 -0.10248741936E+02  0.56431841437E+02  0.00000000000E+00 0. -1.
        -12    1    3    3    0    0 -0.21516387657E+02 -0.85730013415E+02 -0.40984870275E+02  0.97428690484E+02  0.00000000000E+00 0.  1.
          5    1    4    4  501    0  0.55054710855E+02  0.90160208151E+02 -0.37271961925E+02  0.11210065061E+03  0.41800000000E+01 0.  1.
         -5    1    4    4    0  501  0.27033868407E+02  0.14423150500E+02  0.65779501988E+02  0.72686123801E+02  0.41800000000E+01 0.  1.
</event>
<event>
11    1  0.7577197E-009  0.4452965E+03  0.7561462E-02  0.9524819E-01
         22   -1    0    0    0    0  0.00000000000E+00  0.00000000000E+00  0.44952468703E+03  0.44952468703E+03  0.00000000000E+00 0. -1.
         22   -1    0    0    0    0 -0.00000000000E+00 -0.00000000000E+00 -0.10474797162E+04  0.10474797162E+04  0.00000000000E+00 0. -1.
        -24    2    1    2    0    0  0.40535872441E+02 -0.35624843665E+03  0.72526129008E+01  0.36731480105E+03  0.79444679531E+02 0.  0.
         25    2    1    2    0    0 -0.41969292639E+03  0.35444544407E+03 -0.40241344198E+03  0.69235593453E+03  0.12508571668E+03 0.  0.
         24    2    1    2    0    0  0.37915705395E+03  0.18029925819E+01 -0.20279420011E+03  0.43733366767E+03  0.79824350534E+02 0.  0.
        -13    1    5    5    0    0  0.75286218103E+02 -0.39317687911E+01 -0.78897917650E+02  0.10912540883E+03  0.00000000000E+00 0.  1.
         14    1    5    5    0    0  0.30387083585E+03  0.57347613730E+01 -0.12389628246E+03  0.32820825884E+03  0.00000000000E+00 0. -1.
         13    1    3    3    0    0  0.49176155872E+02 -0.26198912363E+03 -0.23979299313E+02  0.26764080780E+03  0.00000000000E+00 0. -1.
        -14    1    3    3    0    0 -0.86402834310E+01 -0.94259313018E+02  0.31231912214E+02  0.99673993242E+02  0.00000000000E+00 0.  1.
          5    1    4    4  501    0 -0.12144918144E+03  0.41058113063E+02 -0.65631830300E+02  0.14408567544E+03  0.41800000000E+01 0. -1.
         -5    1    4    4    0  501 -0.29824374495E+03  0.31338733100E+03 -0.33678161168E+03  0.54827025909E+03  0.41800000000E+01 0. -1.
</event>
<event>
11    1  0.7577197E-009  0.1741760E+03  0.7561462E-02  0.1074454E+00
         22   -1    0    0    0    0  0.00000000000E+00  0.00000000000E+00  0.19327230677E+03  0.19327230677E+03  0.00000000000E+00 0.  1.
         22   -1    0    0    0    0 -0.00000000000E+00 -0.00000000000E+00 -0.32633527339E+03  0.32633527339E+03  0.00000000000E+00 0.  1.
         24    2    1    2    0    0  0.22821664432E+02 -0.91917861339E+02 -0.13470164194E+03  0.18356217117E+03  0.81122233346E+02 0.  0.
         25    2    1    2    0    0  0.92243745713E+02 -0.13058212244E+01 -0.44948319839E+02  0.16179555641E+03  0.12508731681E+03 0.  0.
        -24    2    1    2    0    0 -0.11506541014E+03  0.93223682563E+02  0.46586995151E+02  0.17424985258E+03  0.79132543272E+02 0.  0.
        -11    1    3    3    0    0  0.31459884189E+02 -0.10065430041E+03 -0.13495785058E+03  0.17127356462E+03  0.00000000000E+00 0.  1.
         12    1    3    3    0    0 -0.86382197571E+01  0.87364390672E+01  0.25620864113E+00  0.12288606553E+02  0.00000000000E+00 0. -1.
         13    1    5    5    0    0 -0.19715925402E+02 -0.70291985349E+01  0.27537148059E+02  0.34589331733E+02  0.00000000000E+00 0. -1.
        -14    1    5    5    0    0 -0.95349484743E+02  0.10025288110E+03  0.19049847092E+02  0.13966052085E+03  0.00000000000E+00 0.  1.
          5    1    4    4  501    0  0.78952331064E+02  0.11725966054E+02  0.29304968913E+02  0.85130620010E+02  0.41800000000E+01 0.  1.
         -5    1    4    4    0  501  0.13291414649E+02 -0.13031787279E+02 -0.74253288752E+02  0.76664936402E+02  0.41800000000E+01 0.  1.
</event>
<event>
11    1  0.7577197E-009  0.1308531E+03  0.7561462E-02  0.1118225E+00
         22   -1    0    0    0    0  0.00000000000E+00  0.00000000000E+00  0.50187827390E+03  0.50187827390E+03  0.00000000000E+00 0.  1.
         22   -1    0    0    0    0 -0.00000000000E+00 -0.00000000000E+00 -0.30092572579E+03  0.30092572579E+03  0.00000000000E+00 0.  1.
        -24    2    1    2    0    0 -0.28360368864E+02  0.30031821367E+01 -0.21299514746E+03  0.22987725663E+03  0.81628981676E+02 0.  0.
         25    2    1    2    0    0  0.56808191618E+02  0.20788189694E+02 -0.92638826828E+01  0.13925543273E+03  0.12508771545E+03 0.  0.
         24    2    1    2    0    0 -0.28447822754E+02 -0.23791371830E+02  0.42321157825E+03  0.43367131033E+03  0.87106012662E+02 0.  0.
        -13    1    5    5    0    0 -0.20135355642E+02 -0.48818426943E+02  0.37516393210E+03  0.37886230653E+03  0.00000000000E+00 0.  1.
         14    1    5    5    0    0 -0.83124671122E+01  0.25027055113E+02  0.48047646146E+02  0.54809003798E+02  0.00000000000E+00 0. -1.
         11    1    3    3    0    0  0.21828718771E+02  0.21312411994E+02 -0.52458215200E+02  0.60684233621E+02  0.00000000000E+00 0. -1.
        -12    1    3    3    0    0 -0.50189087636E+02 -0.18309229857E+02 -0.16053693226E+03  0.16919302301E+03  0.00000000000E+00 0.  1.
          5    1    4    4  501    0  0.22474440408E+02  0.18633091747E+02  0.57168647720E+02  0.64327437861E+02  0.41800000000E+01 0. -1.
         -5    1    4    4    0  501  0.34333751210E+02  0.21550979463E+01 -0.66432530402E+02  0.74927994868E+02  0.41800000000E+01 0. -1.
</event>
<event>
11    1  0.7577197E-009  0.1755913E+03  0.7561462E-02  0.1073266E+00
         22   -1    0    0    0    0  0.00000000000E+00  0.00000000000E+00  0.94653054120E+02  0.94653054120E+02  0.00000000000E+00 0.  1.
         22   -1    0    0    0    0 -0.00000000000E+00 -0.00000000000E+00 -0.83125305484E+03  0.83125305484E+03  0.00000000000E+00 0. -1.
         24    2    1    2    0    0  0.72581509967E+02 -0.90088827309E+02 -0.41337379702E+03  0.43685754732E+03  0.81132904515E+02 0.  0.
         25    2    1    2    0    0 -0.12727028679E+03  0.72046992646E+02 -0.33607753256E+03  0.38727610846E+03  0.12508469628E+03 0.  0.
        -24    2    1    2    0    0  0.54688776819E+02  0.18041834664E+02  0.12851328861E+02  0.10177245318E+03  0.82922285692E+02 0.  0.
        -13    1    3    3    0    0 -0.10332333140E+02 -0.34911754529E+02 -0.17073280486E+03  0.17457169979E+03  0.00000000000E+00 0.  1.
         14    1    3    3    0    0  0.82913843107E+02 -0.55177072781E+02 -0.24264099216E+03  0.26228584754E+03  0.00000000000E+00 0. -1.
         11    1    5    5    0    0 -0.17441510261E+02  0.18611843662E+02 -0.79208765503E+01  0.26708562111E+02  0.00000000000E+00 0. -1.
        -12    1    5    5    0    0  0.72130287080E+02 -0.57000899840E+00  0.20772205411E+02  0.75063891068E+02  0.00000000000E+00 0.  1.
          5    1    4    4  501    0 -0.46967939479E+02  0.84621092106E+02 -0.10783734310E+03  0.14495889602E+03  0.41800000000E+01 0. -1.
         -5    1    4    4    0  501 -0.80302347307E+02 -0.12574099461E+02 -0.22824018945E+03  0.24231721243E+03  0.41800000000E+01 0. -1.
</event>
<event>
11    1  0.7577197E-009  0.1399379E+03  0.7561462E-02  0.1107628E+00
         22   -1    0    0    0    0  0.00000000000E+00  0.00000000000E+00  0.37870024219E+03  0.37870024219E+03  0.00000000000E+00 0.  1.
         22   -1    0    0    0    0 -0.00000000000E+00 -0.00000000000E+00 -0.74159249550E+03  0.74159249550E+03  0.00000000000E+00 0. -1.
        -24    2    1    2    0    0  0.17904176029E+02 -0.12058257825E+02 -0.29383487555E+03  0.30526109736E+03  0.79871411491E+02 0.  0.
         25    2    1    2    0    0  0.21792677738E+01 -0.47660919821E+02 -0.42458387476E+03  0.44519153909E+03  0.12509087610E+03 0.  0.
         24    2    1    2    0    0 -0.20083443803E+02  0.59719177646E+02  0.35552649700E+03  0.36984010123E+03  0.80080493985E+02 0.  0.
        -11    1    5    5    0    0  0.28879234515E+02  0.38894354651E+02  0.18225352783E+03  0.18858189048E+03  0.00000000000E+00 0.  1.
         12    1    5    5    0    0 -0.48962678318E+02  0.20824822994E+02  0.17327296917E+03  0.18125821075E+03  0.00000000000E+00 0. -1.
         11    1    3    3    0    0  0.35635775364E+02 -0.16040206150E+02 -0.27921668994E+03  0.28193821422E+03  0.00000000000E+00 0. -1.
        -12    1    3    3    0    0 -0.17731599335E+02  0.39819483252E+01 -0.14618185611E+02  0.23322883141E+02  0.00000000000E+00 0.  1.
          5    1    4    4  501    0  0.48484732973E+02 -0.35693657384E+02 -0.97961806209E+02  0.11505995995E+03  0.41800000000E+01 0. -1.
         -5    1    4    4    0  501 -0.46305465199E+02 -0.11967262437E+02 -0.32662206855E+03  0.33013157913E+03  0.41800000000E+01 0. -1.
</event>
<event>
11    1  0.7577197E-009  0.1517182E+03  0.7561462E-02  0.1095136E+00
         22   -1    0    0    0    0  0.00000000000E+00  0.00000000000E+00  0.35462040585E+03  0.35462040585E+03  0.00000000000E+00 0. -1.
         22   -1    0    0    0    0 -0.00000000000E+00 -0.00000000000E+00 -0.33741655146E+03  0.33741655146E+03  0.00000000000E+00 0.  1.
         24    2    1    2    0    0  0.23392226186E+02 -0.80429308956E+02 -0.24305320208E+03  0.26965833270E+03  0.81392182486E+02 0.  0.
         25    2    1    2    0    0 -0.33842381577E+01  0.10241889623E+03  0.14619973387E+02  0.16236429054E+03  0.12508931149E+03 0.  0.
        -24    2    1    2    0    0 -0.20007988029E+02 -0.21989587272E+02  0.24563708308E+03  0.26001433407E+03  0.79912550989E+02 0.  0.
        -11    1    3    3    0    0  0.25963529840E+02 -0.44963109600E+02 -0.22272886112E+03  0.22870052838E+03  0.00000000000E+00 0.  1.
         12    1    3    3    0    0 -0.25713036537E+01 -0.35466199356E+02 -0.20324340958E+02  0.40957804318E+02  0.00000000000E+00 0. -1.
         13    1    5    5    0    0 -0.22827399173E+02 -0.44178731254E+02  0.22188111127E+03  0.22738530733E+03  0.00000000000E+00 0. -1.
        -14    1    5    5    0    0  0.28194111438E+01  0.22189143982E+02  0.23755971806E+02  0.32629026745E+02  0.00000000000E+00 0.  1.
          5    1    4    4  501    0  0.41505855887E+02  0.48912824747E+02  0.52320263716E+02  0.82885963184E+02  0.41800000000E+01 0.  1.
         -5    1    4    4    0  501 -0.44890094045E+02  0.53506071481E+02 -0.37700290328E+02  0.79478327357E+02  0.41800000000E+01 0.  1.
</event>
<event>
11    1  0.7577197E-009  0.1614205E+03  0.7561462E-02  0.1085749E+00
         22   -1    0    0    0    0  0.00000000000E+00  0.00000000000E+00  0.37631148697E+03  0.37631148697E+03  0.00000000000E+00 0.  1.
         22   -1    0    0    0    0 -0.00000000000E+00 -0.00000000000E+00 -0.12320399070E+04  0.12320399070E+04  0.00000000000E+00 0. -1.
        -24    2    1    2    0    0  0.18860837953E+02 -0.29227008818E+01 -0.11218749535E+04  0.11249548869E+04  0.80967974161E+02 0.  0.
         25    2    1    2    0    0  0.83863217342E+02  0.21460415902E+02 -0.33156868405E+02  0.15569153239E+03  0.12508751601E+03 0.  0.
         24    2    1    2    0    0 -0.10272405529E+03 -0.18537715020E+02  0.29930340187E+03  0.32770497470E+03  0.83139314758E+02 0.  0.
        -11    1    5    5    0    0 -0.86935396860E+02  0.19150908658E+02  0.23729902044E+03  0.25344692863E+03  0.00000000000E+00 0.  1.
         12    1    5    5    0    0 -0.15788658435E+02 -0.37688623678E+02  0.62004381429E+02  0.74258046071E+02  0.00000000000E+00 0. -1.
         13    1    3    3    0    0 -0.29910930081E+00  0.33271412656E+02 -0.76760467708E+03  0.76832546270E+03  0.00000000000E+00 0. -1.
        -14    1    3    3    0    0  0.19159947253E+02 -0.36194113538E+02 -0.35427027642E+03  0.35662942418E+03  0.00000000000E+00 0.  1.
          5    1    4    4  501    0  0.34837163953E+01  0.59744130220E+02  0.16322729246E+01  0.60013615876E+02  0.41800000000E+01 0. -1.
         -5    1    4    4    0  501  0.80379500947E+02 -0.38283714318E+02 -0.34789141330E+02  0.95677916516E+02  0.41800000000E+01 0. -1.
</event>
<event>
11    1  0.7577197E-009  0.1294063E+03  0.7561462E-02  0.1120001E+00
         22   -1    0    0    0    0  0.00000000000E+00  0.00000000000E+00  0.34063755890E+03  0.34063755890E+03  0.00000000000E+00 0. -1.
         22   -1    0    0    0    0 -0.00000000000E+00 -0.00000000000E+00 -0.77095958898E+03  0.77095958898E+03  0.00000000000E+00 0.  1.
         24    2    1    2    0    0 -0.60017159143E+01 -0.32691631773E+02 -0.66225551242E+03  0.67077157630E+03  0.10122934588E+03 0.  0.
         25    2    1    2    0    0 -0.19133190561E+02  0.35085164738E+02 -0.54822956259E+02  0.14230844443E+03  0.12509631912E+03 0.  0.
        -24    2    1    2    0    0  0.25134906475E+02 -0.23935329656E+01  0.28675643859E+03  0.29851712714E+03  0.79029915856E+02 0.  0.
        -11    1    3    3    0    0 -0.20470149680E+02  0.32997496505E+02 -0.27286730539E+03  0.27561645117E+03  0.00000000000E+00 0.  1.
         12    1    3    3    0    0  0.14468433766E+02 -0.65689128277E+02 -0.38938820703E+03  0.39515512514E+03  0.00000000000E+00 0. -1.
         11    1    5    5    0    0  0.14294108705E+02 -0.10554595389E+02  0.28414352264E+03  0.28469854668E+03  0.00000000000E+00 0. -1.
        -12    1    5    5    0    0  0.10840797770E+02  0.81610624238E+01  0.26129159579E+01  0.13818580462E+02  0.00000000000E+00 0.  1.
          5    1    4    4  501    0  0.27342700595E+02 -0.30210615489E+02 -0.45961260744E+02  0.61564717601E+02  0.41800000000E+01 0. -1.
         -5    1    4    4    0  501 -0.46475891156E+02  0.65295780228E+02 -0.88616955147E+01  0.80743726826E+02  0.41800000000E+01 0. -1.
</event>
<event>
11    1  0.7577197E-009  0.1596883E+03  0.7561462E-02  0.1087371E+00
         22   -1    0    0    0    0  0.00000000000E+00  0.00000000000E+00  0.17841144011E+04  0.17841144011E+04  0.00000000000E+00 0.  1.
         22   -1    0    0    0    0 -0.00000000000E+00 -0.00000000000E+00 -0.87504422448E+03  0.87504422448E+03  0.00000000000E+00 0. -1.
        -24    2    1    2    0    0 -0.54293697037E+02 -0.83442649303E+02 -0.79185961717E+03  0.80160140322E+03  0.74917788731E+02 0.  0.
         25    2    1    2    0    0  0.34913667024E+01  0.10878513316E+03  0.12528298860E+02  0.16628624380E+03  0.12509101392E+03 0.  0.
         24    2    1    2    0    0  0.50802330334E+02 -0.25342483862E+02  0.16884014949E+04  0.16912709786E+04  0.80466121019E+02 0.  0.
        -11    1    5    5    0    0  0.15649032294E+01 -0.13508150054E+02  0.12309524597E+04  0.12310275696E+04  0.00000000000E+00 0.  1.
         12    1    5    5    0    0  0.49237427105E+02 -0.11834333808E+02  0.45744903525E+03  0.46024340901E+03  0.00000000000E+00 0. -1.
         11    1    3    3    0    0 -0.34354648687E+02 -0.55314508490E+02 -0.70718319946E+03  0.71017463650E+03  0.00000000000E+00 0. -1.
        -12    1    3    3    0    0 -0.19939048350E+02 -0.28128140813E+02 -0.84676417717E+02  0.91426766715E+02  0.00000000000E+00 0.  1.
          5    1    4    4  501    0 -0.39156208930E+02  0.10219516993E+03  0.38092327678E+02  0.11595498818E+03  0.41800000000E+01 0. -1.
         -5    1    4    4    0  501  0.42647575632E+02  0.65899632320E+01 -0.25564028818E+02  0.50331255618E+02  0.41800000000E+01 0. -1.
</event>
<event>
11    1  0.7577197E-009  0.1518858E+03  0.7561462E-02  0.1094967E+00
         22   -1    0    0    0    0  0.00000000000E+00  0.00000000000E+00  0.47971381248E+03  0.47971381248E+03  0.00000000000E+00 0. -1.
         22   -1    0    0    0    0 -0.00000000000E+00 -0.00000000000E+00 -0.51929086145E+03  0.51929086145E+03  0.00000000000E+00 0.  1.
        -24    2    1    2    0    0  0.20196050552E+02  0.52597751924E+02 -0.46671472510E+03  0.47676223073E+03  0.79405201738E+02 0.  0.
         25    2    1    2    0    0  0.70750628135E+02 -0.45061785909E+02  0.12226428904E+03  0.19398989224E+03  0.12508919213E+03 0.  0.
         24    2    1    2    0    0 -0.90946678687E+02 -0.75359660156E+01  0.30487338709E+03  0.32825255095E+03  0.80460337456E+02 0.  0.
        -11    1    5    5    0    0 -0.11890139320E+02  0.11280505607E+02  0.43806879774E+01  0.16965130325E+02  0.00000000000E+00 0.  1.
         12    1    5    5    0    0 -0.79056539367E+02 -0.18816471623E+02  0.30049269911E+03  0.31128742063E+03  0.00000000000E+00 0. -1.
         13    1    3    3    0    0 -0.30165359587E+02  0.23934975084E+02 -0.21904235824E+03  0.22240140884E+03  0.00000000000E+00 0. -1.
        -14    1    3    3    0    0  0.50361410139E+02  0.28662776840E+02 -0.24767236686E+03  0.25436082189E+03  0.00000000000E+00 0.  1.
          5    1    4    4  501    0  0.52656222436E+02 -0.74059562645E+02  0.13002957346E+03  0.15869045010E+03  0.41800000000E+01 0. -1.
         -5    1    4    4    0  501  0.18094405700E+02  0.28997776736E+02 -0.77652844166E+01  0.35299442139E+02  0.41800000000E+01 0. -1.
</event>
<event>
11    1  0.7577197E-009  0.2675816E+03  0.7561462E-02  0.1014929E+00
         22   -1    0    0    0    0  0.00000000000E+00  0.00000000000E+00  0.44595385508E+03  0.44595385508E+03  0.00000000000E+00 0.  1.
         22   -1    0    0    0    0 -0.00000000000E+00 -0.00000000000E+00 -0.11248784810E+04  0.11248784810E+04  0.00000000000E+00 0. -1.
        -24    2    1    2    0    0  0.47829419222E+00  0.69246971084E+02 -0.84056279246E+03  0.84792828864E+03  0.87413973933E+02 0.  0.
         25    2    1    2    0    0  0.16435958785E+03 -0.22837913129E+03 -0.13794977994E+03  0.33740944478E+03  0.12507553682E+03 0.  0.
         24    2    1    2    0    0 -0.16483788204E+03  0.15913216020E+03  0.29958794645E+03  0.38549460270E+03  0.79740700280E+02 0.  0.
        -13    1    5    5    0    0 -0.99792530215E+02  0.43271720444E+02  0.15198139490E+03  0.18689391449E+03  0.00000000000E+00 0.  1.
         14    1    5    5    0    0 -0.65045351827E+02  0.11586043976E+03  0.14760655156E+03  0.19860068821E+03  0.00000000000E+00 0. -1.
         13    1    3    3    0    0  0.30073752709E+02  0.20765379729E+02 -0.58449019598E+03  0.58563164259E+03  0.00000000000E+00 0. -1.
        -14    1    3    3    0    0 -0.29595458517E+02  0.48481591355E+02 -0.25607259648E+03  0.26229664606E+03  0.00000000000E+00 0.  1.
          5    1    4    4  501    0  0.63678725687E+02 -0.10875854287E+03  0.40420667642E+01  0.12616343154E+03  0.41800000000E+01 0.  1.
         -5    1    4    4    0  501  0.10068086216E+03 -0.11962058841E+03 -0.14199184671E+03  0.21124601324E+03  0.41800000000E+01 0.  1.
</event>
<event>
11    1  0.7577197E-009  0.1519572E+03  0.7561462E-02  0.1094896E+00
         22   -1    0    0    0    0  0.00000000000E+00  0.00000000000E+00  0.36388748581E+04  0.36388748581E+04  0.00000000000E+00 0. -1.
         22   -1    0    0    0    0 -0.00000000000E+00 -0.00000000000E+00 -0.90266035552E+03  0.90266035552E+03  0.00000000000E+00 0. -1.
         24    2    1    2    0    0  0.55262846380E+01 -0.39308509980E+01 -0.78654200171E+03  0.79085688950E+03  0.82221090939E+02 0.  0.
         25    2    1    2    0    0 -0.27060711652E+02 -0.79616762547E+02 -0.62681073081E+02  0.16325049568E+03  0.12510274348E+03 0.  0.
        -24    2    1    2    0    0  0.21534427014E+02  0.83547613545E+02  0.35854375774E+04  0.35874278284E+04  0.82655113215E+02 0.  0.
        -13    1    3    3    0    0 -0.20298090099E+02 -0.23739749808E+02 -0.63921586992E+03  0.63997852819E+03  0.00000000000E+00 0.  1.
         14    1    3    3    0    0  0.25824374737E+02  0.19808898810E+02 -0.14732613179E+03  0.15087836131E+03  0.00000000000E+00 0. -1.
         11    1    5    5    0    0  0.31158272719E+02  0.93668224063E+02  0.34124192318E+04  0.34138467434E+04  0.00000000000E+00 0. -1.
        -12    1    5    5    0    0 -0.96238457055E+01 -0.10120610518E+02  0.17301834562E+03  0.17358108505E+03  0.00000000000E+00 0.  1.
          5    1    4    4  501    0 -0.46380848191E+02 -0.61222402630E+02  0.17293186011E+02  0.78840930646E+02  0.41800000000E+01 0.  1.
         -5    1    4    4    0  501  0.19320136540E+02 -0.18394359917E+02 -0.79974259091E+02  0.84409565038E+02  0.41800000000E+01 0.  1.
</event>
<event>
11    1  0.7577197E-009  0.1521682E+03  0.7561462E-02  0.1094684E+00
         22   -1    0    0    0    0  0.00000000000E+00  0.00000000000E+00  0.81355158208E+03  0.81355158208E+03  0.00000000000E+00 0.  1.
         22   -1    0    0    0    0 -0.00000000000E+00 -0.00000000000E+00 -0.13487703695E+03  0.13487703695E+03  0.00000000000E+00 0.  1.
         24    2    1    2    0    0 -0.81459989434E+02 -0.18092289181E+02 -0.61697719366E+02  0.13090184398E+03  0.79784856810E+02 0.  0.
         25    2    1    2    0    0  0.90162511100E+02  0.75175485288E+02  0.18223580536E+03  0.25027724572E+03  0.12509268153E+03 0.  0.
        -24    2    1    2    0    0 -0.87025216660E+01 -0.57083196107E+02  0.55813645914E+03  0.56724952934E+03  0.83195530862E+02 0.  0.
        -11    1    3    3    0    0 -0.77156508587E+02  0.16006847820E+02 -0.30537391387E+02  0.84509634168E+02  0.00000000000E+00 0.  1.
         12    1    3    3    0    0 -0.43034808477E+01 -0.34099137001E+02 -0.31160327979E+02  0.46392209813E+02  0.00000000000E+00 0. -1.
         11    1    5    5    0    0  0.19281605886E+02  0.99842232071E+01  0.59356744065E+02  0.63203545032E+02  0.00000000000E+00 0. -1.
        -12    1    5    5    0    0 -0.27984127552E+02 -0.67067419314E+02  0.49877971507E+03  0.50404598431E+03  0.00000000000E+00 0.  1.
          5    1    4    4  501    0  0.95131510879E+02 -0.41758379227E+00  0.11039636614E+03  0.14579097639E+03  0.41800000000E+01 0.  1.
         -5    1    4    4    0  501 -0.49689997791E+01  0.75593069080E+02  0.71839439213E+02  0.10448626933E+03  0.41800000000E+01 0.  1.
</event>
<event>
11    1  0.7577197E-009  0.1616690E+03  0.7561462E-02  0.1085518E+00
         22   -1    0    0    0    0  0.00000000000E+00  0.00000000000E+00  0.44916419894E+03  0.44916419894E+03  0.00000000000E+00 0.  1.
         22   -1    0    0    0    0 -0.00000000000E+00 -0.00000000000E+00 -0.35170706053E+03  0.35170706053E+03  0.00000000000E+00 0.  1.
        -24    2    1    2    0    0  0.37738210353E+02 -0.77295528379E+02 -0.20688905778E+03  0.24139721934E+03  0.89837431231E+02 0.  0.
         25    2    1    2    0    0  0.10596436059E+02  0.16230077674E+03 -0.25125800620E+02  0.20671678399E+03  0.12508675525E+03 0.  0.
         24    2    1    2    0    0 -0.48334646412E+02 -0.85005248366E+02  0.32947199680E+03  0.35275725614E+03  0.79522039628E+02 0.  0.
        -13    1    5    5    0    0 -0.68969760422E+02 -0.53563002773E+02  0.25055727220E+03  0.26533897145E+03  0.00000000000E+00 0.  1.
         14    1    5    5    0    0  0.20635114011E+02 -0.31442245593E+02  0.78914724599E+02  0.87418284682E+02  0.00000000000E+00 0. -1.
         11    1    3    3    0    0  0.27463564834E+02  0.15018400477E+02 -0.46497501629E+02  0.56051917041E+02  0.00000000000E+00 0. -1.
        -12    1    3    3    0    0  0.10274645518E+02 -0.92313928856E+02 -0.16039155615E+03  0.18534530230E+03  0.00000000000E+00 0.  1.
          5    1    4    4  501    0  0.32162966678E+02 -0.72425537614E+01  0.33507587959E+01  0.33400763390E+02  0.41800000000E+01 0.  1.
         -5    1    4    4    0  501 -0.21566530619E+02  0.16954333051E+03 -0.28476559415E+02  0.17331602060E+03  0.41800000000E+01 0.  1.
</event>
<event>
11    1  0.7577197E-009  0.1367305E+03  0.7561462E-02  0.1111265E+00
         22   -1    0    0    0    0  0.00000000000E+00  0.00000000000E+00  0.43237059756E+03  0.43237059756E+03  0.00000000000E+00 0. -1.
         22   -1    0    0    0    0 -0.00000000000E+00 -0.00000000000E+00 -0.10197120800E+04  0.10197120800E+04  0.00000000000E+00 0.  1.
        -24    2    1    2    0    0 -0.12065073372E+02 -0.43785783391E+02 -0.77112734686E+03  0.77680046562E+03  0.81968393256E+02 0.  0.
         25    2    1    2    0    0  0.64777897836E+02  0.58250830718E+02 -0.21579963449E+03  0.26420766599E+03  0.12508746218E+03 0.  0.
         24    2    1    2    0    0 -0.52712824463E+02 -0.14465047327E+02  0.39958549891E+03  0.41107454596E+03  0.79535098780E+02 0.  0.
        -13    1    5    5    0    0 -0.31854701495E+01 -0.14605496909E+02  0.91853682858E+01  0.17545334154E+02  0.00000000000E+00 0.  1.
         14    1    5    5    0    0 -0.49527354314E+02  0.14044958185E+00  0.39040013062E+03  0.39352921180E+03  0.00000000000E+00 0. -1.
         11    1    3    3    0    0  0.12145639954E+02 -0.42239689454E+00 -0.16253362779E+02  0.20294501488E+02  0.00000000000E+00 0. -1.
        -12    1    3    3    0    0 -0.24210713326E+02 -0.43363386496E+02 -0.75487398408E+03  0.75650596413E+03  0.00000000000E+00 0.  1.
          5    1    4    4  501    0  0.42904667633E+02 -0.21575675256E+02 -0.21133450476E+02  0.52634735646E+02  0.41800000000E+01 0. -1.
         -5    1    4    4    0  501  0.21873230202E+02  0.79826505974E+02 -0.19466618402E+03  0.21157293035E+03  0.41800000000E+01 0. -1.
</event>
<event>
11    1  0.7577197E-009  0.1435450E+03  0.7561462E-02  0.1103663E+00
         22   -1    0    0    0    0  0.00000000000E+00  0.00000000000E+00  0.22149054254E+03  0.22149054254E+03  0.00000000000E+00 0.  1.
         22   -1    0    0    0    0 -0.00000000000E+00 -0.00000000000E+00 -0.77149874852E+03  0.77149874852E+03  0.00000000000E+00 0. -1.
         24    2    1    2    0    0 -0.49438887337E+02  0.38624861068E+02 -0.48424996136E+03  0.49558988433E+03  0.84706699285E+02 0.  0.
         25    2    1    2    0    0  0.77904534705E+02 -0.67982379931E+02 -0.24679524661E+03  0.29537422486E+03  0.12508924196E+03 0.  0.
        -24    2    1    2    0    0 -0.28465647369E+02  0.29357518862E+02  0.18103700200E+03  0.20202518186E+03  0.79797374762E+02 0.  0.
        -13    1    3    3    0    0 -0.11881581606E+02 -0.14359349135E+02 -0.22148013400E+02  0.28946457238E+02  0.00000000000E+00 0.  1.
         14    1    3    3    0    0 -0.37557305731E+02  0.52984210203E+02 -0.46210194796E+03  0.46664342710E+03  0.00000000000E+00 0. -1.
         13    1    5    5    0    0 -0.12511154867E+01  0.11345412131E+02 -0.54891943417E+01  0.12665501210E+02  0.00000000000E+00 0. -1.
        -14    1    5    5    0    0 -0.27214531882E+02  0.18012106731E+02  0.18652619634E+03  0.18935968065E+03  0.00000000000E+00 0.  1.
          5    1    4    4  501    0  0.89706652463E+02 -0.95126991264E+02 -0.18330908757E+03  0.22520240218E+03  0.41800000000E+01 0.  1.
         -5    1    4    4    0  501 -0.11802117758E+02  0.27144611333E+02 -0.63486159044E+02  0.70171822679E+02  0.41800000000E+01 0.  1.
</event>
<event>
11    1  0.7577197E-009  0.1399887E+03  0.7561462E-02  0.1107571E+00
         22   -1    0    0    0    0  0.00000000000E+00  0.00000000000E+00  0.81968913242E+03  0.81968913242E+03  0.00000000000E+00 0.  1.
         22   -1    0    0    0    0 -0.00000000000E+00 -0.00000000000E+00 -0.80691391155E+03  0.80691391155E+03  0.00000000000E+00 0.  1.
         24    2    1    2    0    0  0.26816760041E+02  0.35160896451E+02 -0.78044204376E+03  0.78574496797E+03  0.79686534397E+02 0.  0.
         25    2    1    2    0    0  0.34467570490E+02 -0.57224192554E+02  0.25491812185E+03  0.29170865738E+03  0.12509224722E+03 0.  0.
        -24    2    1    2    0    0 -0.61284330531E+02  0.22063296103E+02  0.53829914277E+03  0.54914941862E+03  0.86928468590E+02 0.  0.
        -11    1    3    3    0    0  0.94207632170E+01  0.30006900879E+02 -0.74730092406E+03  0.74796245626E+03  0.00000000000E+00 0.  1.
         12    1    3    3    0    0  0.17395996824E+02  0.51539955721E+01 -0.33141119701E+02  0.37782511707E+02  0.00000000000E+00 0. -1.
         13    1    5    5    0    0 -0.21628284738E+02 -0.73730012757E+01  0.42426642248E+03  0.42488132590E+03  0.00000000000E+00 0. -1.
        -14    1    5    5    0    0 -0.39656045792E+02  0.29436297379E+02  0.11403272029E+03  0.12426809272E+03  0.00000000000E+00 0.  1.
          5    1    4    4  501    0  0.32849656282E+02 -0.93407008081E+02  0.14286389031E+03  0.17387217325E+03  0.41800000000E+01 0. -1.
         -5    1    4    4    0  501  0.16179142074E+01  0.36182815527E+02  0.11205423154E+03  0.11783648413E+03  0.41800000000E+01 0. -1.
</event>
<event>
11    1  0.7577197E-009  0.1273465E+03  0.7561462E-02  0.1122573E+00
         22   -1    0    0    0    0  0.00000000000E+00  0.00000000000E+00  0.10740959276E+04  0.10740959276E+04  0.00000000000E+00 0.  1.
         22   -1    0    0    0    0 -0.00000000000E+00 -0.00000000000E+00 -0.69700287683E+02  0.69700287683E+02  0.00000000000E+00 0.  1.
         24    2    1    2    0    0  0.24246332833E+02  0.42677307958E+01 -0.14339720261E+02  0.85359567640E+02  0.80464464383E+02 0.  0.
         25    2    1    2    0    0  0.13916207778E+01 -0.10303711991E+02  0.20538983307E+03  0.24070862553E+03  0.12509019061E+03 0.  0.
        -24    2    1    2    0    0 -0.25637953611E+02  0.60359811955E+01  0.81334552708E+03  0.81772802209E+03  0.80339491822E+02 0.  0.
        -13    1    3    3    0    0  0.24923435480E+02  0.37445270617E+02 -0.23750375039E+02  0.50866553276E+02  0.00000000000E+00 0.  1.
         14    1    3    3    0    0 -0.67710264657E+00 -0.33177539821E+02  0.94106547771E+01  0.34493014364E+02  0.00000000000E+00 0. -1.
         13    1    5    5    0    0  0.77621580786E+01 -0.21990608131E+01  0.70941168978E+01  0.10743065720E+02  0.00000000000E+00 0. -1.
        -14    1    5    5    0    0 -0.33400111690E+02  0.82350420085E+01  0.80625141019E+03  0.80698495637E+03  0.00000000000E+00 0.  1.
          5    1    4    4  501    0  0.35679232786E+02  0.22582093425E+02  0.15905867797E+02  0.45314761679E+02  0.41800000000E+01 0.  1.
         -5    1    4    4    0  501 -0.34287612008E+02 -0.32885805416E+02  0.18948396528E+03  0.19539386385E+03  0.41800000000E+01 0.  1.
</event>
<event>
11    1  0.7577197E-009  0.1578079E+03  0.7561462E-02  0.1089157E+00
         22   -1    0    0    0    0  0.00000000000E+00  0.00000000000E+00  0.67522078858E+03  0.67522078858E+03  0.00000000000E+00 0. -1.
         22   -1    0    0    0    0 -0.00000000000E+00 -0.00000000000E+00 -0.94973784062E+03  0.94973784062E+03  0.00000000000E+00 0.  1.
         24    2    1    2    0    0 -0.79146566148E+02  0.52946060849E+02 -0.89770603805E+03  0.90637247456E+03  0.81039913590E+02 0.  0.
         25    2    1    2    0    0  0.12201613201E+03 -0.83379012341E+02  0.18507335110E+03  0.26784160877E+03  0.12508791281E+03 0.  0.
        -24    2    1    2    0    0 -0.42869565864E+02  0.30432951492E+02  0.43811563492E+03  0.45074454587E+03  0.91985715523E+02 0.  0.
        -13    1    3    3    0    0 -0.80323237644E+02  0.59562496498E+02 -0.89190958370E+03  0.89749775431E+03  0.00000000000E+00 0.  1.
         14    1    3    3    0    0  0.11766714961E+01 -0.66164356488E+01 -0.57964543542E+01  0.88747202539E+01  0.00000000000E+00 0. -1.
         13    1    5    5    0    0 -0.21291387981E+02  0.62006271377E+02  0.31801061060E+03  0.32469808953E+03  0.00000000000E+00 0. -1.
        -14    1    5    5    0    0 -0.21578177884E+02 -0.31573319885E+02  0.12010502432E+03  0.12604645634E+03  0.00000000000E+00 0.  1.
          5    1    4    4  501    0  0.12265059977E+03 -0.92538757447E+02  0.19849800061E+03  0.25104883967E+03  0.41800000000E+01 0. -1.
         -5    1    4    4    0  501 -0.63446776051E+00  0.91597451057E+01 -0.13424649505E+02  0.16792769101E+02  0.41800000000E+01 0. -1.
</event>
<event>
11    1  0.7577197E-009  0.1514288E+03  0.7561462E-02  0.1095428E+00
         22   -1    0    0    0    0  0.00000000000E+00  0.00000000000E+00  0.54143882394E+03  0.54143882394E+03  0.00000000000E+00 0.  1.
         22   -1    0    0    0    0 -0.00000000000E+00 -0.00000000000E+00 -0.86786301297E+03  0.86786301297E+03  0.00000000000E+00 0.  1.
         24    2    1    2    0    0  0.29370084020E+02  0.58424443026E+02 -0.60179960100E+03  0.61053203495E+03  0.79439212947E+02 0.  0.
         25    2    1    2    0    0 -0.60247001401E+02 -0.13617262547E+03 -0.21779465240E+03  0.29198159172E+03  0.12508418838E+03 0.  0.
        -24    2    1    2    0    0  0.30876917381E+02  0.77748182441E+02  0.49317006437E+03  0.50678821025E+03  0.81359779690E+02 0.  0.
        -11    1    3    3    0    0  0.23545619510E+02 -0.73251679766E+01 -0.32650308207E+03  0.32743291967E+03  0.00000000000E+00 0.  1.
         12    1    3    3    0    0  0.58244645103E+01  0.65749611003E+02 -0.27529651893E+03  0.28309911527E+03  0.00000000000E+00 0. -1.
         11    1    5    5    0    0 -0.65505022374E+01  0.65216582942E+02  0.18846359825E+03  0.19953606099E+03  0.00000000000E+00 0. -1.
        -12    1    5    5    0    0  0.37427419618E+02  0.12531599499E+02  0.30470646612E+03  0.30725214926E+03  0.00000000000E+00 0.  1.
          5    1    4    4  501    0  0.26421017728E+02  0.64033343942E+01 -0.33427786601E+02  0.43289284888E+02  0.41800000000E+01 0.  1.
         -5    1    4    4    0  501 -0.86668019129E+02 -0.14257595986E+03 -0.18436686580E+03  0.24869230683E+03  0.41800000000E+01 0.  1.
</event>
<event>
11    1  0.7577197E-009  0.1516468E+03  0.7561462E-02  0.1095208E+00
         22   -1    0    0    0    0  0.00000000000E+00  0.00000000000E+00  0.20280204882E+03  0.20280204882E+03  0.00000000000E+00 0.  1.
         22   -1    0    0    0    0 -0.00000000000E+00 -0.00000000000E+00 -0.13219767775E+04  0.13219767775E+04  0.00000000000E+00 0. -1.
         24    2    1    2    0    0  0.54419465268E+02  0.28613099155E+02 -0.10415004444E+04  0.10460152959E+04  0.75130791750E+02 0.  0.
         25    2    1    2    0    0 -0.76617064896E+02  0.55079605171E+02 -0.23480450985E+03  0.28228634129E+03  0.12509389712E+03 0.  0.
        -24    2    1    2    0    0  0.22197599628E+02 -0.83692704325E+02  0.15713022558E+03  0.19647718914E+03  0.80101035423E+02 0.  0.
        -13    1    3    3    0    0  0.27559990785E+01 -0.15924274910E+01 -0.64643028278E+03  0.64643811912E+03  0.00000000000E+00 0.  1.
         14    1    3    3    0    0  0.51663466190E+02  0.30205526645E+02 -0.39507016164E+03  0.39957717677E+03  0.00000000000E+00 0. -1.
         13    1    5    5    0    0  0.24686922151E+02 -0.80900639496E+01  0.48266649312E+01  0.26423284321E+02  0.00000000000E+00 0. -1.
        -14    1    5    5    0    0 -0.24893225226E+01 -0.75602640376E+02  0.15230356065E+03  0.17005390482E+03  0.00000000000E+00 0.  1.
          5    1    4    4  501    0 -0.36778863561E+01  0.60373722967E+02 -0.36224767448E+02  0.70627327923E+02  0.41800000000E+01 0.  1.
         -5    1    4    4    0  501 -0.72939178540E+02 -0.52941177961E+01 -0.19857974240E+03  0.21165901337E+03  0.41800000000E+01 0.  1.
</event>
<event>
11    1  0.9488074E-009  0.1759504E+03  0.7561462E-02  0.1072966E+00
         22   -1    0    0    0    0  0.00000000000E+00  0.00000000000E+00  0.38579007522E+03  0.38579007522E+03  0.00000000000E+00 0. -1.
         22   -1    0    0    0    0 -0.00000000000E+00 -0.00000000000E+00 -0.15662769301E+04  0.15662769301E+04  0.00000000000E+00 0.  1.
        -24    2    1    2    0    0  0.23361633764E+02  0.16314591718E+02 -0.11003139415E+04  0.11035250861E+04  0.79151208930E+02 0.  0.
         25    2    1    2    0    0 -0.14073534122E+03  0.21071365624E+02 -0.42956461781E+03  0.46949274500E+03  0.12508892046E+03 0.  0.
         24    2    1    2    0    0  0.11737370745E+03 -0.37385957341E+02  0.34939170443E+03  0.37904917426E+03  0.80183641570E+02 0.  0.
        -11    1    5    5    0    0 -0.18886587793E+01 -0.23720442872E+02  0.92214720170E+02  0.95235398135E+02  0.00000000000E+00 0.  1.
         12    1    5    5    0    0  0.11926236623E+03 -0.13665514470E+02  0.25717698426E+03  0.28381377612E+03  0.00000000000E+00 0. -1.
         11    1    3    3    0    0 -0.32756252482E+01 -0.93457035775E+01 -0.17719992671E+02  0.20299508280E+02  0.00000000000E+00 0. -1.
        -12    1    3    3    0    0  0.26637259012E+02  0.25660295295E+02 -0.10825939489E+04  0.10832255778E+04  0.00000000000E+00 0.  1.
          5    1    4    4  501    0 -0.11601546309E+03 -0.39430016701E+02 -0.30595061573E+03  0.32960213221E+03  0.41800000000E+01 0.  1.
         -5    1    4    4    0  501 -0.24719878130E+02  0.60501382325E+02 -0.12361400208E+03  0.13989061279E+03  0.41800000000E+01 0.  1.
</event>
<event>
11    1  0.7577197E-009  0.1997512E+03  0.7561462E-02  0.1054700E+00
         22   -1    0    0    0    0  0.00000000000E+00  0.00000000000E+00  0.52713988319E+03  0.52713988319E+03  0.00000000000E+00 0.  1.
         22   -1    0    0    0    0 -0.00000000000E+00 -0.00000000000E+00 -0.58259466049E+03  0.58259466049E+03  0.00000000000E+00 0. -1.
        -24    2    1    2    0    0  0.76522767196E+01  0.21943137205E+02 -0.47379431710E+03  0.48095027204E+03  0.79322447338E+02 0.  0.
         25    2    1    2    0    0 -0.81446067285E+02 -0.15438929833E+03  0.47354972005E+02  0.21990321404E+03  0.12508162477E+03 0.  0.
         24    2    1    2    0    0  0.73793790565E+02  0.13244616113E+03  0.37098456779E+03  0.40888105760E+03  0.81034934440E+02 0.  0.
        -13    1    5    5    0    0  0.66943307882E+02  0.79580887297E+02  0.31434976927E+03  0.33110466855E+03  0.00000000000E+00 0.  1.
         14    1    5    5    0    0  0.68504826834E+01  0.52865273832E+02  0.56634798520E+02  0.77776389051E+02  0.00000000000E+00 0. -1.
         13    1    3    3    0    0 -0.11477242056E+02 -0.10926559829E+02 -0.37113114902E+03  0.37146930770E+03  0.00000000000E+00 0. -1.
        -14    1    3    3    0    0  0.19129518775E+02  0.32869697034E+02 -0.10266316808E+03  0.10948096433E+03  0.00000000000E+00 0.  1.
          5    1    4    4  501    0 -0.21187929502E+02 -0.12578067121E+03  0.74489517242E+02  0.14776963892E+03  0.41800000000E+01 0. -1.
         -5    1    4    4    0  501 -0.60258137783E+02 -0.28608627126E+02 -0.27134545237E+02  0.72133575125E+02  0.41800000000E+01 0. -1.
</event>
<event>
11    1  0.7577197E-009  0.1440583E+03  0.7561462E-02  0.1103109E+00
         22   -1    0    0    0    0  0.00000000000E+00  0.00000000000E+00  0.10614004984E+04  0.10614004984E+04  0.00000000000E+00 0. -1.
         22   -1    0    0    0    0 -0.00000000000E+00 -0.00000000000E+00 -0.65406631044E+03  0.65406631044E+03  0.00000000000E+00 0.  1.
        -24    2    1    2    0    0  0.54220804795E+02 -0.50665472297E+02 -0.59627007647E+03  0.60581869472E+03  0.77274840815E+02 0.  0.
         25    2    1    2    0    0 -0.29974790424E+02  0.34358392738E+01  0.30967782495E+02  0.13234881375E+03  0.12508761687E+03 0.  0.
         24    2    1    2    0    0 -0.24246014371E+02  0.47229633024E+02  0.97263648197E+03  0.97729930040E+03  0.79206622553E+02 0.  0.
        -13    1    5    5    0    0 -0.21245584764E+02 -0.15852528489E+02  0.15705175321E+03  0.15927313244E+03  0.00000000000E+00 0.  1.
         14    1    5    5    0    0 -0.30004296068E+01  0.63082161513E+02  0.81558472876E+03  0.81802616796E+03  0.00000000000E+00 0. -1.
         13    1    3    3    0    0  0.34391245834E+02 -0.54261060115E+02 -0.22471451069E+03  0.23371699071E+03  0.00000000000E+00 0. -1.
        -14    1    3    3    0    0  0.19829558962E+02  0.35955878178E+01 -0.37155556578E+03  0.37210170401E+03  0.00000000000E+00 0.  1.
          5    1    4    4  501    0 -0.71544225689E+02 -0.27411328465E+02  0.17573306816E+02  0.78716266871E+02  0.41800000000E+01 0.  1.
         -5    1    4    4    0  501  0.41569435265E+02  0.30847167738E+02  0.13394475680E+02  0.53632546877E+02  0.41800000000E+01 0.  1.
</event>
<event>
11    1  0.7577197E-009  0.1618675E+03  0.7561462E-02  0.1085334E+00
         22   -1    0    0    0    0  0.00000000000E+00  0.00000000000E+00  0.27254401322E+02  0.27254401322E+02  0.00000000000E+00 0. -1.
         22   -1    0    0    0    0 -0.00000000000E+00 -0.00000000000E+00 -0.21160281564E+04  0.21160281564E+04  0.00000000000E+00 0. -1.
         24    2    1    2    0    0  0.72483243741E+02  0.26442009285E+02 -0.61245291752E+03  0.62248538319E+03  0.80227648743E+02 0.  0.
         25    2    1    2    0    0 -0.13638283650E+03 -0.18171449853E+02 -0.13096412330E+04  0.13227767511E+04  0.12509074380E+03 0.  0.
        -24    2    1    2    0    0  0.63899592759E+02 -0.82705594313E+01 -0.16667960453E+03  0.19802042349E+03  0.85313758821E+02 0.  0.
        -11    1    3    3    0    0 -0.89414967404E+01  0.15755940686E+02 -0.36945367993E+02  0.41148028470E+02  0.00000000000E+00 0.  1.
         12    1    3    3    0    0  0.81424740481E+02  0.10686068598E+02 -0.57550754953E+03  0.58133735472E+03  0.00000000000E+00 0. -1.
         11    1    5    5    0    0  0.22398019047E+02 -0.21932862186E+02 -0.65348324241E+01  0.32022269372E+02  0.00000000000E+00 0. -1.
        -12    1    5    5    0    0  0.41501573712E+02  0.13662302755E+02 -0.16014477211E+03  0.16599815412E+03  0.00000000000E+00 0.  1.
          5    1    4    4  501    0  0.21286235062E+02 -0.17996551264E+02 -0.20878110204E+03  0.21067510681E+03  0.41800000000E+01 0. -1.
         -5    1    4    4    0  501 -0.15766907156E+03 -0.17489858961E+00 -0.11008601310E+04  0.11121016442E+04  0.41800000000E+01 0. -1.
</event>
<event>
11    1  0.7577197E-009  0.1571226E+03  0.7561462E-02  0.1089815E+00
         22   -1    0    0    0    0  0.00000000000E+00  0.00000000000E+00  0.89309984714E+03  0.89309984714E+03  0.00000000000E+00 0. -1.
         22   -1    0    0    0    0 -0.00000000000E+00 -0.00000000000E+00 -0.10701813276E+04  0.10701813276E+04  0.00000000000E+00 0. -1.
        -24    2    1    2    0    0 -0.94578552810E+02 -0.91055258808E+01 -0.10265837124E+04  0.10340053396E+04  0.79151187429E+02 0.  0.
         25    2    1    2    0    0  0.10050536274E+03 -0.22951907290E+02  0.13936424789E+03  0.21377211036E+03  0.12509198052E+03 0.  0.
         24    2    1    2    0    0 -0.59268099334E+01  0.32057433171E+02  0.71013798403E+03  0.71550372482E+03  0.81159212541E+02 0.  0.
        -13    1    5    5    0    0  0.11641016515E+02 -0.12504197999E+02  0.38030674803E+02  0.41691731304E+02  0.00000000000E+00 0.  1.
         14    1    5    5    0    0 -0.17567826449E+02  0.44561631170E+02  0.67210730922E+03  0.67381199352E+03  0.00000000000E+00 0. -1.
         11    1    3    3    0    0 -0.60463691259E+02 -0.85143764101E+00 -0.91580391914E+03  0.91779812661E+03  0.00000000000E+00 0. -1.
        -12    1    3    3    0    0 -0.34114861550E+02 -0.82540882398E+01 -0.11077979325E+03  0.11620721296E+03  0.00000000000E+00 0.  1.
          5    1    4    4  501    0 -0.21087957938E+02 -0.50970185525E+01 -0.64618556088E+01  0.23019764248E+02  0.41800000000E+01 0.  1.
         -5    1    4    4    0  501  0.12159332068E+03 -0.17854888737E+02  0.14582610350E+03  0.19075234611E+03  0.41800000000E+01 0.  1.
</event>
<event>
11    1  0.7577197E-009  0.7471211E+03  0.7561462E-02  0.8965608E-01
         22   -1    0    0    0    0  0.00000000000E+00  0.00000000000E+00  0.50611464279E+03  0.50611464279E+03  0.00000000000E+00 0. -1.
         22   -1    0    0    0    0 -0.00000000000E+00 -0.00000000000E+00 -0.27572307058E+03  0.27572307058E+03  0.00000000000E+00 0. -1.
        -24    2    1    2    0    0  0.54670294460E+01 -0.20338803580E+03 -0.11390360633E+03  0.24757939050E+03  0.83216233669E+02 0.  0.
         25    2    1    2    0    0 -0.35384058827E+02  0.25131972983E+03  0.33145262415E+03  0.43580639998E+03  0.12511090274E+03 0.  0.
         24    2    1    2    0    0  0.29917029381E+02 -0.47931694033E+02  0.12842554393E+02  0.98451922901E+02  0.79595062533E+02 0.  0.
        -11    1    5    5    0    0  0.24538491347E+02 -0.31416423421E+02 -0.31513990271E+02  0.50815950261E+02  0.00000000000E+00 0.  1.
         12    1    5    5    0    0  0.53785380339E+01 -0.16515270611E+02  0.44356544664E+02  0.47635972640E+02  0.00000000000E+00 0. -1.
         11    1    3    3    0    0  0.23418941826E+02 -0.19722719251E+03 -0.11315513253E+03  0.22858498708E+03  0.00000000000E+00 0. -1.
        -12    1    3    3    0    0 -0.17951912380E+02 -0.61608432940E+01 -0.74847380344E+00  0.18994403419E+02  0.00000000000E+00 0.  1.
          5    1    4    4  501    0  0.35436173454E+02  0.70132303133E+02  0.15175341784E+03  0.17094102655E+03  0.41800000000E+01 0.  1.
         -5    1    4    4    0  501 -0.70820232281E+02  0.18118742670E+03  0.17969920631E+03  0.26486537343E+03  0.41800000000E+01 0.  1.
</event>
<event>
11    1  0.7577197E-009  0.1548097E+03  0.7561462E-02  0.1092063E+00
         22   -1    0    0    0    0  0.00000000000E+00  0.00000000000E+00  0.10737161503E+04  0.10737161503E+04  0.00000000000E+00 0.  1.
         22   -1    0    0    0    0 -0.00000000000E+00 -0.00000000000E+00 -0.45326195946E+03  0.45326195946E+03  0.00000000000E+00 0.  1.
         24    2    1    2    0    0 -0.75119478850E+02  0.50662329291E+02 -0.41723915968E+03  0.43433791303E+03  0.79695035054E+02 0.  0.
         25    2    1    2    0    0  0.86342769940E+02 -0.69410084064E+02  0.24871656341E+03  0.29963365062E+03  0.12509021536E+03 0.  0.
        -24    2    1    2    0    0 -0.11223291089E+02  0.18747754772E+02  0.78897678709E+03  0.79300654608E+03  0.76795644339E+02 0.  0.
        -13    1    3    3    0    0 -0.29588054336E+02  0.59799770833E+02 -0.31584365354E+03  0.32281369090E+03  0.00000000000E+00 0.  1.
         14    1    3    3    0    0 -0.45531424514E+02 -0.91374415418E+01 -0.10139550615E+03  0.11152422214E+03  0.00000000000E+00 0. -1.
         13    1    5    5    0    0  0.99009778421E+01 -0.22268352149E+02  0.12050566598E+03  0.12294520895E+03  0.00000000000E+00 0. -1.
        -14    1    5    5    0    0 -0.21124268931E+02  0.41016106922E+02  0.66847112111E+03  0.67006133713E+03  0.00000000000E+00 0.  1.
          5    1    4    4  501    0  0.10650950044E+03 -0.61965501743E+02  0.13099358101E+03  0.17989104413E+03  0.41800000000E+01 0.  1.
         -5    1    4    4    0  501 -0.20166730502E+02 -0.74445823209E+01  0.11772298240E+03  0.11974260650E+03  0.41800000000E+01 0.  1.
</event>
<event>
11    1  0.7577197E-009  0.1457463E+03  0.7561462E-02  0.1101306E+00
         22   -1    0    0    0    0  0.00000000000E+00  0.00000000000E+00  0.13806383682E+04  0.13806383682E+04  0.00000000000E+00 0.  1.
         22   -1    0    0    0    0 -0.00000000000E+00 -0.00000000000E+00 -0.24020007067E+03  0.24020007067E+03  0.00000000000E+00 0.  1.
         24    2    1    2    0    0  0.20859311832E+01  0.27116205425E+02 -0.19748079470E+03  0.21464670118E+03  0.79592099776E+02 0.  0.
         25    2    1    2    0    0  0.72722592775E+02 -0.20735305600E+02  0.13653667372E+03  0.20002065810E+03  0.12508985569E+03 0.  0.
        -24    2    1    2    0    0 -0.74808523958E+02 -0.63808998243E+01  0.12013824185E+04  0.12061710795E+04  0.76758885974E+02 0.  0.
        -11    1    3    3    0    0 -0.61129865344E+01  0.43744038178E+01 -0.18881688682E+03  0.18896645407E+03  0.00000000000E+00 0.  1.
         12    1    3    3    0    0  0.81989177176E+01  0.22741801607E+02 -0.86639078759E+01  0.25680247112E+02  0.00000000000E+00 0. -1.
         11    1    5    5    0    0 -0.82626348141E+02 -0.21712954052E+01  0.72348221663E+03  0.72818839987E+03  0.00000000000E+00 0. -1.
        -12    1    5    5    0    0  0.78178241834E+01 -0.42096044191E+01  0.47790020184E+03  0.47798267967E+03  0.00000000000E+00 0.  1.
          5    1    4    4  501    0  0.31550575114E+02 -0.62834794774E+02  0.26702453513E+02  0.75326911844E+02  0.41800000000E+01 0. -1.
         -5    1    4    4    0  501  0.41172017661E+02  0.42099489174E+02  0.10983422020E+03  0.12469374625E+03  0.41800000000E+01 0. -1.
</event>
<event>
11    1  0.7577197E-009  0.1550704E+03  0.7561462E-02  0.1091808E+00
         22   -1    0    0    0    0  0.00000000000E+00  0.00000000000E+00  0.72775313004E+02  0.72775313004E+02  0.00000000000E+00 0.  1.
         22   -1    0    0    0    0 -0.00000000000E+00 -0.00000000000E+00 -0.68922637348E+03  0.68922637348E+03  0.00000000000E+00 0.  1.
         24    2    1    2    0    0 -0.13925327923E+02 -0.95591428992E+02 -0.33883870913E+03  0.36144014221E+03  0.80595716631E+02 0.  0.
         25    2    1    2    0    0  0.74779132016E+02  0.63566445838E+02 -0.23899351467E+03  0.28705085633E+03  0.12509069687E+03 0.  0.
        -24    2    1    2    0    0 -0.60853804094E+02  0.32024983154E+02 -0.38618836675E+02  0.11351068795E+03  0.81636246322E+02 0.  0.
        -13    1    3    3    0    0 -0.44480676003E+02 -0.79776659197E+02 -0.24099456490E+03  0.25772315806E+03  0.00000000000E+00 0.  1.
         14    1    3    3    0    0  0.30555348080E+02 -0.15814769795E+02 -0.97844144232E+02  0.10371698415E+03  0.00000000000E+00 0. -1.
         13    1    5    5    0    0 -0.52162518326E+02  0.15674269348E+02 -0.62751468955E+02  0.83092465926E+02  0.00000000000E+00 0. -1.
        -14    1    5    5    0    0 -0.86912857677E+01  0.16350713806E+02  0.24132632279E+02  0.30418222022E+02  0.00000000000E+00 0.  1.
          5    1    4    4  501    0  0.67931974788E+02  0.50302694824E+02 -0.25261519231E+03  0.26641513112E+03  0.41800000000E+01 0. -1.
         -5    1    4    4    0  501  0.68471572282E+01  0.13263751014E+02  0.13621677640E+02  0.20635725206E+02  0.41800000000E+01 0. -1.
</event>
<event>
11    1  0.7577197E-009  0.1667461E+03  0.7561462E-02  0.1080899E+00
         22   -1    0    0    0    0  0.00000000000E+00  0.00000000000E+00  0.13539515419E+04  0.13539515419E+04  0.00000000000E+00 0. -1.
         22   -1    0    0    0    0 -0.00000000000E+00 -0.00000000000E+00 -0.55495867131E+03  0.55495867131E+03  0.00000000000E+00 0. -1.
         24    2    1    2    0    0 -0.66205382262E+02  0.87730270576E+02 -0.52551953975E+03  0.54282102456E+03  0.80025777298E+02 0.  0.
         25    2    1    2    0    0  0.13758868618E+03 -0.62632876939E+02  0.54986328823E+03  0.58382403000E+03  0.12508932180E+03 0.  0.
        -24    2    1    2    0    0 -0.71383303914E+02 -0.25097393637E+02  0.77464912215E+03  0.78226515868E+03  0.78307475992E+02 0.  0.
        -13    1    3    3    0    0 -0.35858930705E+02  0.17370726714E+01 -0.25093289141E+03  0.25348805953E+03  0.00000000000E+00 0.  1.
         14    1    3    3    0    0 -0.30346451557E+02  0.85993197904E+02 -0.27458664834E+03  0.28933296503E+03  0.00000000000E+00 0. -1.
         11    1    5    5    0    0 -0.34081998564E+02 -0.10811739677E+02  0.65792428060E+03  0.65889516264E+03  0.00000000000E+00 0. -1.
        -12    1    5    5    0    0 -0.37301305350E+02 -0.14285653960E+02  0.11672484154E+03  0.12336999604E+03  0.00000000000E+00 0.  1.
          5    1    4    4  501    0 -0.59392766734E+01  0.25357818306E+02  0.53073469159E+02  0.59266849800E+02  0.41800000000E+01 0.  1.
         -5    1    4    4    0  501  0.14352796285E+03 -0.87990695245E+02  0.49678981907E+03  0.52455718020E+03  0.41800000000E+01 0.  1.
</event>
<event>
11    1  0.7577197E-009  0.1908195E+03  0.7561462E-02  0.1061212E+00
         22   -1    0    0    0    0  0.00000000000E+00  0.00000000000E+00  0.43831337465E+03  0.43831337465E+03  0.00000000000E+00 0.  1.
         22   -1    0    0    0    0 -0.00000000000E+00 -0.00000000000E+00 -0.64734483459E+03  0.64734483459E+03  0.00000000000E+00 0. -1.
        -24    2    1    2    0    0  0.97566878107E+02  0.51039153339E+02 -0.49605984640E+03  0.51386597846E+03  0.76541372658E+02 0.  0.
         25    2    1    2    0    0  0.31448738794E+02  0.43152883536E+02 -0.83962061375E+02  0.15984098495E+03  0.12509323799E+03 0.  0.
         24    2    1    2    0    0 -0.12901561690E+03 -0.94192036876E+02  0.37099044784E+03  0.41195124584E+03  0.80949041637E+02 0.  0.
        -13    1    5    5    0    0 -0.25967876146E+02 -0.42219837625E+02  0.19716705742E+03  0.20330197690E+03  0.00000000000E+00 0.  1.
         14    1    5    5    0    0 -0.10304774076E+03 -0.51972199251E+02  0.17382339042E+03  0.20864926894E+03  0.00000000000E+00 0. -1.
         13    1    3    3    0    0  0.90899085357E+02  0.67419020547E+02 -0.38093801150E+03  0.39739367969E+03  0.00000000000E+00 0. -1.
        -14    1    3    3    0    0  0.66677927502E+01 -0.16379867207E+02 -0.11512183490E+03  0.11647229877E+03  0.00000000000E+00 0.  1.
          5    1    4    4  501    0 -0.11892791961E+02  0.75228691196E+01  0.29636539035E+02  0.33073084319E+02  0.41800000000E+01 0. -1.
         -5    1    4    4    0  501  0.43341530755E+02  0.35630014416E+02 -0.11359860041E+03  0.12676790063E+03  0.41800000000E+01 0. -1.
</event>
<event>
11    1  0.7577197E-009  0.1444826E+03  0.7561462E-02  0.1102654E+00
         22   -1    0    0    0    0  0.00000000000E+00  0.00000000000E+00  0.70314110428E+03  0.70314110428E+03  0.00000000000E+00 0.  1.
         22   -1    0    0    0    0 -0.00000000000E+00 -0.00000000000E+00 -0.35637817923E+03  0.35637817923E+03  0.00000000000E+00 0.  1.
         24    2    1    2    0    0 -0.23800201672E+02  0.32798621727E+02 -0.26076041720E+03  0.27600253824E+03  0.80865361869E+02 0.  0.
         25    2    1    2    0    0 -0.94872896952E+01 -0.95916630671E+02 -0.87948345352E+01  0.15816156939E+03  0.12509086383E+03 0.  0.
        -24    2    1    2    0    0  0.33287491367E+02  0.63118008943E+02  0.61631817679E+03  0.62535517587E+03  0.78288318552E+02 0.  0.
        -13    1    3    3    0    0 -0.34439924996E+02  0.58491814717E+01 -0.23389781429E+03  0.23649209054E+03  0.00000000000E+00 0.  1.
         14    1    3    3    0    0  0.10639723324E+02  0.26949440256E+02 -0.26862602910E+02  0.39510447702E+02  0.00000000000E+00 0. -1.
         11    1    5    5    0    0 -0.21243519494E+02  0.40884238297E+02  0.22940024143E+03  0.23398136428E+03  0.00000000000E+00 0. -1.
        -12    1    5    5    0    0  0.54531010862E+02  0.22233770646E+02  0.38691793535E+03  0.39137381159E+03  0.00000000000E+00 0.  1.
          5    1    4    4  501    0 -0.46787484005E+02 -0.19411126534E+02 -0.42764454665E+02  0.66423877300E+02  0.41800000000E+01 0. -1.
         -5    1    4    4    0  501  0.37300194310E+02 -0.76505504137E+02  0.33969620129E+02  0.91737692093E+02  0.41800000000E+01 0. -1.
</event>
<event>
11    1  0.7577197E-009  0.1338235E+03  0.7561462E-02  0.1114658E+00
         22   -1    0    0    0    0  0.00000000000E+00  0.00000000000E+00  0.43837000524E+03  0.43837000524E+03  0.00000000000E+00 0.  1.
         22   -1    0    0    0    0 -0.00000000000E+00 -0.00000000000E+00 -0.10754364549E+03  0.10754364549E+03  0.00000000000E+00 0.  1.
        -24    2    1    2    0    0 -0.48956481986E+02  0.17557902424E+01 -0.34749808553E+02  0.10043413729E+03  0.80496253397E+02 0.  0.
         25    2    1    2    0    0  0.39328157669E+02  0.38728965563E+02  0.11442842194E+03  0.17829773670E+03  0.12509829098E+03 0.  0.
         24    2    1    2    0    0  0.96283243177E+01 -0.40484755805E+02  0.25114774637E+03  0.26718177675E+03  0.81112213869E+02 0.  0.
        -13    1    5    5    0    0  0.36984771176E+02 -0.49036358082E+02  0.18931256466E+03  0.19902684455E+03  0.00000000000E+00 0.  1.
         14    1    5    5    0    0 -0.27356446858E+02  0.85516022766E+01  0.61835181702E+02  0.68154932194E+02  0.00000000000E+00 0. -1.
         13    1    3    3    0    0  0.12982797267E+02  0.22808889526E+02  0.23825700829E+00  0.26246051754E+02  0.00000000000E+00 0. -1.
        -14    1    3    3    0    0 -0.61939279253E+02 -0.21053099283E+02 -0.34988065561E+02  0.74188085536E+02  0.00000000000E+00 0.  1.
          5    1    4    4  501    0 -0.12870687246E+02 -0.18445707846E+02 -0.15048148089E+02  0.27382802797E+02  0.41800000000E+01 0. -1.
         -5    1    4    4    0  501  0.52198844914E+02  0.57174673409E+02  0.12947657003E+03  0.15091493391E+03  0.41800000000E+01 0. -1.
</event>
<event>
11    1  0.7577197E-009  0.1461692E+03  0.7561462E-02  0.1100859E+00
         22   -1    0    0    0    0  0.00000000000E+00  0.00000000000E+00  0.89935653170E+03  0.89935653170E+03  0.00000000000E+00 0.  1.
         22   -1    0    0    0    0 -0.00000000000E+00 -0.00000000000E+00 -0.33788438024E+03  0.33788438024E+03  0.00000000000E+00 0. -1.
         24    2    1    2    0    0 -0.16513424914E+02 -0.63964212017E+01 -0.26767033876E+03  0.28021603343E+03  0.80993874676E+02 0.  0.
         25    2    1    2    0    0  0.82428865327E+02  0.41256077731E+02  0.40289047261E+02  0.16052149681E+03  0.12508941530E+03 0.  0.
        -24    2    1    2    0    0 -0.65915440413E+02 -0.34859656530E+02  0.78885344296E+03  0.79650338170E+03  0.81042221456E+02 0.  0.
        -13    1    3    3    0    0  0.18949218294E+02 -0.24706653774E+02 -0.49891416980E+02  0.58810246581E+02  0.00000000000E+00 0.  1.
         14    1    3    3    0    0 -0.35462643208E+02  0.18310232573E+02 -0.21777892178E+03  0.22140578685E+03  0.00000000000E+00 0. -1.
         11    1    5    5    0    0 -0.64376903901E+02 -0.44514332194E+02  0.40321840513E+03  0.41074443851E+03  0.00000000000E+00 0. -1.
        -12    1    5    5    0    0 -0.15385365116E+01  0.96546756646E+01  0.38563503783E+03  0.38575894320E+03  0.00000000000E+00 0.  1.
          5    1    4    4  501    0  0.10148005653E+03  0.86521623319E+00  0.52080693484E+02  0.11414386320E+03  0.41800000000E+01 0. -1.
         -5    1    4    4    0  501 -0.19051191200E+02  0.40390861498E+02 -0.11791646223E+02  0.46377633611E+02  0.41800000000E+01 0. -1.
</event>
<event>
11    1  0.7577197E-009  0.1485253E+03  0.7561462E-02  0.1098395E+00
         22   -1    0    0    0    0  0.00000000000E+00  0.00000000000E+00  0.11587628355E+04  0.11587628355E+04  0.00000000000E+00 0.  1.
         22   -1    0    0    0    0 -0.00000000000E+00 -0.00000000000E+00 -0.83206581238E+03  0.83206581238E+03  0.00000000000E+00 0.  1.
         24    2    1    2    0    0  0.51112387640E+02 -0.64232517788E+02 -0.72935942475E+03  0.73850263495E+03  0.81747653480E+02 0.  0.
         25    2    1    2    0    0 -0.43561815916E+02  0.39967305584E+02 -0.46892949809E+02  0.14607908321E+03  0.12508050403E+03 0.  0.
        -24    2    1    2    0    0 -0.75505717242E+01  0.24265212205E+02  0.11029493976E+04  0.11062469297E+04  0.81480574584E+02 0.  0.
        -13    1    3    3    0    0  0.73344878654E+02 -0.53372568420E+02 -0.59672636543E+03  0.60358135946E+03  0.00000000000E+00 0.  1.
         14    1    3    3    0    0 -0.22232491014E+02 -0.10859949368E+02 -0.13263305932E+03  0.13492127549E+03  0.00000000000E+00 0. -1.
         11    1    5    5    0    0 -0.38092683407E+02  0.30918056923E+02  0.47671601243E+03  0.47923390456E+03  0.00000000000E+00 0. -1.
        -12    1    5    5    0    0  0.30542111683E+02 -0.66528447184E+01  0.62623338521E+03  0.62701302512E+03  0.00000000000E+00 0.  1.
          5    1    4    4  501    0 -0.31213667235E+02  0.67874606804E+02  0.15576298006E+02  0.76428716662E+02  0.41800000000E+01 0.  1.
         -5    1    4    4    0  501 -0.12348148681E+02 -0.27907301220E+02 -0.62469247815E+02  0.69650366544E+02  0.41800000000E+01 0.  1.
</event>
<event>
11    1  0.7577197E-009  0.1886786E+03  0.7561462E-02  0.1062831E+00
         22   -1    0    0    0    0  0.00000000000E+00  0.00000000000E+00  0.63826864791E+03  0.63826864791E+03  0.00000000000E+00 0.  1.
         22   -1    0    0    0    0 -0.00000000000E+00 -0.00000000000E+00 -0.18781935597E+03  0.18781935597E+03  0.00000000000E+00 0. -1.
        -24    2    1    2    0    0 -0.24589867454E+02 -0.13714735427E+03 -0.70017211629E+02  0.18200472339E+03  0.93857610494E+02 0.  0.
         25    2    1    2    0    0  0.30736776775E+02  0.14355333454E+03  0.10247244010E+03  0.21840422643E+03  0.12508995098E+03 0.  0.
         24    2    1    2    0    0 -0.61469093211E+01 -0.64059802695E+01  0.41799406347E+03  0.42567905406E+03  0.80029987484E+02 0.  0.
        -11    1    5    5    0    0  0.22664850737E+02 -0.25212707769E+02  0.32057366067E+03  0.32236136246E+03  0.00000000000E+00 0.  1.
         12    1    5    5    0    0 -0.28811760058E+02  0.18806727499E+02  0.97420402793E+02  0.10331769160E+03  0.00000000000E+00 0. -1.
         11    1    3    3    0    0 -0.24080053954E+01 -0.11762135710E+03 -0.13746821110E+02  0.11844643188E+03  0.00000000000E+00 0. -1.
        -12    1    3    3    0    0 -0.22181862059E+02 -0.19525997170E+02 -0.56270390519E+02  0.63558291505E+02  0.00000000000E+00 0.  1.
          5    1    4    4  501    0  0.34447730778E+02  0.96195969128E+02 -0.33665208937E+01  0.10231870061E+03  0.41800000000E+01 0. -1.
         -5    1    4    4    0  501 -0.37109540024E+01  0.47357365408E+02  0.10583896100E+03  0.11608552581E+03  0.41800000000E+01 0. -1.
</event>
<event>
11    1  0.7577197E-009  0.1495567E+03  0.7561462E-02  0.1097333E+00
         22   -1    0    0    0    0  0.00000000000E+00  0.00000000000E+00  0.11352960011E+04  0.11352960011E+04  0.00000000000E+00 0. -1.
         22   -1    0    0    0    0 -0.00000000000E+00 -0.00000000000E+00 -0.54127340236E+03  0.54127340236E+03  0.00000000000E+00 0.  1.
        -24    2    1    2    0    0  0.22624803095E+02  0.80546020181E+02 -0.50472347413E+03  0.51820611583E+03  0.82415108200E+02 0.  0.
         25    2    1    2    0    0 -0.18467013147E+02 -0.39158326442E+02  0.12897905689E+03  0.18481647709E+03  0.12508848063E+03 0.  0.
         24    2    1    2    0    0 -0.41577899479E+01 -0.41387693739E+02  0.96976701596E+03  0.97354681051E+03  0.74933961550E+02 0.  0.
        -11    1    5    5    0    0 -0.42263005354E+01 -0.22598242847E+02  0.71961242461E+02  0.75544441308E+02  0.00000000000E+00 0.  1.
         12    1    5    5    0    0  0.68510587530E-01 -0.18789450892E+02  0.89780577350E+03  0.89800236920E+03  0.00000000000E+00 0. -1.
         13    1    3    3    0    0  0.35480530446E+02  0.73676660553E+01 -0.92585152120E+02  0.99424146650E+02  0.00000000000E+00 0. -1.
        -14    1    3    3    0    0 -0.12855727352E+02  0.73178354126E+02 -0.41213832201E+03  0.41878196918E+03  0.00000000000E+00 0.  1.
          5    1    4    4  501    0 -0.44154644250E+02  0.24576292452E+02  0.17210574354E+02  0.53547203747E+02  0.41800000000E+01 0.  1.
         -5    1    4    4    0  501  0.25687631103E+02 -0.63734618894E+02  0.11176848253E+03  0.13126927335E+03  0.41800000000E+01 0.  1.
</event>
<event>
11    1  0.7577197E-009  0.2707986E+03  0.7561462E-02  0.1013368E+00
         22   -1    0    0    0    0  0.00000000000E+00  0.00000000000E+00  0.66602996470E+03  0.66602996470E+03  0.00000000000E+00 0. -1.
         22   -1    0    0    0    0 -0.00000000000E+00 -0.00000000000E+00 -0.44576713414E+03  0.44576713414E+03  0.00000000000E+00 0.  1.
        -24    2    1    2    0    0 -0.22963317560E+01 -0.26898455556E+02 -0.16794339629E+03  0.18834024514E+03  0.80859529610E+02 0.  0.
         25    2    1    2    0    0 -0.21676949895E+03  0.12309875821E+03 -0.15885197320E+03  0.32097394255E+03  0.12509197599E+03 0.  0.
         24    2    1    2    0    0  0.21906583071E+03 -0.96200302654E+02  0.54705820005E+03  0.60248291115E+03  0.80427902938E+02 0.  0.
        -11    1    5    5    0    0  0.53474601638E+02 -0.62642863746E+02  0.20641458079E+03  0.22224005166E+03  0.00000000000E+00 0.  1.
         12    1    5    5    0    0  0.16559122907E+03 -0.33557438908E+02  0.34064361926E+03  0.38024285949E+03  0.00000000000E+00 0. -1.
         11    1    3    3    0    0 -0.24526530833E+02 -0.28929341626E+02 -0.29340494349E+02  0.47951247432E+02  0.00000000000E+00 0. -1.
        -12    1    3    3    0    0  0.22230199077E+02  0.20308860694E+01 -0.13860290195E+03  0.14038899771E+03  0.00000000000E+00 0.  1.
          5    1    4    4  501    0 -0.17701227761E+03  0.40612064838E+02 -0.74290939707E+02  0.19626334951E+03  0.41800000000E+01 0.  1.
         -5    1    4    4    0  501 -0.39757221338E+02  0.82486693373E+02 -0.84561033497E+02  0.12471059305E+03  0.41800000000E+01 0.  1.
</event>
<event>
11    1  0.7577197E-009  0.1726776E+03  0.7561462E-02  0.1075725E+00
         22   -1    0    0    0    0  0.00000000000E+00  0.00000000000E+00  0.74261205933E+02  0.74261205933E+02  0.00000000000E+00 0. -1.
         22   -1    0    0    0    0 -0.00000000000E+00 -0.00000000000E+00 -0.88419871402E+03  0.88419871402E+03  0.00000000000E+00 0.  1.
        -24    2    1    2    0    0 -0.99428446591E+02  0.23241380949E+02 -0.37988861278E+03  0.40134060703E+03  0.79578558384E+02 0.  0.
         25    2    1    2    0    0 -0.24633521986E+02 -0.87228757652E+02 -0.33667660194E+03  0.37042512707E+03  0.12509186187E+03 0.  0.
         24    2    1    2    0    0  0.12406196858E+03  0.63987376703E+02 -0.93372293362E+02  0.18669418584E+03  0.81551072555E+02 0.  0.
        -13    1    5    5    0    0  0.94118665419E+02  0.37045961787E+02 -0.10396014434E+03  0.14504633079E+03  0.00000000000E+00 0.  1.
         14    1    5    5    0    0  0.29943303157E+02  0.26941414916E+02  0.10587850981E+02  0.41647855047E+02  0.00000000000E+00 0. -1.
         11    1    3    3    0    0 -0.45344463185E+02  0.29118443473E+02 -0.79356557218E+02  0.95924278811E+02  0.00000000000E+00 0. -1.
        -12    1    3    3    0    0 -0.54083983405E+02 -0.58770625239E+01 -0.30053205556E+03  0.30541632822E+03  0.00000000000E+00 0.  1.
          5    1    4    4  501    0  0.39136476037E+02 -0.28709446143E+02 -0.21861083744E+03  0.22397336158E+03  0.41800000000E+01 0.  1.
         -5    1    4    4    0  501 -0.63769998023E+02 -0.58519311509E+02 -0.11806576450E+03  0.14645176549E+03  0.41800000000E+01 0.  1.
</event>
<event>
11    1  0.7577197E-009  0.1637717E+03  0.7561462E-02  0.1083583E+00
         22   -1    0    0    0    0  0.00000000000E+00  0.00000000000E+00  0.10173310800E+04  0.10173310800E+04  0.00000000000E+00 0.  1.
         22   -1    0    0    0    0 -0.00000000000E+00 -0.00000000000E+00 -0.31582340482E+04  0.31582340482E+04  0.00000000000E+00 0. -1.
        -24    2    1    2    0    0 -0.23083595041E+02  0.10456245041E+03 -0.30663821433E+04  0.30693086641E+04  0.80560960438E+02 0.  0.
         25    2    1    2    0    0  0.39577432900E+01 -0.56024537350E+02 -0.34530989884E+02  0.14140006207E+03  0.12508867165E+03 0.  0.
         24    2    1    2    0    0  0.19125851751E+02 -0.48537913062E+02  0.96001016507E+03  0.96485640203E+03  0.81281192645E+02 0.  0.
        -11    1    5    5    0    0  0.24296674998E+02 -0.63239553355E+02  0.90894269144E+03  0.91146386974E+03  0.00000000000E+00 0.  1.
         12    1    5    5    0    0 -0.51708232472E+01  0.14701640293E+02  0.51067473634E+02  0.53392532284E+02  0.00000000000E+00 0. -1.
         13    1    3    3    0    0 -0.14198135901E+01  0.10916707763E+03 -0.27411311245E+04  0.27433044505E+04  0.00000000000E+00 0. -1.
        -14    1    3    3    0    0 -0.21663781451E+02 -0.46046272172E+01 -0.32525101882E+03  0.32600421356E+03  0.00000000000E+00 0.  1.
          5    1    4    4  501    0 -0.50151450880E+02 -0.36513058203E+02 -0.52092801345E+02  0.81114140547E+02  0.41800000000E+01 0. -1.
         -5    1    4    4    0  501  0.54109194170E+02 -0.19511479147E+02  0.17561811461E+02  0.60285921524E+02  0.41800000000E+01 0. -1.
</event>
<event>
11    1  0.7577197E-009  0.2243928E+03  0.7561462E-02  0.1038500E+00
         22   -1    0    0    0    0  0.00000000000E+00  0.00000000000E+00  0.42554640978E+03  0.42554640978E+03  0.00000000000E+00 0.  1.
         22   -1    0    0    0    0 -0.00000000000E+00 -0.00000000000E+00 -0.65057802576E+03  0.65057802576E+03  0.00000000000E+00 0. -1.
         24    2    1    2    0    0  0.96777980911E+02  0.63679192491E+02 -0.46224700526E+03  0.48308536291E+03  0.79234820865E+02 0.  0.
         25    2    1    2    0    0 -0.26270122466E+03 -0.52536178358E+02  0.15066410458E+02  0.29605157480E+03  0.12509018644E+03 0.  0.
        -24    2    1    2    0    0  0.16592324375E+03 -0.11143014134E+02  0.22214897883E+03  0.29698749783E+03  0.10581453346E+03 0.  0.
        -11    1    3    3    0    0  0.37609007486E+02 -0.16192556557E+02 -0.13698008478E+03  0.14296915736E+03  0.00000000000E+00 0.  1.
         12    1    3    3    0    0  0.59168973425E+02  0.79871749048E+02 -0.32526692049E+03  0.34011620555E+03  0.00000000000E+00 0. -1.
         13    1    5    5    0    0  0.34931153815E+02  0.15341903233E+01 -0.41431165845E+01  0.35209439954E+02  0.00000000000E+00 0. -1.
        -14    1    5    5    0    0  0.13099208994E+03 -0.12677204457E+02  0.22629209541E+03  0.26177805788E+03  0.00000000000E+00 0.  1.
          5    1    4    4  501    0 -0.61988472923E+02  0.40428668255E+02  0.96341640508E+01  0.74748495029E+02  0.41800000000E+01 0.  1.
         -5    1    4    4    0  501 -0.20071275174E+03 -0.92964846613E+02  0.54322464073E+01  0.22130307977E+03  0.41800000000E+01 0.  1.
</event>
<event>
11    1  0.7577197E-009  0.1417650E+03  0.7561462E-02  0.1105603E+00
         22   -1    0    0    0    0  0.00000000000E+00  0.00000000000E+00  0.14025871959E+03  0.14025871959E+03  0.00000000000E+00 0.  1.
         22   -1    0    0    0    0 -0.00000000000E+00 -0.00000000000E+00 -0.82568886516E+03  0.82568886516E+03  0.00000000000E+00 0. -1.
         24    2    1    2    0    0 -0.28490818829E+02 -0.56482651350E+02 -0.67427053337E+03  0.68306443045E+03  0.89074392017E+02 0.  0.
         25    2    1    2    0    0  0.48137441415E+02  0.11580652628E+03 -0.30655181617E+02  0.17976574272E+03  0.12509043648E+03 0.  0.
        -24    2    1    2    0    0 -0.19646622585E+02 -0.59323874931E+02  0.19495569412E+02  0.10311741158E+03  0.79673153753E+02 0.  0.
        -11    1    3    3    0    0  0.32021264389E+02 -0.21497500845E+02 -0.20194286281E+03  0.20559285920E+03  0.00000000000E+00 0.  1.
         12    1    3    3    0    0 -0.60512083219E+02 -0.34985150505E+02 -0.47232767056E+03  0.47747157125E+03  0.00000000000E+00 0. -1.
         13    1    5    5    0    0 -0.10309934914E+02 -0.32222634323E+02 -0.30459034859E+02  0.45523024122E+02  0.00000000000E+00 0. -1.
        -14    1    5    5    0    0 -0.93366876716E+01 -0.27101240608E+02  0.49954604271E+02  0.57594387461E+02  0.00000000000E+00 0.  1.
          5    1    4    4  501    0  0.42537805297E+02  0.17409295792E+02  0.37832332113E+02  0.59676680643E+02  0.41800000000E+01 0. -1.
         -5    1    4    4    0  501  0.55996361178E+01  0.98397230489E+02 -0.68487513730E+02  0.12008906207E+03  0.41800000000E+01 0. -1.
</event>
<event>
11    1  0.7577197E-009  0.1335652E+03  0.7561462E-02  0.1114964E+00
         22   -1    0    0    0    0  0.00000000000E+00  0.00000000000E+00  0.17846426943E+03  0.17846426943E+03  0.00000000000E+00 0.  1.
         22   -1    0    0    0    0 -0.00000000000E+00 -0.00000000000E+00 -0.88246570497E+03  0.88246570497E+03  0.00000000000E+00 0.  1.
         24    2    1    2    0    0  0.11926913053E+02 -0.85426130510E+01 -0.78162315366E+03  0.78582943754E+03  0.79861900024E+02 0.  0.
         25    2    1    2    0    0 -0.56332847155E+02  0.12232890958E+02 -0.22754779605E+02  0.13960142979E+03  0.12509095057E+03 0.  0.
        -24    2    1    2    0    0  0.44405934102E+02 -0.36902779073E+01  0.10037649772E+03  0.13549910708E+03  0.79366627689E+02 0.  0.
        -13    1    3    3    0    0  0.45985364728E+02 -0.25733178355E+01 -0.49141833143E+03  0.49357193215E+03  0.00000000000E+00 0.  1.
         14    1    3    3    0    0 -0.34058451675E+02 -0.59692952155E+01 -0.29020482223E+03  0.29225750539E+03  0.00000000000E+00 0. -1.
         11    1    5    5    0    0  0.39736991708E+02 -0.12806369867E+02  0.79412781776E+01  0.42498182529E+02  0.00000000000E+00 0. -1.
        -12    1    5    5    0    0  0.46689423946E+01  0.91160919601E+01  0.92435219543E+02  0.93000924553E+02  0.00000000000E+00 0.  1.
          5    1    4    4  501    0 -0.80986728381E+01  0.65244260886E+02 -0.13012631094E+02  0.67150599761E+02  0.41800000000E+01 0.  1.
         -5    1    4    4    0  501 -0.48234174317E+02 -0.53011369928E+02 -0.97421485115E+01  0.72450830025E+02  0.41800000000E+01 0.  1.
</event>
<event>
11    1  0.7577197E-009  0.1361201E+03  0.7561462E-02  0.1111970E+00
         22   -1    0    0    0    0  0.00000000000E+00  0.00000000000E+00  0.61903711037E+03  0.61903711037E+03  0.00000000000E+00 0. -1.
         22   -1    0    0    0    0 -0.00000000000E+00 -0.00000000000E+00 -0.64141525488E+03  0.64141525488E+03  0.00000000000E+00 0.  1.
         24    2    1    2    0    0 -0.40402207779E+00 -0.17375902505E+02 -0.56209287652E+03  0.56792730643E+03  0.79315435593E+02 0.  0.
         25    2    1    2    0    0  0.52679675386E+02  0.43661425194E+01 -0.85110553103E+01  0.13606816905E+03  0.12509155513E+03 0.  0.
        -24    2    1    2    0    0 -0.52275653308E+02  0.13009759986E+02  0.54822578733E+03  0.55645688979E+03  0.78681373383E+02 0.  0.
        -13    1    3    3    0    0 -0.12987217728E+02 -0.19463812564E+02 -0.54951735666E+03  0.55001530260E+03  0.00000000000E+00 0.  1.
         14    1    3    3    0    0  0.12583195650E+02  0.20879100593E+01 -0.12575519864E+02  0.17912003826E+02  0.00000000000E+00 0. -1.
         13    1    5    5    0    0 -0.67353070411E+02  0.28447890294E+02  0.44877031978E+03  0.45468727547E+03  0.00000000000E+00 0. -1.
        -14    1    5    5    0    0  0.15077417102E+02 -0.15438130309E+02  0.99455467544E+02  0.10176961432E+03  0.00000000000E+00 0.  1.
          5    1    4    4  501    0  0.14799673205E+02  0.62834205196E+02  0.53632919031E+01  0.64910746179E+02  0.41800000000E+01 0. -1.
         -5    1    4    4    0  501  0.37880002181E+02 -0.58468062676E+02 -0.13874347213E+02  0.71157422866E+02  0.41800000000E+01 0. -1.
</event>
<event>
11    1  0.7577197E-009  0.1263451E+03  0.7561462E-02  0.1123843E+00
         22   -1    0    0    0    0  0.00000000000E+00  0.00000000000E+00  0.94007983646E+02  0.94007983646E+02  0.00000000000E+00 0. -1.
         22   -1    0    0    0    0 -0.00000000000E+00 -0.00000000000E+00 -0.16568324541E+04  0.16568324541E+04  0.00000000000E+00 0.  1.
        -24    2    1    2    0    0  0.18739689116E+00 -0.64528176657E+01 -0.12070748448E+04  0.12097174709E+04  0.79655537192E+02 0.  0.
         25    2    1    2    0    0 -0.17931248325E+02  0.53418875129E+01 -0.41882474219E+03  0.43750599298E+03  0.12508902349E+03 0.  0.
         24    2    1    2    0    0  0.17743851433E+02  0.11109301528E+01  0.63075116552E+02  0.10361697379E+03  0.80261625330E+02 0.  0.
        -13    1    5    5    0    0  0.32783457875E+02 -0.30285164523E+02  0.21953058492E+02  0.49738145096E+02  0.00000000000E+00 0.  1.
         14    1    5    5    0    0 -0.15039606442E+02  0.31396094676E+02  0.41122058059E+02  0.53878828698E+02  0.00000000000E+00 0. -1.
         11    1    3    3    0    0 -0.22235303512E+02  0.26795031333E+02 -0.35610575277E+03  0.35780398206E+03  0.00000000000E+00 0. -1.
        -12    1    3    3    0    0  0.22422700403E+02 -0.33247848999E+02 -0.85096909202E+03  0.85191348888E+03  0.00000000000E+00 0.  1.
          5    1    4    4  501    0  0.53569219210E+02 -0.27406734562E+01 -0.20038299483E+03  0.20748009436E+03  0.41800000000E+01 0. -1.
         -5    1    4    4    0  501 -0.71500467534E+02  0.80825609691E+01 -0.21844174736E+03  0.23002589862E+03  0.41800000000E+01 0. -1.
</event>
<event>
11    1  0.7577197E-009  0.3185063E+03  0.7561462E-02  0.9926495E-01
         22   -1    0    0    0    0  0.00000000000E+00  0.00000000000E+00  0.16071211849E+04  0.16071211849E+04  0.00000000000E+00 0.  1.
         22   -1    0    0    0    0 -0.00000000000E+00 -0.00000000000E+00 -0.23126648902E+04  0.23126648902E+04  0.00000000000E+00 0. -1.
        -24    2    1    2    0    0 -0.25493215777E+02  0.40982012068E+00 -0.22231509356E+04  0.22247641060E+04  0.80778542845E+02 0.  0.
         25    2    1    2    0    0 -0.23007653279E+03  0.15191955312E+03  0.25634203036E+03  0.39670076337E+03  0.12508196340E+03 0.  0.
         24    2    1    2    0    0  0.25556974857E+03 -0.15232937324E+03  0.12612651999E+04  0.12983212057E+04  0.79548188450E+02 0.  0.
        -11    1    5    5    0    0  0.25776674173E+03 -0.13592356212E+03  0.11961527358E+04  0.12311377971E+04  0.00000000000E+00 0.  1.
         12    1    5    5    0    0 -0.21969931579E+01 -0.16405811126E+02  0.65112464069E+02  0.67183408628E+02  0.00000000000E+00 0. -1.
         13    1    3    3    0    0 -0.66142129845E+01  0.17003890852E+02 -0.20175433871E+04  0.20176258818E+04  0.00000000000E+00 0. -1.
        -14    1    3    3    0    0 -0.18879002793E+02 -0.16594070732E+02 -0.20560754851E+03  0.20713822422E+03  0.00000000000E+00 0.  1.
          5    1    4    4  501    0 -0.17284112765E+03  0.12926832763E+03  0.11985026563E+03  0.24691276700E+03  0.41800000000E+01 0.  1.
         -5    1    4    4    0  501 -0.57235405147E+02  0.22651225488E+02  0.13649176473E+03  0.14978799637E+03  0.41800000000E+01 0.  1.
</event>
<event>
11    1  0.7577197E-009  0.1368320E+03  0.7561462E-02  0.1111148E+00
         22   -1    0    0    0    0  0.00000000000E+00  0.00000000000E+00  0.12066127813E+04  0.12066127813E+04  0.00000000000E+00 0.  1.
         22   -1    0    0    0    0 -0.00000000000E+00 -0.00000000000E+00 -0.30905645646E+03  0.30905645646E+03  0.00000000000E+00 0. -1.
        -24    2    1    2    0    0  0.40033775658E+02 -0.13682501229E+02 -0.27335720863E+03  0.28807756704E+03  0.80464943223E+02 0.  0.
         25    2    1    2    0    0 -0.76660634207E+02 -0.25944726893E+02  0.18721478832E+03  0.23926484696E+03  0.12509319859E+03 0.  0.
         24    2    1    2    0    0  0.36626858549E+02  0.39627228122E+02  0.98369874512E+03  0.98832682373E+03  0.78834290601E+02 0.  0.
        -13    1    5    5    0    0  0.43221000233E+02  0.54651956855E+02  0.91685219306E+03  0.91949596800E+03  0.00000000000E+00 0.  1.
         14    1    5    5    0    0 -0.65941416835E+01 -0.15024728732E+02  0.66846552064E+02  0.68830855733E+02  0.00000000000E+00 0. -1.
         11    1    3    3    0    0  0.51347180895E+02 -0.35725275934E+02 -0.22764226876E+03  0.23608013650E+03  0.00000000000E+00 0. -1.
        -12    1    3    3    0    0 -0.11313405238E+02  0.22042774705E+02 -0.45714939873E+02  0.51997430536E+02  0.00000000000E+00 0.  1.
          5    1    4    4  501    0 -0.25398397112E+02  0.18833712148E+02  0.16423495073E+03  0.16730325380E+03  0.41800000000E+01 0. -1.
         -5    1    4    4    0  501 -0.51262237095E+02 -0.44778439041E+02  0.22979837589E+02  0.71961593163E+02  0.41800000000E+01 0. -1.
</event>
<event>
11    1  0.7577197E-009  0.2360088E+03  0.7561462E-02  0.1031628E+00
         22   -1    0    0    0    0  0.00000000000E+00  0.00000000000E+00  0.38684190608E+03  0.38684190608E+03  0.00000000000E+00 0.  1.
         22   -1    0    0    0    0 -0.00000000000E+00 -0.00000000000E+00 -0.42359176785E+03  0.42359176785E+03  0.00000000000E+00 0. -1.
        -24    2    1    2    0    0 -0.15960233612E+02 -0.20043447466E+03 -0.28515974738E+03  0.35838797745E+03  0.81836136072E+02 0.  0.
         25    2    1    2    0    0 -0.18496933996E+01  0.19707641394E+03  0.51561067396E+02  0.23904927044E+03  0.12507388109E+03 0.  0.
         24    2    1    2    0    0  0.17809927012E+02  0.33580607240E+01  0.19684881821E+03  0.21299642604E+03  0.79306684467E+02 0.  0.
        -13    1    5    5    0    0  0.16839489353E+02 -0.32596176782E+02  0.14710743863E+03  0.15161358001E+03  0.00000000000E+00 0.  1.
         14    1    5    5    0    0  0.97043765833E+00  0.35954237506E+02  0.49741379582E+02  0.61382846029E+02  0.00000000000E+00 0. -1.
         11    1    3    3    0    0 -0.41439402870E+02 -0.16868309735E+03 -0.25101832552E+03  0.30525630409E+03  0.00000000000E+00 0. -1.
        -12    1    3    3    0    0  0.25479169258E+02 -0.31751377315E+02 -0.34141421855E+02  0.53131673357E+02  0.00000000000E+00 0.  1.
          5    1    4    4  501    0  0.18964806922E+02  0.17894278618E+03 -0.47705385382E+00  0.17999412382E+03  0.41800000000E+01 0. -1.
         -5    1    4    4    0  501 -0.20814500321E+02  0.18133627754E+02  0.52038121250E+02  0.59055146620E+02  0.41800000000E+01 0. -1.
</event>
<event>
11    1  0.7577197E-009  0.1444446E+03  0.7561462E-02  0.1102694E+00
         22   -1    0    0    0    0  0.00000000000E+00  0.00000000000E+00  0.78195817353E+03  0.78195817353E+03  0.00000000000E+00 0. -1.
         22   -1    0    0    0    0 -0.00000000000E+00 -0.00000000000E+00 -0.72744518230E+03  0.72744518230E+03  0.00000000000E+00 0. -1.
         24    2    1    2    0    0  0.79565862710E+01 -0.69705586697E+02 -0.68835887950E+03  0.69645899632E+03  0.79341102088E+02 0.  0.
         25    2    1    2    0    0 -0.76557081014E+02  0.40456528163E+02  0.16582579320E+03  0.22504029642E+03  0.12508886441E+03 0.  0.
        -24    2    1    2    0    0  0.68600494743E+02  0.29249058534E+02  0.57704607753E+03  0.58790406309E+03  0.84187151596E+02 0.  0.
        -11    1    3    3    0    0  0.12619028812E+02 -0.23958885434E+02 -0.53745098249E+02  0.60181422925E+02  0.00000000000E+00 0.  1.
         12    1    3    3    0    0 -0.46624425407E+01 -0.45746701262E+02 -0.63461378125E+03  0.63627757339E+03  0.00000000000E+00 0. -1.
         11    1    5    5    0    0  0.76602676402E+02 -0.52274963994E+01  0.41416925483E+03  0.42122614876E+03  0.00000000000E+00 0. -1.
        -12    1    5    5    0    0 -0.80021816597E+01  0.34476554933E+02  0.16287682270E+03  0.16667791433E+03  0.00000000000E+00 0.  1.
          5    1    4    4  501    0 -0.49555616754E+02  0.62740026606E+02  0.17155860230E+03  0.18931956189E+03  0.41800000000E+01 0.  1.
         -5    1    4    4    0  501 -0.27001464259E+02 -0.22283498444E+02 -0.57328091056E+01  0.35720734529E+02  0.41800000000E+01 0.  1.
</event>
<event>
11    1  0.8439336E-009  0.1523804E+03  0.7561462E-02  0.1094471E+00
         22   -1    0    0    0    0  0.00000000000E+00  0.00000000000E+00  0.16270485758E+04  0.16270485758E+04  0.00000000000E+00 0. -1.
         22   -1    0    0    0    0 -0.00000000000E+00 -0.00000000000E+00 -0.28487988184E+03  0.28487988184E+03  0.00000000000E+00 0. -1.
         24    2    1    2    0    0 -0.33718641431E+02 -0.41170100612E+02 -0.23686028318E+03  0.25584667270E+03  0.80763867030E+02 0.  0.
         25    2    1    2    0    0  0.11842467853E+03  0.32774221213E+02  0.17676793999E+03  0.24898466516E+03  0.12509158572E+03 0.  0.
        -24    2    1    2    0    0 -0.84706037095E+02  0.83958793996E+01  0.14022610372E+04  0.14070971198E+04  0.79628416138E+02 0.  0.
        -11    1    3    3    0    0 -0.26461860638E+02 -0.26597181711E+02 -0.29182166819E+02  0.47531452783E+02  0.00000000000E+00 0.  1.
         12    1    3    3    0    0 -0.72567807929E+01 -0.14572918901E+02 -0.20767811636E+03  0.20831521991E+03  0.00000000000E+00 0. -1.
         11    1    5    5    0    0 -0.75528167950E+02  0.76105816422E+01  0.13882833330E+04  0.13903571619E+04  0.00000000000E+00 0. -1.
        -12    1    5    5    0    0 -0.91778691452E+01  0.78529775749E+00  0.13977704158E+02  0.16739957830E+02  0.00000000000E+00 0.  1.
          5    1    4    4  501    0 -0.35523372158E+01  0.16234511254E+02 -0.13853336071E+02  0.22035557076E+02  0.41800000000E+01 0.  1.
         -5    1    4    4    0  501  0.12197701574E+03  0.16539709958E+02  0.19062127606E+03  0.22694910809E+03  0.41800000000E+01 0.  1.
</event>
<event>
11    1  0.7577197E-009  0.1681692E+03  0.7561462E-02  0.1079636E+00
         22   -1    0    0    0    0  0.00000000000E+00  0.00000000000E+00  0.21548286817E+04  0.21548286817E+04  0.00000000000E+00 0.  1.
         22   -1    0    0    0    0 -0.00000000000E+00 -0.00000000000E+00 -0.33023973870E+03  0.33023973870E+03  0.00000000000E+00 0. -1.
        -24    2    1    2    0    0  0.66179171438E+01  0.32312076588E+02 -0.31195867464E+03  0.32344781971E+03  0.78818844611E+02 0.  0.
         25    2    1    2    0    0  0.28348852341E+02  0.84352041547E+02  0.64921102935E+03  0.66711391950E+03  0.12508835526E+03 0.  0.
         24    2    1    2    0    0 -0.34966769485E+02 -0.11666411813E+03  0.14873365883E+04  0.14945066812E+04  0.80912927415E+02 0.  0.
        -13    1    5    5    0    0 -0.16177913958E+01 -0.49256143285E+02  0.10171709915E+04  0.10183641838E+04  0.00000000000E+00 0.  1.
         14    1    5    5    0    0 -0.33348978089E+02 -0.67407974849E+02  0.47016559676E+03  0.47614249736E+03  0.00000000000E+00 0. -1.
         13    1    3    3    0    0  0.39375152837E+02  0.34716114181E+02 -0.19950983736E+03  0.20630023376E+03  0.00000000000E+00 0. -1.
        -14    1    3    3    0    0 -0.32757235694E+02 -0.24040375929E+01 -0.11244883728E+03  0.11714758595E+03  0.00000000000E+00 0.  1.
          5    1    4    4  501    0 -0.44162397283E+02  0.62027625736E+02  0.28236624375E+03  0.29248232715E+03  0.41800000000E+01 0.  1.
         -5    1    4    4    0  501  0.72511249624E+02  0.22324415810E+02  0.36684478560E+03  0.37463159235E+03  0.41800000000E+01 0.  1.
</event>
<event>
11    1  0.7577197E-009  0.1271332E+03  0.7561462E-02  0.1122842E+00
         22   -1    0    0    0    0  0.00000000000E+00  0.00000000000E+00  0.38595485732E+03  0.38595485732E+03  0.00000000000E+00 0.  1.
         22   -1    0    0    0    0 -0.00000000000E+00 -0.00000000000E+00 -0.28981259101E+03  0.28981259101E+03  0.00000000000E+00 0. -1.
         24    2    1    2    0    0  0.73517654860E+01 -0.23937535681E+02 -0.22031337142E+03  0.23606433990E+03  0.81002079475E+02 0.  0.
         25    2    1    2    0    0  0.29811542776E+01  0.31098542520E+01  0.12607429427E+02  0.12579771659E+03  0.12509020644E+03 0.  0.
        -24    2    1    2    0    0 -0.10332919764E+02  0.20827681429E+02  0.30384820830E+03  0.31390539183E+03  0.75314671813E+02 0.  0.
        -11    1    3    3    0    0 -0.44192016153E+01 -0.46652138651E+02 -0.74419670839E+02  0.87944521099E+02  0.00000000000E+00 0.  1.
         12    1    3    3    0    0  0.11770967101E+02  0.22714602970E+02 -0.14589370058E+03  0.14811981880E+03  0.00000000000E+00 0. -1.
         11    1    5    5    0    0  0.31107011453E+02  0.20566929779E+02  0.13646410312E+03  0.14146765072E+03  0.00000000000E+00 0. -1.
        -12    1    5    5    0    0 -0.41439931217E+02  0.26075165038E+00  0.16738410519E+03  0.17243774111E+03  0.00000000000E+00 0.  1.
          5    1    4    4  501    0  0.22138045469E+02 -0.56581311362E+02 -0.32838124945E+01  0.60990111306E+02  0.41800000000E+01 0.  1.
         -5    1    4    4    0  501 -0.19156891192E+02  0.59691165614E+02  0.15891241922E+02  0.64807605281E+02  0.41800000000E+01 0.  1.
</event>
<event>
11    1  0.7577197E-009  0.1508305E+03  0.7561462E-02  0.1096033E+00
         22   -1    0    0    0    0  0.00000000000E+00  0.00000000000E+00  0.77610913362E+03  0.77610913362E+03  0.00000000000E+00 0. -1.
         22   -1    0    0    0    0 -0.00000000000E+00 -0.00000000000E+00 -0.92224754066E+03  0.92224754066E+03  0.00000000000E+00 0.  1.
         24    2    1    2    0    0  0.13839159775E+01 -0.82620375764E+02 -0.78538004197E+03  0.79358457453E+03  0.78272759632E+02 0.  0.
         25    2    1    2    0    0 -0.27743985046E+02  0.10460850280E+03 -0.77139241897E+02  0.18251312108E+03  0.12509160307E+03 0.  0.
        -24    2    1    2    0    0  0.26360069068E+02 -0.21988127041E+02  0.71638087683E+03  0.72225897867E+03  0.85312019134E+02 0.  0.
        -13    1    3    3    0    0 -0.20751232894E+02 -0.65940890705E+02 -0.70843935956E+03  0.71180414505E+03  0.00000000000E+00 0.  1.
         14    1    3    3    0    0  0.22135148871E+02 -0.16679485059E+02 -0.76940682408E+02  0.81780429486E+02  0.00000000000E+00 0. -1.
         13    1    5    5    0    0  0.37044448280E+02  0.19421470308E+02  0.49644186460E+03  0.49820077237E+03  0.00000000000E+00 0. -1.
        -14    1    5    5    0    0 -0.10684379212E+02 -0.41409597348E+02  0.21993901222E+03  0.22405820630E+03  0.00000000000E+00 0.  1.
          5    1    4    4  501    0 -0.56391986887E+02  0.29585023515E+02 -0.79643575282E+02  0.10205832296E+03  0.41800000000E+01 0.  1.
         -5    1    4    4    0  501  0.28648001842E+02  0.75023479290E+02  0.25043333847E+01  0.80454798117E+02  0.41800000000E+01 0.  1.
</event>
<event>
11    1  0.7577197E-009  0.1882633E+03  0.7561462E-02  0.1063148E+00
         22   -1    0    0    0    0  0.00000000000E+00  0.00000000000E+00  0.17350302178E+03  0.17350302178E+03  0.00000000000E+00 0.  1.
         22   -1    0    0    0    0 -0.00000000000E+00 -0.00000000000E+00 -0.82707088590E+03  0.82707088590E+03  0.00000000000E+00 0.  1.
         24    2    1    2    0    0 -0.47793842645E+02 -0.70730235835E+01 -0.57659268185E+03  0.58385754558E+03  0.78078381859E+02 0.  0.
         25    2    1    2    0    0 -0.72554392355E+01  0.13892472579E+03 -0.14902528686E+03  0.23918242861E+03  0.12508787790E+03 0.  0.
        -24    2    1    2    0    0  0.55049281880E+02 -0.13185170220E+03  0.72050104597E+02  0.17753393349E+03  0.76888134062E+02 0.  0.
        -13    1    3    3    0    0  0.21596922840E+01 -0.25809323567E+02 -0.35456996116E+03  0.35551461688E+03  0.00000000000E+00 0.  1.
         14    1    3    3    0    0 -0.49953534929E+02  0.18736299984E+02 -0.22202272069E+03  0.22834292871E+03  0.00000000000E+00 0. -1.
         11    1    5    5    0    0  0.26059999403E+02 -0.99058551495E+02  0.11862003090E+02  0.10311366209E+03  0.00000000000E+00 0. -1.
        -12    1    5    5    0    0  0.28989282477E+02 -0.32793150707E+02  0.60188101507E+02  0.74420271397E+02  0.00000000000E+00 0.  1.
          5    1    4    4  501    0  0.49312470331E+02  0.18068506650E+02 -0.31954457697E+02  0.61617776895E+02  0.41800000000E+01 0. -1.
         -5    1    4    4    0  501 -0.56567909567E+02  0.12085621913E+03 -0.11707082917E+03  0.17756465171E+03  0.41800000000E+01 0. -1.
</event>
<event>
11    1  0.7577197E-009  0.1587401E+03  0.7561462E-02  0.1088268E+00
         22   -1    0    0    0    0  0.00000000000E+00  0.00000000000E+00  0.13911396080E+04  0.13911396080E+04  0.00000000000E+00 0.  1.
         22   -1    0    0    0    0 -0.00000000000E+00 -0.00000000000E+00 -0.44903852515E+03  0.44903852515E+03  0.00000000000E+00 0.  1.
        -24    2    1    2    0    0 -0.16296552671E+02  0.16993787558E+01 -0.41541181788E+03  0.42324958733E+03  0.79402576942E+02 0.  0.
         25    2    1    2    0    0  0.10707718184E+03  0.29394806028E+02  0.24098505922E+03  0.29334486756E+03  0.12509130690E+03 0.  0.
         24    2    1    2    0    0 -0.90780629169E+02 -0.31094184784E+02  0.11165278415E+04  0.11235836782E+04  0.81227398260E+02 0.  0.
        -11    1    5    5    0    0 -0.10627615184E+03 -0.28248650680E+02  0.97573502848E+03  0.98191214094E+03  0.00000000000E+00 0.  1.
         12    1    5    5    0    0  0.15495522669E+02 -0.28455341037E+01  0.14079281300E+03  0.14167153730E+03  0.00000000000E+00 0. -1.
         13    1    3    3    0    0 -0.47291985483E+02  0.11025195524E+02 -0.23661684769E+03  0.24154837908E+03  0.00000000000E+00 0. -1.
        -14    1    3    3    0    0  0.30995432811E+02 -0.93258167686E+01 -0.17879497019E+03  0.18170120825E+03  0.00000000000E+00 0.  1.
          5    1    4    4  501    0  0.10299493909E+03 -0.19562143258E+01  0.83521027770E+02  0.13268390533E+03  0.41800000000E+01 0. -1.
         -5    1    4    4    0  501  0.40822427461E+01  0.31351020354E+02  0.15746403145E+03  0.16066096223E+03  0.41800000000E+01 0. -1.
</event>
<event>
11    1  0.7577197E-009  0.2285352E+03  0.7561462E-02  0.1035999E+00
         22   -1    0    0    0    0  0.00000000000E+00  0.00000000000E+00  0.50069908978E+03  0.50069908978E+03  0.00000000000E+00 0.  1.
         22   -1    0    0    0    0 -0.00000000000E+00 -0.00000000000E+00 -0.13785967847E+04  0.13785967847E+04  0.00000000000E+00 0. -1.
         24    2    1    2    0    0 -0.22090599416E+03 -0.50004721197E+02 -0.10567960667E+04  0.10836418628E+04  0.78497324451E+02 0.  0.
         25    2    1    2    0    0  0.70686365369E+02  0.12879101893E+03 -0.25687327259E+03  0.32126969231E+03  0.12508656290E+03 0.  0.
        -24    2    1    2    0    0  0.15021962879E+03 -0.78786297733E+02  0.43577164435E+03  0.47438431934E+03  0.79814402417E+02 0.  0.
        -13    1    3    3    0    0 -0.16088823723E+03 -0.24523607048E+02 -0.88599721963E+03  0.90082046234E+03  0.00000000000E+00 0.  1.
         14    1    3    3    0    0 -0.60017756937E+02 -0.25481114150E+02 -0.17079884705E+03  0.18282140049E+03  0.00000000000E+00 0. -1.
         13    1    5    5    0    0  0.51725931282E+02 -0.17724678240E+02  0.24619118894E+03  0.25219008247E+03  0.00000000000E+00 0. -1.
        -14    1    5    5    0    0  0.98493697512E+02 -0.61061619493E+02  0.18958045540E+03  0.22219423687E+03  0.00000000000E+00 0.  1.
          5    1    4    4  501    0  0.33280610956E+02  0.78154955549E+02 -0.24191299706E+03  0.25642770266E+03  0.41800000000E+01 0. -1.
         -5    1    4    4    0  501  0.37405754413E+02  0.50636063381E+02 -0.14960275526E+02  0.64841989650E+02  0.41800000000E+01 0. -1.
</event>
<event>
11    1  0.7577197E-009  0.1444051E+03  0.7561462E-02  0.1102737E+00
         22   -1    0    0    0    0  0.00000000000E+00  0.00000000000E+00  0.64671511150E+03  0.64671511150E+03  0.00000000000E+00 0. -1.
         22   -1    0    0    0    0 -0.00000000000E+00 -0.00000000000E+00 -0.98064366445E+02  0.98064366445E+02  0.00000000000E+00 0. -1.
         24    2    1    2    0    0  0.17871271503E+01 -0.11194609706E+02 -0.34198311309E+02  0.87651987807E+02  0.79905152276E+02 0.  0.
         25    2    1    2    0    0  0.70665964863E+02  0.97967389638E+01  0.13821444240E+03  0.19960168215E+03  0.12509174532E+03 0.  0.
        -24    2    1    2    0    0 -0.72453092013E+02  0.13978707418E+01  0.44463461397E+03  0.45752580799E+03  0.79865639998E+02 0.  0.
        -11    1    3    3    0    0 -0.20879388581E+02  0.14276518351E+02  0.13771112676E+02  0.28799503261E+02  0.00000000000E+00 0.  1.
         12    1    3    3    0    0  0.22666515732E+02 -0.25471128057E+02 -0.47969423984E+02  0.58852484546E+02  0.00000000000E+00 0. -1.
         11    1    5    5    0    0 -0.78300465096E+02 -0.13734373404E+02  0.42342735911E+03  0.43082516673E+03  0.00000000000E+00 0. -1.
        -12    1    5    5    0    0  0.58473730832E+01  0.15132244146E+02  0.21207254856E+02  0.26700641254E+02  0.00000000000E+00 0.  1.
          5    1    4    4  501    0  0.63407915919E+02  0.60368586648E+02  0.60492481773E+02  0.10649761878E+03  0.41800000000E+01 0. -1.
         -5    1    4    4    0  501  0.72580489436E+01 -0.50571847684E+02  0.77721960627E+02  0.93104063372E+02  0.41800000000E+01 0. -1.
</event>
<event>
11    1  0.7577197E-009  0.1586259E+03  0.7561462E-02  0.1088377E+00
         22   -1    0    0    0    0  0.00000000000E+00  0.00000000000E+00  0.21965476865E+03  0.21965476865E+03  0.00000000000E+00 0.  1.
         22   -1    0    0    0    0 -0.00000000000E+00 -0.00000000000E+00 -0.15343650184E+04  0.15343650184E+04  0.00000000000E+00 0.  1.
         24    2    1    2    0    0 -0.66988777368E+02  0.32696275762E+02 -0.13518723870E+04  0.13563556591E+04  0.81149125414E+02 0.  0.
         25    2    1    2    0    0  0.62165483488E+02  0.69060176520E+02 -0.11781402916E+03  0.19534932819E+03  0.12508940498E+03 0.  0.
        -24    2    1    2    0    0  0.48232938798E+01 -0.10175645228E+03  0.15497616645E+03  0.20231479970E+03  0.80845694172E+02 0.  0.
        -13    1    3    3    0    0 -0.58458254744E+02 -0.16114486593E+02 -0.74246511847E+03  0.74493724324E+03  0.00000000000E+00 0.  1.
         14    1    3    3    0    0 -0.85305226244E+01  0.48810762356E+02 -0.60940726854E+03  0.61141841588E+03  0.00000000000E+00 0. -1.
         13    1    5    5    0    0  0.10882674589E+02 -0.93134170245E+02  0.70834310068E+02  0.11751555538E+03  0.00000000000E+00 0. -1.
        -14    1    5    5    0    0 -0.60593807095E+01 -0.86222820372E+01  0.84141856385E+02  0.84799244324E+02  0.00000000000E+00 0.  1.
          5    1    4    4  501    0  0.86171040251E+02  0.13420632758E+02 -0.98468107321E+02  0.13160167978E+03  0.41800000000E+01 0. -1.
         -5    1    4    4    0  501 -0.24005556763E+02  0.55639543762E+02 -0.19345921839E+02  0.63747648406E+02  0.41800000000E+01 0. -1.
</event>
<event>
11    1  0.7577197E-009  0.1629531E+03  0.7561462E-02  0.1084332E+00
         22   -1    0    0    0    0  0.00000000000E+00  0.00000000000E+00  0.74080364791E+02  0.74080364791E+02  0.00000000000E+00 0.  1.
         22   -1    0    0    0    0 -0.00000000000E+00 -0.00000000000E+00 -0.16822347371E+04  0.16822347371E+04  0.00000000000E+00 0.  1.
         24    2    1    2    0    0 -0.35914339711E+02  0.20474284566E+02 -0.77304130776E+03  0.77828544914E+03  0.80164460423E+02 0.  0.
         25    2    1    2    0    0 -0.11182333415E+02  0.75644006789E+02 -0.83076580182E+03  0.84360294852E+03  0.12508819663E+03 0.  0.
        -24    2    1    2    0    0  0.47096673126E+02 -0.96118291355E+02 -0.43472627391E+01  0.13442670424E+03  0.81208482113E+02 0.  0.
        -13    1    3    3    0    0 -0.14656318839E+02  0.15044524297E+02 -0.72679549469E+03  0.72709891796E+03  0.00000000000E+00 0.  1.
         14    1    3    3    0    0 -0.21258020872E+02  0.54297602690E+01 -0.46245813065E+02  0.51186531177E+02  0.00000000000E+00 0. -1.
         11    1    5    5    0    0 -0.15761981234E+02  0.37350993030E+01  0.16561517696E+01  0.16282931490E+02  0.00000000000E+00 0. -1.
        -12    1    5    5    0    0  0.62858654360E+02 -0.99853390658E+02 -0.60034145087E+01  0.11814377275E+03  0.00000000000E+00 0.  1.
          5    1    4    4  501    0  0.32323832415E+02  0.32314976458E+02 -0.66824821984E+03  0.66982254633E+03  0.41800000000E+01 0. -1.
         -5    1    4    4    0  501 -0.43506165829E+02  0.43329030331E+02 -0.16251758197E+03  0.17378040219E+03  0.41800000000E+01 0. -1.
</event>
<event>
11    1  0.7577197E-009  0.2270197E+03  0.7561462E-02  0.1036907E+00
         22   -1    0    0    0    0  0.00000000000E+00  0.00000000000E+00  0.16424472654E+04  0.16424472654E+04  0.00000000000E+00 0. -1.
         22   -1    0    0    0    0 -0.00000000000E+00 -0.00000000000E+00 -0.19628870107E+04  0.19628870107E+04  0.00000000000E+00 0. -1.
         24    2    1    2    0    0  0.41499419886E+02  0.28238329405E+02 -0.19294886371E+04  0.19317408819E+04  0.78592803294E+02 0.  0.
         25    2    1    2    0    0 -0.15912002827E+03  0.11777073502E+03  0.60090276817E+03  0.64491927097E+03  0.12509036674E+03 0.  0.
        -24    2    1    2    0    0  0.11762060838E+03 -0.14600906443E+03  0.10081461237E+04  0.10286741233E+04  0.81600188482E+02 0.  0.
        -11    1    3    3    0    0 -0.20926963756E+01 -0.16880213902E+02 -0.99656600527E+03  0.99671115367E+03  0.00000000000E+00 0.  1.
         12    1    3    3    0    0  0.43592116262E+02  0.45118543307E+02 -0.93292263187E+03  0.93502972820E+03  0.00000000000E+00 0. -1.
         13    1    5    5    0    0  0.10965750009E+03 -0.80919455403E+02  0.75318963622E+03  0.76541972387E+03  0.00000000000E+00 0. -1.
        -14    1    5    5    0    0  0.79631082888E+01 -0.65089609026E+02  0.25495648751E+03  0.26325439943E+03  0.00000000000E+00 0.  1.
          5    1    4    4  501    0 -0.37577912841E+02  0.78749264299E+01  0.24671506929E+02  0.45828699020E+02  0.41800000000E+01 0.  1.
         -5    1    4    4    0  501 -0.12154211543E+03  0.10989580859E+03  0.57623126124E+03  0.59909057195E+03  0.41800000000E+01 0.  1.
</event>
<event>
11    1  0.7577197E-009  0.1864943E+03  0.7561462E-02  0.1064508E+00
         22   -1    0    0    0    0  0.00000000000E+00  0.00000000000E+00  0.82728989994E+03  0.82728989994E+03  0.00000000000E+00 0. -1.
         22   -1    0    0    0    0 -0.00000000000E+00 -0.00000000000E+00 -0.24034721567E+03  0.24034721567E+03  0.00000000000E+00 0.  1.
         24    2    1    2    0    0 -0.11776995788E+03 -0.69224800957E+02 -0.97738763739E+02  0.18640066590E+03  0.80811547848E+02 0.  0.
         25    2    1    2    0    0  0.11412555453E+03  0.85401110154E+02 -0.21425023260E+01  0.18965523141E+03  0.12508606906E+03 0.  0.
        -24    2    1    2    0    0  0.36444033452E+01 -0.16176309197E+02  0.68682395033E+03  0.69158121830E+03  0.79262147930E+02 0.  0.
        -11    1    3    3    0    0 -0.11275966846E+03 -0.82616332392E+02 -0.10007051200E+03  0.17191366607E+03  0.00000000000E+00 0.  1.
         12    1    3    3    0    0 -0.50102894157E+01  0.13391531435E+02  0.23317482606E+01  0.14486999833E+02  0.00000000000E+00 0. -1.
         13    1    5    5    0    0 -0.19943332431E+02  0.81847030095E+01  0.55652067145E+03  0.55693804289E+03  0.00000000000E+00 0. -1.
        -14    1    5    5    0    0  0.23587735776E+02 -0.24361012206E+02  0.13030327888E+03  0.13464317540E+03  0.00000000000E+00 0.  1.
          5    1    4    4  501    0  0.72360100777E+02 -0.14144191823E+02 -0.27298919575E+02  0.78732113884E+02  0.41800000000E+01 0. -1.
         -5    1    4    4    0  501  0.41765453753E+02  0.99545301976E+02  0.25156417249E+02  0.11092311753E+03  0.41800000000E+01 0. -1.
</event>
<event>
11    1  0.7577197E-009  0.1674206E+03  0.7561462E-02  0.1080298E+00
         22   -1    0    0    0    0  0.00000000000E+00  0.00000000000E+00  0.14309595995E+03  0.14309595995E+03  0.00000000000E+00 0. -1.
         22   -1    0    0    0    0 -0.00000000000E+00 -0.00000000000E+00 -0.11578999666E+04  0.11578999666E+04  0.00000000000E+00 0.  1.
         24    2    1    2    0    0  0.71079246961E+02  0.81903887534E+02 -0.95781701117E+03  0.96719304790E+03  0.79299803758E+02 0.  0.
         25    2    1    2    0    0 -0.59072382220E+02 -0.14704248979E+03 -0.91452217164E+02  0.22163413568E+03  0.12508853636E+03 0.  0.
        -24    2    1    2    0    0 -0.12006864741E+02  0.65138602257E+02  0.34465221668E+02  0.11216874299E+03  0.83706469852E+02 0.  0.
        -11    1    3    3    0    0  0.85071209638E+02  0.61859302139E+02 -0.85814151543E+03  0.86456378856E+03  0.00000000000E+00 0.  1.
         12    1    3    3    0    0 -0.13991962676E+02  0.20044585394E+02 -0.99675495736E+02  0.10262925934E+03  0.00000000000E+00 0. -1.
         11    1    5    5    0    0  0.17729326329E+02  0.55933857058E+02  0.50262969834E+02  0.77261190219E+02  0.00000000000E+00 0. -1.
        -12    1    5    5    0    0 -0.29736191071E+02  0.92047451990E+01 -0.15797748166E+02  0.34907552774E+02  0.00000000000E+00 0.  1.
          5    1    4    4  501    0 -0.50639123924E+02 -0.47753036776E+02  0.19540127579E+02  0.72415208202E+02  0.41800000000E+01 0.  1.
         -5    1    4    4    0  501 -0.84332582964E+01 -0.99289453015E+02 -0.11099234474E+03  0.14921892748E+03  0.41800000000E+01 0.  1.
</event>
<event>
11    1  0.7577197E-009  0.1489591E+03  0.7561462E-02  0.1097947E+00
         22   -1    0    0    0    0  0.00000000000E+00  0.00000000000E+00  0.32579633554E+03  0.32579633554E+03  0.00000000000E+00 0.  1.
         22   -1    0    0    0    0 -0.00000000000E+00 -0.00000000000E+00 -0.33410166191E+03  0.33410166191E+03  0.00000000000E+00 0.  1.
        -24    2    1    2    0    0 -0.65863240686E+02 -0.43130169675E+02 -0.21898773733E+03  0.24651212202E+03  0.81329079646E+02 0.  0.
         25    2    1    2    0    0  0.53338820289E+02  0.82948742951E+02 -0.21699968573E+02  0.16076240329E+03  0.12509251764E+03 0.  0.
         24    2    1    2    0    0  0.12524420397E+02 -0.39818573276E+02  0.23238237953E+03  0.25262347214E+03  0.89859159123E+02 0.  0.
        -11    1    5    5    0    0  0.29280477103E+02 -0.27941125128E+02  0.22807465361E+03  0.23163786485E+03  0.00000000000E+00 0.  1.
         12    1    5    5    0    0 -0.16756056706E+02 -0.11877448148E+02  0.43077259175E+01  0.20985607292E+02  0.00000000000E+00 0. -1.
         13    1    3    3    0    0  0.14077768643E+02 -0.28351419609E+02 -0.68831463307E+02  0.75761183365E+02  0.00000000000E+00 0. -1.
        -14    1    3    3    0    0 -0.79941009329E+02 -0.14778750066E+02 -0.15015627402E+03  0.17075093866E+03  0.00000000000E+00 0.  1.
          5    1    4    4  501    0 -0.12817611924E+02 -0.10297732639E+02  0.30584098020E+02  0.34974189406E+02  0.41800000000E+01 0. -1.
         -5    1    4    4    0  501  0.66156432213E+02  0.93246475590E+02 -0.52284066593E+02  0.12578821389E+03  0.41800000000E+01 0. -1.
</event>
<event>
11    1  0.7577197E-009  0.1391791E+03  0.7561462E-02  0.1108478E+00
         22   -1    0    0    0    0  0.00000000000E+00  0.00000000000E+00  0.50277389378E+03  0.50277389378E+03  0.00000000000E+00 0.  1.
         22   -1    0    0    0    0 -0.00000000000E+00 -0.00000000000E+00 -0.77428564066E+03  0.77428564066E+03  0.00000000000E+00 0.  1.
         24    2    1    2    0    0 -0.60290746109E+02 -0.68083363987E+01 -0.70595938744E+03  0.71628115422E+03  0.10487472366E+03 0.  0.
         25    2    1    2    0    0  0.59461297338E+02  0.72393324148E+02  0.58502510209E+02  0.16686974266E+03  0.12508608257E+03 0.  0.
        -24    2    1    2    0    0  0.82944877113E+00 -0.65584987750E+02  0.37594513035E+03  0.39390863757E+03  0.97607351754E+02 0.  0.
        -11    1    3    3    0    0 -0.84104928599E+02 -0.14991708024E+02 -0.64003310400E+03  0.64570950476E+03  0.00000000000E+00 0.  1.
         12    1    3    3    0    0  0.23814182490E+02  0.81833716252E+01 -0.65926283435E+02  0.70571649452E+02  0.00000000000E+00 0. -1.
         13    1    5    5    0    0 -0.17894745285E+01 -0.61874312717E+02  0.97907937236E+02  0.11583435141E+03  0.00000000000E+00 0. -1.
        -14    1    5    5    0    0  0.26189232996E+01 -0.37106750323E+01  0.27803719311E+03  0.27807428616E+03  0.00000000000E+00 0.  1.
          5    1    4    4  501    0 -0.35371223559E+02  0.63393392874E+01 -0.22327307194E+01  0.36245939981E+02  0.41800000000E+01 0.  1.
         -5    1    4    4    0  501  0.94832520896E+02  0.66053984861E+02  0.60735240928E+02  0.13062380268E+03  0.41800000000E+01 0.  1.
</event>
<event>
11    1  0.7577197E-009  0.2653951E+03  0.7561462E-02  0.1016003E+00
         22   -1    0    0    0    0  0.00000000000E+00  0.00000000000E+00  0.25268279718E+04  0.25268279718E+04  0.00000000000E+00 0. -1.
         22   -1    0    0    0    0 -0.00000000000E+00 -0.00000000000E+00 -0.42255343433E+03  0.42255343433E+03  0.00000000000E+00 0. -1.
        -24    2    1    2    0    0 -0.20822062679E+02 -0.19954445007E+01 -0.30158282212E+03  0.31245346819E+03  0.78977408763E+02 0.  0.
         25    2    1    2    0    0 -0.21376077985E+03 -0.14996753864E+02  0.31524562003E+02  0.25011790540E+03  0.12508635001E+03 0.  0.
         24    2    1    2    0    0  0.23458284253E+03  0.16992198364E+02  0.23743327976E+04  0.23868100325E+04  0.63937883341E+02 0.  0.
        -11    1    5    5    0    0  0.16460102841E+02 -0.14996196748E+02  0.28902163091E+03  0.28987811928E+03  0.00000000000E+00 0.  1.
         12    1    5    5    0    0  0.21812273969E+03  0.31988395113E+02  0.20853111667E+04  0.20969319132E+04  0.00000000000E+00 0. -1.
         11    1    3    3    0    0  0.13020687944E+01 -0.24602002490E+02 -0.25475502169E+03  0.25594349960E+03  0.00000000000E+00 0. -1.
        -12    1    3    3    0    0 -0.22124131473E+02  0.22606557990E+02 -0.46827800429E+02  0.56509968595E+02  0.00000000000E+00 0.  1.
          5    1    4    4  501    0 -0.16049176542E+03 -0.13775426548E+02 -0.34888463003E+02  0.16486978618E+03  0.41800000000E+01 0.  1.
         -5    1    4    4    0  501 -0.53269014432E+02 -0.12213273152E+01  0.66413025007E+02  0.85248119214E+02  0.41800000000E+01 0.  1.
</event>
<event>
11    1  0.7577197E-009  0.1435350E+03  0.7561462E-02  0.1103674E+00
         22   -1    0    0    0    0  0.00000000000E+00  0.00000000000E+00  0.32778189833E+03  0.32778189833E+03  0.00000000000E+00 0.  1.
         22   -1    0    0    0    0 -0.00000000000E+00 -0.00000000000E+00 -0.22619325217E+03  0.22619325217E+03  0.00000000000E+00 0. -1.
         24    2    1    2    0    0 -0.46397335936E+02  0.50344402211E+02 -0.16253535427E+03  0.19390330074E+03  0.80582113621E+02 0.  0.
         25    2    1    2    0    0  0.47224279493E+02 -0.83905840483E+02  0.15903428314E+03  0.22407421313E+03  0.12508807751E+03 0.  0.
        -24    2    1    2    0    0 -0.82694355733E+00  0.33561438273E+02  0.10508971728E+03  0.13599763662E+03  0.79526439088E+02 0.  0.
        -13    1    3    3    0    0 -0.66976709344E+02  0.21671147902E+02 -0.10543141505E+03  0.12677263714E+03  0.00000000000E+00 0.  1.
         14    1    3    3    0    0  0.20579373408E+02  0.28673254308E+02 -0.57103939214E+02  0.67130663606E+02  0.00000000000E+00 0. -1.
         11    1    5    5    0    0 -0.37735516098E+02  0.21824697796E+01  0.43185760170E+02  0.57391133731E+02  0.00000000000E+00 0. -1.
        -12    1    5    5    0    0  0.36908572541E+02  0.31378968493E+02  0.61903957112E+02  0.78606502891E+02  0.00000000000E+00 0.  1.
          5    1    4    4  501    0 -0.24351377556E+02 -0.55511050654E+02  0.18063478873E+02  0.63389494418E+02  0.41800000000E+01 0. -1.
         -5    1    4    4    0  501  0.71575657049E+02 -0.28394789830E+02  0.14097080427E+03  0.16068471871E+03  0.41800000000E+01 0. -1.
</event>
<event>
11    1  0.7577197E-009  0.1487128E+03  0.7561462E-02  0.1098201E+00
         22   -1    0    0    0    0  0.00000000000E+00  0.00000000000E+00  0.45944834081E+03  0.45944834081E+03  0.00000000000E+00 0.  1.
         22   -1    0    0    0    0 -0.00000000000E+00 -0.00000000000E+00 -0.11888572825E+04  0.11888572825E+04  0.00000000000E+00 0. -1.
        -24    2    1    2    0    0  0.55935398948E+02  0.58608186786E+02 -0.11447329570E+04  0.11505425853E+04  0.82286143452E+02 0.  0.
         25    2    1    2    0    0 -0.49751224571E+02 -0.26078751752E+02  0.96904652702E+02  0.16791016036E+03  0.12509206449E+03 0.  0.
         24    2    1    2    0    0 -0.61841743774E+01 -0.32529435035E+02  0.31841936260E+03  0.32985287762E+03  0.79470889274E+02 0.  0.
        -11    1    5    5    0    0 -0.37082884050E+02 -0.37101610934E+02  0.15986895709E+03  0.16825502448E+03  0.00000000000E+00 0.  1.
         12    1    5    5    0    0  0.30898709672E+02  0.45721758989E+01  0.15855040551E+03  0.16159785314E+03  0.00000000000E+00 0. -1.
         13    1    3    3    0    0  0.18891027175E+02  0.34356458426E+02 -0.95126827737E+03  0.95207592800E+03  0.00000000000E+00 0. -1.
        -14    1    3    3    0    0  0.37044371773E+02  0.24251728361E+02 -0.19346467964E+03  0.19846665734E+03  0.00000000000E+00 0.  1.
          5    1    4    4  501    0 -0.82834502863E+02 -0.43900783274E+01  0.26741084819E+02  0.87254717177E+02  0.41800000000E+01 0.  1.
         -5    1    4    4    0  501  0.33083278293E+02 -0.21688673424E+02  0.70163567883E+02  0.80655443186E+02  0.41800000000E+01 0.  1.
</event>
<event>
11    1  0.7577197E-009  0.1373271E+03  0.7561462E-02  0.1110580E+00
         22   -1    0    0    0    0  0.00000000000E+00  0.00000000000E+00  0.11782957952E+03  0.11782957952E+03  0.00000000000E+00 0. -1.
         22   -1    0    0    0    0 -0.00000000000E+00 -0.00000000000E+00 -0.13658591312E+04  0.13658591312E+04  0.00000000000E+00 0. -1.
        -24    2    1    2    0    0  0.16901361873E+00  0.44861016079E+02 -0.97340842761E+03  0.97775341882E+03  0.80406727049E+02 0.  0.
         25    2    1    2    0    0 -0.11390655056E+02 -0.97652268179E+02 -0.34895440319E+03  0.38351153229E+03  0.12508480082E+03 0.  0.
         24    2    1    2    0    0  0.11221641437E+02  0.52791252100E+02  0.74333279080E+02  0.12242375963E+03  0.80927739423E+02 0.  0.
        -13    1    5    5    0    0  0.58453794220E+01  0.25832310720E+02 -0.13967584966E+02  0.29942781559E+02  0.00000000000E+00 0.  1.
         14    1    5    5    0    0  0.53762620152E+01  0.26958941380E+02  0.88300864046E+02  0.92480978071E+02  0.00000000000E+00 0. -1.
         13    1    3    3    0    0 -0.13167388637E+02  0.52641961437E+02 -0.93169813535E+03  0.93327700692E+03  0.00000000000E+00 0. -1.
        -14    1    3    3    0    0  0.13336402255E+02 -0.77809453577E+01 -0.41710292257E+02  0.44476411905E+02  0.00000000000E+00 0.  1.
          5    1    4    4  501    0  0.35687099192E+02 -0.10508987917E+03 -0.25231900156E+03  0.27568061720E+03  0.41800000000E+01 0. -1.
         -5    1    4    4    0  501 -0.47077754248E+02  0.74376109866E+01 -0.96635401623E+02  0.10783091509E+03  0.41800000000E+01 0. -1.
</event>
<event>
11    1  0.7577197E-009  0.1616645E+03  0.7561462E-02  0.1085522E+00
         22   -1    0    0    0    0  0.00000000000E+00  0.00000000000E+00  0.41648708949E+03  0.41648708949E+03  0.00000000000E+00 0. -1.
         22   -1    0    0    0    0 -0.00000000000E+00 -0.00000000000E+00 -0.36148731792E+03  0.36148731792E+03  0.00000000000E+00 0. -1.
         24    2    1    2    0    0 -0.43697362401E+02  0.88417757295E+02 -0.27387251100E+03  0.30196639906E+03  0.80314348629E+02 0.  0.
         25    2    1    2    0    0  0.12739412429E+03 -0.26823975408E+02  0.86422143370E+02  0.20016214759E+03  0.12508920778E+03 0.  0.
        -24    2    1    2    0    0 -0.83696761885E+02 -0.61593781888E+02  0.24245013920E+03  0.27584586076E+03  0.80684118537E+02 0.  0.
        -11    1    3    3    0    0 -0.14354962519E+02  0.37279807983E+02 -0.27158883727E+02  0.48305838130E+02  0.00000000000E+00 0.  1.
         12    1    3    3    0    0 -0.29342399882E+02  0.51137949312E+02 -0.24671362727E+03  0.25366056093E+03  0.00000000000E+00 0. -1.
         13    1    5    5    0    0 -0.88275522599E+02 -0.31923776821E+02  0.21720330954E+03  0.23661989158E+03  0.00000000000E+00 0. -1.
        -14    1    5    5    0    0  0.45787607138E+01 -0.29670005066E+02  0.25246829659E+02  0.39225969180E+02  0.00000000000E+00 0.  1.
          5    1    4    4  501    0  0.15051099357E+03 -0.34495966794E+02  0.65504299399E+02  0.16778503077E+03  0.41800000000E+01 0.  1.
         -5    1    4    4    0  501 -0.23116869282E+02  0.76719913869E+01  0.20917843971E+02  0.32377116821E+02  0.41800000000E+01 0.  1.
</event>
<event>
11    1  0.7577197E-009  0.1285648E+03  0.7561462E-02  0.1121045E+00
         22   -1    0    0    0    0  0.00000000000E+00  0.00000000000E+00  0.28889674090E+03  0.28889674090E+03  0.00000000000E+00 0.  1.
         22   -1    0    0    0    0 -0.00000000000E+00 -0.00000000000E+00 -0.26628571764E+03  0.26628571764E+03  0.00000000000E+00 0.  1.
        -24    2    1    2    0    0 -0.14527717750E+02 -0.62191072171E+00 -0.18608044848E+03  0.20324322348E+03  0.80439003148E+02 0.  0.
         25    2    1    2    0    0  0.41234131392E+02 -0.83477381853E+01  0.51304131580E+01  0.13206686287E+03  0.12508156061E+03 0.  0.
         24    2    1    2    0    0 -0.26706413642E+02  0.89696489071E+01  0.20356105859E+03  0.21987237220E+03  0.78186113561E+02 0.  0.
        -11    1    5    5    0    0 -0.13135920645E+02 -0.54034998338E+01  0.19910249485E+03  0.19960850101E+03  0.00000000000E+00 0.  1.
         12    1    5    5    0    0 -0.13570492997E+02  0.14373148741E+02  0.44585637355E+01  0.20263871187E+02  0.00000000000E+00 0. -1.
         13    1    3    3    0    0 -0.17345507665E+02  0.36680122570E+02 -0.12692097832E+03  0.13324876272E+03  0.00000000000E+00 0. -1.
        -14    1    3    3    0    0  0.28177899146E+01 -0.37302033291E+02 -0.59159470157E+02  0.69994460759E+02  0.00000000000E+00 0.  1.
          5    1    4    4  501    0 -0.72524203585E+01  0.66461138588E-01  0.58648210935E+02  0.59242611894E+02  0.41800000000E+01 0. -1.
         -5    1    4    4    0  501  0.48486551750E+02 -0.84141993239E+01 -0.53517797777E+02  0.72824250973E+02  0.41800000000E+01 0. -1.
</event>
<event>
11    1  0.7577197E-009  0.2007045E+03  0.7561462E-02  0.1054027E+00
         22   -1    0    0    0    0  0.00000000000E+00  0.00000000000E+00  0.22382459609E+04  0.22382459609E+04  0.00000000000E+00 0.  1.
         22   -1    0    0    0    0 -0.00000000000E+00 -0.00000000000E+00 -0.22701945903E+03  0.22701945903E+03  0.00000000000E+00 0. -1.
         24    2    1    2    0    0 -0.40258953860E+01 -0.87885145291E+02 -0.18067707496E+03  0.22291401891E+03  0.96469932168E+02 0.  0.
         25    2    1    2    0    0  0.12600710900E+03  0.16928387488E+03  0.71316524054E+03  0.75417960624E+03  0.12508955332E+03 0.  0.
        -24    2    1    2    0    0 -0.12198121362E+03 -0.81398729594E+02  0.14787383363E+04  0.14881717948E+04  0.80517413782E+02 0.  0.
        -11    1    3    3    0    0 -0.41934521244E+02 -0.62762721945E+02 -0.68743869720E+02  0.10209497031E+03  0.00000000000E+00 0.  1.
         12    1    3    3    0    0  0.37908625858E+02 -0.25122423346E+02 -0.11193320524E+03  0.12081904860E+03  0.00000000000E+00 0. -1.
         13    1    5    5    0    0  0.78812419128E+01 -0.97327185996E+01  0.42840765917E+02  0.44633742950E+02  0.00000000000E+00 0. -1.
        -14    1    5    5    0    0 -0.12986245553E+03 -0.71666010994E+02  0.14358975704E+04  0.14435380519E+04  0.00000000000E+00 0.  1.
          5    1    4    4  501    0  0.68801900321E+02  0.10047681603E+03  0.20741187544E+03  0.24055446477E+03  0.41800000000E+01 0. -1.
         -5    1    4    4    0  501  0.57205208681E+02  0.68807058856E+02  0.50575336509E+03  0.51362514147E+03  0.41800000000E+01 0. -1.
</event>
<event>
11    1  0.7577197E-009  0.1343929E+03  0.7561462E-02  0.1113986E+00
         22   -1    0    0    0    0  0.00000000000E+00  0.00000000000E+00  0.59691643067E+03  0.59691643067E+03  0.00000000000E+00 0.  1.
         22   -1    0    0    0    0 -0.00000000000E+00 -0.00000000000E+00 -0.13266761819E+04  0.13266761819E+04  0.00000000000E+00 0.  1.
        -24    2    1    2    0    0  0.40285297237E+02  0.29418289789E+02 -0.12589804096E+04  0.12627178211E+04  0.83284349711E+02 0.  0.
         25    2    1    2    0    0  0.97403170956E+01 -0.45785466399E+02  0.11268470725E+02  0.13403902566E+03  0.12509316231E+03 0.  0.
         24    2    1    2    0    0 -0.50025614332E+02  0.16367176610E+02  0.51795218765E+03  0.52683576585E+03  0.80690823068E+02 0.  0.
        -13    1    5    5    0    0 -0.16935633759E+02  0.47750915620E+02  0.28254358461E+03  0.28705024445E+03  0.00000000000E+00 0.  1.
         14    1    5    5    0    0 -0.33089980574E+02 -0.31383739010E+02  0.23540860303E+03  0.23978552139E+03  0.00000000000E+00 0. -1.
         11    1    3    3    0    0  0.27260285082E+02 -0.25964781916E+02 -0.36733775301E+03  0.36926185536E+03  0.00000000000E+00 0. -1.
        -12    1    3    3    0    0  0.13025012155E+02  0.55383071705E+02 -0.89164265664E+03  0.89345596574E+03  0.00000000000E+00 0.  1.
          5    1    4    4  501    0 -0.22223133581E+02 -0.68904973053E+02 -0.28451850676E+02  0.77902138510E+02  0.41800000000E+01 0.  1.
         -5    1    4    4    0  501  0.31963450676E+02  0.23119506653E+02  0.39720321401E+02  0.56136887153E+02  0.41800000000E+01 0.  1.
</event>
<event>
11    1  0.7577197E-009  0.4637647E+04  0.7561462E-02  0.7432542E-01
         22   -1    0    0    0    0  0.00000000000E+00  0.00000000000E+00  0.25794812503E+04  0.25794812503E+04  0.00000000000E+00 0.  1.
         22   -1    0    0    0    0 -0.00000000000E+00 -0.00000000000E+00 -0.20845056401E+04  0.20845056401E+04  0.00000000000E+00 0.  1.
         24    2    1    2    0    0  0.23546675420E+03  0.39875770174E+03  0.21647871418E+02  0.47041245632E+03  0.79793180714E+02 0.  0.
         25    2    1    2    0    0 -0.74303277565E+03 -0.20894147673E+04 -0.34232967400E+03  0.22473518912E+04  0.12509652948E+03 0.  0.
        -24    2    1    2    0    0  0.50756602145E+03  0.16906570656E+04  0.81565741271E+03  0.19462225429E+04  0.80873926071E+02 0.  0.
        -13    1    3    3    0    0  0.12662852460E+03  0.14015568880E+03 -0.14306735914E+01  0.18889268692E+03  0.00000000000E+00 0.  1.
         14    1    3    3    0    0  0.10883822960E+03  0.25860201294E+03  0.23078545010E+02  0.28151976939E+03  0.00000000000E+00 0. -1.
         13    1    5    5    0    0  0.11027832901E+03  0.32755587610E+03  0.19317649728E+03  0.39594358300E+03  0.00000000000E+00 0. -1.
        -14    1    5    5    0    0  0.39728769244E+03  0.13631011895E+04  0.62248091543E+03  0.15502789599E+04  0.00000000000E+00 0.  1.
          5    1    4    4  501    0 -0.40365784519E+03 -0.12145515811E+04 -0.14117177753E+03  0.12876420862E+04  0.41800000000E+01 0. -1.
         -5    1    4    4    0  501 -0.33937493046E+03 -0.87486318624E+03 -0.20115789647E+03  0.95970980498E+03  0.41800000000E+01 0. -1.
</event>
<event>
11    1  0.1336598E-008  0.1701073E+03  0.7561462E-02  0.1077938E+00
         22   -1    0    0    0    0  0.00000000000E+00  0.00000000000E+00  0.50626038084E+03  0.50626038084E+03  0.00000000000E+00 0.  1.
         22   -1    0    0    0    0 -0.00000000000E+00 -0.00000000000E+00 -0.71703240214E+03  0.71703240214E+03  0.00000000000E+00 0.  1.
        -24    2    1    2    0    0 -0.43241121378E+02  0.29564705124E+02 -0.44934563319E+03  0.45930685921E+03  0.79419308033E+02 0.  0.
         25    2    1    2    0    0  0.66352076328E+02  0.84192233116E+02 -0.22522021600E+03  0.27903889103E+03  0.12509047472E+03 0.  0.
         24    2    1    2    0    0 -0.23110954949E+02 -0.11375693824E+03  0.46379382788E+03  0.48494703273E+03  0.81204387391E+02 0.  0.
        -11    1    5    5    0    0 -0.18098049875E+02 -0.10824671624E+03  0.46466227999E+03  0.47744730121E+03  0.00000000000E+00 0.  1.
         12    1    5    5    0    0 -0.50129050741E+01 -0.55102220019E+01 -0.86845210652E+00  0.74997315187E+01  0.00000000000E+00 0. -1.
         11    1    3    3    0    0  0.16867154468E+02 -0.22858739491E+01 -0.20389165745E+03  0.20460091421E+03  0.00000000000E+00 0. -1.
        -12    1    3    3    0    0 -0.60108275847E+02  0.31850579073E+02 -0.24545397574E+03  0.25470594500E+03  0.00000000000E+00 0.  1.
          5    1    4    4  501    0  0.30674391378E+02 -0.12416211946E+02 -0.14400069828E+03  0.14781324065E+03  0.41800000000E+01 0.  1.
         -5    1    4    4    0  501  0.35677684950E+02  0.96608445062E+02 -0.81219517717E+02  0.13122565038E+03  0.41800000000E+01 0.  1.
</event>
<event>
11    1  0.7577197E-009  0.1351813E+03  0.7561462E-02  0.1113062E+00
         22   -1    0    0    0    0  0.00000000000E+00  0.00000000000E+00  0.89816660063E+03  0.89816660063E+03  0.00000000000E+00 0.  1.
         22   -1    0    0    0    0 -0.00000000000E+00 -0.00000000000E+00 -0.43859817868E+03  0.43859817868E+03  0.00000000000E+00 0. -1.
        -24    2    1    2    0    0  0.16070449279E+01  0.53111089013E+02 -0.33626146762E+03  0.34948370652E+03  0.79017188935E+02 0.  0.
         25    2    1    2    0    0 -0.26412928411E+02 -0.36222940333E+02 -0.46224056757E+02  0.14069083653E+03  0.12508998308E+03 0.  0.
         24    2    1    2    0    0  0.24805883483E+02 -0.16888148679E+02  0.84205394633E+03  0.84659023625E+03  0.82217018668E+02 0.  0.
        -13    1    5    5    0    0 -0.11125571270E+02 -0.10150715618E+02  0.69140667254E+03  0.69157067766E+03  0.00000000000E+00 0.  1.
         14    1    5    5    0    0  0.35931454754E+02 -0.67374330614E+01  0.15064727379E+03  0.15501955859E+03  0.00000000000E+00 0. -1.
         11    1    3    3    0    0  0.13898273653E+02  0.36015623037E+02 -0.32140395490E+03  0.32371405490E+03  0.00000000000E+00 0. -1.
        -12    1    3    3    0    0 -0.12291228725E+02  0.17095465976E+02 -0.14857512722E+02  0.25769651624E+02  0.00000000000E+00 0.  1.
          5    1    4    4  501    0 -0.69719193818E+02 -0.80313270230E+01  0.13646223680E+01  0.70317869668E+02  0.41800000000E+01 0. -1.
         -5    1    4    4    0  501  0.43306265407E+02 -0.28191613310E+02 -0.47588679125E+02  0.70372966865E+02  0.41800000000E+01 0. -1.
</event>
<event>
11    1  0.7577197E-009  0.1428601E+03  0.7561462E-02  0.1104406E+00
         22   -1    0    0    0    0  0.00000000000E+00  0.00000000000E+00  0.16655708401E+04  0.16655708401E+04  0.00000000000E+00 0.  1.
         22   -1    0    0    0    0 -0.00000000000E+00 -0.00000000000E+00 -0.22538231972E+04  0.22538231972E+04  0.00000000000E+00 0. -1.
        -24    2    1    2    0    0  0.88663619182E+01  0.33707629811E+02 -0.20504198409E+04  0.20522849829E+04  0.80232852981E+02 0.  0.
         25    2    1    2    0    0 -0.10259435391E+02  0.35590903325E+02 -0.17947671525E+03  0.22187770919E+03  0.12508340459E+03 0.  0.
         24    2    1    2    0    0  0.13930734730E+01 -0.69298533136E+02  0.16416441990E+04  0.16452313452E+04  0.83583944824E+02 0.  0.
        -11    1    5    5    0    0  0.32683169392E+02 -0.17862365074E+02  0.10196734865E+04  0.10203535038E+04  0.00000000000E+00 0.  1.
         12    1    5    5    0    0 -0.31290095919E+02 -0.51436168063E+02  0.62197071245E+03  0.62487784137E+03  0.00000000000E+00 0. -1.
         11    1    3    3    0    0 -0.10555484956E+02  0.41387486357E+02 -0.18934672143E+04  0.18939488995E+04  0.00000000000E+00 0. -1.
        -12    1    3    3    0    0  0.19421846874E+02 -0.76798565462E+01 -0.15695262655E+03  0.15833608342E+03  0.00000000000E+00 0.  1.
          5    1    4    4  501    0 -0.58039066889E+02 -0.14804143118E+02 -0.95755329717E+02  0.11302323437E+03  0.41800000000E+01 0. -1.
         -5    1    4    4    0  501  0.47779631497E+02  0.50395046444E+02 -0.83721385538E+02  0.10885447482E+03  0.41800000000E+01 0. -1.
</event>
<event>
11    1  0.7577197E-009  0.1546812E+03  0.7561462E-02  0.1092189E+00
         22   -1    0    0    0    0  0.00000000000E+00  0.00000000000E+00  0.51876650553E+03  0.51876650553E+03  0.00000000000E+00 0.  1.
         22   -1    0    0    0    0 -0.00000000000E+00 -0.00000000000E+00 -0.44854952785E+03  0.44854952785E+03  0.00000000000E+00 0. -1.
        -24    2    1    2    0    0 -0.83759004139E+02  0.48918675855E+02 -0.39033181341E+03  0.41022212157E+03  0.80713424171E+02 0.  0.
         25    2    1    2    0    0 -0.23510163686E+02 -0.47835631308E+01  0.78102470394E+02  0.14942497047E+03  0.12510881522E+03 0.  0.
         24    2    1    2    0    0  0.10726916783E+03 -0.44135112725E+02  0.38244632070E+03  0.40766894135E+03  0.80462382429E+02 0.  0.
        -11    1    5    5    0    0  0.42046895582E+02 -0.11451155623E+02  0.27091116456E+03  0.27439374897E+03  0.00000000000E+00 0.  1.
         12    1    5    5    0    0  0.65222272244E+02 -0.32683957102E+02  0.11153515614E+03  0.13327519238E+03  0.00000000000E+00 0. -1.
         11    1    3    3    0    0 -0.91539792891E+02  0.55483201733E+02 -0.38299929919E+03  0.39767622828E+03  0.00000000000E+00 0. -1.
        -12    1    3    3    0    0  0.77807887515E+01 -0.65645258781E+01 -0.73325142147E+01  0.12545893285E+02  0.00000000000E+00 0.  1.
          5    1    4    4  501    0  0.29379816163E+02 -0.28722943379E+02  0.81239622926E+02  0.91134679499E+02  0.41800000000E+01 0. -1.
         -5    1    4    4    0  501 -0.52889979849E+02  0.23939380248E+02 -0.31371525320E+01  0.58290290968E+02  0.41800000000E+01 0. -1.
</event>
<event>
11    1  0.9982699E-009  0.1735989E+03  0.7561462E-02  0.1074942E+00
         22   -1    0    0    0    0  0.00000000000E+00  0.00000000000E+00  0.43320109334E+03  0.43320109334E+03  0.00000000000E+00 0. -1.
         22   -1    0    0    0    0 -0.00000000000E+00 -0.00000000000E+00 -0.75714894360E+03  0.75714894360E+03  0.00000000000E+00 0. -1.
         24    2    1    2    0    0 -0.11107202702E+03  0.41434852850E+02 -0.61111012253E+03  0.62779988732E+03  0.81383502290E+02 0.  0.
         25    2    1    2    0    0  0.99357625572E+02 -0.11960381187E+03 -0.50880717663E+02  0.20594413781E+03  0.12508849226E+03 0.  0.
        -24    2    1    2    0    0  0.11714401453E+02  0.78168959018E+02  0.33804298993E+03  0.35660601182E+03  0.81530186238E+02 0.  0.
        -11    1    3    3    0    0  0.10367016306E+02 -0.75321145482E+01 -0.50327402900E+02  0.51933180717E+02  0.00000000000E+00 0.  1.
         12    1    3    3    0    0 -0.12143904333E+03  0.48966967399E+02 -0.56078271963E+03  0.57586670660E+03  0.00000000000E+00 0. -1.
         13    1    5    5    0    0 -0.68904548336E+01  0.82958712703E+02  0.31851019410E+03  0.32920870299E+03  0.00000000000E+00 0. -1.
        -14    1    5    5    0    0  0.18604856286E+02 -0.47897536852E+01  0.19532795828E+02  0.27397308822E+02  0.00000000000E+00 0.  1.
          5    1    4    4  501    0 -0.24291027252E+02 -0.13015554958E+02 -0.30593125964E+02  0.41386838875E+02  0.41800000000E+01 0.  1.
         -5    1    4    4    0  501  0.12364865282E+03 -0.10658825691E+03 -0.20287591699E+02  0.16455729894E+03  0.41800000000E+01 0.  1.
</event>
<event>
11    1  0.7577197E-009  0.1381115E+03  0.7561462E-02  0.1109686E+00
         22   -1    0    0    0    0  0.00000000000E+00  0.00000000000E+00  0.48327446307E+03  0.48327446307E+03  0.00000000000E+00 0. -1.
         22   -1    0    0    0    0 -0.00000000000E+00 -0.00000000000E+00 -0.14068008995E+03  0.14068008995E+03  0.00000000000E+00 0. -1.
        -24    2    1    2    0    0  0.62187052576E+01 -0.11438018965E+02 -0.87172671868E+02  0.11917952047E+03  0.80219591160E+02 0.  0.
         25    2    1    2    0    0  0.38739025106E+01  0.66854193492E+02  0.14192804522E+03  0.20068541059E+03  0.12508626502E+03 0.  0.
         24    2    1    2    0    0 -0.10092607768E+02 -0.55416174527E+02  0.28783899976E+03  0.30408962196E+03  0.80289446802E+02 0.  0.
        -13    1    5    5    0    0 -0.40287567372E+02 -0.87031884764E+01  0.99223824661E+02  0.10744394331E+03  0.00000000000E+00 0.  1.
         14    1    5    5    0    0  0.30194959603E+02 -0.46712986051E+02  0.18861517510E+03  0.19664567865E+03  0.00000000000E+00 0. -1.
         11    1    3    3    0    0  0.12432680840E+02 -0.11600045116E+02 -0.10183977283E+03  0.10324956141E+03  0.00000000000E+00 0. -1.
        -12    1    3    3    0    0 -0.62139755822E+01  0.16202615109E+00  0.14667100967E+02  0.15929959064E+02  0.00000000000E+00 0.  1.
          5    1    4    4  501    0  0.45301659035E+02  0.73483507074E+02  0.13132079051E+03  0.15720905999E+03  0.41800000000E+01 0.  1.
         -5    1    4    4    0  501 -0.41427756524E+02 -0.66293135819E+01  0.10607254710E+02  0.43476350602E+02  0.41800000000E+01 0.  1.
</event>
<event>
11    1  0.7577197E-009  0.3539004E+03  0.7561462E-02  0.9796514E-01
         22   -1    0    0    0    0  0.00000000000E+00  0.00000000000E+00  0.16540069705E+04  0.16540069705E+04  0.00000000000E+00 0.  1.
         22   -1    0    0    0    0 -0.00000000000E+00 -0.00000000000E+00 -0.44299566759E+03  0.44299566759E+03  0.00000000000E+00 0. -1.
        -24    2    1    2    0    0 -0.86945645506E+02 -0.29165420110E+03 -0.21913684407E+03  0.39124645498E+03  0.11149490489E+03 0.  0.
         25    2    1    2    0    0  0.20401051333E+03  0.44605573191E+03  0.37381588614E+03  0.62926262006E+03  0.12508845972E+03 0.  0.
         24    2    1    2    0    0 -0.11706486782E+03 -0.15440153082E+03  0.10563322609E+04  0.10764935631E+04  0.73868328783E+02 0.  0.
        -13    1    5    5    0    0 -0.12674307177E+03 -0.14773329758E+03  0.10162534425E+04  0.10347270137E+04  0.00000000000E+00 0.  1.
         14    1    5    5    0    0  0.96782039521E+01 -0.66682332406E+01  0.40078818358E+02  0.41766549381E+02  0.00000000000E+00 0. -1.
         11    1    3    3    0    0 -0.50460783749E+02 -0.13269171562E+03 -0.16879855005E+03  0.22055913626E+03  0.00000000000E+00 0. -1.
        -12    1    3    3    0    0 -0.36484861757E+02 -0.15896248548E+03 -0.50338294025E+02  0.17068731872E+03  0.00000000000E+00 0.  1.
          5    1    4    4  501    0  0.11866101761E+03  0.38018262634E+03  0.29555772455E+03  0.49597490603E+03  0.41800000000E+01 0. -1.
         -5    1    4    4    0  501  0.85349495712E+02  0.65873105576E+02  0.78258161595E+02  0.13328771404E+03  0.41800000000E+01 0. -1.
</event>
<event>
11    1  0.7577197E-009  0.1432127E+03  0.7561462E-02  0.1104023E+00
         22   -1    0    0    0    0  0.00000000000E+00  0.00000000000E+00  0.48082711578E+03  0.48082711578E+03  0.00000000000E+00 0. -1.
         22   -1    0    0    0    0 -0.00000000000E+00 -0.00000000000E+00 -0.45526588687E+03  0.45526588687E+03  0.00000000000E+00 0.  1.
         24    2    1    2    0    0 -0.35197763671E+02  0.29159978975E+02 -0.41448228961E+03  0.42451383716E+03  0.79543966421E+02 0.  0.
         25    2    1    2    0    0  0.27760167759E+02  0.49868118952E+02  0.17080709952E+03  0.21927075172E+03  0.12508853310E+03 0.  0.
        -24    2    1    2    0    0  0.74375959116E+01 -0.79028097926E+02  0.26923641900E+03  0.29230841377E+03  0.81579417472E+02 0.  0.
        -11    1    3    3    0    0  0.50834579910E+01  0.44981667181E+02 -0.26710638636E+03  0.27091514089E+03  0.00000000000E+00 0.  1.
         12    1    3    3    0    0 -0.40281221662E+02 -0.15821688206E+02 -0.14737590325E+03  0.15359869627E+03  0.00000000000E+00 0. -1.
         11    1    5    5    0    0 -0.11984273726E+01 -0.31498043366E+02  0.22373757449E+03  0.22594704070E+03  0.00000000000E+00 0. -1.
        -12    1    5    5    0    0  0.86360232842E+01 -0.47530054561E+02  0.45498844510E+02  0.66361373075E+02  0.00000000000E+00 0.  1.
          5    1    4    4  501    0 -0.37619584197E+02  0.60214415246E+02  0.91210642911E+02  0.11566271093E+03  0.41800000000E+01 0.  1.
         -5    1    4    4    0  501  0.65379751957E+02 -0.10346296294E+02  0.79596456608E+02  0.10360804080E+03  0.41800000000E+01 0.  1.
</event>
<event>
11    1  0.7577197E-009  0.1443918E+03  0.7561462E-02  0.1102751E+00
         22   -1    0    0    0    0  0.00000000000E+00  0.00000000000E+00  0.14052289427E+03  0.14052289427E+03  0.00000000000E+00 0. -1.
         22   -1    0    0    0    0 -0.00000000000E+00 -0.00000000000E+00 -0.19637706290E+04  0.19637706290E+04  0.00000000000E+00 0.  1.
        -24    2    1    2    0    0  0.10482776164E+02 -0.21699738915E+02 -0.11085386921E+04  0.11117094798E+04  0.80368950175E+02 0.  0.
         25    2    1    2    0    0  0.40989797647E+02 -0.29680861952E+02 -0.82601832191E+03  0.83696622738E+03  0.12508029647E+03 0.  0.
         24    2    1    2    0    0 -0.51472573811E+02  0.51380600867E+02  0.11130927931E+03  0.15561781615E+03  0.80856397659E+02 0.  0.
        -11    1    5    5    0    0 -0.46296728003E+02  0.55307115511E+02  0.37070911572E+02  0.81095724516E+02  0.00000000000E+00 0.  1.
         12    1    5    5    0    0 -0.51758458078E+01 -0.39265146437E+01  0.74238367738E+02  0.74522091634E+02  0.00000000000E+00 0. -1.
         11    1    3    3    0    0  0.45416988783E+02 -0.10356413310E+02 -0.55345153991E+03  0.55540846699E+03  0.00000000000E+00 0. -1.
        -12    1    3    3    0    0 -0.34934212619E+02 -0.11343325605E+02 -0.55508715222E+03  0.55630101277E+03  0.00000000000E+00 0.  1.
          5    1    4    4  501    0  0.60950869860E+01 -0.39531372061E+02 -0.76361246425E+03  0.76467074445E+03  0.41800000000E+01 0. -1.
         -5    1    4    4    0  501  0.34894710661E+02  0.98505101091E+01 -0.62405857663E+02  0.72295482931E+02  0.41800000000E+01 0. -1.
</event>
<event>
11    1  0.7577197E-009  0.1274356E+03  0.7561462E-02  0.1122461E+00
         22   -1    0    0    0    0  0.00000000000E+00  0.00000000000E+00  0.17410343979E+03  0.17410343979E+03  0.00000000000E+00 0.  1.
         22   -1    0    0    0    0 -0.00000000000E+00 -0.00000000000E+00 -0.46001081162E+03  0.46001081162E+03  0.00000000000E+00 0.  1.
         24    2    1    2    0    0  0.21733567274E+02  0.18543443099E+02 -0.33958186400E+03  0.35021796066E+03  0.80750048830E+02 0.  0.
         25    2    1    2    0    0 -0.23782184391E+01  0.13704642804E+02 -0.61942015772E+02  0.14027562546E+03  0.12508782764E+03 0.  0.
        -24    2    1    2    0    0 -0.19355348835E+02 -0.32248085903E+02  0.11561650794E+03  0.14362066529E+03  0.76453580795E+02 0.  0.
        -11    1    3    3    0    0 -0.29313452915E+01  0.47456454011E+02 -0.18011638483E+03  0.18628639214E+03  0.00000000000E+00 0.  1.
         12    1    3    3    0    0  0.24664912565E+02 -0.28913010912E+02 -0.15946547916E+03  0.16393156852E+03  0.00000000000E+00 0. -1.
         13    1    5    5    0    0  0.29095640344E+02 -0.19702440519E+02  0.49072364292E+02  0.60355939117E+02  0.00000000000E+00 0. -1.
        -14    1    5    5    0    0 -0.48450989178E+02 -0.12545645383E+02  0.66544143647E+02  0.83264726170E+02  0.00000000000E+00 0.  1.
          5    1    4    4  501    0  0.67613575390E+01  0.11159396101E+02  0.37691338876E+02  0.40104332726E+02  0.41800000000E+01 0.  1.
         -5    1    4    4    0  501 -0.91395759781E+01  0.25452467035E+01 -0.99633354648E+02  0.10017129274E+03  0.41800000000E+01 0.  1.
</event>
<event>
11    1  0.7577197E-009  0.2141685E+03  0.7561462E-02  0.1044933E+00
         22   -1    0    0    0    0  0.00000000000E+00  0.00000000000E+00  0.54295468489E+03  0.54295468489E+03  0.00000000000E+00 0. -1.
         22   -1    0    0    0    0 -0.00000000000E+00 -0.00000000000E+00 -0.71797030089E+03  0.71797030089E+03  0.00000000000E+00 0.  1.
        -24    2    1    2    0    0 -0.16845377138E+03  0.99210981949E+01 -0.56856568414E+03  0.59825816034E+03  0.78554363001E+02 0.  0.
         25    2    1    2    0    0  0.21633616403E+03  0.11757600077E+02 -0.71676345286E+01  0.25028438358E+03  0.12510523831E+03 0.  0.
         24    2    1    2    0    0 -0.47882392651E+02 -0.21678698272E+02  0.40071770267E+03  0.41238244186E+03  0.81987265129E+02 0.  0.
        -13    1    5    5    0    0 -0.29487554065E+02  0.17112526110E+02  0.60320922176E+02  0.69289018226E+02  0.00000000000E+00 0.  1.
         14    1    5    5    0    0 -0.18394838586E+02 -0.38791224382E+02  0.34039678049E+03  0.34309342364E+03  0.00000000000E+00 0. -1.
         11    1    3    3    0    0 -0.73743030199E+02  0.38432184679E+02 -0.19877629920E+03  0.21546945131E+03  0.00000000000E+00 0. -1.
        -12    1    3    3    0    0 -0.94710741178E+02 -0.28511086484E+02 -0.36978938494E+03  0.38278870903E+03  0.00000000000E+00 0.  1.
          5    1    4    4  501    0  0.12364894625E+03 -0.42961580203E+01  0.57053321947E+02  0.13630874083E+03  0.41800000000E+01 0. -1.
         -5    1    4    4    0  501  0.92687217781E+02  0.16053758097E+02 -0.64220956476E+02  0.11397564275E+03  0.41800000000E+01 0. -1.
</event>
<event>
11    1  0.7577197E-009  0.1308348E+03  0.7561462E-02  0.1118247E+00
         22   -1    0    0    0    0  0.00000000000E+00  0.00000000000E+00  0.22540360953E+03  0.22540360953E+03  0.00000000000E+00 0. -1.
         22   -1    0    0    0    0 -0.00000000000E+00 -0.00000000000E+00 -0.17065254741E+03  0.17065254741E+03  0.00000000000E+00 0. -1.
        -24    2    1    2    0    0 -0.97679593469E+01  0.11613396503E+00 -0.20225044989E+02  0.84937353682E+02  0.81913827214E+02 0.  0.
         25    2    1    2    0    0  0.24677318584E+02  0.34744207637E+02 -0.63273757635E+02  0.14651665688E+03  0.12508969710E+03 0.  0.
         24    2    1    2    0    0 -0.14909359237E+02 -0.34860341602E+02  0.13824986474E+03  0.16460214637E+03  0.80890723074E+02 0.  0.
        -13    1    5    5    0    0  0.90663746705E+01  0.22632053167E+02  0.22603062736E+02  0.33246164068E+02  0.00000000000E+00 0.  1.
         14    1    5    5    0    0 -0.23975733907E+02 -0.57492394769E+02  0.11564680201E+03  0.13135598230E+03  0.00000000000E+00 0. -1.
         11    1    3    3    0    0  0.17381744141E+02 -0.24874631573E+02 -0.33978910856E+02  0.45556983090E+02  0.00000000000E+00 0. -1.
        -12    1    3    3    0    0 -0.27149703488E+02  0.24990765538E+02  0.13753865867E+02  0.39380370592E+02  0.00000000000E+00 0.  1.
          5    1    4    4  501    0  0.15608311510E+02  0.53557356845E+02  0.20878410647E+02  0.59710889221E+02  0.41800000000E+01 0. -1.
         -5    1    4    4    0  501  0.90690070738E+01 -0.18813149208E+02 -0.84152168283E+02  0.86805767660E+02  0.41800000000E+01 0. -1.
</event>
<event>
11    1  0.7577197E-009  0.3291002E+03  0.7561462E-02  0.9885759E-01
         22   -1    0    0    0    0  0.00000000000E+00  0.00000000000E+00  0.21261841822E+03  0.21261841822E+03  0.00000000000E+00 0.  1.
         22   -1    0    0    0    0 -0.00000000000E+00 -0.00000000000E+00 -0.21095515647E+04  0.21095515647E+04  0.00000000000E+00 0. -1.
        -24    2    1    2    0    0 -0.89287628027E+02  0.15671801751E+03 -0.14677490603E+04  0.14811015161E+04  0.82713840147E+02 0.  0.
         25    2    1    2    0    0 -0.10068216085E+02 -0.40609697418E+03 -0.34745287727E+03  0.54898692357E+03  0.12508804462E+03 0.  0.
         24    2    1    2    0    0  0.99355844111E+02  0.24937895668E+03 -0.81731208891E+02  0.29208154326E+03  0.81056706161E+02 0.  0.
        -11    1    5    5    0    0  0.42404388531E+02  0.20159730888E+03 -0.57299718031E+02  0.21382905509E+03  0.00000000000E+00 0.  1.
         12    1    5    5    0    0  0.56951455580E+02  0.47781647794E+02 -0.24431490860E+02  0.78252488167E+02  0.00000000000E+00 0. -1.
         13    1    3    3    0    0 -0.40339331615E+02  0.14093211713E+03 -0.10434804040E+04  0.10537269460E+04  0.00000000000E+00 0. -1.
        -14    1    3    3    0    0 -0.48948296412E+02  0.15785900381E+02 -0.42426865635E+03  0.42737457006E+03  0.00000000000E+00 0.  1.
          5    1    4    4  501    0 -0.12676412655E+02 -0.34091560046E+03 -0.34249814136E+03  0.48343209172E+03  0.41800000000E+01 0.  1.
         -5    1    4    4    0  501  0.26081965701E+01 -0.65181373726E+02 -0.49547359109E+01  0.65554831844E+02  0.41800000000E+01 0.  1.
</event>
<event>
11    1  0.7577197E-009  0.1301028E+03  0.7561462E-02  0.1119143E+00
         22   -1    0    0    0    0  0.00000000000E+00  0.00000000000E+00  0.38513566596E+03  0.38513566596E+03  0.00000000000E+00 0. -1.
         22   -1    0    0    0    0 -0.00000000000E+00 -0.00000000000E+00 -0.97551743829E+03  0.97551743829E+03  0.00000000000E+00 0.  1.
        -24    2    1    2    0    0 -0.33913908386E+01  0.36342895177E+02 -0.90398570007E+03  0.90858374650E+03  0.83677780278E+02 0.  0.
         25    2    1    2    0    0  0.22086337354E+02 -0.12888281510E+02  0.99523307349E+00  0.12768205256E+03  0.12509117459E+03 0.  0.
         24    2    1    2    0    0 -0.18694946516E+02 -0.23454613668E+02  0.31260869467E+03  0.32438730518E+03  0.81260739910E+02 0.  0.
        -11    1    5    5    0    0  0.21493487767E+02 -0.38182210563E+02  0.15903024807E+03  0.16495596691E+03  0.00000000000E+00 0.  1.
         12    1    5    5    0    0 -0.40188434283E+02  0.14727596896E+02  0.15357844660E+03  0.15943133826E+03  0.00000000000E+00 0. -1.
         13    1    3    3    0    0 -0.22174575889E+01  0.62621199277E+02 -0.53391160758E+03  0.53757598200E+03  0.00000000000E+00 0. -1.
        -14    1    3    3    0    0 -0.11739332497E+01 -0.26278304100E+02 -0.37007409250E+03  0.37100776450E+03  0.00000000000E+00 0.  1.
          5    1    4    4  501    0  0.11068679002E+02 -0.27446297898E+02  0.59319874966E+02  0.66423902995E+02  0.41800000000E+01 0.  1.
         -5    1    4    4    0  501  0.11017658352E+02  0.14558016388E+02 -0.58324641892E+02  0.61258149569E+02  0.41800000000E+01 0.  1.
</event>
<event>
11    1  0.7577197E-009  0.2377491E+03  0.7561462E-02  0.1030636E+00
         22   -1    0    0    0    0  0.00000000000E+00  0.00000000000E+00  0.63829096007E+03  0.63829096007E+03  0.00000000000E+00 0.  1.
         22   -1    0    0    0    0 -0.00000000000E+00 -0.00000000000E+00 -0.39754036217E+03  0.39754036217E+03  0.00000000000E+00 0.  1.
         24    2    1    2    0    0 -0.15367131357E+03 -0.12753034289E+03 -0.21181250982E+03  0.30209476672E+03  0.80733188908E+02 0.  0.
         25    2    1    2    0    0  0.20915326850E+03  0.67824526565E+02 -0.14024659528E+02  0.25335733748E+03  0.12509193920E+03 0.  0.
        -24    2    1    2    0    0 -0.55481954922E+02  0.59705816322E+02  0.46658776724E+03  0.48037921804E+03  0.80106284166E+02 0.  0.
        -13    1    3    3    0    0 -0.12781582450E+03 -0.80689606920E+02 -0.10953972882E+03  0.18667257390E+03  0.00000000000E+00 0.  1.
         14    1    3    3    0    0 -0.25855489074E+02 -0.46840735967E+02 -0.10227278100E+03  0.11542219282E+03  0.00000000000E+00 0. -1.
         13    1    5    5    0    0  0.32932295345E+01  0.24276101548E+02  0.31464479037E+02  0.39877160233E+02  0.00000000000E+00 0. -1.
        -14    1    5    5    0    0 -0.58775184457E+02  0.35429714774E+02  0.43512328820E+03  0.44050205781E+03  0.00000000000E+00 0.  1.
          5    1    4    4  501    0  0.14315186058E+03  0.42227475052E+02  0.50362147342E+02  0.15757358002E+03  0.41800000000E+01 0. -1.
         -5    1    4    4    0  501  0.66001407918E+02  0.25597051513E+02 -0.64386806871E+02  0.95783757456E+02  0.41800000000E+01 0. -1.
</event>
<event>
11    1  0.7577197E-009  0.2736034E+03  0.7561462E-02  0.1012026E+00
         22   -1    0    0    0    0  0.00000000000E+00  0.00000000000E+00  0.48225193356E+03  0.48225193356E+03  0.00000000000E+00 0. -1.
         22   -1    0    0    0    0 -0.00000000000E+00 -0.00000000000E+00 -0.13360813071E+04  0.13360813071E+04  0.00000000000E+00 0.  1.
         24    2    1    2    0    0 -0.46902547820E+02  0.91234623829E+02 -0.85966461224E+03  0.86947162812E+03  0.80212598723E+02 0.  0.
         25    2    1    2    0    0  0.25786069536E+03 -0.19823123630E+03 -0.36318920813E+03  0.50333165381E+03  0.12509433068E+03 0.  0.
        -24    2    1    2    0    0 -0.21095814754E+03  0.10699661247E+03  0.36902444683E+03  0.44552995873E+03  0.79789013470E+02 0.  0.
        -11    1    3    3    0    0 -0.15376085071E+02  0.96963828237E+02 -0.65082254383E+03  0.65818568166E+03  0.00000000000E+00 0.  1.
         12    1    3    3    0    0 -0.31526462749E+02 -0.57292044074E+01 -0.20884206841E+03  0.21128594646E+03  0.00000000000E+00 0. -1.
         11    1    5    5    0    0 -0.18053345133E+03  0.99848959073E+02  0.25884012981E+03  0.33099902488E+03  0.00000000000E+00 0. -1.
        -12    1    5    5    0    0 -0.30424696216E+02  0.71476533958E+01  0.11018431703E+03  0.11453093385E+03  0.00000000000E+00 0.  1.
          5    1    4    4  501    0  0.30595375741E+02 -0.36360145269E+02 -0.13396298953E+03  0.14220299626E+03  0.41800000000E+01 0.  1.
         -5    1    4    4    0  501  0.22726531962E+03 -0.16187109103E+03 -0.22922621860E+03  0.36112865756E+03  0.41800000000E+01 0.  1.
</event>
<event>
11    1  0.7577197E-009  0.1863267E+03  0.7561462E-02  0.1064637E+00
         22   -1    0    0    0    0  0.00000000000E+00  0.00000000000E+00  0.49439915345E+03  0.49439915345E+03  0.00000000000E+00 0.  1.
         22   -1    0    0    0    0 -0.00000000000E+00 -0.00000000000E+00 -0.97997800955E+03  0.97997800955E+03  0.00000000000E+00 0. -1.
         24    2    1    2    0    0  0.27063598772E+02  0.95139951603E+02 -0.71895108472E+03  0.73009039432E+03  0.79732508392E+02 0.  0.
         25    2    1    2    0    0  0.30353011383E+02 -0.21606242138E+03 -0.17548349751E+03  0.30666942670E+03  0.12508958447E+03 0.  0.
        -24    2    1    2    0    0 -0.57416610155E+02  0.12092246977E+03  0.40885572614E+03  0.43761734198E+03  0.80168712006E+02 0.  0.
        -11    1    3    3    0    0 -0.15033002365E+02  0.25398600931E+02 -0.68903557474E+02  0.74958524011E+02  0.00000000000E+00 0.  1.
         12    1    3    3    0    0  0.42096601137E+02  0.69741350673E+02 -0.65004752725E+03  0.65513187031E+03  0.00000000000E+00 0. -1.
         11    1    5    5    0    0 -0.58748384516E+02  0.75122454197E+02  0.17483523029E+03  0.19915349245E+03  0.00000000000E+00 0. -1.
        -12    1    5    5    0    0  0.13317743613E+01  0.45800015577E+02  0.23402049585E+03  0.23846384952E+03  0.00000000000E+00 0.  1.
          5    1    4    4  501    0  0.68145449179E+02 -0.16516651631E+03 -0.16307279388E+03  0.24193798556E+03  0.41800000000E+01 0.  1.
         -5    1    4    4    0  501 -0.37792437796E+02 -0.50895905071E+02 -0.12410703631E+02  0.64731441141E+02  0.41800000000E+01 0.  1.
</event>
<event>
11    1  0.7577197E-009  0.1777308E+03  0.7561462E-02  0.1071493E+00
         22   -1    0    0    0    0  0.00000000000E+00  0.00000000000E+00  0.62839757627E+03  0.62839757627E+03  0.00000000000E+00 0. -1.
         22   -1    0    0    0    0 -0.00000000000E+00 -0.00000000000E+00 -0.11882571061E+03  0.11882571061E+03  0.00000000000E+00 0.  1.
         24    2    1    2    0    0  0.63439828665E+02  0.10807249043E+03 -0.23320728170E+02  0.15034080118E+03  0.79713393409E+02 0.  0.
         25    2    1    2    0    0 -0.71195587325E+02 -0.11229677486E+03  0.43149124564E+03  0.46852129455E+03  0.12509249013E+03 0.  0.
        -24    2    1    2    0    0  0.77557586597E+01  0.42242844271E+01  0.10140134819E+03  0.12836119115E+03  0.78207196650E+02 0.  0.
        -11    1    3    3    0    0  0.50993702565E+02  0.49006025235E+02 -0.47628568234E+02  0.85266809033E+02  0.00000000000E+00 0.  1.
         12    1    3    3    0    0  0.12446126100E+02  0.59066465197E+02  0.24307840064E+02  0.65073992150E+02  0.00000000000E+00 0. -1.
         13    1    5    5    0    0 -0.29983196427E+02 -0.11815530822E+01  0.78134092657E+02  0.83697817002E+02  0.00000000000E+00 0. -1.
        -14    1    5    5    0    0  0.37738955087E+02  0.54058375092E+01  0.23267255529E+02  0.44663374146E+02  0.00000000000E+00 0.  1.
          5    1    4    4  501    0 -0.36906072711E+02 -0.57094793079E+02  0.58195484099E+02  0.89588282544E+02  0.41800000000E+01 0. -1.
         -5    1    4    4    0  501 -0.34289514614E+02 -0.55201981780E+02  0.37329576154E+03  0.37893301201E+03  0.41800000000E+01 0. -1.
</event>
<event>
11    1  0.7577197E-009  0.1834245E+03  0.7561462E-02  0.1066906E+00
         22   -1    0    0    0    0  0.00000000000E+00  0.00000000000E+00  0.13473377319E+04  0.13473377319E+04  0.00000000000E+00 0.  1.
         22   -1    0    0    0    0 -0.00000000000E+00 -0.00000000000E+00 -0.29950202403E+03  0.29950202403E+03  0.00000000000E+00 0. -1.
        -24    2    1    2    0    0 -0.12847733478E+03 -0.35868144254E+02 -0.25647163445E+03  0.30009645206E+03  0.80543354413E+02 0.  0.
         25    2    1    2    0    0  0.14668629160E+03  0.39263725035E+02  0.48647844317E+03  0.52475443116E+03  0.12508968426E+03 0.  0.
         24    2    1    2    0    0 -0.18208956820E+02 -0.33955807811E+01  0.81782889911E+03  0.82198887266E+03  0.80489145150E+02 0.  0.
        -13    1    5    5    0    0 -0.26584790009E+02 -0.35977447179E+02  0.58951429166E+03  0.59120912360E+03  0.00000000000E+00 0.  1.
         14    1    5    5    0    0  0.83758331893E+01  0.32581866398E+02  0.22831460745E+03  0.23077974906E+03  0.00000000000E+00 0. -1.
         11    1    3    3    0    0 -0.93689043152E+02 -0.23926440572E+02 -0.24194248441E+03  0.26054995131E+03  0.00000000000E+00 0. -1.
        -12    1    3    3    0    0 -0.34788291625E+02 -0.11941703682E+02 -0.14529150041E+02  0.39546500754E+02  0.00000000000E+00 0.  1.
          5    1    4    4  501    0  0.12418059790E+03  0.75994893109E+02  0.42728243565E+03  0.45142418731E+03  0.41800000000E+01 0.  1.
         -5    1    4    4    0  501  0.22505693700E+02 -0.36731168074E+02  0.59196007513E+02  0.73330243846E+02  0.41800000000E+01 0.  1.
</event>
<event>
11    1  0.7577197E-009  0.1398919E+03  0.7561462E-02  0.1107679E+00
         22   -1    0    0    0    0  0.00000000000E+00  0.00000000000E+00  0.30073263020E+03  0.30073263020E+03  0.00000000000E+00 0.  1.
         22   -1    0    0    0    0 -0.00000000000E+00 -0.00000000000E+00 -0.25204948742E+03  0.25204948742E+03  0.00000000000E+00 0. -1.
         24    2    1    2    0    0 -0.78944676288E+00 -0.70388500994E+02 -0.17872751182E+03  0.21946032273E+03  0.10613267862E+03 0.  0.
         25    2    1    2    0    0 -0.35140142725E+02  0.17002908381E+02  0.80026261930E+02  0.15354421566E+03  0.12509074722E+03 0.  0.
        -24    2    1    2    0    0  0.35929589487E+02  0.53385592613E+02  0.14738439267E+03  0.17977757922E+03  0.80354600921E+02 0.  0.
        -11    1    3    3    0    0  0.77291797210E+01  0.11023117962E+02 -0.11483287910E+03  0.11561937325E+03  0.00000000000E+00 0.  1.
         12    1    3    3    0    0 -0.85186264839E+01 -0.81411618956E+02 -0.63894632730E+02  0.10384094948E+03  0.00000000000E+00 0. -1.
         13    1    5    5    0    0 -0.22203394635E+02  0.21002782666E+02  0.21436944078E+02  0.37331624454E+02  0.00000000000E+00 0. -1.
        -14    1    5    5    0    0  0.58132984122E+02  0.32382809947E+02  0.12594744859E+03  0.14244595477E+03  0.00000000000E+00 0.  1.
          5    1    4    4  501    0 -0.70591407701E+02  0.26814110632E+02  0.87628280536E+02  0.11575116120E+03  0.41800000000E+01 0.  1.
         -5    1    4    4    0  501  0.35451264977E+02 -0.98112022511E+01 -0.76020186063E+01  0.37793054454E+02  0.41800000000E+01 0.  1.
</event>
<event>
11    1  0.7577197E-009  0.1473339E+03  0.7561462E-02  0.1099635E+00
         22   -1    0    0    0    0  0.00000000000E+00  0.00000000000E+00  0.38015314403E+03  0.38015314403E+03  0.00000000000E+00 0. -1.
         22   -1    0    0    0    0 -0.00000000000E+00 -0.00000000000E+00 -0.64891556563E+03  0.64891556563E+03  0.00000000000E+00 0. -1.
        -24    2    1    2    0    0 -0.13490764182E+02 -0.10575150418E+02 -0.58220240547E+03  0.58821665826E+03  0.82130150295E+02 0.  0.
         25    2    1    2    0    0 -0.11143721157E+02  0.83316328970E+02  0.55427803125E+02  0.16057870769E+03  0.12508991490E+03 0.  0.
         24    2    1    2    0    0  0.24634485339E+02 -0.72741178551E+02  0.25801218074E+03  0.28027334371E+03  0.78004646385E+02 0.  0.
        -13    1    5    5    0    0  0.14461086290E+02 -0.50157207597E+02  0.55271031645E+02  0.76024702760E+02  0.00000000000E+00 0.  1.
         14    1    5    5    0    0  0.10173399049E+02 -0.22583970954E+02  0.20274114910E+03  0.20424864095E+03  0.00000000000E+00 0. -1.
         13    1    3    3    0    0  0.11350034291E+02 -0.40763781530E+02 -0.37301510519E+03  0.37540748243E+03  0.00000000000E+00 0. -1.
        -14    1    3    3    0    0 -0.24840798474E+02  0.30188631112E+02 -0.20918730028E+03  0.21280917583E+03  0.00000000000E+00 0.  1.
          5    1    4    4  501    0 -0.26246803041E+02  0.68767699629E+02  0.92193669521E+02  0.11804675464E+03  0.41800000000E+01 0.  1.
         -5    1    4    4    0  501  0.15103081884E+02  0.14548629341E+02 -0.36765866396E+02  0.42531953046E+02  0.41800000000E+01 0.  1.
</event>
<event>
11    1  0.7577197E-009  0.1357416E+03  0.7561462E-02  0.1112409E+00
         22   -1    0    0    0    0  0.00000000000E+00  0.00000000000E+00  0.22615910562E+04  0.22615910562E+04  0.00000000000E+00 0.  1.
         22   -1    0    0    0    0 -0.00000000000E+00 -0.00000000000E+00 -0.83577864227E+02  0.83577864227E+02  0.00000000000E+00 0. -1.
         24    2    1    2    0    0 -0.58092523136E+02  0.22681127569E+01 -0.17819627291E+02  0.99198158100E+02  0.78376334909E+02 0.  0.
         25    2    1    2    0    0  0.29213743658E+02 -0.10800239830E+02  0.14725285374E+03  0.19570920467E+03  0.12509437182E+03 0.  0.
        -24    2    1    2    0    0  0.28878779477E+02  0.85321270732E+01  0.20485799655E+04  0.20502615577E+04  0.77367942686E+02 0.  0.
        -13    1    3    3    0    0 -0.29689196136E+02 -0.19020283495E+02  0.25263697849E+02  0.43375960859E+02  0.00000000000E+00 0.  1.
         14    1    3    3    0    0 -0.28403326999E+02  0.21288396252E+02 -0.43083325140E+02  0.55822197240E+02  0.00000000000E+00 0. -1.
         13    1    5    5    0    0 -0.24274242997E+02 -0.44241564989E+01  0.39015304973E+03  0.39093249321E+03  0.00000000000E+00 0. -1.
        -14    1    5    5    0    0  0.53153022474E+02  0.12956283572E+02  0.16584269158E+04  0.16593290645E+04  0.00000000000E+00 0.  1.
          5    1    4    4  501    0  0.72780930077E+02  0.17028369114E+02  0.68886200383E+02  0.10173401664E+03  0.41800000000E+01 0. -1.
         -5    1    4    4    0  501 -0.43567186419E+02 -0.27828608944E+02  0.78366653358E+02  0.93975188038E+02  0.41800000000E+01 0. -1.
</event>
<event>
11    1  0.7577197E-009  0.1906253E+03  0.7561462E-02  0.1061358E+00
         22   -1    0    0    0    0  0.00000000000E+00  0.00000000000E+00  0.12855620162E+04  0.12855620162E+04  0.00000000000E+00 0. -1.
         22   -1    0    0    0    0 -0.00000000000E+00 -0.00000000000E+00 -0.20472004140E+04  0.20472004140E+04  0.00000000000E+00 0. -1.
         24    2    1    2    0    0  0.88762808008E+01 -0.14337079388E+03 -0.20101892987E+04  0.20169136895E+04  0.80285995830E+02 0.  0.
         25    2    1    2    0    0 -0.20336802041E+02  0.16251170997E+03  0.30170607768E+03  0.36537292784E+03  0.12508867933E+03 0.  0.
        -24    2    1    2    0    0  0.11460521241E+02 -0.19140916092E+02  0.94684482331E+03  0.95047581287E+03  0.79946439607E+02 0.  0.
        -13    1    3    3    0    0 -0.29208517332E+02 -0.33878014166E+02 -0.38375349546E+03  0.38635165666E+03  0.00000000000E+00 0.  1.
         14    1    3    3    0    0  0.38084798133E+02 -0.10949277972E+03 -0.16264358033E+04  0.16305620328E+04  0.00000000000E+00 0. -1.
         11    1    5    5    0    0  0.19466054268E+02 -0.40415657252E+02  0.84204766717E+03  0.84324173664E+03  0.00000000000E+00 0. -1.
        -12    1    5    5    0    0 -0.80055330275E+01  0.21274741161E+02  0.10479715613E+03  0.10723407623E+03  0.00000000000E+00 0.  1.
          5    1    4    4  501    0  0.20938158117E+02  0.15733443444E+03  0.26870561633E+03  0.31211009496E+03  0.41800000000E+01 0.  1.
         -5    1    4    4    0  501 -0.41274960158E+02  0.51772755341E+01  0.33000461349E+02  0.53262832888E+02  0.41800000000E+01 0.  1.
</event>
<event>
11    1  0.7577197E-009  0.1873201E+03  0.7561462E-02  0.1063871E+00
         22   -1    0    0    0    0  0.00000000000E+00  0.00000000000E+00  0.36640409161E+03  0.36640409161E+03  0.00000000000E+00 0.  1.
         22   -1    0    0    0    0 -0.00000000000E+00 -0.00000000000E+00 -0.72053142414E+03  0.72053142414E+03  0.00000000000E+00 0. -1.
        -24    2    1    2    0    0  0.23444073992E+02  0.12975141732E+03 -0.43507619046E+03  0.46214715887E+03  0.83088206425E+02 0.  0.
         25    2    1    2    0    0 -0.41708243699E+02 -0.15633169499E+03 -0.22709158068E+03  0.30560952754E+03  0.12508965129E+03 0.  0.
         24    2    1    2    0    0  0.18264169707E+02  0.26580277674E+02  0.30804043861E+03  0.31917882933E+03  0.77111103073E+02 0.  0.
        -11    1    5    5    0    0  0.46833487530E+02  0.15693962122E+02  0.23244757063E+03  0.23763743201E+03  0.00000000000E+00 0.  1.
         12    1    5    5    0    0 -0.28569317824E+02  0.10886315552E+02  0.75592867982E+02  0.81541397320E+02  0.00000000000E+00 0. -1.
         11    1    3    3    0    0  0.33200854236E+02  0.13456999905E+03 -0.35109677280E+03  0.37746566101E+03  0.00000000000E+00 0. -1.
        -12    1    3    3    0    0 -0.97567802433E+01 -0.48185817337E+01 -0.83979417660E+02  0.84681497868E+02  0.00000000000E+00 0.  1.
          5    1    4    4  501    0  0.42037847452E+02 -0.37478610273E+02 -0.86585374844E+02  0.10337468928E+03  0.41800000000E+01 0. -1.
         -5    1    4    4    0  501 -0.83746091152E+02 -0.11885308472E+03 -0.14050620583E+03  0.20223483826E+03  0.41800000000E+01 0. -1.
</event>
<event>
11    1  0.7577197E-009  0.1457524E+03  0.7561462E-02  0.1101300E+00
         22   -1    0    0    0    0  0.00000000000E+00  0.00000000000E+00  0.50308349287E+03  0.50308349287E+03  0.00000000000E+00 0.  1.
         22   -1    0    0    0    0 -0.00000000000E+00 -0.00000000000E+00 -0.23279067863E+04  0.23279067863E+04  0.00000000000E+00 0. -1.
        -24    2    1    2    0    0  0.70056802354E+02  0.25345704157E+02 -0.22259622265E+04  0.22286294953E+04  0.79569047753E+02 0.  0.
         25    2    1    2    0    0 -0.80302349405E+02 -0.39104888927E+02 -0.35613631331E+02  0.15777731882E+03  0.12509073483E+03 0.  0.
         24    2    1    2    0    0  0.10245547051E+02  0.13759184770E+02  0.43675256442E+03  0.44458346500E+03  0.81285720908E+02 0.  0.
        -11    1    5    5    0    0 -0.31827412332E+02  0.22613796006E+02  0.24311629871E+03  0.24623140060E+03  0.00000000000E+00 0.  1.
         12    1    5    5    0    0  0.42072959383E+02 -0.88546112355E+01  0.19363626571E+03  0.19835206439E+03  0.00000000000E+00 0. -1.
         13    1    3    3    0    0  0.87516337695E+02  0.23284657357E+02 -0.17484368726E+04  0.17507806208E+04  0.00000000000E+00 0. -1.
        -14    1    3    3    0    0 -0.17459535341E+02  0.20610468002E+01 -0.47752535385E+03  0.47784887450E+03  0.00000000000E+00 0.  1.
          5    1    4    4  501    0  0.53277123976E+01  0.37338417384E+02 -0.15893884153E+01  0.37980791035E+02  0.41800000000E+01 0. -1.
         -5    1    4    4    0  501 -0.85630061803E+02 -0.76443306311E+02 -0.34024242915E+02  0.11979652779E+03  0.41800000000E+01 0. -1.
</event>
<event>
11    1  0.7577197E-009  0.2175872E+03  0.7561462E-02  0.1042739E+00
         22   -1    0    0    0    0  0.00000000000E+00  0.00000000000E+00  0.58099609807E+03  0.58099609807E+03  0.00000000000E+00 0.  1.
         22   -1    0    0    0    0 -0.00000000000E+00 -0.00000000000E+00 -0.12069392837E+04  0.12069392837E+04  0.00000000000E+00 0. -1.
        -24    2    1    2    0    0  0.36838564136E+02 -0.97595119101E+01 -0.89477739455E+03  0.89858704358E+03  0.73346855487E+02 0.  0.
         25    2    1    2    0    0 -0.20281805307E+03 -0.49482557948E+02 -0.24182023287E+03  0.34308286687E+03  0.12508054334E+03 0.  0.
         24    2    1    2    0    0  0.16597948893E+03  0.59242069858E+02  0.51065444176E+03  0.54626547135E+03  0.81112222908E+02 0.  0.
        -11    1    5    5    0    0  0.15824243772E+03  0.26776675114E+02  0.41470564735E+03  0.44467789845E+03  0.00000000000E+00 0.  1.
         12    1    5    5    0    0  0.77370512078E+01  0.32465394744E+02  0.95948794415E+02  0.10158757290E+03  0.00000000000E+00 0. -1.
         11    1    3    3    0    0 -0.26245526062E+01 -0.14739680278E+02 -0.67955599009E+03  0.67972089134E+03  0.00000000000E+00 0. -1.
        -12    1    3    3    0    0  0.39463116742E+02  0.49801683675E+01 -0.21522140446E+03  0.21886615224E+03  0.00000000000E+00 0.  1.
          5    1    4    4  501    0 -0.65164734394E+02 -0.26056842723E+02 -0.80651425796E+01  0.70766662958E+02  0.41800000000E+01 0. -1.
         -5    1    4    4    0  501 -0.13765331867E+03 -0.23425715225E+02 -0.23375509029E+03  0.27231620391E+03  0.41800000000E+01 0. -1.
</event>
<event>
11    1  0.7577197E-009  0.1455815E+03  0.7561462E-02  0.1101481E+00
         22   -1    0    0    0    0  0.00000000000E+00  0.00000000000E+00  0.37425284861E+03  0.37425284861E+03  0.00000000000E+00 0. -1.
         22   -1    0    0    0    0 -0.00000000000E+00 -0.00000000000E+00 -0.35307049286E+03  0.35307049286E+03  0.00000000000E+00 0.  1.
        -24    2    1    2    0    0  0.71691651251E+02  0.19951879661E+02 -0.30465539000E+03  0.32339723476E+03  0.78949948935E+02 0.  0.
         25    2    1    2    0    0 -0.79729580609E+02  0.43326623107E+01  0.16281232663E+03  0.22029449923E+03  0.12508490998E+03 0.  0.
         24    2    1    2    0    0  0.80379293579E+01 -0.24284541972E+02  0.16302541911E+03  0.18363160747E+03  0.80553911753E+02 0.  0.
        -11    1    5    5    0    0  0.11867904220E+02 -0.35236811910E+02  0.24291769127E+02  0.44413625291E+02  0.00000000000E+00 0.  1.
         12    1    5    5    0    0 -0.38299748621E+01  0.10952269938E+02  0.13873364999E+03  0.13921798218E+03  0.00000000000E+00 0. -1.
         13    1    3    3    0    0  0.40310151240E+02 -0.23648053388E+02 -0.20420699393E+03  0.20948659883E+03  0.00000000000E+00 0. -1.
        -14    1    3    3    0    0  0.31381500011E+02  0.43599933049E+02 -0.10044839607E+03  0.11391063593E+03  0.00000000000E+00 0.  1.
          5    1    4    4  501    0 -0.94696711405E+02  0.30742858354E+02  0.67966219582E+02  0.12062118344E+03  0.41800000000E+01 0. -1.
         -5    1    4    4    0  501  0.14967130796E+02 -0.26410196044E+02  0.94846107046E+02  0.99673315793E+02  0.41800000000E+01 0. -1.
</event>
<event>
11    1  0.7577197E-009  0.1579307E+03  0.7561462E-02  0.1089040E+00
         22   -1    0    0    0    0  0.00000000000E+00  0.00000000000E+00  0.18508795735E+03  0.18508795735E+03  0.00000000000E+00 0. -1.
         22   -1    0    0    0    0 -0.00000000000E+00 -0.00000000000E+00 -0.65866529835E+03  0.65866529835E+03  0.00000000000E+00 0.  1.
         24    2    1    2    0    0  0.79646772150E+02 -0.19667353490E+02 -0.28223506465E+03  0.30367084542E+03  0.76347478914E+02 0.  0.
         25    2    1    2    0    0 -0.12239091060E+03  0.32857754779E+02 -0.32808547653E+03  0.37329202398E+03  0.12509071991E+03 0.  0.
        -24    2    1    2    0    0  0.42744138454E+02 -0.13190401289E+02  0.13674320018E+03  0.16679038631E+03  0.84375838436E+02 0.  0.
        -11    1    3    3    0    0  0.41810427610E+02 -0.24770148709E+02 -0.24694152760E+03  0.25167794933E+03  0.00000000000E+00 0.  1.
         12    1    3    3    0    0  0.37836344540E+02  0.51027952191E+01 -0.35293537047E+02  0.51992896096E+02  0.00000000000E+00 0. -1.
         13    1    5    5    0    0  0.55160461478E+02  0.20819211325E+02  0.77809900070E+02  0.97624262453E+02  0.00000000000E+00 0. -1.
        -14    1    5    5    0    0 -0.12416323024E+02 -0.34009612614E+02  0.58933300107E+02  0.69166123854E+02  0.00000000000E+00 0.  1.
          5    1    4    4  501    0  0.22495739054E+02  0.21729422105E+02 -0.76043293330E+02  0.82330315930E+02  0.41800000000E+01 0.  1.
         -5    1    4    4    0  501 -0.14488664966E+03  0.11128332674E+02 -0.25204218320E+03  0.29096170805E+03  0.41800000000E+01 0.  1.
</event>
<event>
11    1  0.7577197E-009  0.1691466E+03  0.7561462E-02  0.1078777E+00
         22   -1    0    0    0    0  0.00000000000E+00  0.00000000000E+00  0.14664885534E+04  0.14664885534E+04  0.00000000000E+00 0. -1.
         22   -1    0    0    0    0 -0.00000000000E+00 -0.00000000000E+00 -0.16552050014E+03  0.16552050014E+03  0.00000000000E+00 0. -1.
        -24    2    1    2    0    0 -0.40598550158E+02 -0.42220467554E+02 -0.11366290236E+03  0.15205204740E+03  0.82278548781E+02 0.  0.
         25    2    1    2    0    0  0.13631716941E+03 -0.15909180781E+02  0.27410036520E+03  0.33108020271E+03  0.12509043814E+03 0.  0.
         24    2    1    2    0    0 -0.95718619252E+02  0.58129648335E+02  0.11405305904E+04  0.11488768034E+04  0.81035619790E+02 0.  0.
        -13    1    5    5    0    0  0.52714897534E+01 -0.41348540138E+00  0.32412565025E+03  0.32416877815E+03  0.00000000000E+00 0.  1.
         14    1    5    5    0    0 -0.10099010900E+03  0.58543133737E+02  0.81640494018E+03  0.82470802529E+03  0.00000000000E+00 0. -1.
         13    1    3    3    0    0 -0.20338476198E+02 -0.23603071920E+02 -0.11986370041E+03  0.12384694301E+03  0.00000000000E+00 0. -1.
        -14    1    3    3    0    0 -0.20260073960E+02 -0.18617395634E+02  0.62007980453E+01  0.28205104386E+02  0.00000000000E+00 0.  1.
          5    1    4    4  501    0  0.63593129562E+02 -0.12964006383E+02  0.22008866512E+02  0.68658678943E+02  0.41800000000E+01 0.  1.
         -5    1    4    4    0  501  0.72724039848E+02 -0.29451743989E+01  0.25209149869E+03  0.26242152377E+03  0.41800000000E+01 0.  1.
</event>
<event>
11    1  0.7577197E-009  0.1461041E+03  0.7561462E-02  0.1100927E+00
         22   -1    0    0    0    0  0.00000000000E+00  0.00000000000E+00  0.82701893701E+03  0.82701893701E+03  0.00000000000E+00 0.  1.
         22   -1    0    0    0    0 -0.00000000000E+00 -0.00000000000E+00 -0.12384344606E+04  0.12384344606E+04  0.00000000000E+00 0.  1.
         24    2    1    2    0    0  0.72946297516E+02  0.12216557071E+02 -0.10795096920E+04  0.10850923016E+04  0.81324787671E+02 0.  0.
         25    2    1    2    0    0 -0.93191162165E+02 -0.40107092592E+02 -0.11148614050E+03  0.19587808450E+03  0.12508354361E+03 0.  0.
        -24    2    1    2    0    0  0.20244864650E+02  0.27890535522E+02  0.77958030893E+03  0.78448301158E+03  0.80500937084E+02 0.  0.
        -13    1    3    3    0    0  0.80185436512E+02  0.83264429910E+01 -0.10675013827E+04  0.10705410949E+04  0.00000000000E+00 0.  1.
         14    1    3    3    0    0 -0.72391389964E+01  0.38901140798E+01 -0.12008309385E+02  0.14551206659E+02  0.00000000000E+00 0. -1.
         13    1    5    5    0    0  0.89211977609E+01  0.74995819973E+01  0.12658689064E+02  0.17206798321E+02  0.00000000000E+00 0. -1.
        -14    1    5    5    0    0  0.11323666889E+02  0.20390953524E+02  0.76692161987E+03  0.76727621326E+03  0.00000000000E+00 0.  1.
          5    1    4    4  501    0 -0.11259968608E+03 -0.43789995500E+02 -0.49400674978E+02  0.13059154681E+03  0.41800000000E+01 0. -1.
         -5    1    4    4    0  501  0.19408523910E+02  0.36829029072E+01 -0.62085465524E+02  0.65286537690E+02  0.41800000000E+01 0. -1.
</event>
<event>
11    1  0.7577197E-009  0.1549581E+03  0.7561462E-02  0.1091918E+00
         22   -1    0    0    0    0  0.00000000000E+00  0.00000000000E+00  0.19689055891E+03  0.19689055891E+03  0.00000000000E+00 0.  1.
         22   -1    0    0    0    0 -0.00000000000E+00 -0.00000000000E+00 -0.15257000803E+04  0.15257000803E+04  0.00000000000E+00 0. -1.
        -24    2    1    2    0    0 -0.15655721710E+02  0.90926186374E+02 -0.14487244828E+04  0.14538735421E+04  0.80205836784E+02 0.  0.
         25    2    1    2    0    0  0.24916745100E+02 -0.60318580175E+02  0.35775300267E+02  0.14554479949E+03  0.12507694132E+03 0.  0.
         24    2    1    2    0    0 -0.92610233895E+01 -0.30607606199E+02  0.84139661131E+02  0.12317229766E+03  0.84079368594E+02 0.  0.
        -13    1    5    5    0    0  0.93660146539E+01 -0.13026074211E+02  0.94271692364E+02  0.95627155249E+02  0.00000000000E+00 0.  1.
         14    1    5    5    0    0 -0.18627038043E+02 -0.17581531988E+02 -0.10132031233E+02  0.27545142407E+02  0.00000000000E+00 0. -1.
         11    1    3    3    0    0  0.21793555447E+02  0.80044706484E+02 -0.10313571329E+04  0.10346881896E+04  0.00000000000E+00 0. -1.
        -12    1    3    3    0    0 -0.37449277157E+02  0.10881479890E+02 -0.41736734994E+03  0.41918535252E+03  0.00000000000E+00 0.  1.
          5    1    4    4  501    0  0.57350155435E+02  0.13273932025E+02  0.25765951290E+02  0.64394054428E+02  0.41800000000E+01 0.  1.
         -5    1    4    4    0  501 -0.32433410335E+02 -0.73592512199E+02  0.10009348977E+02  0.81150745066E+02  0.41800000000E+01 0.  1.
</event>
<event>
11    1  0.7577197E-009  0.1336792E+03  0.7561462E-02  0.1114829E+00
         22   -1    0    0    0    0  0.00000000000E+00  0.00000000000E+00  0.31749769739E+04  0.31749769739E+04  0.00000000000E+00 0.  1.
         22   -1    0    0    0    0 -0.00000000000E+00 -0.00000000000E+00 -0.22728333425E+03  0.22728333425E+03  0.00000000000E+00 0.  1.
        -24    2    1    2    0    0 -0.32316083917E+02  0.33617898316E+02 -0.20500077794E+03  0.22525959626E+03  0.80883090850E+02 0.  0.
         25    2    1    2    0    0  0.77924785376E+02 -0.21842969268E+02  0.47730796458E+03  0.50002321002E+03  0.12510367711E+03 0.  0.
         24    2    1    2    0    0 -0.45608701459E+02 -0.11774929048E+02  0.26753864530E+04  0.26769775019E+04  0.79354079795E+02 0.  0.
        -13    1    5    5    0    0 -0.63098852515E+02  0.10491804103E+02  0.18467971378E+04  0.18479045461E+04  0.00000000000E+00 0.  1.
         14    1    5    5    0    0  0.17490151056E+02 -0.22266733151E+02  0.82858931521E+03  0.82907295582E+03  0.00000000000E+00 0. -1.
         13    1    3    3    0    0  0.26790359138E+02  0.12299143720E+02 -0.50558091347E+02  0.58524463942E+02  0.00000000000E+00 0. -1.
        -14    1    3    3    0    0 -0.59106443055E+02  0.21318754596E+02 -0.15444268659E+03  0.16673513232E+03  0.00000000000E+00 0.  1.
          5    1    4    4  501    0  0.67399224486E+02  0.41318198019E+02  0.32968777144E+03  0.33905950508E+03  0.41800000000E+01 0. -1.
         -5    1    4    4    0  501  0.10525560890E+02 -0.63161167287E+02  0.14762019314E+03  0.16096370494E+03  0.41800000000E+01 0. -1.
</event>
<event>
11    1  0.7577197E-009  0.1433878E+03  0.7561462E-02  0.1103833E+00
         22   -1    0    0    0    0  0.00000000000E+00  0.00000000000E+00  0.19711935548E+04  0.19711935548E+04  0.00000000000E+00 0.  1.
         22   -1    0    0    0    0 -0.00000000000E+00 -0.00000000000E+00 -0.55662189000E+03  0.55662189000E+03  0.00000000000E+00 0. -1.
         24    2    1    2    0    0 -0.13847009102E+02  0.69489711142E+02 -0.53545760625E+03  0.54606297612E+03  0.80307945984E+02 0.  0.
         25    2    1    2    0    0  0.47696522206E+02 -0.15607765027E+02  0.29642160205E+03  0.32562632311E+03  0.12509266796E+03 0.  0.
        -24    2    1    2    0    0 -0.33849513104E+02 -0.53881946115E+02  0.16536076690E+04  0.16561261455E+04  0.65470859365E+02 0.  0.
        -11    1    3    3    0    0 -0.50278353358E+01 -0.16833626499E+02 -0.14615379331E+03  0.14720591499E+03  0.00000000000E+00 0.  1.
         12    1    3    3    0    0 -0.88191737661E+01  0.86323337641E+02 -0.38930381294E+03  0.39885706113E+03  0.00000000000E+00 0. -1.
         11    1    5    5    0    0  0.39550521804E+00  0.11304526043E+01 -0.50616856573E-01  0.11987116143E+01  0.00000000000E+00 0. -1.
        -12    1    5    5    0    0 -0.34245018322E+02 -0.55012398719E+02  0.16536582858E+04  0.16549274339E+04  0.00000000000E+00 0.  1.
          5    1    4    4  501    0 -0.15590725572E+02 -0.51882125701E+02  0.18137453305E+03  0.18933837258E+03  0.41800000000E+01 0. -1.
         -5    1    4    4    0  501  0.63287247779E+02  0.36274360674E+02  0.11504706900E+03  0.13628795053E+03  0.41800000000E+01 0. -1.
</event>
<event>
11    1  0.7577197E-009  0.1313544E+03  0.7561462E-02  0.1117616E+00
         22   -1    0    0    0    0  0.00000000000E+00  0.00000000000E+00  0.27358534605E+03  0.27358534605E+03  0.00000000000E+00 0.  1.
         22   -1    0    0    0    0 -0.00000000000E+00 -0.00000000000E+00 -0.63806859670E+03  0.63806859670E+03  0.00000000000E+00 0. -1.
        -24    2    1    2    0    0 -0.47143196815E+01  0.29216595011E+02 -0.54608080628E+03  0.55270892660E+03  0.80044214812E+02 0.  0.
         25    2    1    2    0    0  0.29229775039E+02  0.51927168975E+01 -0.27183866076E+02  0.13140653977E+03  0.12508945624E+03 0.  0.
         24    2    1    2    0    0 -0.24515455357E+02 -0.34409311909E+02  0.20878142170E+03  0.22753847638E+03  0.79994174080E+02 0.  0.
        -11    1    5    5    0    0 -0.42659276468E+01 -0.43269058992E+02  0.46124741646E+02  0.63386918182E+02  0.00000000000E+00 0.  1.
         12    1    5    5    0    0 -0.20249527710E+02  0.88597470830E+01  0.16265668006E+03  0.16415155820E+03  0.00000000000E+00 0. -1.
         11    1    3    3    0    0  0.13478878611E+02  0.49438102475E+02 -0.44816768481E+03  0.45108766316E+03  0.00000000000E+00 0. -1.
        -12    1    3    3    0    0 -0.18193198292E+02 -0.20221507464E+02 -0.97913121468E+02  0.10162126344E+03  0.00000000000E+00 0.  1.
          5    1    4    4  501    0 -0.34576138434E+02  0.35706510963E+02 -0.33793017598E+02  0.60248690546E+02  0.41800000000E+01 0. -1.
         -5    1    4    4    0  501  0.63805913473E+02 -0.30513794065E+02  0.66091515220E+01  0.71157849224E+02  0.41800000000E+01 0. -1.
</event>
<event>
11    1  0.7577197E-009  0.1440135E+03  0.7561462E-02  0.1103158E+00
         22   -1    0    0    0    0  0.00000000000E+00  0.00000000000E+00  0.23070536549E+04  0.23070536549E+04  0.00000000000E+00 0.  1.
         22   -1    0    0    0    0 -0.00000000000E+00 -0.00000000000E+00 -0.46846486340E+02  0.46846486340E+02  0.00000000000E+00 0.  1.
         24    2    1    2    0    0  0.15390412774E+01  0.24745384289E+02  0.40495392800E+02  0.93847109508E+02  0.80948751895E+02 0.  0.
         25    2    1    2    0    0 -0.49115118009E+02 -0.76086229034E+02  0.30081510431E+03  0.33812129614E+03  0.12503949319E+03 0.  0.
        -24    2    1    2    0    0  0.47576076731E+02  0.51340844745E+02  0.19188966714E+04  0.19219317356E+04  0.82205809747E+02 0.  0.
        -11    1    3    3    0    0  0.76615446953E+01 -0.13228391095E+02 -0.18139474363E+02  0.23721933485E+02  0.00000000000E+00 0.  1.
         12    1    3    3    0    0 -0.61225034179E+01  0.37973775384E+02  0.58634867163E+02  0.70125176023E+02  0.00000000000E+00 0. -1.
         13    1    5    5    0    0  0.17124175555E+02  0.46727219690E+02  0.45542514615E+03  0.45813615246E+03  0.00000000000E+00 0. -1.
        -14    1    5    5    0    0  0.30451901176E+02  0.46136250552E+01  0.14634715253E+04  0.14637955831E+04  0.00000000000E+00 0.  1.
          5    1    4    4  501    0 -0.29255185873E+02 -0.32223255623E+02  0.12068394297E+02  0.45357718685E+02  0.41800000000E+01 0. -1.
         -5    1    4    4    0  501 -0.19859932135E+02 -0.43862973412E+02  0.28874671001E+03  0.29276357745E+03  0.41800000000E+01 0. -1.
</event>
<event>
11    1  0.7577197E-009  0.1276508E+03  0.7561462E-02  0.1122189E+00
         22   -1    0    0    0    0  0.00000000000E+00  0.00000000000E+00  0.32588421057E+03  0.32588421057E+03  0.00000000000E+00 0. -1.
         22   -1    0    0    0    0 -0.00000000000E+00 -0.00000000000E+00 -0.80483835444E+03  0.80483835444E+03  0.00000000000E+00 0. -1.
         24    2    1    2    0    0  0.65169722497E+01  0.29903618312E+02 -0.69350362604E+03  0.69846010204E+03  0.77217468836E+02 0.  0.
         25    2    1    2    0    0 -0.28191325742E+02 -0.15039491434E+02 -0.58080460642E+02  0.14157034947E+03  0.12509151367E+03 0.  0.
        -24    2    1    2    0    0  0.21674353492E+02 -0.14864126879E+02  0.27262994282E+03  0.29069211349E+03  0.97386340197E+02 0.  0.
        -13    1    3    3    0    0 -0.15766816669E+02  0.15484077918E+02 -0.53208029023E+02  0.57614612117E+02  0.00000000000E+00 0.  1.
         14    1    3    3    0    0  0.22283788919E+02  0.14419540394E+02 -0.64029559702E+03  0.64084548992E+03  0.00000000000E+00 0. -1.
         13    1    5    5    0    0  0.50198991679E+02 -0.33707396511E+02  0.21814526129E+03  0.22637023296E+03  0.00000000000E+00 0. -1.
        -14    1    5    5    0    0 -0.28524638187E+02  0.18843269632E+02  0.54484681521E+02  0.64321880527E+02  0.00000000000E+00 0.  1.
          5    1    4    4  501    0  0.13039508510E+02 -0.62661924600E+02 -0.41164134286E+02  0.76213541633E+02  0.41800000000E+01 0. -1.
         -5    1    4    4    0  501 -0.41230834251E+02  0.47622433166E+02 -0.16916326356E+02  0.65356807841E+02  0.41800000000E+01 0. -1.
</event>
<event>
11    1  0.7577197E-009  0.4663856E+03  0.7561462E-02  0.9471938E-01
         22   -1    0    0    0    0  0.00000000000E+00  0.00000000000E+00  0.28470363528E+03  0.28470363528E+03  0.00000000000E+00 0.  1.
         22   -1    0    0    0    0 -0.00000000000E+00 -0.00000000000E+00 -0.12198989131E+04  0.12198989131E+04  0.00000000000E+00 0.  1.
        -24    2    1    2    0    0 -0.59662872462E+02 -0.45421436663E+03 -0.84944553044E+03  0.96852628320E+03  0.81333282577E+02 0.  0.
         25    2    1    2    0    0  0.48862006686E+02  0.41892106157E+03 -0.73772963349E+02  0.44606305567E+03  0.12508975974E+03 0.  0.
         24    2    1    2    0    0  0.10800865777E+02  0.35293305063E+02 -0.11976784014E+02  0.90013209492E+02  0.81219815586E+02 0.  0.
        -13    1    5    5    0    0  0.44766267401E+02  0.10801383981E+02  0.13444091295E+01  0.46070554900E+02  0.00000000000E+00 0.  1.
         14    1    5    5    0    0 -0.33965401624E+02  0.24491921082E+02 -0.13321193144E+02  0.43942654592E+02  0.00000000000E+00 0. -1.
         13    1    3    3    0    0 -0.90778242993E+01 -0.15515154510E+03 -0.36840613274E+03  0.39984683002E+03  0.00000000000E+00 0. -1.
        -14    1    3    3    0    0 -0.50585048163E+02 -0.29906282153E+03 -0.48103939770E+03  0.56867945317E+03  0.00000000000E+00 0.  1.
          5    1    4    4  501    0  0.11047454689E+02  0.32239358775E+03 -0.70129077657E+01  0.32268610902E+03  0.41800000000E+01 0.  1.
         -5    1    4    4    0  501  0.37814551996E+02  0.96527473811E+02 -0.66760055583E+02  0.12337694665E+03  0.41800000000E+01 0.  1.
</event>
<event>
11    1  0.7577197E-009  0.1516972E+03  0.7561462E-02  0.1095157E+00
         22   -1    0    0    0    0  0.00000000000E+00  0.00000000000E+00  0.23919283972E+03  0.23919283972E+03  0.00000000000E+00 0. -1.
         22   -1    0    0    0    0 -0.00000000000E+00 -0.00000000000E+00 -0.11623621491E+04  0.11623621491E+04  0.00000000000E+00 0. -1.
        -24    2    1    2    0    0 -0.27853229987E+02 -0.21664258977E+02 -0.97658036762E+03  0.98070907566E+03  0.82679707955E+02 0.  0.
         25    2    1    2    0    0 -0.60532931122E+02  0.25052388840E+02 -0.13544682488E+03  0.19566846377E+03  0.12509375447E+03 0.  0.
         24    2    1    2    0    0  0.88386161109E+02 -0.33881298624E+01  0.18885788309E+03  0.22517744942E+03  0.84935215448E+02 0.  0.
        -11    1    5    5    0    0  0.35132084640E+02 -0.17502839711E+02  0.13721207451E+02  0.41579854534E+02  0.00000000000E+00 0.  1.
         12    1    5    5    0    0  0.53254076469E+02  0.14114709849E+02  0.17513667564E+03  0.18359759489E+03  0.00000000000E+00 0. -1.
         13    1    3    3    0    0 -0.57920553278E+01  0.25754022983E+01 -0.84778589007E+03  0.84780958711E+03  0.00000000000E+00 0. -1.
        -14    1    3    3    0    0 -0.22061174660E+02 -0.24239661276E+02 -0.12879447756E+03  0.13289948854E+03  0.00000000000E+00 0.  1.
          5    1    4    4  501    0 -0.88124852469E+02  0.49753368818E+02 -0.81015453064E+02  0.12970105384E+03  0.41800000000E+01 0. -1.
         -5    1    4    4    0  501  0.27591921347E+02 -0.24700979978E+02 -0.54431371821E+02  0.65967409937E+02  0.41800000000E+01 0. -1.
</event>
<event>
11    1  0.7577197E-009  0.1609297E+03  0.7561462E-02  0.1086206E+00
         22   -1    0    0    0    0  0.00000000000E+00  0.00000000000E+00  0.26158884356E+03  0.26158884356E+03  0.00000000000E+00 0. -1.
         22   -1    0    0    0    0 -0.00000000000E+00 -0.00000000000E+00 -0.83302659815E+03  0.83302659815E+03  0.00000000000E+00 0.  1.
         24    2    1    2    0    0  0.73838972395E+02  0.56749011935E+02 -0.53727020408E+03  0.55120123008E+03  0.80565995643E+02 0.  0.
         25    2    1    2    0    0 -0.77761631571E+02 -0.12615282630E+03 -0.24269625367E+03  0.31066099787E+03  0.12508947647E+03 0.  0.
        -24    2    1    2    0    0  0.39226591757E+01  0.69403814368E+02  0.20852870316E+03  0.23275321375E+03  0.76534709552E+02 0.  0.
        -11    1    3    3    0    0  0.64693291671E+02  0.14479698999E+02 -0.18968774138E+03  0.20093860480E+03  0.00000000000E+00 0.  1.
         12    1    3    3    0    0  0.91456807237E+01  0.42269312936E+02 -0.34758246270E+03  0.35026262528E+03  0.00000000000E+00 0. -1.
         11    1    5    5    0    0 -0.14345739841E+02  0.80659489329E+02  0.16400039355E+03  0.18332452797E+03  0.00000000000E+00 0. -1.
        -12    1    5    5    0    0  0.18268399017E+02 -0.11255674961E+02  0.44528309614E+02  0.49428685786E+02  0.00000000000E+00 0.  1.
          5    1    4    4  501    0 -0.80009000402E+02 -0.12260655837E+03 -0.12424805146E+03  0.19206472605E+03  0.41800000000E+01 0. -1.
         -5    1    4    4    0  501  0.22473688315E+01 -0.35462679323E+01 -0.11844820221E+03  0.11859627182E+03  0.41800000000E+01 0. -1.
</event>
<event>
11    1  0.9387424E-009  0.2192514E+03  0.7561462E-02  0.1041687E+00
         22   -1    0    0    0    0  0.00000000000E+00  0.00000000000E+00  0.85226059369E+03  0.85226059369E+03  0.00000000000E+00 0. -1.
         22   -1    0    0    0    0 -0.00000000000E+00 -0.00000000000E+00 -0.77541282112E+03  0.77541282112E+03  0.00000000000E+00 0.  1.
         24    2    1    2    0    0  0.39520648737E+02  0.34566758783E+02 -0.60729047652E+03  0.61544349382E+03  0.84924841597E+02 0.  0.
         25    2    1    2    0    0  0.11076524040E+03 -0.13554785161E+03 -0.75046889114E+02  0.22786397869E+03  0.12509116139E+03 0.  0.
        -24    2    1    2    0    0 -0.15028588914E+03  0.10098109283E+03  0.75918513820E+03  0.78436594231E+03  0.78005306245E+02 0.  0.
        -11    1    3    3    0    0  0.24369306072E+02  0.13628074318E+01 -0.52326278881E+03  0.52383171580E+03  0.00000000000E+00 0.  1.
         12    1    3    3    0    0  0.15151342665E+02  0.33203951351E+02 -0.84027687707E+02  0.91611778016E+02  0.00000000000E+00 0. -1.
         11    1    5    5    0    0 -0.13013383202E+03  0.66464877129E+02  0.68163880252E+03  0.69712542001E+03  0.00000000000E+00 0. -1.
        -12    1    5    5    0    0 -0.20152057114E+02  0.34516215703E+02  0.77546335680E+02  0.87240522292E+02  0.00000000000E+00 0.  1.
          5    1    4    4  501    0 -0.96108832665E+01 -0.81788965185E+02 -0.38438485133E+02  0.90976884111E+02  0.41800000000E+01 0.  1.
         -5    1    4    4    0  501  0.12037612367E+03 -0.53758886430E+02 -0.36608403982E+02  0.13688709457E+03  0.41800000000E+01 0.  1.
</event>
<event>
11    1  0.7577197E-009  0.2964694E+03  0.7561462E-02  0.1001697E+00
         22   -1    0    0    0    0  0.00000000000E+00  0.00000000000E+00  0.25909081361E+03  0.25909081361E+03  0.00000000000E+00 0.  1.
         22   -1    0    0    0    0 -0.00000000000E+00 -0.00000000000E+00 -0.87744715687E+03  0.87744715687E+03  0.00000000000E+00 0.  1.
        -24    2    1    2    0    0  0.40990802506E+02 -0.38534359566E+02 -0.14724487338E+03  0.17662988907E+03  0.79698947422E+02 0.  0.
         25    2    1    2    0    0 -0.28013211070E+03  0.14489641849E+03 -0.57422179691E+03  0.66696967974E+03  0.12509560391E+03 0.  0.
         24    2    1    2    0    0  0.23914130819E+03 -0.10636205892E+03  0.10311032702E+03  0.29293840167E+03  0.81729522026E+02 0.  0.
        -11    1    5    5    0    0  0.21811481692E+03 -0.64693957647E+02  0.84515302535E+02  0.24269779125E+03  0.00000000000E+00 0.  1.
         12    1    5    5    0    0  0.21026491269E+02 -0.41668101274E+02  0.18595024488E+02  0.50240610412E+02  0.00000000000E+00 0. -1.
         13    1    3    3    0    0 -0.52040951813E+01 -0.41303711174E+02 -0.32212684586E+02  0.52637783118E+02  0.00000000000E+00 0. -1.
        -14    1    3    3    0    0  0.46194897687E+02  0.27693516072E+01 -0.11503218879E+03  0.12399210595E+03  0.00000000000E+00 0.  1.
          5    1    4    4  501    0 -0.28744466688E+03  0.14605971743E+03 -0.57410991419E+03  0.65846605345E+03  0.41800000000E+01 0. -1.
         -5    1    4    4    0  501  0.73125561845E+01 -0.11632989480E+01 -0.11188271886E+00  0.85036262934E+01  0.41800000000E+01 0. -1.
</event>
<event>
11    1  0.7577197E-009  0.1393940E+03  0.7561462E-02  0.1108237E+00
         22   -1    0    0    0    0  0.00000000000E+00  0.00000000000E+00  0.11597240304E+04  0.11597240304E+04  0.00000000000E+00 0. -1.
         22   -1    0    0    0    0 -0.00000000000E+00 -0.00000000000E+00 -0.44886885392E+03  0.44886885392E+03  0.00000000000E+00 0.  1.
         24    2    1    2    0    0 -0.19682019989E+02  0.40924714120E+02 -0.40344997660E+03  0.41379098407E+03  0.79930474421E+02 0.  0.
         25    2    1    2    0    0  0.79956208832E+02 -0.35130124165E+02  0.11550171460E+03  0.19135158381E+03  0.12509061354E+03 0.  0.
        -24    2    1    2    0    0 -0.60274188843E+02 -0.57945899542E+01  0.99880343851E+03  0.10034503165E+04  0.75084443962E+02 0.  0.
        -11    1    3    3    0    0 -0.38989256160E+02  0.12423618899E+02 -0.33164880937E+03  0.33416379390E+03  0.00000000000E+00 0.  1.
         12    1    3    3    0    0  0.19307236171E+02  0.28501095221E+02 -0.71801167234E+02  0.79627190165E+02  0.00000000000E+00 0. -1.
         13    1    5    5    0    0 -0.49522445120E+02 -0.11048561456E+02  0.97898616571E+03  0.98030018664E+03  0.00000000000E+00 0. -1.
        -14    1    5    5    0    0 -0.10751743723E+02  0.52539715020E+01  0.19817272799E+02  0.23150129823E+02  0.00000000000E+00 0.  1.
          5    1    4    4  501    0  0.74438021542E+02  0.24057438535E+02  0.23595400990E+02  0.81816836579E+02  0.41800000000E+01 0. -1.
         -5    1    4    4    0  501  0.55181872905E+01 -0.59187562701E+02  0.91906313612E+02  0.10953474723E+03  0.41800000000E+01 0. -1.
</event>
<event>
11    1  0.7577197E-009  0.1496726E+03  0.7561462E-02  0.1097214E+00
         22   -1    0    0    0    0  0.00000000000E+00  0.00000000000E+00  0.82892448365E+03  0.82892448365E+03  0.00000000000E+00 0. -1.
         22   -1    0    0    0    0 -0.00000000000E+00 -0.00000000000E+00 -0.70910257105E+03  0.70910257105E+03  0.00000000000E+00 0. -1.
         24    2    1    2    0    0 -0.76979956539E+02  0.19278852548E+02 -0.60233402630E+03  0.61274117193E+03  0.79673563258E+02 0.  0.
         25    2    1    2    0    0  0.12652529896E+03 -0.13630921051E+02 -0.17939579697E+02  0.17933930270E+03  0.12508518573E+03 0.  0.
        -24    2    1    2    0    0 -0.49545342425E+02 -0.56479314973E+01  0.74009551860E+03  0.74594658007E+03  0.78792661992E+02 0.  0.
        -11    1    3    3    0    0  0.62664968981E+01 -0.25447814666E+01 -0.32435757382E+01  0.75010452375E+01  0.00000000000E+00 0.  1.
         12    1    3    3    0    0 -0.83246453437E+02  0.21823634014E+02 -0.59909045056E+03  0.60524012670E+03  0.00000000000E+00 0. -1.
         11    1    5    5    0    0 -0.57829030148E+02  0.86372348956E+01  0.70193946007E+03  0.70437050205E+03  0.00000000000E+00 0. -1.
        -12    1    5    5    0    0  0.82836877234E+01 -0.14285166393E+02  0.38156058526E+02  0.41576078018E+02  0.00000000000E+00 0.  1.
          5    1    4    4  501    0  0.83983641503E+02 -0.51235061053E+02 -0.53649672723E+02  0.11213404168E+03  0.41800000000E+01 0.  1.
         -5    1    4    4    0  501  0.42541657461E+02  0.37604140003E+02  0.35710093026E+02  0.67205261020E+02  0.41800000000E+01 0.  1.
</event>
<event>
11    1  0.7577197E-009  0.1298362E+03  0.7561462E-02  0.1119470E+00
         22   -1    0    0    0    0  0.00000000000E+00  0.00000000000E+00  0.45427015806E+03  0.45427015806E+03  0.00000000000E+00 0.  1.
         22   -1    0    0    0    0 -0.00000000000E+00 -0.00000000000E+00 -0.72339893710E+03  0.72339893710E+03  0.00000000000E+00 0. -1.
         24    2    1    2    0    0 -0.18243822167E+02 -0.29214616122E+02 -0.67876186730E+03  0.68447420358E+03  0.81246120034E+02 0.  0.
         25    2    1    2    0    0  0.27846076817E+02  0.41849177482E+02  0.86764052113E+02  0.16031572494E+03  0.12508546388E+03 0.  0.
        -24    2    1    2    0    0 -0.96022546500E+01 -0.12634561360E+02  0.32286903616E+03  0.33287916664E+03  0.79449919084E+02 0.  0.
        -11    1    3    3    0    0  0.95865407474E+01 -0.51276690200E+01 -0.10224183534E+02  0.14924097360E+02  0.00000000000E+00 0.  1.
         12    1    3    3    0    0 -0.27830362915E+02 -0.24086947102E+02 -0.66853768377E+03  0.66955010622E+03  0.00000000000E+00 0. -1.
         11    1    5    5    0    0 -0.20046814013E+02  0.20565131644E+01  0.16678960559E+02  0.26158970236E+02  0.00000000000E+00 0. -1.
        -12    1    5    5    0    0  0.10444559363E+02 -0.14691074524E+02  0.30619007560E+03  0.30672019641E+03  0.00000000000E+00 0.  1.
          5    1    4    4  501    0 -0.47305144243E+02  0.31816442007E+02  0.24806908843E+02  0.62313062677E+02  0.41800000000E+01 0.  1.
         -5    1    4    4    0  501  0.75151221061E+02  0.10032735475E+02  0.61957143270E+02  0.98002662261E+02  0.41800000000E+01 0.  1.
</event>
<event>
11    1  0.7577197E-009  0.1984305E+03  0.7561462E-02  0.1055639E+00
         22   -1    0    0    0    0  0.00000000000E+00  0.00000000000E+00  0.93295722464E+03  0.93295722464E+03  0.00000000000E+00 0. -1.
         22   -1    0    0    0    0 -0.00000000000E+00 -0.00000000000E+00 -0.17780531128E+03  0.17780531128E+03  0.00000000000E+00 0. -1.
         24    2    1    2    0    0  0.15132494344E+03  0.31943185338E+02 -0.66667447860E+02  0.19957485570E+03  0.10707926422E+03 0.  0.
         25    2    1    2    0    0 -0.13491762242E+03 -0.85128550181E+02  0.21106208837E+03  0.29265028696E+03  0.12508936971E+03 0.  0.
        -24    2    1    2    0    0 -0.16407321022E+02  0.53185364844E+02  0.61075727284E+03  0.61853739326E+03  0.80412544516E+02 0.  0.
        -13    1    3    3    0    0  0.36549631448E+02 -0.23124184719E+02  0.17830670792E+02  0.46781794523E+02  0.00000000000E+00 0.  1.
         14    1    3    3    0    0  0.11477531199E+03  0.55067370057E+02 -0.84498118652E+02  0.15279306117E+03  0.00000000000E+00 0. -1.
         13    1    5    5    0    0 -0.89908136584E+01  0.72298252167E+02  0.53924884381E+03  0.54414813016E+03  0.00000000000E+00 0. -1.
        -14    1    5    5    0    0 -0.74165073636E+01 -0.19112887323E+02  0.71508429029E+02  0.74389263107E+02  0.00000000000E+00 0.  1.
          5    1    4    4  501    0 -0.99691584820E+02 -0.39826883663E+02  0.44243196893E+02  0.11618745895E+03  0.41800000000E+01 0. -1.
         -5    1    4    4    0  501 -0.35226037596E+02 -0.45301666518E+02  0.16681889148E+03  0.17646282801E+03  0.41800000000E+01 0. -1.
</event>
<event>
11    1  0.7577197E-009  0.1403876E+03  0.7561462E-02  0.1107126E+00
         22   -1    0    0    0    0  0.00000000000E+00  0.00000000000E+00  0.30353285407E+03  0.30353285407E+03  0.00000000000E+00 0. -1.
         22   -1    0    0    0    0 -0.00000000000E+00 -0.00000000000E+00 -0.71130224696E+03  0.71130224696E+03  0.00000000000E+00 0.  1.
        -24    2    1    2    0    0  0.29539958217E+02 -0.15013530290E+01 -0.55032590355E+03  0.55685939262E+03  0.79742835661E+02 0.  0.
         25    2    1    2    0    0 -0.14510304128E+02  0.63750567415E+02 -0.11430827825E+03  0.18162832767E+03  0.12509109947E+03 0.  0.
         24    2    1    2    0    0 -0.15029654089E+02 -0.62249214386E+02  0.25686478891E+03  0.27634738074E+03  0.79293756774E+02 0.  0.
        -11    1    5    5    0    0 -0.62622891743E+01 -0.15828161698E+02  0.19975109144E+01  0.17138757782E+02  0.00000000000E+00 0.  1.
         12    1    5    5    0    0 -0.87673649146E+01 -0.46421052688E+02  0.25486727800E+03  0.25920862296E+03  0.00000000000E+00 0. -1.
         13    1    3    3    0    0  0.45664056182E+02 -0.19392972515E+02 -0.21413918381E+03  0.21981101758E+03  0.00000000000E+00 0. -1.
        -14    1    3    3    0    0 -0.16124097964E+02  0.17891619486E+02 -0.33618671974E+03  0.33704837504E+03  0.00000000000E+00 0.  1.
          5    1    4    4  501    0 -0.20889423828E+01  0.98981784968E+02 -0.60873336366E+02  0.11629614317E+03  0.41800000000E+01 0.  1.
         -5    1    4    4    0  501 -0.12421361745E+02 -0.35231217554E+02 -0.53434941884E+02  0.65332184504E+02  0.41800000000E+01 0.  1.
</event>
<event>
11    1  0.7577197E-009  0.2013686E+03  0.7561462E-02  0.1053560E+00
         22   -1    0    0    0    0  0.00000000000E+00  0.00000000000E+00  0.95156421831E+03  0.95156421831E+03  0.00000000000E+00 0.  1.
         22   -1    0    0    0    0 -0.00000000000E+00 -0.00000000000E+00 -0.30703029359E+03  0.30703029359E+03  0.00000000000E+00 0.  1.
        -24    2    1    2    0    0 -0.13644934428E+03  0.14988117498E+02 -0.19537370961E+03  0.25139095898E+03  0.78634983506E+02 0.  0.
         25    2    1    2    0    0  0.25969253185E+03 -0.84293148580E+02  0.23651530425E+03  0.38227266322E+03  0.12508938363E+03 0.  0.
         24    2    1    2    0    0 -0.12324318757E+03  0.69305031082E+02  0.60339233007E+03  0.62493088970E+03  0.80400511803E+02 0.  0.
        -11    1    5    5    0    0 -0.12198091962E+03  0.37388221446E+02  0.42633616161E+03  0.44501656885E+03  0.00000000000E+00 0.  1.
         12    1    5    5    0    0 -0.12622679543E+01  0.31916809635E+02  0.17705616846E+03  0.17991432085E+03  0.00000000000E+00 0. -1.
         13    1    3    3    0    0  0.87678573586E+01 -0.45648151902E+01 -0.23751046303E+02  0.25725960834E+02  0.00000000000E+00 0. -1.
        -14    1    3    3    0    0 -0.14521720164E+03  0.19552932689E+02 -0.17162266330E+03  0.22566499815E+03  0.00000000000E+00 0.  1.
          5    1    4    4  501    0  0.16111518353E+03 -0.46022941580E+02  0.63058740282E+02  0.17908124034E+03  0.41800000000E+01 0. -1.
         -5    1    4    4    0  501  0.98577348328E+02 -0.38270207000E+02  0.17345656397E+03  0.20319142288E+03  0.41800000000E+01 0. -1.
</event>
<event>
11    1  0.7577197E-009  0.1418240E+03  0.7561462E-02  0.1105539E+00
         22   -1    0    0    0    0  0.00000000000E+00  0.00000000000E+00  0.18696454426E+03  0.18696454426E+03  0.00000000000E+00 0. -1.
         22   -1    0    0    0    0 -0.00000000000E+00 -0.00000000000E+00 -0.98642092929E+03  0.98642092929E+03  0.00000000000E+00 0. -1.
        -24    2    1    2    0    0  0.64569278504E+02 -0.22138560291E+02 -0.86792029005E+03  0.87419871126E+03  0.79236666445E+02 0.  0.
         25    2    1    2    0    0 -0.38191577445E+02  0.30484248949E+02 -0.57883313163E+02  0.14625720625E+03  0.12511117622E+03 0.  0.
         24    2    1    2    0    0 -0.26377701059E+02 -0.83456886574E+01  0.12634721819E+03  0.15292955604E+03  0.81598994684E+02 0.  0.
        -13    1    5    5    0    0  0.20641573686E+02 -0.27018733007E+00  0.32330255877E+01  0.20894975949E+02  0.00000000000E+00 0.  1.
         14    1    5    5    0    0 -0.47019274745E+02 -0.80755013273E+01  0.12311419261E+03  0.13203458009E+03  0.00000000000E+00 0. -1.
         13    1    3    3    0    0 -0.33035782396E+01  0.19366724206E+02 -0.31157866194E+03  0.31219744748E+03  0.00000000000E+00 0. -1.
        -14    1    3    3    0    0  0.67872856744E+02 -0.41505284497E+02 -0.55634162812E+03  0.56200126379E+03  0.00000000000E+00 0.  1.
          5    1    4    4  501    0 -0.34830340236E+02  0.72046535408E+02 -0.65704922138E+02  0.10362656541E+03  0.41800000000E+01 0.  1.
         -5    1    4    4    0  501 -0.33612372088E+01 -0.41562286460E+02  0.78216089750E+01  0.42630640839E+02  0.41800000000E+01 0.  1.
</event>
<event>
11    1  0.7577197E-009  0.2354997E+03  0.7561462E-02  0.1031920E+00
         22   -1    0    0    0    0  0.00000000000E+00  0.00000000000E+00  0.43997149162E+03  0.43997149162E+03  0.00000000000E+00 0.  1.
         22   -1    0    0    0    0 -0.00000000000E+00 -0.00000000000E+00 -0.74722203327E+03  0.74722203327E+03  0.00000000000E+00 0.  1.
         24    2    1    2    0    0 -0.58135453380E+02 -0.16258727632E+02 -0.44758229560E+03  0.45852454843E+03  0.79188212634E+02 0.  0.
         25    2    1    2    0    0  0.22858319562E+03  0.10763742218E+03 -0.18817646818E+03  0.33896024222E+03  0.12509025005E+03 0.  0.
        -24    2    1    2    0    0 -0.17044774224E+03 -0.91378694551E+02  0.32850822213E+03  0.38970873424E+03  0.80949038819E+02 0.  0.
        -11    1    3    3    0    0 -0.44047206035E+02 -0.17131098638E+02 -0.43994378459E+03  0.44247504393E+03  0.00000000000E+00 0.  1.
         12    1    3    3    0    0 -0.14088247344E+02  0.87237100643E+00 -0.76385110046E+01  0.16049504503E+02  0.00000000000E+00 0. -1.
         13    1    5    5    0    0  0.33548711676E+01 -0.23500277542E+00  0.43719941848E+02  0.43849101496E+02  0.00000000000E+00 0. -1.
        -14    1    5    5    0    0 -0.17380261340E+03 -0.91143691776E+02  0.28478828028E+03  0.34585963275E+03  0.00000000000E+00 0.  1.
          5    1    4    4  501    0  0.20110573646E+02  0.56729918240E+02 -0.75175023431E+02  0.96392299193E+02  0.41800000000E+01 0.  1.
         -5    1    4    4    0  501  0.20847262197E+03  0.50907503943E+02 -0.11300144475E+03  0.24256794303E+03  0.41800000000E+01 0.  1.
</event>
<event>
11    1  0.7577197E-009  0.2931304E+03  0.7561462E-02  0.1003141E+00
         22   -1    0    0    0    0  0.00000000000E+00  0.00000000000E+00  0.22317728941E+03  0.22317728941E+03  0.00000000000E+00 0. -1.
         22   -1    0    0    0    0 -0.00000000000E+00 -0.00000000000E+00 -0.59352574671E+03  0.59352574671E+03  0.00000000000E+00 0. -1.
         24    2    1    2    0    0  0.64722829880E+02 -0.20326794881E+02 -0.17742051987E+03  0.20650064662E+03  0.81007733481E+02 0.  0.
         25    2    1    2    0    0  0.23223684636E+03 -0.35840349749E+02 -0.81882802799E+02  0.27849662528E+03  0.12504836433E+03 0.  0.
        -24    2    1    2    0    0 -0.29695967624E+03  0.56167144630E+02 -0.11104513463E+03  0.33170576422E+03  0.79736407280E+02 0.  0.
        -11    1    3    3    0    0  0.67874525544E+02  0.15410787391E+02 -0.11120764937E+03  0.13119292993E+03  0.00000000000E+00 0.  1.
         12    1    3    3    0    0 -0.31516956635E+01 -0.35737582272E+02 -0.66212870502E+02  0.75307716685E+02  0.00000000000E+00 0. -1.
         13    1    5    5    0    0 -0.30079137434E+03  0.51956970211E+02 -0.10362951945E+03  0.32235703022E+03  0.00000000000E+00 0. -1.
        -14    1    5    5    0    0  0.38316981012E+01  0.42101744184E+01 -0.74156151781E+01  0.93487340021E+01  0.00000000000E+00 0.  1.
          5    1    4    4  501    0  0.13164457185E+03 -0.16524164733E+01  0.17595015605E+02  0.13289123655E+03  0.41800000000E+01 0. -1.
         -5    1    4    4    0  501  0.10059227451E+03 -0.34187933276E+02 -0.99477818405E+02  0.14560538873E+03  0.41800000000E+01 0. -1.
</event>
<event>
11    1  0.7577197E-009  0.1469791E+03  0.7561462E-02  0.1100006E+00
         22   -1    0    0    0    0  0.00000000000E+00  0.00000000000E+00  0.97911629569E+03  0.97911629569E+03  0.00000000000E+00 0. -1.
         22   -1    0    0    0    0 -0.00000000000E+00 -0.00000000000E+00 -0.50802124999E+03  0.50802124999E+03  0.00000000000E+00 0. -1.
        -24    2    1    2    0    0  0.19875360340E+02  0.53836048886E+02 -0.48199469303E+03  0.49338312828E+03  0.88400662031E+02 0.  0.
         25    2    1    2    0    0 -0.36137098940E+02  0.34530148659E+02  0.28850351484E+03  0.31840142053E+03  0.12508783089E+03 0.  0.
         24    2    1    2    0    0  0.16261738600E+02 -0.88366197546E+02  0.66458622388E+03  0.67535299687E+03  0.79710679262E+02 0.  0.
        -13    1    5    5    0    0  0.10313508130E+02  0.12753488274E+02  0.54491693721E+02  0.56906630525E+02  0.00000000000E+00 0.  1.
         14    1    5    5    0    0  0.59482304705E+01 -0.10111968582E+03  0.61009453016E+03  0.61844636634E+03  0.00000000000E+00 0. -1.
         11    1    3    3    0    0  0.52955878598E+02  0.16400917829E+02 -0.25327042247E+03  0.25926670068E+03  0.00000000000E+00 0. -1.
        -12    1    3    3    0    0 -0.33080518259E+02  0.37435131058E+02 -0.22872427057E+03  0.23411642760E+03  0.00000000000E+00 0.  1.
          5    1    4    4  501    0 -0.58769772613E+02 -0.76832494903E+01  0.58342226035E+02  0.83271881416E+02  0.41800000000E+01 0.  1.
         -5    1    4    4    0  501  0.22632673674E+02  0.42213398150E+02  0.23016128881E+03  0.23512953912E+03  0.41800000000E+01 0.  1.
</event>
<event>
11    1  0.7577197E-009  0.1339532E+03  0.7561462E-02  0.1114505E+00
         22   -1    0    0    0    0  0.00000000000E+00  0.00000000000E+00  0.46473795043E+03  0.46473795043E+03  0.00000000000E+00 0.  1.
         22   -1    0    0    0    0 -0.00000000000E+00 -0.00000000000E+00 -0.56541750794E+03  0.56541750794E+03  0.00000000000E+00 0. -1.
        -24    2    1    2    0    0 -0.43348336288E+02 -0.35367008110E+02 -0.52419017644E+03  0.53328401479E+03  0.80539405456E+02 0.  0.
         25    2    1    2    0    0 -0.11496845739E+02  0.43040439751E+02  0.12511663133E+03  0.18244565049E+03  0.12509031550E+03 0.  0.
         24    2    1    2    0    0  0.54845182027E+02 -0.76734316414E+01  0.29839398761E+03  0.31442579309E+03  0.82205425479E+02 0.  0.
        -11    1    5    5    0    0  0.98862173847E+01 -0.34858023319E+02  0.19619903080E+03  0.19951661277E+03  0.00000000000E+00 0.  1.
         12    1    5    5    0    0  0.44958964642E+02  0.27184591677E+02  0.10219495681E+03  0.11490918033E+03  0.00000000000E+00 0. -1.
         13    1    3    3    0    0 -0.28573516002E+02 -0.59904811151E+02 -0.42070525225E+03  0.42590837218E+03  0.00000000000E+00 0. -1.
        -14    1    3    3    0    0 -0.14774820286E+02  0.24537803042E+02 -0.10348492419E+03  0.10737564261E+03  0.00000000000E+00 0.  1.
          5    1    4    4  501    0 -0.24529635188E+02 -0.13272233501E+02 -0.14186599536E+02  0.31568769234E+02  0.41800000000E+01 0. -1.
         -5    1    4    4    0  501  0.13032789448E+02  0.56312673252E+02  0.13930323086E+03  0.15087688126E+03  0.41800000000E+01 0. -1.
</event>
<event>
11    1  0.7577197E-009  0.1374963E+03  0.7561462E-02  0.1110387E+00
         22   -1    0    0    0    0  0.00000000000E+00  0.00000000000E+00  0.47895534023E+03  0.47895534023E+03  0.00000000000E+00 0. -1.
         22   -1    0    0    0    0 -0.00000000000E+00 -0.00000000000E+00 -0.68025972722E+03  0.68025972722E+03  0.00000000000E+00 0.  1.
        -24    2    1    2    0    0  0.16093663646E+02 -0.50768977009E+02 -0.50780855687E+03  0.51689528308E+03  0.80465571581E+02 0.  0.
         25    2    1    2    0    0 -0.51771246146E+01  0.89697245732E+02 -0.12704566337E+03  0.19965204731E+03  0.12509172994E+03 0.  0.
         24    2    1    2    0    0 -0.10916539031E+02 -0.38928268723E+02  0.43354983325E+03  0.44266773706E+03  0.79716288156E+02 0.  0.
        -13    1    5    5    0    0  0.75411180949E+01 -0.14150973760E+02  0.12102826885E+02  0.20089722226E+02  0.00000000000E+00 0.  1.
         14    1    5    5    0    0 -0.18457657126E+02 -0.24777294963E+02  0.42144700636E+03  0.42257801484E+03  0.00000000000E+00 0. -1.
         11    1    3    3    0    0  0.10177246443E+02 -0.50331781937E+02 -0.14134575342E+03  0.15038446272E+03  0.00000000000E+00 0. -1.
        -12    1    3    3    0    0  0.59164172033E+01 -0.43719507248E+00 -0.36646280345E+03  0.36651082036E+03  0.00000000000E+00 0.  1.
          5    1    4    4  501    0  0.59214704864E+02  0.53468100779E+02 -0.69888758749E+02  0.10614673840E+03  0.41800000000E+01 0.  1.
         -5    1    4    4    0  501 -0.64391829479E+02  0.36229144953E+02 -0.57156904625E+02  0.93505308908E+02  0.41800000000E+01 0.  1.
</event>
<event>
11    1  0.7577197E-009  0.1410016E+03  0.7561462E-02  0.1106445E+00
         22   -1    0    0    0    0  0.00000000000E+00  0.00000000000E+00  0.10061393494E+04  0.10061393494E+04  0.00000000000E+00 0. -1.
         22   -1    0    0    0    0 -0.00000000000E+00 -0.00000000000E+00 -0.47671718375E+02  0.47671718375E+02  0.00000000000E+00 0.  1.
         24    2    1    2    0    0  0.47734570113E+02 -0.35747172778E+02  0.56271094935E+02  0.11559838810E+03  0.81486818945E+02 0.  0.
         25    2    1    2    0    0 -0.82120058285E+02  0.44959256701E+02  0.42664662396E+03  0.45435693583E+03  0.12509134529E+03 0.  0.
        -24    2    1    2    0    0  0.34385488172E+02 -0.92120839222E+01  0.47554991215E+03  0.48385574386E+03  0.81862308973E+02 0.  0.
        -11    1    3    3    0    0  0.14834655698E+02 -0.55611504139E+02  0.50821245401E+02  0.76782194462E+02  0.00000000000E+00 0.  1.
         12    1    3    3    0    0  0.32899914415E+02  0.19864331361E+02  0.54498495337E+01  0.38816193643E+02  0.00000000000E+00 0. -1.
         13    1    5    5    0    0  0.30317073686E+02  0.27301760948E+02  0.36691702314E+03  0.36917829429E+03  0.00000000000E+00 0. -1.
        -14    1    5    5    0    0  0.40684144859E+01 -0.36513844870E+02  0.10863288901E+03  0.11467744957E+03  0.00000000000E+00 0.  1.
          5    1    4    4  501    0  0.33298348993E+02  0.12287924851E+02  0.11360435688E+03  0.11909322165E+03  0.41800000000E+01 0. -1.
         -5    1    4    4    0  501 -0.11541840728E+03  0.32671331850E+02  0.31304226708E+03  0.33526371417E+03  0.41800000000E+01 0. -1.
</event>
<event>
11    1  0.7577197E-009  0.1488477E+03  0.7561462E-02  0.1098062E+00
         22   -1    0    0    0    0  0.00000000000E+00  0.00000000000E+00  0.22199279929E+03  0.22199279929E+03  0.00000000000E+00 0.  1.
         22   -1    0    0    0    0 -0.00000000000E+00 -0.00000000000E+00 -0.30113899450E+03  0.30113899450E+03  0.00000000000E+00 0. -1.
        -24    2    1    2    0    0 -0.52995671964E+02 -0.31052351009E+02 -0.17819659404E+03  0.20512165728E+03  0.80920197766E+02 0.  0.
         25    2    1    2    0    0  0.11394791660E+03  0.60192338295E+02  0.76788212598E+01  0.17976106854E+03  0.12509129537E+03 0.  0.
         24    2    1    2    0    0 -0.60952244638E+02 -0.29139987286E+02  0.91371577574E+02  0.13824906798E+03  0.78738330078E+02 0.  0.
        -13    1    5    5    0    0 -0.72957034380E+02 -0.42564116629E+02  0.66292408274E+02  0.10737372251E+03  0.00000000000E+00 0.  1.
         14    1    5    5    0    0  0.12004789742E+02  0.13424129343E+02  0.25079169300E+02  0.30875345474E+02  0.00000000000E+00 0. -1.
         13    1    3    3    0    0 -0.33730417619E+02 -0.29341955731E+02 -0.18021321520E+03  0.18567577756E+03  0.00000000000E+00 0. -1.
        -14    1    3    3    0    0 -0.19265254346E+02 -0.17103952786E+01  0.20166211637E+01  0.19445879716E+02  0.00000000000E+00 0.  1.
          5    1    4    4  501    0  0.55976311118E+02 -0.23674453929E+02 -0.33736727754E+02  0.69638110075E+02  0.41800000000E+01 0.  1.
         -5    1    4    4    0  501  0.57971605484E+02  0.83866792224E+02  0.41415549014E+02  0.11012295846E+03  0.41800000000E+01 0.  1.
</event>
<event>
11    1  0.7577197E-009  0.1717034E+03  0.7561462E-02  0.1076559E+00
         22   -1    0    0    0    0  0.00000000000E+00  0.00000000000E+00  0.27929688457E+03  0.27929688457E+03  0.00000000000E+00 0.  1.
         22   -1    0    0    0    0 -0.00000000000E+00 -0.00000000000E+00 -0.75279312903E+03  0.75279312903E+03  0.00000000000E+00 0. -1.
         24    2    1    2    0    0 -0.20289780831E+02  0.10969820688E+03 -0.58112645305E+03  0.59904375610E+03  0.93274302399E+02 0.  0.
         25    2    1    2    0    0 -0.17756945031E+02 -0.17791193913E+03 -0.64547141158E+02  0.22755653788E+03  0.12509067638E+03 0.  0.
        -24    2    1    2    0    0  0.38046725863E+02  0.68213732253E+02  0.17217734974E+03  0.20548971962E+03  0.80500425385E+02 0.  0.
        -13    1    3    3    0    0  0.16452120157E+02  0.34886994631E+02 -0.60235384836E+02  0.71526751907E+02  0.00000000000E+00 0.  1.
         14    1    3    3    0    0 -0.36741900989E+02  0.74811212251E+02 -0.52089106822E+03  0.52751700419E+03  0.00000000000E+00 0. -1.
         11    1    5    5    0    0 -0.22071260555E+02  0.91419076003E+01  0.18492046505E+02  0.30210441920E+02  0.00000000000E+00 0. -1.
        -12    1    5    5    0    0  0.60117986418E+02  0.59071824653E+02  0.15368530324E+03  0.17527927770E+03  0.00000000000E+00 0.  1.
          5    1    4    4  501    0  0.45830654615E+02 -0.24647496119E+02 -0.16763562298E+02  0.54830989306E+02  0.41800000000E+01 0. -1.
         -5    1    4    4    0  501 -0.63587599646E+02 -0.15326444302E+03 -0.47783578860E+02  0.17272554857E+03  0.41800000000E+01 0. -1.
</event>
<event>
11    1  0.7577197E-009  0.1469008E+03  0.7561462E-02  0.1100088E+00
         22   -1    0    0    0    0  0.00000000000E+00  0.00000000000E+00  0.10503919973E+04  0.10503919973E+04  0.00000000000E+00 0. -1.
         22   -1    0    0    0    0 -0.00000000000E+00 -0.00000000000E+00 -0.39383506719E+03  0.39383506719E+03  0.00000000000E+00 0. -1.
        -24    2    1    2    0    0 -0.19088614443E+02  0.47650082999E+02 -0.28338388915E+03  0.29931788233E+03  0.81546676476E+02 0.  0.
         25    2    1    2    0    0  0.76222852129E+02  0.48172699631E+01 -0.45191169436E+02  0.15337391561E+03  0.12509271329E+03 0.  0.
         24    2    1    2    0    0 -0.57134237687E+02 -0.52467352962E+02  0.98513198867E+03  0.99153526653E+03  0.81486228431E+02 0.  0.
        -11    1    5    5    0    0 -0.51487791463E+02 -0.40276375869E+02  0.33796726312E+03  0.34423109979E+03  0.00000000000E+00 0.  1.
         12    1    5    5    0    0 -0.56464462239E+01 -0.12190977092E+02  0.64716472555E+03  0.64730416674E+03  0.00000000000E+00 0. -1.
         13    1    3    3    0    0 -0.49236881226E+02  0.18844098033E+02 -0.12788949584E+03  0.13832965572E+03  0.00000000000E+00 0. -1.
        -14    1    3    3    0    0  0.30148266783E+02  0.28805984966E+02 -0.15549439331E+03  0.16098822662E+03  0.00000000000E+00 0.  1.
          5    1    4    4  501    0  0.89277275888E+02 -0.23550716358E+00  0.15709529694E+02  0.90745518769E+02  0.41800000000E+01 0. -1.
         -5    1    4    4    0  501 -0.13054423758E+02  0.50527771267E+01 -0.60900699129E+02  0.62628396840E+02  0.41800000000E+01 0. -1.
</event>
<event>
11    1  0.7577197E-009  0.2713201E+03  0.7561462E-02  0.1013117E+00
         22   -1    0    0    0    0  0.00000000000E+00  0.00000000000E+00  0.51167727281E+03  0.51167727281E+03  0.00000000000E+00 0. -1.
         22   -1    0    0    0    0 -0.00000000000E+00 -0.00000000000E+00 -0.27426874129E+03  0.27426874129E+03  0.00000000000E+00 0. -1.
        -24    2    1    2    0    0  0.23394752777E+03  0.38864514496E+02 -0.11006780438E+03  0.27405135687E+03  0.82142123196E+02 0.  0.
         25    2    1    2    0    0 -0.25036453865E+03 -0.37495751147E+02  0.20993372594E+03  0.35186336748E+03  0.12508927419E+03 0.  0.
         24    2    1    2    0    0  0.16417010882E+02 -0.13687633483E+01  0.13754260995E+03  0.16003128976E+03  0.80128973469E+02 0.  0.
        -13    1    5    5    0    0 -0.90243934959E+01  0.34539661411E+02  0.79878058995E+02  0.87492469374E+02  0.00000000000E+00 0.  1.
         14    1    5    5    0    0  0.25441404378E+02 -0.35908424759E+02  0.57664550960E+02  0.72538820385E+02  0.00000000000E+00 0. -1.
         11    1    3    3    0    0  0.19863262387E+03  0.34623921666E+02 -0.12302439250E+03  0.23619639364E+03  0.00000000000E+00 0. -1.
        -12    1    3    3    0    0  0.35314903900E+02  0.42405928295E+01  0.12956588128E+02  0.37854963227E+02  0.00000000000E+00 0.  1.
          5    1    4    4  501    0 -0.11325623003E+03 -0.46023722767E+02  0.16868868443E+03  0.20837106649E+03  0.41800000000E+01 0.  1.
         -5    1    4    4    0  501 -0.13710830862E+03  0.85279716202E+01  0.41245041510E+02  0.14349230098E+03  0.41800000000E+01 0.  1.
</event>
<event>
11    1  0.7577197E-009  0.1554701E+03  0.7561462E-02  0.1091417E+00
         22   -1    0    0    0    0  0.00000000000E+00  0.00000000000E+00  0.53594036286E+03  0.53594036286E+03  0.00000000000E+00 0. -1.
         22   -1    0    0    0    0 -0.00000000000E+00 -0.00000000000E+00 -0.10668078712E+04  0.10668078712E+04  0.00000000000E+00 0. -1.
         24    2    1    2    0    0  0.84259941331E+02  0.39681540097E+02 -0.95047738107E+03  0.95889961069E+03  0.86063053121E+02 0.  0.
         25    2    1    2    0    0 -0.93396673029E+02  0.96289495058E+01 -0.50471671242E+02  0.16435079180E+03  0.12509251763E+03 0.  0.
        -24    2    1    2    0    0  0.91367316988E+01 -0.49310489602E+02  0.47008154401E+03  0.47949783154E+03  0.80165504982E+02 0.  0.
        -11    1    3    3    0    0  0.34360507685E+02 -0.28344387477E+01 -0.97675407214E+02  0.10358167650E+03  0.00000000000E+00 0.  1.
         12    1    3    3    0    0  0.49899433645E+02  0.42515978844E+02 -0.85280197385E+03  0.85531793419E+03  0.00000000000E+00 0. -1.
         13    1    5    5    0    0  0.42032582830E+02 -0.23835459565E+02  0.32484484557E+03  0.32841900196E+03  0.00000000000E+00 0. -1.
        -14    1    5    5    0    0 -0.32895851132E+02 -0.25475030037E+02  0.14523669843E+03  0.15107882958E+03  0.00000000000E+00 0.  1.
          5    1    4    4  501    0 -0.89304000935E+02 -0.44337579077E+02 -0.18937344149E+02  0.10157322927E+03  0.41800000000E+01 0. -1.
         -5    1    4    4    0  501 -0.40926720941E+01  0.53966528583E+02 -0.31534327094E+02  0.62777562532E+02  0.41800000000E+01 0. -1.
</event>
<event>
11    1  0.7577197E-009  0.3045752E+03  0.7561462E-02  0.9982733E-01
         22   -1    0    0    0    0  0.00000000000E+00  0.00000000000E+00  0.43510438742E+03  0.43510438742E+03  0.00000000000E+00 0. -1.
         22   -1    0    0    0    0 -0.00000000000E+00 -0.00000000000E+00 -0.24427333113E+04  0.24427333113E+04  0.00000000000E+00 0.  1.
        -24    2    1    2    0    0  0.45606225802E+02 -0.42192327237E+02 -0.18574635755E+04  0.18603530316E+04  0.82959914705E+02 0.  0.
         25    2    1    2    0    0  0.21186469823E+03  0.15221229994E+03 -0.49049982517E+03  0.56946680700E+03  0.12508849335E+03 0.  0.
         24    2    1    2    0    0 -0.25747092403E+03 -0.11001997271E+03  0.34033447680E+03  0.44801786014E+03  0.80602579289E+02 0.  0.
        -13    1    5    5    0    0 -0.84709161084E+02 -0.19307339449E+02  0.56705514310E+02  0.10374936473E+03  0.00000000000E+00 0.  1.
         14    1    5    5    0    0 -0.17276176295E+03 -0.90712633257E+02  0.28362896249E+03  0.34426849541E+03  0.00000000000E+00 0. -1.
         11    1    3    3    0    0  0.20133060735E+02  0.82805732389E+01 -0.11928183741E+03  0.12125207118E+03  0.00000000000E+00 0. -1.
        -12    1    3    3    0    0  0.25473165066E+02 -0.50472900476E+02 -0.17381817381E+04  0.17391009604E+04  0.00000000000E+00 0.  1.
          5    1    4    4  501    0  0.60319574667E+02  0.11698302743E+03 -0.25827468045E+03  0.28990819711E+03  0.41800000000E+01 0.  1.
         -5    1    4    4    0  501  0.15154512356E+03  0.35229272516E+02 -0.23222514473E+03  0.27955860989E+03  0.41800000000E+01 0.  1.
</event>
<event>
11    1  0.7577197E-009  0.1435599E+03  0.7561462E-02  0.1103647E+00
         22   -1    0    0    0    0  0.00000000000E+00  0.00000000000E+00  0.54720654252E+03  0.54720654252E+03  0.00000000000E+00 0. -1.
         22   -1    0    0    0    0 -0.00000000000E+00 -0.00000000000E+00 -0.41015798967E+03  0.41015798967E+03  0.00000000000E+00 0.  1.
        -24    2    1    2    0    0  0.19280406736E+00  0.70289519484E+02 -0.36746976675E+03  0.38288592728E+03  0.81406081579E+02 0.  0.
         25    2    1    2    0    0  0.41218167870E+02 -0.75501727707E+02  0.16546323738E+03  0.22453632563E+03  0.12505610881E+03 0.  0.
         24    2    1    2    0    0 -0.41410971937E+02  0.52122082234E+01  0.33905508221E+03  0.34994227928E+03  0.75889487701E+02 0.  0.
        -13    1    5    5    0    0 -0.87301030554E+01 -0.27676024678E+02  0.55576147404E+02  0.62696771860E+02  0.00000000000E+00 0.  1.
         14    1    5    5    0    0 -0.32680868882E+02  0.32888232901E+02  0.28347893481E+03  0.28724550742E+03  0.00000000000E+00 0. -1.
         11    1    3    3    0    0  0.50592030109E+01 -0.14137869285E+02 -0.12888562192E+03  0.12975738292E+03  0.00000000000E+00 0. -1.
        -12    1    3    3    0    0 -0.48663989435E+01  0.84427388769E+02 -0.23858414482E+03  0.25312854437E+03  0.00000000000E+00 0.  1.
          5    1    4    4  501    0  0.11880564961E+02  0.24790623899E+02 -0.11403319467E+01  0.27829761300E+02  0.41800000000E+01 0. -1.
         -5    1    4    4    0  501  0.29337602909E+02 -0.10029235161E+03  0.16660356933E+03  0.19670656433E+03  0.41800000000E+01 0. -1.
</event>
<event>
11    1  0.7577197E-009  0.1506590E+03  0.7561462E-02  0.1096207E+00
         22   -1    0    0    0    0  0.00000000000E+00  0.00000000000E+00  0.29121750362E+03  0.29121750362E+03  0.00000000000E+00 0. -1.
         22   -1    0    0    0    0 -0.00000000000E+00 -0.00000000000E+00 -0.18220628022E+03  0.18220628022E+03  0.00000000000E+00 0. -1.
         24    2    1    2    0    0  0.23425315211E+02 -0.78151486066E+02 -0.86375663683E+02  0.15109895926E+03  0.93347415855E+02 0.  0.
         25    2    1    2    0    0 -0.32161312272E+02  0.87187348466E+02  0.64968239545E+02  0.16880808997E+03  0.12505724829E+03 0.  0.
        -24    2    1    2    0    0  0.87359970610E+01 -0.90358623994E+01  0.13041864754E+03  0.15351673461E+03  0.80002498240E+02 0.  0.
        -13    1    3    3    0    0 -0.25289735692E+02 -0.51083086681E+02 -0.12151184905E+02  0.58281247163E+02  0.00000000000E+00 0.  1.
         14    1    3    3    0    0  0.48715050903E+02 -0.27068399385E+02 -0.74224478779E+02  0.92817712101E+02  0.00000000000E+00 0. -1.
         11    1    5    5    0    0  0.17233962551E+02  0.90407504891E+00  0.13754518286E+03  0.13862360601E+03  0.00000000000E+00 0. -1.
        -12    1    5    5    0    0 -0.84979654896E+01 -0.99399374484E+01 -0.71265353119E+01  0.14893128600E+02  0.00000000000E+00 0.  1.
          5    1    4    4  501    0 -0.56276207073E+02  0.42904781612E+02  0.88180214005E+02  0.11314174433E+03  0.41800000000E+01 0. -1.
         -5    1    4    4    0  501  0.24114894801E+02  0.44282566854E+02 -0.23211974460E+02  0.55666345638E+02  0.41800000000E+01 0. -1.
</event>
<event>
11    1  0.7577197E-009  0.1335455E+03  0.7561462E-02  0.1114988E+00
         22   -1    0    0    0    0  0.00000000000E+00  0.00000000000E+00  0.10350282456E+04  0.10350282456E+04  0.00000000000E+00 0. -1.
         22   -1    0    0    0    0 -0.00000000000E+00 -0.00000000000E+00 -0.46931131749E+03  0.46931131749E+03  0.00000000000E+00 0. -1.
         24    2    1    2    0    0 -0.26346338683E+02  0.36975259764E+02 -0.41732501575E+03  0.42715156548E+03  0.78974627072E+02 0.  0.
         25    2    1    2    0    0  0.53368369188E+02 -0.63404838535E+02  0.80334082249E+02  0.17019249942E+03  0.12507424078E+03 0.  0.
        -24    2    1    2    0    0 -0.27022030505E+02  0.26429578771E+02  0.90270786165E+03  0.90699549823E+03  0.79565303729E+02 0.  0.
        -11    1    3    3    0    0 -0.88532654466E+01  0.53826795955E+02 -0.16773320006E+03  0.17638064144E+03  0.00000000000E+00 0.  1.
         12    1    3    3    0    0 -0.17493073236E+02 -0.16851536191E+02 -0.24959181569E+03  0.25077092404E+03  0.00000000000E+00 0. -1.
         11    1    5    5    0    0 -0.16990767616E+02 -0.20341234730E+02  0.59516506310E+03  0.59575490292E+03  0.00000000000E+00 0. -1.
        -12    1    5    5    0    0 -0.10031262889E+02  0.46770813502E+02  0.30754279855E+03  0.31124059532E+03  0.00000000000E+00 0.  1.
          5    1    4    4  501    0  0.28901796910E+02  0.64370024480E+00 -0.28942480560E+02  0.41120162884E+02  0.41800000000E+01 0. -1.
         -5    1    4    4    0  501  0.24466572278E+02 -0.64048538780E+02  0.10927656281E+03  0.12907233653E+03  0.41800000000E+01 0. -1.
</event>
<event>
11    1  0.7577197E-009  0.1334682E+03  0.7561462E-02  0.1115080E+00
         22   -1    0    0    0    0  0.00000000000E+00  0.00000000000E+00  0.45356528781E+03  0.45356528781E+03  0.00000000000E+00 0.  1.
         22   -1    0    0    0    0 -0.00000000000E+00 -0.00000000000E+00 -0.10715641167E+04  0.10715641167E+04  0.00000000000E+00 0. -1.
        -24    2    1    2    0    0 -0.18687940474E+02  0.33031968242E+02 -0.95532198241E+03  0.95949926822E+03  0.80983983579E+02 0.  0.
         25    2    1    2    0    0  0.50345353587E+00 -0.74680935309E+02 -0.59966215134E+02  0.15754589709E+03  0.12508903697E+03 0.  0.
         24    2    1    2    0    0  0.18184486938E+02  0.41648967066E+02  0.39728936861E+03  0.40808423923E+03  0.81416164680E+02 0.  0.
        -11    1    5    5    0    0  0.33325668439E+01  0.23034029149E+02  0.37417244127E+03  0.37489556987E+03  0.00000000000E+00 0.  1.
         12    1    5    5    0    0  0.14851920094E+02  0.18614937917E+02  0.23116927342E+02  0.33188669360E+02  0.00000000000E+00 0. -1.
         11    1    3    3    0    0 -0.38024066626E+01  0.66500618003E+01 -0.84664434634E+03  0.84667900104E+03  0.00000000000E+00 0. -1.
        -12    1    3    3    0    0 -0.14885533811E+02  0.26381906442E+02 -0.10867763608E+03  0.11282026718E+03  0.00000000000E+00 0.  1.
          5    1    4    4  501    0  0.29456991092E+02 -0.26671195339E+02 -0.86571937236E+02  0.95347992647E+02  0.41800000000E+01 0.  1.
         -5    1    4    4    0  501 -0.28953537557E+02 -0.48009739970E+02  0.26605722101E+02  0.62197904446E+02  0.41800000000E+01 0.  1.
</event>
<event>
11    1  0.7577197E-009  0.1630596E+03  0.7561462E-02  0.1084234E+00
         22   -1    0    0    0    0  0.00000000000E+00  0.00000000000E+00  0.15467065909E+04  0.15467065909E+04  0.00000000000E+00 0.  1.
         22   -1    0    0    0    0 -0.00000000000E+00 -0.00000000000E+00 -0.25242674277E+02  0.25242674277E+02  0.00000000000E+00 0.  1.
        -24    2    1    2    0    0 -0.91181519074E+02  0.11745177303E+02  0.39490749176E+03  0.41393174608E+03  0.83279918040E+02 0.  0.
         25    2    1    2    0    0  0.12550045675E+03 -0.11531308102E+02  0.67140339692E+03  0.69448794912E+03  0.12509058467E+03 0.  0.
         24    2    1    2    0    0 -0.34318937673E+02 -0.21386920068E+00  0.45515302796E+03  0.46352956999E+03  0.80731333305E+02 0.  0.
        -11    1    5    5    0    0 -0.28902032416E+02  0.29805515197E+02  0.11976238060E+03  0.12675458185E+03  0.00000000000E+00 0.  1.
         12    1    5    5    0    0 -0.54169052572E+01 -0.30019384398E+02  0.33539064736E+03  0.33677498814E+03  0.00000000000E+00 0. -1.
         13    1    3    3    0    0  0.15658808290E+02 -0.86897721771E+00  0.67670116733E+02  0.69463645867E+02  0.00000000000E+00 0. -1.
        -14    1    3    3    0    0 -0.10684032736E+03  0.12614154521E+02  0.32723737503E+03  0.34446810021E+03  0.00000000000E+00 0.  1.
          5    1    4    4  501    0  0.97546198052E+02 -0.63747196272E+02  0.39902410908E+03  0.41571225362E+03  0.41800000000E+01 0. -1.
         -5    1    4    4    0  501  0.27954258695E+02  0.52215888170E+02  0.27237928784E+03  0.27877569550E+03  0.41800000000E+01 0. -1.
</event>
<event>
11    1  0.7577197E-009  0.1977354E+03  0.7561462E-02  0.1056137E+00
         22   -1    0    0    0    0  0.00000000000E+00  0.00000000000E+00  0.20433022734E+04  0.20433022734E+04  0.00000000000E+00 0.  1.
         22   -1    0    0    0    0 -0.00000000000E+00 -0.00000000000E+00 -0.96376440662E+03  0.96376440662E+03  0.00000000000E+00 0. -1.
        -24    2    1    2    0    0  0.13566176079E+03  0.72103505886E+02 -0.72562789510E+03  0.74606177430E+03  0.80431958891E+02 0.  0.
         25    2    1    2    0    0 -0.15343861413E+03 -0.29818407302E+02 -0.18284629554E+03  0.27115819413E+03  0.12514572598E+03 0.  0.
         24    2    1    2    0    0  0.17776853342E+02 -0.42285098584E+02  0.19880120574E+04  0.19898467115E+04  0.72069057487E+02 0.  0.
        -13    1    5    5    0    0  0.44880233525E+02 -0.22687491364E+02  0.13793273606E+04  0.13802437920E+04  0.00000000000E+00 0.  1.
         14    1    5    5    0    0 -0.27103380182E+02 -0.19597607220E+02  0.60868469682E+03  0.60960291959E+03  0.00000000000E+00 0. -1.
         13    1    3    3    0    0  0.10063422578E+03  0.85948049448E+02 -0.49535087273E+03  0.51272487917E+03  0.00000000000E+00 0. -1.
        -14    1    3    3    0    0  0.35027535016E+02 -0.13844543561E+02 -0.23027702237E+03  0.23333689513E+03  0.00000000000E+00 0.  1.
          5    1    4    4  501    0  0.19070697966E+02  0.84025603743E+00 -0.25365546736E+01  0.19705432264E+02  0.41800000000E+01 0.  1.
         -5    1    4    4    0  501 -0.17250931210E+03 -0.30658663340E+02 -0.18030974087E+03  0.25145276187E+03  0.41800000000E+01 0.  1.
</event>
<event>
11    1  0.7577197E-009  0.1454432E+03  0.7561462E-02  0.1101628E+00
         22   -1    0    0    0    0  0.00000000000E+00  0.00000000000E+00  0.81613586044E+02  0.81613586044E+02  0.00000000000E+00 0.  1.
         22   -1    0    0    0    0 -0.00000000000E+00 -0.00000000000E+00 -0.17487768121E+04  0.17487768121E+04  0.00000000000E+00 0.  1.
         24    2    1    2    0    0  0.80582024696E+02 -0.15728564355E+02 -0.12180375017E+04  0.12234627798E+04  0.80653379801E+02 0.  0.
         25    2    1    2    0    0 -0.37597970981E+02  0.41866354184E+02 -0.48674225674E+03  0.50569807245E+03  0.12508443928E+03 0.  0.
        -24    2    1    2    0    0 -0.42984053715E+02 -0.26137789829E+02  0.37616532417E+02  0.10122954582E+03  0.79382646115E+02 0.  0.
        -13    1    3    3    0    0  0.62817916666E+02 -0.45702966237E+01 -0.11607101055E+04  0.11624177077E+04  0.00000000000E+00 0.  1.
         14    1    3    3    0    0  0.17764108030E+02 -0.11158267731E+02 -0.57327396235E+02  0.61045072134E+02  0.00000000000E+00 0. -1.
         11    1    5    5    0    0  0.72503993211E+01  0.22187206861E+02  0.34302474150E+01  0.23592520763E+02  0.00000000000E+00 0. -1.
        -12    1    5    5    0    0 -0.50234453036E+02 -0.48324996690E+02  0.34186285002E+02  0.77637025054E+02  0.00000000000E+00 0.  1.
          5    1    4    4  501    0  0.39969803751E+02  0.32048479662E+02 -0.11759505798E+03  0.12833846003E+03  0.41800000000E+01 0. -1.
         -5    1    4    4    0  501 -0.77567774732E+02  0.98178745216E+01 -0.36914719876E+03  0.37735961243E+03  0.41800000000E+01 0. -1.
</event>
<event>
11    1  0.7577197E-009  0.1862935E+03  0.7561462E-02  0.1064663E+00
         22   -1    0    0    0    0  0.00000000000E+00  0.00000000000E+00  0.45292507842E+03  0.45292507842E+03  0.00000000000E+00 0.  1.
         22   -1    0    0    0    0 -0.00000000000E+00 -0.00000000000E+00 -0.12033067231E+04  0.12033067231E+04  0.00000000000E+00 0.  1.
         24    2    1    2    0    0 -0.12667106703E+03  0.35002829504E+02 -0.96049943735E+03  0.97259760958E+03  0.78206033790E+02 0.  0.
         25    2    1    2    0    0  0.19689543358E+03 -0.13040183409E+03 -0.14260847916E+03  0.30291575286E+03  0.12509326482E+03 0.  0.
        -24    2    1    2    0    0 -0.70224366548E+02  0.95399004582E+02  0.35272627181E+03  0.38071843909E+03  0.80611880686E+02 0.  0.
        -11    1    3    3    0    0 -0.77050637873E+02  0.58375540380E+02 -0.54695562361E+03  0.55543222693E+03  0.00000000000E+00 0.  1.
         12    1    3    3    0    0 -0.49620429162E+02 -0.23372710876E+02 -0.41354381374E+03  0.41716538265E+03  0.00000000000E+00 0. -1.
         13    1    5    5    0    0  0.90537747429E+01 -0.40385696025E+01  0.64478897291E+01  0.11826079802E+02  0.00000000000E+00 0. -1.
        -14    1    5    5    0    0 -0.79278141291E+02  0.99437574184E+02  0.34627838208E+03  0.36889235929E+03  0.00000000000E+00 0.  1.
          5    1    4    4  501    0  0.11286635119E+03 -0.96713756559E+02 -0.19381975840E+02  0.14995164996E+03  0.41800000000E+01 0. -1.
         -5    1    4    4    0  501  0.84029082387E+02 -0.33688077527E+02 -0.12322650332E+03  0.15296410289E+03  0.41800000000E+01 0. -1.
</event>
<event>
11    1  0.7577197E-009  0.1318547E+03  0.7561462E-02  0.1117011E+00
         22   -1    0    0    0    0  0.00000000000E+00  0.00000000000E+00  0.49967800546E+03  0.49967800546E+03  0.00000000000E+00 0.  1.
         22   -1    0    0    0    0 -0.00000000000E+00 -0.00000000000E+00 -0.22034254547E+03  0.22034254547E+03  0.00000000000E+00 0. -1.
         24    2    1    2    0    0  0.28440445320E+02 -0.31464763125E+02 -0.15774561778E+03  0.18220333476E+03  0.80718554379E+02 0.  0.
         25    2    1    2    0    0 -0.31335036007E+02  0.20393784106E+02  0.45398049304E+02  0.13822548566E+03  0.12509001197E+03 0.  0.
        -24    2    1    2    0    0  0.28945906870E+01  0.11070979019E+02  0.39168302846E+03  0.39959173052E+03  0.78275226464E+02 0.  0.
        -13    1    3    3    0    0  0.16768539974E+01 -0.16101810551E+02  0.46961799982E+01  0.16856282180E+02  0.00000000000E+00 0.  1.
         14    1    3    3    0    0  0.26763591323E+02 -0.15362952574E+02 -0.16244179778E+03  0.16534705258E+03  0.00000000000E+00 0. -1.
         13    1    5    5    0    0  0.74988951933E+01  0.41054816340E+02  0.14002765736E+03  0.14611459954E+03  0.00000000000E+00 0. -1.
        -14    1    5    5    0    0 -0.46043045063E+01 -0.29983837322E+02  0.25165537111E+03  0.25347713098E+03  0.00000000000E+00 0.  1.
          5    1    4    4  501    0 -0.75358058013E+02  0.28496863394E+02  0.10586893452E+02  0.81366226678E+02  0.41800000000E+01 0. -1.
         -5    1    4    4    0  501  0.44023022006E+02 -0.81030792875E+01  0.34811155852E+02  0.56859258984E+02  0.41800000000E+01 0. -1.
</event>
<event>
11    1  0.7577197E-009  0.1432724E+03  0.7561462E-02  0.1103958E+00
         22   -1    0    0    0    0  0.00000000000E+00  0.00000000000E+00  0.20617568888E+04  0.20617568888E+04  0.00000000000E+00 0.  1.
         22   -1    0    0    0    0 -0.00000000000E+00 -0.00000000000E+00 -0.76619379135E+03  0.76619379135E+03  0.00000000000E+00 0.  1.
         24    2    1    2    0    0 -0.40463214899E+02 -0.58620878608E+02 -0.69204290505E+03  0.70039132370E+03  0.80937906607E+02 0.  0.
         25    2    1    2    0    0  0.59934451602E+02  0.14398811436E+02  0.17321533087E+01  0.13946310576E+03  0.12508994066E+03 0.  0.
        -24    2    1    2    0    0 -0.19471236702E+02  0.44222067171E+02  0.19858738492E+04  0.19880962507E+04  0.80604198718E+02 0.  0.
        -13    1    3    3    0    0 -0.54580148523E+02 -0.63202341957E+02 -0.65767749225E+03  0.66295792661E+03  0.00000000000E+00 0.  1.
         14    1    3    3    0    0  0.14116933624E+02  0.45814633493E+01 -0.34365412792E+02  0.37433397091E+02  0.00000000000E+00 0. -1.
         11    1    5    5    0    0 -0.44778423036E+02  0.57059943824E+01  0.12219672294E+04  0.12228007096E+04  0.00000000000E+00 0. -1.
        -12    1    5    5    0    0  0.25307186334E+02  0.38516072789E+02  0.76390661975E+03  0.76529554111E+03  0.00000000000E+00 0.  1.
          5    1    4    4  501    0 -0.15767338130E+02  0.20988081360E+00  0.47190662339E+02  0.49930792240E+02  0.41800000000E+01 0.  1.
         -5    1    4    4    0  501  0.75701789732E+02  0.14188930623E+02 -0.45458509031E+02  0.89532313519E+02  0.41800000000E+01 0.  1.
</event>
<event>
11    1  0.7577197E-009  0.1396260E+03  0.7561462E-02  0.1107977E+00
         22   -1    0    0    0    0  0.00000000000E+00  0.00000000000E+00  0.68037910936E+03  0.68037910936E+03  0.00000000000E+00 0.  1.
         22   -1    0    0    0    0 -0.00000000000E+00 -0.00000000000E+00 -0.10935436670E+04  0.10935436670E+04  0.00000000000E+00 0. -1.
         24    2    1    2    0    0  0.31971265305E+02 -0.31763940816E+02 -0.87610012825E+03  0.88108414179E+03  0.82016586407E+02 0.  0.
         25    2    1    2    0    0 -0.64175615635E+02  0.83901733075E+02 -0.17934812259E+03  0.24283025395E+03  0.12507107059E+03 0.  0.
        -24    2    1    2    0    0  0.32204350330E+02 -0.52137792260E+02  0.64228369315E+03  0.65000838067E+03  0.78911867861E+02 0.  0.
        -11    1    3    3    0    0  0.28013435985E+02  0.11234559150E+02 -0.11949388744E+03  0.12324673241E+03  0.00000000000E+00 0.  1.
         12    1    3    3    0    0  0.39578293192E+01 -0.42998499966E+02 -0.75660624082E+03  0.75783740938E+03  0.00000000000E+00 0. -1.
         11    1    5    5    0    0  0.25053292253E+02  0.71519735354E+01  0.71318945024E+02  0.75928980617E+02  0.00000000000E+00 0. -1.
        -12    1    5    5    0    0  0.71510580772E+01 -0.59289765795E+02  0.57096474813E+03  0.57407940005E+03  0.00000000000E+00 0.  1.
          5    1    4    4  501    0 -0.85861334440E+02  0.10157453415E+03 -0.16201402943E+03  0.20965584387E+03  0.41800000000E+01 0.  1.
         -5    1    4    4    0  501  0.21685718805E+02 -0.17672801073E+02 -0.17334093167E+02  0.33174410074E+02  0.41800000000E+01 0.  1.
</event>
<event>
11    1  0.7577197E-009  0.1296505E+03  0.7561462E-02  0.1119699E+00
         22   -1    0    0    0    0  0.00000000000E+00  0.00000000000E+00  0.29037365720E+03  0.29037365720E+03  0.00000000000E+00 0.  1.
         22   -1    0    0    0    0 -0.00000000000E+00 -0.00000000000E+00 -0.13453036519E+04  0.13453036519E+04  0.00000000000E+00 0.  1.
        -24    2    1    2    0    0 -0.30864203440E+02 -0.13153020594E+02 -0.12541926505E+04  0.12571567521E+04  0.79487696130E+02 0.  0.
         25    2    1    2    0    0  0.44440598109E+02  0.36795312712E+02 -0.23694047675E+02  0.13977520717E+03  0.12508732489E+03 0.  0.
         24    2    1    2    0    0 -0.13576394669E+02 -0.23642292118E+02  0.22295670348E+03  0.23874534981E+03  0.80909665423E+02 0.  0.
        -11    1    5    5    0    0 -0.23076832372E+02 -0.51216909861E+02  0.15012411719E+03  0.16029024490E+03  0.00000000000E+00 0.  1.
         12    1    5    5    0    0  0.95004377027E+01  0.27574617743E+02  0.72832586291E+02  0.78455104908E+02  0.00000000000E+00 0. -1.
         11    1    3    3    0    0  0.25527239933E+02 -0.12166598261E+02 -0.54038582310E+03  0.54112522016E+03  0.00000000000E+00 0. -1.
        -12    1    3    3    0    0 -0.56391443373E+02 -0.98642233225E+00 -0.71380682740E+03  0.71603153195E+03  0.00000000000E+00 0.  1.
          5    1    4    4  501    0  0.60326402305E+02  0.12360778450E+01  0.34496357817E+02  0.69629546933E+02  0.41800000000E+01 0. -1.
         -5    1    4    4    0  501 -0.15885804196E+02  0.35559234867E+02 -0.58190405492E+02  0.70145660241E+02  0.41800000000E+01 0. -1.
</event>
<event>
11    1  0.7577197E-009  0.2217658E+03  0.7561462E-02  0.1040117E+00
         22   -1    0    0    0    0  0.00000000000E+00  0.00000000000E+00  0.10605849385E+04  0.10605849385E+04  0.00000000000E+00 0. -1.
         22   -1    0    0    0    0 -0.00000000000E+00 -0.00000000000E+00 -0.90975556703E+02  0.90975556703E+02  0.00000000000E+00 0. -1.
         24    2    1    2    0    0 -0.91712965127E+01  0.48385813249E+02  0.12078663749E+02  0.99961130019E+02  0.86145422358E+02 0.  0.
         25    2    1    2    0    0 -0.17137659726E+03 -0.76893603763E+02  0.39699984784E+03  0.45666075506E+03  0.12509037387E+03 0.  0.
        -24    2    1    2    0    0  0.18054789377E+03  0.28507790514E+02  0.56053087021E+03  0.59493861013E+03  0.79667165771E+02 0.  0.
        -13    1    3    3    0    0 -0.16659013394E+02  0.70214697719E+00  0.40604051045E+02  0.43894244485E+02  0.00000000000E+00 0.  1.
         14    1    3    3    0    0  0.74877168811E+01  0.47683666272E+02 -0.28525387296E+02  0.56066885535E+02  0.00000000000E+00 0. -1.
         13    1    5    5    0    0  0.16145456636E+03 -0.12361633244E+01  0.49223154111E+03  0.51803570838E+03  0.00000000000E+00 0. -1.
        -14    1    5    5    0    0  0.19093327410E+02  0.29743953838E+02  0.68299329099E+02  0.76902901746E+02  0.00000000000E+00 0.  1.
          5    1    4    4  501    0  0.81737472885E+01 -0.18473474580E+02  0.45399009670E+01  0.21122559234E+02  0.41800000000E+01 0.  1.
         -5    1    4    4    0  501 -0.17955034454E+03 -0.58420129183E+02  0.39245994688E+03  0.43553819582E+03  0.41800000000E+01 0.  1.
</event>
<event>
11    1  0.7577197E-009  0.1906449E+03  0.7561462E-02  0.1061344E+00
         22   -1    0    0    0    0  0.00000000000E+00  0.00000000000E+00  0.57916329548E+03  0.57916329548E+03  0.00000000000E+00 0. -1.
         22   -1    0    0    0    0 -0.00000000000E+00 -0.00000000000E+00 -0.24326577836E+03  0.24326577836E+03  0.00000000000E+00 0.  1.
         24    2    1    2    0    0  0.12694978757E+03  0.30108653351E+00 -0.13125858606E+03  0.19338506271E+03  0.63660245427E+02 0.  0.
         25    2    1    2    0    0 -0.15132699979E+03  0.13281138059E+03  0.16641076872E+03  0.28962850816E+03  0.12511356887E+03 0.  0.
        -24    2    1    2    0    0  0.24377212223E+02 -0.13311246712E+03  0.30074533447E+03  0.33941550297E+03  0.80261759734E+02 0.  0.
        -13    1    3    3    0    0  0.12618525230E+03 -0.12180543889E+02 -0.12864114317E+03  0.18060904535E+03  0.00000000000E+00 0.  1.
         14    1    3    3    0    0  0.76453526910E+00  0.12481630423E+02 -0.26174428884E+01  0.12776017355E+02  0.00000000000E+00 0. -1.
         13    1    5    5    0    0  0.44029626291E+02 -0.77838835256E+02  0.12183671498E+03  0.15113463330E+03  0.00000000000E+00 0. -1.
        -14    1    5    5    0    0 -0.19652414068E+02 -0.55273631864E+02  0.17890861949E+03  0.18828086967E+03  0.00000000000E+00 0.  1.
          5    1    4    4  501    0 -0.12131882046E+03  0.25567893959E+02  0.10413185540E+03  0.16196570349E+03  0.41800000000E+01 0. -1.
         -5    1    4    4    0  501 -0.30008179327E+02  0.10724348663E+03  0.62278913324E+02  0.12766280467E+03  0.41800000000E+01 0. -1.
</event>
<event>
11    1  0.7577197E-009  0.2235336E+03  0.7561462E-02  0.1039026E+00
         22   -1    0    0    0    0  0.00000000000E+00  0.00000000000E+00  0.40601625130E+03  0.40601625130E+03  0.00000000000E+00 0. -1.
         22   -1    0    0    0    0 -0.00000000000E+00 -0.00000000000E+00 -0.37939980134E+03  0.37939980134E+03  0.00000000000E+00 0.  1.
         24    2    1    2    0    0  0.62870470770E+02  0.20315199440E+03 -0.20763493438E+03  0.31017944122E+03  0.88744525802E+02 0.  0.
         25    2    1    2    0    0 -0.12191127970E+03 -0.14247652771E+02  0.26434032292E+02  0.17727455331E+03  0.12514852560E+03 0.  0.
        -24    2    1    2    0    0  0.59040808931E+02 -0.18890434163E+03  0.20781735205E+03  0.29796205811E+03  0.80141555084E+02 0.  0.
        -11    1    3    3    0    0  0.11823997884E+02  0.15893487498E+03 -0.16934152492E+03  0.23254387430E+03  0.00000000000E+00 0.  1.
         12    1    3    3    0    0  0.51046472887E+02  0.44217119418E+02 -0.38293409458E+02  0.77635566925E+02  0.00000000000E+00 0. -1.
         13    1    5    5    0    0  0.70184013023E+02 -0.15145317682E+03  0.19533517255E+03  0.25694297050E+03  0.00000000000E+00 0. -1.
        -14    1    5    5    0    0 -0.11143204092E+02 -0.37451164812E+02  0.12482179500E+02  0.41019087609E+02  0.00000000000E+00 0.  1.
          5    1    4    4  501    0 -0.12429978575E+03  0.32057317203E+02  0.23985844071E+02  0.13065565981E+03  0.41800000000E+01 0.  1.
         -5    1    4    4    0  501  0.23885060489E+01 -0.46304969974E+02  0.24481882201E+01  0.46618893499E+02  0.41800000000E+01 0.  1.
</event>
<event>
11    1  0.7577197E-009  0.1575398E+03  0.7561462E-02  0.1089414E+00
         22   -1    0    0    0    0  0.00000000000E+00  0.00000000000E+00  0.29212962212E+03  0.29212962212E+03  0.00000000000E+00 0. -1.
         22   -1    0    0    0    0 -0.00000000000E+00 -0.00000000000E+00 -0.72337864341E+03  0.72337864341E+03  0.00000000000E+00 0. -1.
         24    2    1    2    0    0 -0.49664570188E+02 -0.29227776858E+02 -0.64747624348E+03  0.65510503024E+03  0.81340532983E+02 0.  0.
         25    2    1    2    0    0  0.11837582012E+03 -0.90878050331E+01  0.16187854590E+03  0.23652947772E+03  0.12508440037E+03 0.  0.
        -24    2    1    2    0    0 -0.68711249934E+02  0.38315581891E+02  0.54348676289E+02  0.12387375757E+03  0.78750298512E+02 0.  0.
        -11    1    3    3    0    0 -0.94108535291E+01 -0.17526342284E+02 -0.28756091601E+02  0.34966407338E+02  0.00000000000E+00 0.  1.
         12    1    3    3    0    0 -0.40253716659E+02 -0.11701434575E+02 -0.61872015188E+03  0.62013862290E+03  0.00000000000E+00 0. -1.
         13    1    5    5    0    0 -0.31208832422E+02 -0.35960111116E+01 -0.14812118287E+02  0.34732137355E+02  0.00000000000E+00 0. -1.
        -14    1    5    5    0    0 -0.37502417511E+02  0.41911593003E+02  0.69160794576E+02  0.89141620210E+02  0.00000000000E+00 0.  1.
          5    1    4    4  501    0 -0.22374772179E+02 -0.19191539954E+02  0.17192728183E+02  0.34380342323E+02  0.41800000000E+01 0.  1.
         -5    1    4    4    0  501  0.14075059230E+03  0.10103734921E+02  0.14468581772E+03  0.20214913539E+03  0.41800000000E+01 0.  1.
</event>
<event>
11    1  0.7577197E-009  0.1721209E+03  0.7561462E-02  0.1076201E+00
         22   -1    0    0    0    0  0.00000000000E+00  0.00000000000E+00  0.14553172097E+03  0.14553172097E+03  0.00000000000E+00 0. -1.
         22   -1    0    0    0    0 -0.00000000000E+00 -0.00000000000E+00 -0.16920126376E+04  0.16920126376E+04  0.00000000000E+00 0.  1.
         24    2    1    2    0    0 -0.10340536572E+03 -0.27235431028E+02 -0.11464357178E+04  0.11541931279E+04  0.80077980380E+02 0.  0.
         25    2    1    2    0    0  0.20914763070E+03 -0.75776932841E+01 -0.47081568621E+03  0.53020283850E+03  0.12508991449E+03 0.  0.
        -24    2    1    2    0    0 -0.10574226498E+03  0.34813124313E+02  0.70770487392E+02  0.15314839223E+03  0.77798379987E+02 0.  0.
        -11    1    3    3    0    0 -0.71826728410E+02 -0.28920827627E+02 -0.10467876150E+04  0.10496474666E+04  0.00000000000E+00 0.  1.
         12    1    3    3    0    0 -0.31578637312E+02  0.16853965983E+01 -0.99648102804E+02  0.10454566126E+03  0.00000000000E+00 0. -1.
         11    1    5    5    0    0 -0.51976572441E+02  0.22168469132E+02  0.79184168276E+02  0.97278659592E+02  0.00000000000E+00 0. -1.
        -12    1    5    5    0    0 -0.53765692537E+02  0.12644655181E+02 -0.84136808842E+01  0.55869732634E+02  0.00000000000E+00 0.  1.
          5    1    4    4  501    0  0.81297611103E+02 -0.61777249686E+02 -0.23922661596E+03  0.26013953243E+03  0.41800000000E+01 0. -1.
         -5    1    4    4    0  501  0.12785001960E+03  0.54199556402E+02 -0.23158907025E+03  0.27006330606E+03  0.41800000000E+01 0. -1.
</event>
<event>
11    1  0.7577197E-009  0.1416661E+03  0.7561462E-02  0.1105712E+00
         22   -1    0    0    0    0  0.00000000000E+00  0.00000000000E+00  0.63040815604E+03  0.63040815604E+03  0.00000000000E+00 0. -1.
         22   -1    0    0    0    0 -0.00000000000E+00 -0.00000000000E+00 -0.24741892345E+04  0.24741892345E+04  0.00000000000E+00 0.  1.
         24    2    1    2    0    0  0.33586704578E+00 -0.75070173866E+01 -0.14681308490E+04  0.14703707483E+04  0.80780440938E+02 0.  0.
         25    2    1    2    0    0 -0.11645111942E+02  0.72997391505E+02 -0.99532822600E+03  0.10058780345E+04  0.12509242570E+03 0.  0.
        -24    2    1    2    0    0  0.11309244897E+02 -0.65490374118E+02  0.61967799653E+03  0.62834860775E+03  0.80026654015E+02 0.  0.
        -13    1    3    3    0    0 -0.37964603643E+02  0.95801209066E+01 -0.68720498838E+03  0.68831953764E+03  0.00000000000E+00 0.  1.
         14    1    3    3    0    0  0.38300470689E+02 -0.17087138293E+02 -0.78092586062E+03  0.78205121069E+03  0.00000000000E+00 0. -1.
         11    1    5    5    0    0  0.20501257195E+02 -0.62756127446E+02  0.61327298700E+03  0.61681633382E+03  0.00000000000E+00 0. -1.
        -12    1    5    5    0    0 -0.91920122983E+01 -0.27342466722E+01  0.64050095303E+01  0.11532273932E+02  0.00000000000E+00 0.  1.
          5    1    4    4  501    0  0.45075388300E+02 -0.83118070390E+01 -0.32765904105E+03  0.33087580200E+03  0.41800000000E+01 0.  1.
         -5    1    4    4    0  501 -0.56720500242E+02  0.81309198544E+02 -0.66766918495E+03  0.67500223248E+03  0.41800000000E+01 0.  1.
</event>
<event>
11    1  0.7577197E-009  0.1471800E+03  0.7561462E-02  0.1099796E+00
         22   -1    0    0    0    0  0.00000000000E+00  0.00000000000E+00  0.29033970347E+03  0.29033970347E+03  0.00000000000E+00 0.  1.
         22   -1    0    0    0    0 -0.00000000000E+00 -0.00000000000E+00 -0.61439345922E+03  0.61439345922E+03  0.00000000000E+00 0.  1.
        -24    2    1    2    0    0 -0.76066500660E+02 -0.12300743694E+02 -0.50697535734E+03  0.51912107444E+03  0.80779057714E+02 0.  0.
         25    2    1    2    0    0  0.83268063586E+02 -0.22827520799E+01 -0.34192482329E+02  0.15415073384E+03  0.12511811030E+03 0.  0.
         24    2    1    2    0    0 -0.72015629255E+01  0.14583495774E+02  0.21711408391E+03  0.23146135441E+03  0.78557573125E+02 0.  0.
        -11    1    5    5    0    0  0.23536029368E+02  0.31819015733E+02  0.15573408722E+03  0.16068447456E+03  0.00000000000E+00 0.  1.
         12    1    5    5    0    0 -0.30737592294E+02 -0.17235519959E+02  0.61379996690E+02  0.70776879854E+02  0.00000000000E+00 0. -1.
         11    1    3    3    0    0  0.39885985863E+01 -0.29488143110E+02 -0.13571286418E+03  0.13893682379E+03  0.00000000000E+00 0. -1.
        -12    1    3    3    0    0 -0.80055099247E+02  0.17187399415E+02 -0.37126249316E+03  0.38018425065E+03  0.00000000000E+00 0.  1.
          5    1    4    4  501    0  0.11408112488E+03 -0.15597101435E+02 -0.34670129425E+02  0.12032149808E+03  0.41800000000E+01 0. -1.
         -5    1    4    4    0  501 -0.30813061292E+02  0.13314349355E+02  0.47764709628E+00  0.33829235754E+02  0.41800000000E+01 0. -1.
</event>
<event>
11    1  0.7577197E-009  0.1464700E+03  0.7561462E-02  0.1100541E+00
         22   -1    0    0    0    0  0.00000000000E+00  0.00000000000E+00  0.93570106115E+03  0.93570106115E+03  0.00000000000E+00 0.  1.
         22   -1    0    0    0    0 -0.00000000000E+00 -0.00000000000E+00 -0.17950706973E+03  0.17950706973E+03  0.00000000000E+00 0. -1.
         24    2    1    2    0    0 -0.72041264656E+02 -0.12027343105E+02 -0.91879352246E+02  0.14394060892E+03  0.83321562233E+02 0.  0.
         25    2    1    2    0    0  0.72056578836E+02  0.83799467817E+02  0.62177844019E+02  0.17812430166E+03  0.12509069189E+03 0.  0.
        -24    2    1    2    0    0 -0.15314179322E-01 -0.71772124711E+02  0.78589549965E+03  0.79314322029E+03  0.79329650201E+02 0.  0.
        -13    1    3    3    0    0  0.13758465717E+02  0.14056215661E+02 -0.26308975617E+02  0.32848664746E+02  0.00000000000E+00 0.  1.
         14    1    3    3    0    0 -0.85799730373E+02 -0.26083558766E+02 -0.65570376630E+02  0.11109194418E+03  0.00000000000E+00 0. -1.
         11    1    5    5    0    0  0.15599844926E+02 -0.59948539070E+02  0.27575977564E+03  0.28263162661E+03  0.00000000000E+00 0. -1.
        -12    1    5    5    0    0 -0.15615159106E+02 -0.11823585641E+02  0.51013572401E+03  0.51051159369E+03  0.00000000000E+00 0.  1.
          5    1    4    4  501    0  0.40873948370E+02 -0.23011194939E+02 -0.61368492763E+01  0.47490294450E+02  0.41800000000E+01 0.  1.
         -5    1    4    4    0  501  0.31182630465E+02  0.10681066276E+03  0.68314693296E+02  0.13063400721E+03  0.41800000000E+01 0.  1.
</event>
<event>
11    1  0.7577197E-009  0.2999742E+03  0.7561462E-02  0.1000202E+00
         22   -1    0    0    0    0  0.00000000000E+00  0.00000000000E+00  0.30874349272E+03  0.30874349272E+03  0.00000000000E+00 0. -1.
         22   -1    0    0    0    0 -0.00000000000E+00 -0.00000000000E+00 -0.51436280573E+03  0.51436280573E+03  0.00000000000E+00 0.  1.
         24    2    1    2    0    0  0.56457706351E+02  0.11179514221E+02 -0.19603061815E+03  0.21971474416E+03  0.80833850620E+02 0.  0.
         25    2    1    2    0    0 -0.17683912004E+03  0.22605211143E+03 -0.64008498912E+02  0.31955690223E+03  0.12509154397E+03 0.  0.
        -24    2    1    2    0    0  0.12038141369E+03 -0.23723162565E+03  0.54419804047E+02  0.28383465206E+03  0.82644211344E+02 0.  0.
        -13    1    3    3    0    0  0.26965681403E+02 -0.24320977656E+02 -0.15073804793E+03  0.15505036930E+03  0.00000000000E+00 0.  1.
         14    1    3    3    0    0  0.29492024948E+02  0.35500491876E+02 -0.45292570225E+02  0.64664374864E+02  0.00000000000E+00 0. -1.
         13    1    5    5    0    0  0.43672952770E+02 -0.19854336595E+02  0.11951608616E+02  0.49440493867E+02  0.00000000000E+00 0. -1.
        -14    1    5    5    0    0  0.76708460921E+02 -0.21737728905E+03  0.42468195431E+02  0.23439415819E+03  0.00000000000E+00 0.  1.
          5    1    4    4  501    0 -0.15608365604E+03  0.14010926136E+03 -0.88544668017E+02  0.22770670485E+03  0.41800000000E+01 0.  1.
         -5    1    4    4    0  501 -0.20755464004E+02  0.85942850067E+02  0.24536169105E+02  0.91850197376E+02  0.41800000000E+01 0.  1.
</event>
<event>
11    1  0.7577197E-009  0.2065962E+03  0.7561462E-02  0.1049955E+00
         22   -1    0    0    0    0  0.00000000000E+00  0.00000000000E+00  0.82998632596E+03  0.82998632596E+03  0.00000000000E+00 0.  1.
         22   -1    0    0    0    0 -0.00000000000E+00 -0.00000000000E+00 -0.27255623958E+03  0.27255623958E+03  0.00000000000E+00 0. -1.
        -24    2    1    2    0    0  0.14607443638E+03  0.64200612256E+02 -0.14820280827E+03  0.23915497378E+03  0.98851249499E+02 0.  0.
         25    2    1    2    0    0 -0.12851479486E+03 -0.15616011555E+03  0.12298796338E+03  0.26772584606E+03  0.12509618431E+03 0.  0.
         24    2    1    2    0    0 -0.17559641524E+02  0.91959503298E+02  0.58264493127E+03  0.59566174569E+03  0.81073473399E+02 0.  0.
        -11    1    5    5    0    0 -0.47791481317E+02  0.75156136340E+02  0.43421824169E+03  0.44325833543E+03  0.00000000000E+00 0.  1.
         12    1    5    5    0    0  0.30231839793E+02  0.16803366958E+02  0.14842668958E+03  0.15240341026E+03  0.00000000000E+00 0. -1.
         11    1    3    3    0    0  0.90994986136E+02  0.78985716144E+02 -0.13434828715E+03  0.18046687540E+03  0.00000000000E+00 0. -1.
        -12    1    3    3    0    0  0.55079450248E+02 -0.14785103888E+02 -0.13854521123E+02  0.58688098386E+02  0.00000000000E+00 0.  1.
          5    1    4    4  501    0 -0.86184298065E+02 -0.14909147414E+03  0.13938988395E+03  0.22159199679E+03  0.41800000000E+01 0. -1.
         -5    1    4    4    0  501 -0.42330496795E+02 -0.70686414097E+01 -0.16401920572E+02  0.46133849273E+02  0.41800000000E+01 0. -1.
</event>
<event>
11    1  0.7577197E-009  0.1438763E+03  0.7561462E-02  0.1103305E+00
         22   -1    0    0    0    0  0.00000000000E+00  0.00000000000E+00  0.60424638588E+03  0.60424638588E+03  0.00000000000E+00 0. -1.
         22   -1    0    0    0    0 -0.00000000000E+00 -0.00000000000E+00 -0.11770242832E+04  0.11770242832E+04  0.00000000000E+00 0.  1.
        -24    2    1    2    0    0 -0.40861974616E+02 -0.10387867001E+02 -0.77940936444E+03  0.78400010225E+03  0.73481931149E+02 0.  0.
         25    2    1    2    0    0 -0.28182601313E+02  0.29243282825E+02 -0.37936040010E+03  0.40150480086E+03  0.12506943408E+03 0.  0.
         24    2    1    2    0    0  0.69044575929E+02 -0.18855415824E+02  0.58599186724E+03  0.59576576595E+03  0.80172933333E+02 0.  0.
        -13    1    5    5    0    0 -0.62190500689E+01  0.16149807554E+02  0.41205608865E+02  0.44692226055E+02  0.00000000000E+00 0.  1.
         14    1    5    5    0    0  0.75263625998E+02 -0.35005223378E+02  0.54478625837E+03  0.55107353989E+03  0.00000000000E+00 0. -1.
         11    1    3    3    0    0  0.76063687255E+01 -0.30914644618E+02 -0.26537353250E+03  0.26727641843E+03  0.00000000000E+00 0. -1.
        -12    1    3    3    0    0 -0.48468343341E+02  0.20526777617E+02 -0.51403583194E+03  0.51672368382E+03  0.00000000000E+00 0.  1.
          5    1    4    4  501    0  0.35000829594E+02 -0.13195640080E+02 -0.45486953905E+02  0.59039972603E+02  0.41800000000E+01 0. -1.
         -5    1    4    4    0  501 -0.63183430907E+02  0.42438922905E+02 -0.33387344620E+03  0.34246482826E+03  0.41800000000E+01 0. -1.
</event>
<event>
11    1  0.7577197E-009  0.2741439E+03  0.7561462E-02  0.1011770E+00
         22   -1    0    0    0    0  0.00000000000E+00  0.00000000000E+00  0.13974091702E+04  0.13974091702E+04  0.00000000000E+00 0.  1.
         22   -1    0    0    0    0 -0.00000000000E+00 -0.00000000000E+00 -0.51431294428E+03  0.51431294428E+03  0.00000000000E+00 0. -1.
        -24    2    1    2    0    0 -0.21688035265E+02 -0.24809336563E+03 -0.45097215804E+03  0.52183942978E+03  0.83185420653E+02 0.  0.
         25    2    1    2    0    0 -0.63794462104E+02  0.16924123459E+03  0.53516297443E+03  0.57858440688E+03  0.12509267683E+03 0.  0.
         24    2    1    2    0    0  0.85482497369E+02  0.78852131039E+02  0.79890540953E+03  0.81129827782E+03  0.80188068275E+02 0.  0.
        -11    1    5    5    0    0  0.81796880409E+02  0.22652830057E+02  0.46796329084E+03  0.47559806763E+03  0.00000000000E+00 0.  1.
         12    1    5    5    0    0  0.36856169599E+01  0.56199300982E+02  0.33094211868E+03  0.33570021019E+03  0.00000000000E+00 0. -1.
         13    1    3    3    0    0 -0.38494686472E+02 -0.16776036105E+03 -0.36175258842E+03  0.40061242473E+03  0.00000000000E+00 0. -1.
        -14    1    3    3    0    0  0.16806651207E+02 -0.80333004584E+02 -0.89219569622E+02  0.12122700505E+03  0.00000000000E+00 0.  1.
          5    1    4    4  501    0 -0.66736033307E+02  0.42749209975E+02  0.11472576218E+03  0.13950149104E+03  0.41800000000E+01 0. -1.
         -5    1    4    4    0  501  0.29415712026E+01  0.12649202462E+03  0.42043721225E+03  0.43908291584E+03  0.41800000000E+01 0. -1.
</event>
<event>
11    1  0.7577197E-009  0.1460996E+03  0.7561462E-02  0.1100932E+00
         22   -1    0    0    0    0  0.00000000000E+00  0.00000000000E+00  0.10077194796E+04  0.10077194796E+04  0.00000000000E+00 0. -1.
         22   -1    0    0    0    0 -0.00000000000E+00 -0.00000000000E+00 -0.30882145634E+03  0.30882145634E+03  0.00000000000E+00 0. -1.
        -24    2    1    2    0    0  0.29362839077E+02  0.68405278747E+02 -0.23931218801E+03  0.26318907194E+03  0.80353629522E+02 0.  0.
         25    2    1    2    0    0  0.18420284749E+02 -0.98944371947E+02  0.62762973335E+02  0.17239006226E+03  0.12509934897E+03 0.  0.
         24    2    1    2    0    0 -0.47783123826E+02  0.30539093200E+02  0.87544723795E+03  0.88096180175E+03  0.80436102431E+02 0.  0.
        -11    1    5    5    0    0 -0.15471955403E+02 -0.27229999259E+02  0.33983682298E+03  0.34127689713E+03  0.00000000000E+00 0.  1.
         12    1    5    5    0    0 -0.32311168423E+02  0.57769092459E+02  0.53561041497E+03  0.53968490462E+03  0.00000000000E+00 0. -1.
         11    1    3    3    0    0  0.19562389821E+02  0.86576285176E+02 -0.19902710749E+03  0.21792184326E+03  0.00000000000E+00 0. -1.
        -12    1    3    3    0    0  0.98004492557E+01 -0.18171006429E+02 -0.40285080517E+02  0.45267228682E+02  0.00000000000E+00 0.  1.
          5    1    4    4  501    0 -0.97890297324E+01  0.22276311079E+02  0.38164515874E+02  0.45453952637E+02  0.41800000000E+01 0. -1.
         -5    1    4    4    0  501  0.28209314481E+02 -0.12122068303E+03  0.24598457461E+02  0.12693610962E+03  0.41800000000E+01 0. -1.
</event>
<event>
11    1  0.7577197E-009  0.1397596E+03  0.7561462E-02  0.1107827E+00
         22   -1    0    0    0    0  0.00000000000E+00  0.00000000000E+00  0.26139689221E+04  0.26139689221E+04  0.00000000000E+00 0. -1.
         22   -1    0    0    0    0 -0.00000000000E+00 -0.00000000000E+00 -0.42277825432E+03  0.42277825432E+03  0.00000000000E+00 0.  1.
         24    2    1    2    0    0  0.55291018551E+02  0.34065268418E+02 -0.37683431535E+03  0.39111314165E+03  0.82145292665E+02 0.  0.
         25    2    1    2    0    0 -0.15758709484E+02 -0.19087052665E+02  0.69079345780E+02  0.14501708216E+03  0.12508135592E+03 0.  0.
        -24    2    1    2    0    0 -0.39532309067E+02 -0.14978215753E+02  0.24989456373E+04  0.25006169526E+04  0.81047485280E+02 0.  0.
        -13    1    3    3    0    0  0.29122571814E+02 -0.18662574597E+02 -0.23525724681E+03  0.23778643371E+03  0.00000000000E+00 0.  1.
         14    1    3    3    0    0  0.26168446737E+02  0.52727843015E+02 -0.14157706853E+03  0.15332670794E+03  0.00000000000E+00 0. -1.
         11    1    5    5    0    0 -0.61677529449E+02 -0.35798028641E+01  0.20904373620E+04  0.20913501135E+04  0.00000000000E+00 0. -1.
        -12    1    5    5    0    0  0.22145220381E+02 -0.11398412889E+02  0.40850827531E+03  0.40926683911E+03  0.00000000000E+00 0.  1.
          5    1    4    4  501    0 -0.65556599387E+02 -0.25799977077E+02  0.62305552270E+02  0.94142236982E+02  0.41800000000E+01 0. -1.
         -5    1    4    4    0  501  0.49797889903E+02  0.67129244116E+01  0.67737935104E+01  0.50874845174E+02  0.41800000000E+01 0. -1.
</event>
<event>
11    1  0.7577197E-009  0.1807011E+03  0.7561462E-02  0.1069077E+00
         22   -1    0    0    0    0  0.00000000000E+00  0.00000000000E+00  0.33653758375E+03  0.33653758375E+03  0.00000000000E+00 0. -1.
         22   -1    0    0    0    0 -0.00000000000E+00 -0.00000000000E+00 -0.18478362581E+04  0.18478362581E+04  0.00000000000E+00 0. -1.
         24    2    1    2    0    0 -0.90925563476E+02  0.94212045702E+02 -0.17687147018E+04  0.17753802740E+04  0.80498779500E+02 0.  0.
         25    2    1    2    0    0  0.10404386867E+03 -0.56518989691E+02  0.44784093482E+02  0.17796166906E+03  0.12508084514E+03 0.  0.
        -24    2    1    2    0    0 -0.13118305197E+02 -0.37693056011E+02  0.21263193394E+03  0.23103189877E+03  0.81058883000E+02 0.  0.
        -11    1    3    3    0    0 -0.24074486411E+02  0.53946342307E+02 -0.38898024155E+03  0.39344048732E+03  0.00000000000E+00 0.  1.
         12    1    3    3    0    0 -0.66851077066E+02  0.40265703394E+02 -0.13797344602E+04  0.13819397867E+04  0.00000000000E+00 0. -1.
         13    1    5    5    0    0 -0.25199414314E+02 -0.59591974590E+02  0.14035654318E+03  0.15455152257E+03  0.00000000000E+00 0. -1.
        -14    1    5    5    0    0  0.12081109116E+02  0.21898918579E+02  0.72275390762E+02  0.76480376191E+02  0.00000000000E+00 0.  1.
          5    1    4    4  501    0  0.69177940072E+02 -0.94179942389E+02  0.13492649855E+02  0.11770714907E+03  0.41800000000E+01 0.  1.
         -5    1    4    4    0  501  0.34865928601E+02  0.37660952698E+02  0.31291443627E+02  0.60254519993E+02  0.41800000000E+01 0.  1.
</event>
<event>
11    1  0.7577197E-009  0.2134424E+03  0.7561462E-02  0.1045405E+00
         22   -1    0    0    0    0  0.00000000000E+00  0.00000000000E+00  0.78345759403E+03  0.78345759403E+03  0.00000000000E+00 0.  1.
         22   -1    0    0    0    0 -0.00000000000E+00 -0.00000000000E+00 -0.78046699623E+03  0.78046699623E+03  0.00000000000E+00 0.  1.
         24    2    1    2    0    0 -0.11694837494E+03  0.10662785892E+02 -0.52247175033E+03  0.54139203641E+03  0.79611492844E+02 0.  0.
         25    2    1    2    0    0 -0.24964799240E+02 -0.11707105716E+03 -0.20397767434E+03  0.26755170166E+03  0.12509255694E+03 0.  0.
        -24    2    1    2    0    0  0.14191317418E+03  0.10640827127E+03  0.72944002247E+03  0.75498085219E+03  0.80319808208E+02 0.  0.
        -13    1    3    3    0    0 -0.94227478057E+02  0.34328547224E+01 -0.49936564127E+03  0.50818957663E+03  0.00000000000E+00 0.  1.
         14    1    3    3    0    0 -0.22720896880E+02  0.72299311700E+01 -0.23106109061E+02  0.33202459783E+02  0.00000000000E+00 0. -1.
         13    1    5    5    0    0  0.75851311026E+01  0.47334158577E+02  0.17382245329E+03  0.18031168030E+03  0.00000000000E+00 0. -1.
        -14    1    5    5    0    0  0.13432804307E+03  0.59074112695E+02  0.55561756918E+03  0.57466917190E+03  0.00000000000E+00 0.  1.
          5    1    4    4  501    0 -0.35507146412E+02 -0.11284448788E+03 -0.79739110735E+02  0.14272502959E+03  0.41800000000E+01 0.  1.
         -5    1    4    4    0  501  0.10542347172E+02 -0.42265692885E+01 -0.12423856361E+03  0.12482667207E+03  0.41800000000E+01 0.  1.
</event>
<event>
11    1  0.7577197E-009  0.1285711E+03  0.7561462E-02  0.1121037E+00
         22   -1    0    0    0    0  0.00000000000E+00  0.00000000000E+00  0.29302298621E+03  0.29302298621E+03  0.00000000000E+00 0. -1.
         22   -1    0    0    0    0 -0.00000000000E+00 -0.00000000000E+00 -0.12597827343E+04  0.12597827343E+04  0.00000000000E+00 0.  1.
        -24    2    1    2    0    0  0.47150648328E+01  0.39528865192E+01 -0.11478536261E+04  0.11506816373E+04  0.80389218262E+02 0.  0.
         25    2    1    2    0    0  0.20651013170E+02 -0.19668316906E+02 -0.63570312276E+02  0.14318478156E+03  0.12508952806E+03 0.  0.
         24    2    1    2    0    0 -0.25366078003E+02  0.15715430387E+02  0.24466419025E+03  0.25893930165E+03  0.79363614352E+02 0.  0.
        -13    1    5    5    0    0  0.66380307816E+01 -0.28666108072E+02  0.10134316984E+03  0.10552841929E+03  0.00000000000E+00 0.  1.
         14    1    5    5    0    0 -0.32004108785E+02  0.44381538459E+02  0.14332102041E+03  0.15341088236E+03  0.00000000000E+00 0. -1.
         13    1    3    3    0    0 -0.31968477453E+02 -0.68835173118E+01 -0.26656982444E+03  0.26856812481E+03  0.00000000000E+00 0. -1.
        -14    1    3    3    0    0  0.36683542286E+02  0.10836403831E+02 -0.88128380165E+03  0.88211351253E+03  0.00000000000E+00 0.  1.
          5    1    4    4  501    0  0.44597749741E+02 -0.55357750222E+02 -0.63410781238E+01  0.71492107700E+02  0.41800000000E+01 0.  1.
         -5    1    4    4    0  501 -0.23946736571E+02  0.35689433316E+02 -0.57229234153E+02  0.71692673855E+02  0.41800000000E+01 0.  1.
</event>
<event>
11    1  0.7577197E-009  0.1405533E+03  0.7561462E-02  0.1106942E+00
         22   -1    0    0    0    0  0.00000000000E+00  0.00000000000E+00  0.51537227526E+03  0.51537227526E+03  0.00000000000E+00 0. -1.
         22   -1    0    0    0    0 -0.00000000000E+00 -0.00000000000E+00 -0.22255430004E+03  0.22255430004E+03  0.00000000000E+00 0.  1.
        -24    2    1    2    0    0 -0.45645485695E+02  0.19039814427E+02 -0.17352965808E+03  0.19680194211E+03  0.78564860393E+02 0.  0.
         25    2    1    2    0    0  0.19364728995E+02  0.47259726785E+02  0.12815980369E+03  0.18622698307E+03  0.12508828658E+03 0.  0.
         24    2    1    2    0    0  0.26280756699E+02 -0.66299541212E+02  0.33818782962E+03  0.35489765011E+03  0.80591727960E+02 0.  0.
        -11    1    5    5    0    0  0.34866399072E+02 -0.42071177935E+02  0.89333200517E+02  0.10471900740E+03  0.00000000000E+00 0.  1.
         12    1    5    5    0    0 -0.85856423728E+01 -0.24228363277E+02  0.24885462910E+03  0.25017864271E+03  0.00000000000E+00 0. -1.
         13    1    3    3    0    0  0.16301186596E+02  0.22846945815E+02 -0.33970685567E+02  0.44064941796E+02  0.00000000000E+00 0. -1.
        -14    1    3    3    0    0 -0.61946672291E+02 -0.38071313885E+01 -0.13955897251E+03  0.15273700032E+03  0.00000000000E+00 0.  1.
          5    1    4    4  501    0 -0.10401177474E+02 -0.17619817757E+02  0.11065906541E+03  0.11261236001E+03  0.41800000000E+01 0. -1.
         -5    1    4    4    0  501  0.29765906469E+02  0.64879544541E+02  0.17500738277E+02  0.73614623059E+02  0.41800000000E+01 0. -1.
</event>
<event>
11    1  0.7577197E-009  0.1407368E+03  0.7561462E-02  0.1106738E+00
         22   -1    0    0    0    0  0.00000000000E+00  0.00000000000E+00  0.61833655361E+03  0.61833655361E+03  0.00000000000E+00 0.  1.
         22   -1    0    0    0    0 -0.00000000000E+00 -0.00000000000E+00 -0.92909926479E+03  0.92909926479E+03  0.00000000000E+00 0.  1.
         24    2    1    2    0    0  0.29137999370E+02  0.59758890030E+02 -0.86164257295E+03  0.86797984777E+03  0.80876106903E+02 0.  0.
         25    2    1    2    0    0  0.89989008103E+01 -0.28139949108E+02  0.82152247600E+01  0.12879264599E+03  0.12508884359E+03 0.  0.
        -24    2    1    2    0    0 -0.38136900181E+02 -0.31618940921E+02  0.54266463702E+03  0.55066332464E+03  0.79315876429E+02 0.  0.
        -11    1    3    3    0    0  0.48931432490E+02  0.67547921801E+02 -0.69253182276E+03  0.69753661721E+03  0.00000000000E+00 0.  1.
         12    1    3    3    0    0 -0.19793433120E+02 -0.77890317715E+01 -0.16911075020E+03  0.17044323056E+03  0.00000000000E+00 0. -1.
         13    1    5    5    0    0 -0.36612949280E+02 -0.27676036843E+02  0.12804315749E+03  0.13602029720E+03  0.00000000000E+00 0. -1.
        -14    1    5    5    0    0 -0.15239509007E+01 -0.39429040784E+01  0.41462147953E+03  0.41464302744E+03  0.00000000000E+00 0.  1.
          5    1    4    4  501    0  0.16042206518E+01 -0.69059402413E+02 -0.26858217020E+02  0.74233488447E+02  0.41800000000E+01 0.  1.
         -5    1    4    4    0  501  0.73946801584E+01  0.40919453305E+02  0.35073441780E+02  0.54559157542E+02  0.41800000000E+01 0.  1.
</event>
<event>
11    1  0.7577197E-009  0.2024697E+03  0.7561462E-02  0.1052791E+00
         22   -1    0    0    0    0  0.00000000000E+00  0.00000000000E+00  0.10722746881E+04  0.10722746881E+04  0.00000000000E+00 0.  1.
         22   -1    0    0    0    0 -0.00000000000E+00 -0.00000000000E+00 -0.17409787946E+04  0.17409787946E+04  0.00000000000E+00 0. -1.
        -24    2    1    2    0    0 -0.15193591093E+03  0.43778473959E+02 -0.16055600326E+04  0.16153726043E+04  0.81268423211E+02 0.  0.
         25    2    1    2    0    0  0.16109178067E+03 -0.93630302695E+02 -0.29900117492E+02  0.22640310433E+03  0.12508858158E+03 0.  0.
         24    2    1    2    0    0 -0.91558697406E+01  0.49851828736E+02  0.96675604357E+03  0.97147777400E+03  0.81134350398E+02 0.  0.
        -11    1    5    5    0    0 -0.17361650729E+02 -0.16158509553E+02  0.42364950041E+03  0.42431288402E+03  0.00000000000E+00 0.  1.
         12    1    5    5    0    0  0.82057809882E+01  0.66010338289E+02  0.54310654316E+03  0.54716488998E+03  0.00000000000E+00 0. -1.
         11    1    3    3    0    0 -0.15931247424E+03  0.42863551710E+02 -0.14014314747E+04  0.14111087580E+04  0.00000000000E+00 0. -1.
        -12    1    3    3    0    0  0.73765633078E+01  0.91492224859E+00 -0.20412855788E+03  0.20426384632E+03  0.00000000000E+00 0.  1.
          5    1    4    4  501    0 -0.14065402741E+02 -0.14091429722E+02 -0.27202149308E+02  0.33968121421E+02  0.41800000000E+01 0. -1.
         -5    1    4    4    0  501  0.17515718341E+03 -0.79538872974E+02 -0.26979681846E+01  0.19243498291E+03  0.41800000000E+01 0. -1.
</event>
<event>
11    1  0.7577197E-009  0.2780421E+03  0.7561462E-02  0.1009938E+00
         22   -1    0    0    0    0  0.00000000000E+00  0.00000000000E+00  0.51293191672E+03  0.51293191672E+03  0.00000000000E+00 0.  1.
         22   -1    0    0    0    0 -0.00000000000E+00 -0.00000000000E+00 -0.20031401767E+04  0.20031401767E+04  0.00000000000E+00 0.  1.
         24    2    1    2    0    0 -0.10892548268E+03  0.19090144697E+03 -0.14079720684E+04  0.14271496624E+04  0.77863278924E+02 0.  0.
         25    2    1    2    0    0  0.21922291634E+03 -0.39731638026E+03 -0.44636434438E+03  0.64869793023E+03  0.12509549821E+03 0.  0.
        -24    2    1    2    0    0 -0.11029743366E+03  0.20641493329E+03  0.36412815279E+03  0.44022450083E+03  0.80222508810E+02 0.  0.
        -11    1    3    3    0    0 -0.10234836045E+03  0.19705562042E+03 -0.13803539363E+04  0.13980998154E+04  0.00000000000E+00 0.  1.
         12    1    3    3    0    0 -0.65771222235E+01 -0.61541734471E+01 -0.27618132103E+02  0.29049846960E+02  0.00000000000E+00 0. -1.
         13    1    5    5    0    0 -0.32640604432E+02  0.23172777689E+02  0.25558372644E+02  0.47493337382E+02  0.00000000000E+00 0. -1.
        -14    1    5    5    0    0 -0.77656829232E+02  0.18324215560E+03  0.33856978015E+03  0.39273116345E+03  0.00000000000E+00 0.  1.
          5    1    4    4  501    0  0.89384415321E+02 -0.28255079871E+03 -0.26111700770E+03  0.39499885021E+03  0.41800000000E+01 0.  1.
         -5    1    4    4    0  501  0.12983850102E+03 -0.11476558155E+03 -0.18524733668E+03  0.25369908001E+03  0.41800000000E+01 0.  1.
</event>
<event>
11    1  0.7577197E-009  0.1582179E+03  0.7561462E-02  0.1088766E+00
         22   -1    0    0    0    0  0.00000000000E+00  0.00000000000E+00  0.90807424896E+02  0.90807424896E+02  0.00000000000E+00 0.  1.
         22   -1    0    0    0    0 -0.00000000000E+00 -0.00000000000E+00 -0.75502803460E+03  0.75502803460E+03  0.00000000000E+00 0.  1.
         24    2    1    2    0    0 -0.59728649017E+02  0.58435478094E+02 -0.34795921851E+03  0.36702735403E+03  0.81555160760E+02 0.  0.
         25    2    1    2    0    0  0.11030524812E+03 -0.69644517508E+02 -0.33592074120E+03  0.38145411000E+03  0.12508751771E+03 0.  0.
        -24    2    1    2    0    0 -0.50576599104E+02  0.11209039414E+02  0.19659350006E+02  0.97353995464E+02  0.80047957180E+02 0.  0.
        -13    1    3    3    0    0 -0.50089052545E+02  0.24721971896E+02 -0.31140214932E+03  0.31637222963E+03  0.00000000000E+00 0.  1.
         14    1    3    3    0    0 -0.96395964719E+01  0.33713506198E+02 -0.36557069189E+02  0.50655124400E+02  0.00000000000E+00 0. -1.
         11    1    5    5    0    0 -0.51476100821E+02 -0.19351522594E+02 -0.86704154815E+01  0.55672672714E+02  0.00000000000E+00 0. -1.
        -12    1    5    5    0    0  0.89950171766E+00  0.30560562008E+02  0.28329765488E+02  0.41681322750E+02  0.00000000000E+00 0.  1.
          5    1    4    4  501    0  0.12712114439E+03 -0.81185045056E+02 -0.24148889014E+03  0.28475454931E+03  0.41800000000E+01 0.  1.
         -5    1    4    4    0  501 -0.16815896267E+02  0.11540527548E+02 -0.94431851058E+02  0.96699560690E+02  0.41800000000E+01 0.  1.
</event>
<event>
11    1  0.7577197E-009  0.1632338E+03  0.7561462E-02  0.1084075E+00
         22   -1    0    0    0    0  0.00000000000E+00  0.00000000000E+00  0.13395106591E+04  0.13395106591E+04  0.00000000000E+00 0. -1.
         22   -1    0    0    0    0 -0.00000000000E+00 -0.00000000000E+00 -0.27150600876E+03  0.27150600876E+03  0.00000000000E+00 0.  1.
        -24    2    1    2    0    0  0.10070073823E+02  0.12753190403E+02 -0.24266939394E+03  0.25637942604E+03  0.81104408552E+02 0.  0.
         25    2    1    2    0    0 -0.42476290919E+02 -0.10901657860E+03  0.40785808164E+03  0.44236254135E+03  0.12509018161E+03 0.  0.
         24    2    1    2    0    0  0.32406217096E+02  0.96263388197E+02  0.90281596262E+03  0.91227470046E+03  0.82774778263E+02 0.  0.
        -11    1    5    5    0    0  0.42027280165E+02  0.15577033677E+02  0.21133556941E+03  0.21603624500E+03  0.00000000000E+00 0.  1.
         12    1    5    5    0    0 -0.96210630687E+01  0.80686354520E+02  0.69148039322E+03  0.69623845546E+03  0.00000000000E+00 0. -1.
         13    1    3    3    0    0 -0.52094911075E+01 -0.25656449127E+02 -0.30385402456E+02  0.40108164528E+02  0.00000000000E+00 0. -1.
        -14    1    3    3    0    0  0.15279564930E+02  0.38409639530E+02 -0.21228399148E+03  0.21627126151E+03  0.00000000000E+00 0.  1.
          5    1    4    4  501    0 -0.69365299322E+02 -0.20071959221E+02  0.23744378726E+03  0.24821654418E+03  0.41800000000E+01 0. -1.
         -5    1    4    4    0  501  0.26889008403E+02 -0.88944619378E+02  0.17041429438E+03  0.19414599717E+03  0.41800000000E+01 0. -1.
</event>
<event>
11    1  0.7577197E-009  0.1400053E+03  0.7561462E-02  0.1107552E+00
         22   -1    0    0    0    0  0.00000000000E+00  0.00000000000E+00  0.23784621582E+04  0.23784621582E+04  0.00000000000E+00 0.  1.
         22   -1    0    0    0    0 -0.00000000000E+00 -0.00000000000E+00 -0.46453759952E+03  0.46453759952E+03  0.00000000000E+00 0. -1.
         24    2    1    2    0    0 -0.31092338123E+02 -0.31464729494E+02 -0.43235136323E+03  0.44292669511E+03  0.85437657160E+02 0.  0.
         25    2    1    2    0    0  0.77828639766E+02  0.70300274847E+02  0.23451803576E+03  0.28573829653E+03  0.12509292225E+03 0.  0.
        -24    2    1    2    0    0 -0.46736301644E+02 -0.38835545352E+02  0.21117578861E+04  0.21143347661E+04  0.84838976240E+02 0.  0.
        -11    1    3    3    0    0 -0.39031332994E+02 -0.33979709760E+02 -0.12274192674E+03  0.13320527847E+03  0.00000000000E+00 0.  1.
         12    1    3    3    0    0  0.79389948712E+01  0.25149802654E+01 -0.30960943649E+03  0.30972141664E+03  0.00000000000E+00 0. -1.
         13    1    5    5    0    0  0.22605949504E+02 -0.17141844228E+02  0.86193883187E+03  0.86240560159E+03  0.00000000000E+00 0. -1.
        -14    1    5    5    0    0 -0.69342251148E+02 -0.21693701124E+02  0.12498190543E+04  0.12519291645E+04  0.00000000000E+00 0.  1.
          5    1    4    4  501    0  0.10545082306E+03  0.23234518734E+02  0.14546818952E+03  0.18121309419E+03  0.41800000000E+01 0.  1.
         -5    1    4    4    0  501 -0.27622183294E+02  0.47065756113E+02  0.89049846237E+02  0.10452520234E+03  0.41800000000E+01 0.  1.
</event>
<event>
11    1  0.7577197E-009  0.3713801E+03  0.7561462E-02  0.9738193E-01
         22   -1    0    0    0    0  0.00000000000E+00  0.00000000000E+00  0.52218332473E+03  0.52218332473E+03  0.00000000000E+00 0.  1.
         22   -1    0    0    0    0 -0.00000000000E+00 -0.00000000000E+00 -0.98270805501E+03  0.98270805501E+03  0.00000000000E+00 0.  1.
        -24    2    1    2    0    0 -0.26310950347E+02  0.39803492109E+01 -0.16607082092E+03  0.18593353309E+03  0.79269488947E+02 0.  0.
         25    2    1    2    0    0  0.31941271906E+03  0.18355393797E+03 -0.68625865087E+03  0.78886862117E+03  0.12508490048E+03 0.  0.
         24    2    1    2    0    0 -0.29310176871E+03 -0.18753428718E+03  0.39180474151E+03  0.53008922549E+03  0.80036715468E+02 0.  0.
        -13    1    5    5    0    0 -0.21707068089E+03 -0.16598184156E+03  0.33725873202E+03  0.43406578367E+03  0.00000000000E+00 0.  1.
         14    1    5    5    0    0 -0.76031087827E+02 -0.21552445615E+02  0.54546009491E+02  0.96023441823E+02  0.00000000000E+00 0. -1.
         11    1    3    3    0    0  0.61043317168E+01  0.33372569236E+02 -0.39807958430E+02  0.52303583028E+02  0.00000000000E+00 0. -1.
        -12    1    3    3    0    0 -0.32415282064E+02 -0.29392220025E+02 -0.12626286249E+03  0.13362995006E+03  0.00000000000E+00 0.  1.
          5    1    4    4  501    0  0.19303012779E+03  0.46880230872E+02 -0.41159170353E+03  0.45703784208E+03  0.41800000000E+01 0. -1.
         -5    1    4    4    0  501  0.12638259127E+03  0.13667370710E+03 -0.27466694734E+03  0.33183077909E+03  0.41800000000E+01 0. -1.
</event>
<event>
11    1  0.7577197E-009  0.1760722E+03  0.7561462E-02  0.1072865E+00
         22   -1    0    0    0    0  0.00000000000E+00  0.00000000000E+00  0.10602648362E+04  0.10602648362E+04  0.00000000000E+00 0. -1.
         22   -1    0    0    0    0 -0.00000000000E+00 -0.00000000000E+00 -0.26597534538E+03  0.26597534538E+03  0.00000000000E+00 0.  1.
        -24    2    1    2    0    0  0.23391351329E+02 -0.49208550088E+02 -0.13068642373E+03  0.16278676043E+03  0.80324039394E+02 0.  0.
         25    2    1    2    0    0 -0.86799293009E+02 -0.58878447514E+02 -0.54824816063E+02  0.17223543973E+03  0.12513391784E+03 0.  0.
         24    2    1    2    0    0  0.63407941681E+02  0.10808699760E+03  0.97980073056E+03  0.99121798137E+03  0.82463621476E+02 0.  0.
        -13    1    5    5    0    0 -0.91599439824E+01  0.48719599308E+02  0.21226267473E+03  0.21797464764E+03  0.00000000000E+00 0.  1.
         14    1    5    5    0    0  0.72567885663E+02  0.59367398294E+02  0.76753805584E+03  0.77324333374E+03  0.00000000000E+00 0. -1.
         11    1    3    3    0    0 -0.24098415266E+02 -0.42532881438E+02 -0.60519264405E+02  0.77796921442E+02  0.00000000000E+00 0. -1.
        -12    1    3    3    0    0  0.47489766594E+02 -0.66756686495E+01 -0.70167159326E+02  0.84989838987E+02  0.00000000000E+00 0.  1.
          5    1    4    4  501    0 -0.29054377700E+01  0.26713646493E+02  0.17359907234E+02  0.32262970365E+02  0.41800000000E+01 0. -1.
         -5    1    4    4    0  501 -0.83893855239E+02 -0.85592094008E+02 -0.72184723297E+02  0.13997246937E+03  0.41800000000E+01 0. -1.
</event>
<event>
11    1  0.7577197E-009  0.1477685E+03  0.7561462E-02  0.1099181E+00
         22   -1    0    0    0    0  0.00000000000E+00  0.00000000000E+00  0.45591498039E+03  0.45591498039E+03  0.00000000000E+00 0. -1.
         22   -1    0    0    0    0 -0.00000000000E+00 -0.00000000000E+00 -0.44723116309E+03  0.44723116309E+03  0.00000000000E+00 0. -1.
         24    2    1    2    0    0  0.22026903585E+02  0.52937667522E+02 -0.39850967200E+03  0.41064555929E+03  0.80822246685E+02 0.  0.
         25    2    1    2    0    0  0.60113424379E+02 -0.15194111244E+02  0.13312462462E+03  0.19291038414E+03  0.12509103014E+03 0.  0.
        -24    2    1    2    0    0 -0.82140327964E+02 -0.37743556279E+02  0.27406886468E+03  0.29959020006E+03  0.80429695177E+02 0.  0.
        -11    1    3    3    0    0  0.37950108084E+02  0.30110279935E+02 -0.10295174617E+03  0.11378005845E+03  0.00000000000E+00 0.  1.
         12    1    3    3    0    0 -0.15923204499E+02  0.22827387588E+02 -0.29555792583E+03  0.29686550084E+03  0.00000000000E+00 0. -1.
         11    1    5    5    0    0 -0.96124995614E+02 -0.43159292201E+02  0.24901636808E+03  0.27039210576E+03  0.00000000000E+00 0. -1.
        -12    1    5    5    0    0  0.13984667650E+02  0.54157359222E+01  0.25052496592E+02  0.29198094293E+02  0.00000000000E+00 0.  1.
          5    1    4    4  501    0 -0.72806863542E+01  0.13900781387E+02  0.11637359921E+03  0.11750117919E+03  0.41800000000E+01 0.  1.
         -5    1    4    4    0  501  0.67394110733E+02 -0.29094892631E+02  0.16751025405E+02  0.75409204947E+02  0.41800000000E+01 0.  1.
</event>
<event>
11    1  0.7577197E-009  0.1412998E+03  0.7561462E-02  0.1106116E+00
         22   -1    0    0    0    0  0.00000000000E+00  0.00000000000E+00  0.55704849477E+03  0.55704849477E+03  0.00000000000E+00 0. -1.
         22   -1    0    0    0    0 -0.00000000000E+00 -0.00000000000E+00 -0.23782668673E+03  0.23782668673E+03  0.00000000000E+00 0. -1.
        -24    2    1    2    0    0  0.48392252077E+02  0.59220853472E+02 -0.14835891488E+03  0.18534919165E+03  0.80591784159E+02 0.  0.
         25    2    1    2    0    0 -0.32226243793E+02 -0.10261622684E+02 -0.24581230206E+01  0.12958094860E+03  0.12506537564E+03 0.  0.
         24    2    1    2    0    0 -0.16166008285E+02 -0.48959230788E+02  0.47003884594E+03  0.47994504125E+03  0.82172865513E+02 0.  0.
        -13    1    5    5    0    0 -0.70855052988E+01 -0.24101587027E+02  0.30078037189E+02  0.39189018917E+02  0.00000000000E+00 0.  1.
         14    1    5    5    0    0 -0.90805029858E+01 -0.24857643761E+02  0.43996080875E+03  0.44075602233E+03  0.00000000000E+00 0. -1.
         11    1    3    3    0    0  0.12731619344E+02  0.68007879471E+02 -0.12160547854E+03  0.13991089383E+03  0.00000000000E+00 0. -1.
        -12    1    3    3    0    0  0.35660632734E+02 -0.87870259996E+01 -0.26753436341E+02  0.45438297822E+02  0.00000000000E+00 0.  1.
          5    1    4    4  501    0 -0.37032230960E+02  0.31733634864E+02 -0.47122572246E+02  0.67944233947E+02  0.41800000000E+01 0.  1.
         -5    1    4    4    0  501  0.48059871669E+01 -0.41995257549E+02  0.44664449225E+02  0.61636714658E+02  0.41800000000E+01 0.  1.
</event>
<event>
11    1  0.7577197E-009  0.2395500E+03  0.7561462E-02  0.1029618E+00
         22   -1    0    0    0    0  0.00000000000E+00  0.00000000000E+00  0.22362591616E+03  0.22362591616E+03  0.00000000000E+00 0. -1.
         22   -1    0    0    0    0 -0.00000000000E+00 -0.00000000000E+00 -0.12704787092E+04  0.12704787092E+04  0.00000000000E+00 0. -1.
         24    2    1    2    0    0  0.79446956004E+02  0.18898237080E+03 -0.10654380122E+04  0.10880255536E+04  0.81334446447E+02 0.  0.
         25    2    1    2    0    0 -0.10592228783E+03 -0.17145153743E+03 -0.10175466484E+03  0.25810181837E+03  0.12508947231E+03 0.  0.
        -24    2    1    2    0    0  0.26475331830E+02 -0.17530833378E+02  0.12033988407E+03  0.14797725332E+03  0.80045652520E+02 0.  0.
        -11    1    3    3    0    0 -0.15947867177E+02  0.43504419119E+02 -0.20378517380E+03  0.20898652112E+03  0.00000000000E+00 0.  1.
         12    1    3    3    0    0  0.95394823181E+02  0.14547795168E+03 -0.86165283843E+03  0.87903903252E+03  0.00000000000E+00 0. -1.
         11    1    5    5    0    0  0.27819551699E+02 -0.19891382154E+02  0.13181795749E+03  0.13618211504E+03  0.00000000000E+00 0. -1.
        -12    1    5    5    0    0 -0.13442198687E+01  0.23605487768E+01 -0.11478073419E+02  0.11795138278E+02  0.00000000000E+00 0.  1.
          5    1    4    4  501    0 -0.91456215964E+02 -0.18511957095E+03 -0.11242223596E+03  0.23513767568E+03  0.41800000000E+01 0.  1.
         -5    1    4    4    0  501 -0.14466071870E+02  0.13668033527E+02  0.10667571112E+02  0.22964142686E+02  0.41800000000E+01 0.  1.
</event>
<event>
11    1  0.7577197E-009  0.1669220E+03  0.7561462E-02  0.1080742E+00
         22   -1    0    0    0    0  0.00000000000E+00  0.00000000000E+00  0.87285901738E+03  0.87285901738E+03  0.00000000000E+00 0.  1.
         22   -1    0    0    0    0 -0.00000000000E+00 -0.00000000000E+00 -0.10526313980E+04  0.10526313980E+04  0.00000000000E+00 0. -1.
        -24    2    1    2    0    0 -0.39498578685E+02  0.10154883778E+03 -0.98283464286E+03  0.99201281178E+03  0.79077046979E+02 0.  0.
         25    2    1    2    0    0  0.83135835201E+02 -0.15740363885E+03  0.13304052554E+03  0.25501658443E+03  0.12508478838E+03 0.  0.
         24    2    1    2    0    0 -0.43637256516E+02  0.55854801064E+02  0.67002173668E+03  0.67846101919E+03  0.79726143640E+02 0.  0.
        -13    1    5    5    0    0 -0.53635774568E+02  0.54615491421E+02  0.65937304117E+03  0.66380151825E+03  0.00000000000E+00 0.  1.
         14    1    5    5    0    0  0.99985180525E+01  0.12393096433E+01  0.10648695514E+02  0.14659500939E+02  0.00000000000E+00 0. -1.
         13    1    3    3    0    0 -0.15386239245E+02  0.72850221953E+02 -0.86860469396E+03  0.87179011555E+03  0.00000000000E+00 0. -1.
        -14    1    3    3    0    0 -0.24112339441E+02  0.28698615832E+02 -0.11422994889E+03  0.12022269623E+03  0.00000000000E+00 0.  1.
          5    1    4    4  501    0  0.64725970610E+02 -0.14785648437E+03  0.15550020953E+03  0.22416239383E+03  0.41800000000E+01 0.  1.
         -5    1    4    4    0  501  0.18409864591E+02 -0.95471544788E+01 -0.22459683994E+02  0.30854190607E+02  0.41800000000E+01 0.  1.
</event>
<event>
11    1  0.7577197E-009  0.1626242E+03  0.7561462E-02  0.1084635E+00
         22   -1    0    0    0    0  0.00000000000E+00  0.00000000000E+00  0.24716510778E+03  0.24716510778E+03  0.00000000000E+00 0. -1.
         22   -1    0    0    0    0 -0.00000000000E+00 -0.00000000000E+00 -0.64578212002E+03  0.64578212002E+03  0.00000000000E+00 0. -1.
         24    2    1    2    0    0 -0.31411789438E+02 -0.11606724807E+02 -0.48509422092E+03  0.49322434817E+03  0.82658562085E+02 0.  0.
         25    2    1    2    0    0 -0.15314401639E+02  0.10491985052E+03 -0.82028674772E+02  0.18335414711E+03  0.12508930349E+03 0.  0.
        -24    2    1    2    0    0  0.46726191076E+02 -0.93313125709E+02  0.16850588345E+03  0.21636873251E+03  0.86778564680E+02 0.  0.
        -11    1    3    3    0    0 -0.58293793477E+02 -0.76423164229E+01 -0.26404365860E+03  0.27050993513E+03  0.00000000000E+00 0.  1.
         12    1    3    3    0    0  0.26882004039E+02 -0.39644083838E+01 -0.22105056232E+03  0.22271441304E+03  0.00000000000E+00 0. -1.
         11    1    5    5    0    0  0.11672278473E+02 -0.52984342913E+02  0.15050296702E+03  0.15998351715E+03  0.00000000000E+00 0. -1.
        -12    1    5    5    0    0  0.35053912604E+02 -0.40328782796E+02  0.18002916429E+02  0.56385215355E+02  0.00000000000E+00 0.  1.
          5    1    4    4  501    0 -0.59404652209E+02  0.10369076083E+03 -0.56957647523E+02  0.13244747108E+03  0.41800000000E+01 0. -1.
         -5    1    4    4    0  501  0.44090250570E+02  0.12290896867E+01 -0.25071027249E+02  0.50906676027E+02  0.41800000000E+01 0. -1.
</event>
<event>
11    1  0.7577197E-009  0.1501954E+03  0.7561462E-02  0.1096679E+00
         22   -1    0    0    0    0  0.00000000000E+00  0.00000000000E+00  0.18468865892E+04  0.18468865892E+04  0.00000000000E+00 0.  1.
         22   -1    0    0    0    0 -0.00000000000E+00 -0.00000000000E+00 -0.31723458628E+03  0.31723458628E+03  0.00000000000E+00 0.  1.
        -24    2    1    2    0    0  0.79682380049E+01 -0.81788510330E+01 -0.28350355093E+03  0.29490205067E+03  0.80390109310E+02 0.  0.
         25    2    1    2    0    0  0.65153621115E+02  0.48213035471E+02  0.18885854146E+03  0.24059260052E+03  0.12509100531E+03 0.  0.
         24    2    1    2    0    0 -0.73121859120E+02 -0.40034184437E+02  0.16242970124E+04  0.16286265243E+04  0.84463181340E+02 0.  0.
        -11    1    5    5    0    0 -0.59402097263E+02 -0.21164461705E+02  0.15361667945E+04  0.15374605570E+04  0.00000000000E+00 0.  1.
         12    1    5    5    0    0 -0.13719761857E+02 -0.18869722733E+02  0.88130217893E+02  0.91165967374E+02  0.00000000000E+00 0. -1.
         11    1    3    3    0    0  0.77111904287E+00  0.36132358656E+02 -0.11717719105E+03  0.12262396205E+03  0.00000000000E+00 0. -1.
        -12    1    3    3    0    0  0.71971189620E+01 -0.44311209689E+02 -0.16632635988E+03  0.17227808861E+03  0.00000000000E+00 0.  1.
          5    1    4    4  501    0  0.88270324934E+02  0.66718992858E+02  0.10924417798E+03  0.15554689677E+03  0.41800000000E+01 0. -1.
         -5    1    4    4    0  501 -0.23116703819E+02 -0.18505957388E+02  0.79614363471E+02  0.85045703743E+02  0.41800000000E+01 0. -1.
</event>
<event>
11    1  0.7577197E-009  0.1907970E+03  0.7561462E-02  0.1061229E+00
         22   -1    0    0    0    0  0.00000000000E+00  0.00000000000E+00  0.15422339465E+04  0.15422339465E+04  0.00000000000E+00 0.  1.
         22   -1    0    0    0    0 -0.00000000000E+00 -0.00000000000E+00 -0.19928033288E+04  0.19928033288E+04  0.00000000000E+00 0. -1.
        -24    2    1    2    0    0 -0.14029134151E+03  0.27881425045E+02 -0.18744297841E+04  0.18815136691E+04  0.78406869145E+02 0.  0.
         25    2    1    2    0    0  0.18117706341E+03  0.12958684381E+02 -0.55845792346E+01  0.22061749334E+03  0.12509130680E+03 0.  0.
         24    2    1    2    0    0 -0.40885721898E+02 -0.40840109426E+02  0.14294449810E+04  0.14329061128E+04  0.81039606806E+02 0.  0.
        -11    1    5    5    0    0 -0.16741365151E+02 -0.44594875197E+02  0.13158955219E+04  0.13167573811E+04  0.00000000000E+00 0.  1.
         12    1    5    5    0    0 -0.24144356747E+02  0.37547657709E+01  0.11354945907E+03  0.11614873173E+03  0.00000000000E+00 0. -1.
         11    1    3    3    0    0 -0.10054796828E+03  0.45222661526E+02 -0.15877422461E+04  0.15915654002E+04  0.00000000000E+00 0. -1.
        -12    1    3    3    0    0 -0.39743373233E+02 -0.17341236481E+02 -0.28668753800E+03  0.28994826891E+03  0.00000000000E+00 0.  1.
          5    1    4    4  501    0  0.44618810166E+02  0.57939997285E+02  0.16530749997E+02  0.75090742448E+02  0.41800000000E+01 0. -1.
         -5    1    4    4    0  501  0.13655825324E+03 -0.44981312904E+02 -0.22115329232E+02  0.14552675090E+03  0.41800000000E+01 0. -1.
</event>
<event>
11    1  0.7577197E-009  0.1311955E+03  0.7561462E-02  0.1117809E+00
         22   -1    0    0    0    0  0.00000000000E+00  0.00000000000E+00  0.80457573548E+03  0.80457573548E+03  0.00000000000E+00 0.  1.
         22   -1    0    0    0    0 -0.00000000000E+00 -0.00000000000E+00 -0.26491407462E+04  0.26491407462E+04  0.00000000000E+00 0. -1.
        -24    2    1    2    0    0  0.44568434211E+01  0.23394248559E+01 -0.20661751732E+04  0.20677427095E+04  0.80341332960E+02 0.  0.
         25    2    1    2    0    0 -0.40131359224E+02  0.14701870844E+02 -0.57214713530E+03  0.58721987172E+03  0.12509261495E+03 0.  0.
         24    2    1    2    0    0  0.35674515803E+02 -0.17041295700E+02  0.79375729778E+03  0.79875390050E+03  0.79962922309E+02 0.  0.
        -13    1    5    5    0    0 -0.15380785961E+02  0.20643158713E+02  0.22615328077E+03  0.22761374075E+03  0.00000000000E+00 0.  1.
         14    1    5    5    0    0  0.51055301764E+02 -0.37684454413E+02  0.56760401702E+03  0.57114015975E+03  0.00000000000E+00 0. -1.
         13    1    3    3    0    0  0.70720455144E+00  0.17163416555E+02 -0.19886377050E+04  0.19887118958E+04  0.00000000000E+00 0. -1.
        -14    1    3    3    0    0  0.37496388697E+01 -0.14823991699E+02 -0.77537468250E+02  0.79030813637E+02  0.00000000000E+00 0.  1.
          5    1    4    4  501    0 -0.79372899639E+01 -0.27407021046E+02 -0.47975280812E+03  0.48061874149E+03  0.41800000000E+01 0. -1.
         -5    1    4    4    0  501 -0.32194069260E+02  0.42108891890E+02 -0.92394327185E+02  0.10660113024E+03  0.41800000000E+01 0. -1.
</event>
<event>
11    1  0.7622122E-009  0.1645539E+03  0.7561462E-02  0.1082871E+00
         22   -1    0    0    0    0  0.00000000000E+00  0.00000000000E+00  0.24282340369E+04  0.24282340369E+04  0.00000000000E+00 0. -1.
         22   -1    0    0    0    0 -0.00000000000E+00 -0.00000000000E+00 -0.28452247985E+03  0.28452247985E+03  0.00000000000E+00 0.  1.
        -24    2    1    2    0    0  0.91233504029E+02 -0.56212117629E+02 -0.24279933402E+03  0.27693498840E+03  0.79108259841E+02 0.  0.
         25    2    1    2    0    0 -0.43720569990E+02  0.12029285284E+03  0.32373797597E+03  0.36991552677E+03  0.12509740677E+03 0.  0.
         24    2    1    2    0    0 -0.47512934039E+02 -0.64080735208E+02  0.20627729151E+04  0.20659060016E+04  0.81065951562E+02 0.  0.
        -11    1    5    5    0    0 -0.95861851138E+01 -0.22493683458E+02  0.12799362179E+03  0.13030820373E+03  0.00000000000E+00 0.  1.
         12    1    5    5    0    0 -0.37926748925E+02 -0.41587051750E+02  0.19347792933E+04  0.19355977978E+04  0.00000000000E+00 0. -1.
         13    1    3    3    0    0  0.57734316245E+00  0.12230886458E+02 -0.46776935494E+01  0.13107582752E+02  0.00000000000E+00 0. -1.
        -14    1    3    3    0    0  0.90656160866E+02 -0.68443004087E+02 -0.23812164047E+03  0.26382740565E+03  0.00000000000E+00 0.  1.
          5    1    4    4  501    0  0.12761787274E+02 -0.20904746336E+02  0.67379188803E+02  0.71814337827E+02  0.41800000000E+01 0.  1.
         -5    1    4    4    0  501 -0.56482357263E+02  0.14119759917E+03  0.25635878717E+03  0.29810118895E+03  0.41800000000E+01 0.  1.
</event>
<event>
11    1  0.1002194E-008  0.1698269E+03  0.7561462E-02  0.1078182E+00
         22   -1    0    0    0    0  0.00000000000E+00  0.00000000000E+00  0.11910590305E+04  0.11910590305E+04  0.00000000000E+00 0. -1.
         22   -1    0    0    0    0 -0.00000000000E+00 -0.00000000000E+00 -0.69104113713E+03  0.69104113713E+03  0.00000000000E+00 0. -1.
         24    2    1    2    0    0 -0.17179222503E+02  0.39262038173E+02 -0.38895043336E+03  0.39741365592E+03  0.69415711299E+02 0.  0.
         25    2    1    2    0    0 -0.56764648885E+02 -0.12680493948E+03 -0.26380728793E+03  0.32333097858E+03  0.12508764330E+03 0.  0.
        -24    2    1    2    0    0  0.73943871388E+02  0.87542901305E+02  0.11527756147E+04  0.11613555331E+04  0.81997566232E+02 0.  0.
        -13    1    3    3    0    0 -0.35548579522E+02  0.43280386490E+02 -0.20528666667E+03  0.21278982324E+03  0.00000000000E+00 0.  1.
         14    1    3    3    0    0  0.18369357019E+02 -0.40183483176E+01 -0.18366376669E+03  0.18462383268E+03  0.00000000000E+00 0. -1.
         13    1    5    5    0    0  0.17183170509E+02  0.36987891099E+02  0.77149057071E+03  0.77256783918E+03  0.00000000000E+00 0. -1.
        -14    1    5    5    0    0  0.56760700879E+02  0.50555010206E+02  0.38128504397E+03  0.38878769397E+03  0.00000000000E+00 0.  1.
          5    1    4    4  501    0  0.22466773111E+02 -0.68208031962E+02 -0.49223030678E+02  0.87163470945E+02  0.41800000000E+01 0.  1.
         -5    1    4    4    0  501 -0.79231421996E+02 -0.58596907517E+02 -0.21458425725E+03  0.23616750764E+03  0.41800000000E+01 0.  1.
</event>
<event>
11    1  0.7577197E-009  0.1867064E+03  0.7561462E-02  0.1064344E+00
         22   -1    0    0    0    0  0.00000000000E+00  0.00000000000E+00  0.56517178856E+03  0.56517178856E+03  0.00000000000E+00 0. -1.
         22   -1    0    0    0    0 -0.00000000000E+00 -0.00000000000E+00 -0.35006488068E+03  0.35006488068E+03  0.00000000000E+00 0. -1.
         24    2    1    2    0    0  0.42476962655E+02 -0.47364611436E+02 -0.20447039716E+03  0.22635404238E+03  0.73350599283E+02 0.  0.
         25    2    1    2    0    0 -0.14283674698E+03 -0.48294025721E+02 -0.40430444396E+02  0.20004215284E+03  0.12509033885E+03 0.  0.
        -24    2    1    2    0    0  0.10035978432E+03  0.95658637158E+02  0.46000774944E+03  0.48884047401E+03  0.90195445128E+02 0.  0.
        -13    1    3    3    0    0  0.50639465907E+02 -0.32272593984E+02 -0.76570338713E+02  0.97308235008E+02  0.00000000000E+00 0.  1.
         14    1    3    3    0    0 -0.81625032517E+01 -0.15092017453E+02 -0.12790005845E+03  0.12904580737E+03  0.00000000000E+00 0. -1.
         13    1    5    5    0    0  0.78196791362E+02  0.45901016023E+02  0.38854815471E+03  0.39898785694E+03  0.00000000000E+00 0. -1.
        -14    1    5    5    0    0  0.22162992961E+02  0.49757621135E+02  0.71459594723E+02  0.89852617079E+02  0.00000000000E+00 0.  1.
          5    1    4    4  501    0 -0.14228548626E+03 -0.40494193364E+02  0.10480156848E+02  0.14836524318E+03  0.41800000000E+01 0. -1.
         -5    1    4    4    0  501 -0.55126071747E+00 -0.77998323579E+01 -0.50910601244E+02  0.51676909662E+02  0.41800000000E+01 0. -1.
</event>
<event>
11    1  0.7577197E-009  0.1574471E+03  0.7561462E-02  0.1089503E+00
         22   -1    0    0    0    0  0.00000000000E+00  0.00000000000E+00  0.34109295645E+03  0.34109295645E+03  0.00000000000E+00 0. -1.
         22   -1    0    0    0    0 -0.00000000000E+00 -0.00000000000E+00 -0.70557868501E+03  0.70557868501E+03  0.00000000000E+00 0.  1.
        -24    2    1    2    0    0  0.14603265941E+02  0.32099032023E+02 -0.53477874028E+03  0.54233806633E+03  0.83058256083E+02 0.  0.
         25    2    1    2    0    0 -0.54313146198E+02 -0.11604706151E+03 -0.10199494089E+03  0.20607918383E+03  0.12509525853E+03 0.  0.
         24    2    1    2    0    0  0.39709880258E+02  0.83948029488E+02  0.27228795262E+03  0.29825439130E+03  0.78681678565E+02 0.  0.
        -13    1    5    5    0    0  0.88376339527E+01  0.64959572333E+02  0.84231365588E+02  0.10673693250E+03  0.00000000000E+00 0.  1.
         14    1    5    5    0    0  0.30872246305E+02  0.18988457156E+02  0.18805658703E+03  0.19151745879E+03  0.00000000000E+00 0. -1.
         11    1    3    3    0    0 -0.13474409215E+02  0.34795578250E+02 -0.10148576641E+03  0.10812794622E+03  0.00000000000E+00 0. -1.
        -12    1    3    3    0    0  0.28077675156E+02 -0.26965462271E+01 -0.43329297387E+03  0.43421012012E+03  0.00000000000E+00 0.  1.
          5    1    4    4  501    0 -0.20422203197E+02 -0.10383955076E+03 -0.12445702903E+03  0.16342197882E+03  0.41800000000E+01 0. -1.
         -5    1    4    4    0  501 -0.33890943002E+02 -0.12207510751E+02  0.22462088136E+02  0.42657205015E+02  0.41800000000E+01 0. -1.
</event>
<event>
11    1  0.7577197E-009  0.1388238E+03  0.7561462E-02  0.1108879E+00
         22   -1    0    0    0    0  0.00000000000E+00  0.00000000000E+00  0.21755397473E+03  0.21755397473E+03  0.00000000000E+00 0.  1.
         22   -1    0    0    0    0 -0.00000000000E+00 -0.00000000000E+00 -0.35745068631E+03  0.35745068631E+03  0.00000000000E+00 0. -1.
         24    2    1    2    0    0 -0.78276853115E+01  0.19377099726E+02 -0.12110763458E+03  0.14595627261E+03  0.78736457312E+02 0.  0.
         25    2    1    2    0    0  0.67440566190E+02 -0.14460008025E+02 -0.18605796474E+03  0.23456837308E+03  0.12508970223E+03 0.  0.
        -24    2    1    2    0    0 -0.59612880878E+02 -0.49170917012E+01  0.16726888774E+03  0.19448001535E+03  0.79156315038E+02 0.  0.
        -13    1    3    3    0    0 -0.26161831450E+02  0.29075655915E+02 -0.22358967017E+02  0.45052842283E+02  0.00000000000E+00 0.  1.
         14    1    3    3    0    0  0.18334146139E+02 -0.96985561886E+01 -0.98748667560E+02  0.10090343033E+03  0.00000000000E+00 0. -1.
         11    1    5    5    0    0 -0.41961851726E+02  0.35215593769E+02  0.82263869216E+02  0.98834605392E+02  0.00000000000E+00 0. -1.
        -12    1    5    5    0    0 -0.17651029153E+02 -0.40132685470E+02  0.85005018520E+02  0.95645409962E+02  0.00000000000E+00 0.  1.
          5    1    4    4  501    0 -0.18959193344E+02  0.36329896326E+02 -0.69500105611E+02  0.80790156945E+02  0.41800000000E+01 0.  1.
         -5    1    4    4    0  501  0.86399759534E+02 -0.50789904351E+02 -0.11655785913E+03  0.15377821613E+03  0.41800000000E+01 0.  1.
</event>
<event>
11    1  0.7577197E-009  0.1341485E+03  0.7561462E-02  0.1114274E+00
         22   -1    0    0    0    0  0.00000000000E+00  0.00000000000E+00  0.13207694365E+03  0.13207694365E+03  0.00000000000E+00 0. -1.
         22   -1    0    0    0    0 -0.00000000000E+00 -0.00000000000E+00 -0.40089038225E+03  0.40089038225E+03  0.00000000000E+00 0.  1.
         24    2    1    2    0    0 -0.49361601751E+02 -0.31893097570E+01 -0.29712797388E+03  0.31201542055E+03  0.81374752692E+02 0.  0.
         25    2    1    2    0    0  0.40598041003E+02 -0.11301669183E+02 -0.69581427017E+01  0.13218144162E+03  0.12509032376E+03 0.  0.
        -24    2    1    2    0    0  0.87635607481E+01  0.14490978940E+02  0.35272677982E+02  0.88770463725E+02  0.79682149509E+02 0.  0.
        -13    1    3    3    0    0 -0.15225131419E+02 -0.24202915939E+02 -0.24291463843E+03  0.24459171558E+03  0.00000000000E+00 0.  1.
         14    1    3    3    0    0 -0.34136470331E+02  0.21013606182E+02 -0.54213335450E+02  0.67423704972E+02  0.00000000000E+00 0. -1.
         13    1    5    5    0    0 -0.30650232427E+02 -0.19294982751E+01  0.34330718008E+02  0.46062543464E+02  0.00000000000E+00 0. -1.
        -14    1    5    5    0    0  0.39413793175E+02  0.16420477215E+02  0.94195997399E+00  0.42707920261E+02  0.00000000000E+00 0.  1.
          5    1    4    4  501    0  0.22801728184E+02 -0.45102867820E+02  0.44835045165E+02  0.67689298775E+02  0.41800000000E+01 0. -1.
         -5    1    4    4    0  501  0.17796312819E+02  0.33801198637E+02 -0.51793187866E+02  0.64492142844E+02  0.41800000000E+01 0. -1.
</event>
<event>
11    1  0.7577197E-009  0.1539597E+03  0.7561462E-02  0.1092900E+00
         22   -1    0    0    0    0  0.00000000000E+00  0.00000000000E+00  0.61894845311E+03  0.61894845311E+03  0.00000000000E+00 0.  1.
         22   -1    0    0    0    0 -0.00000000000E+00 -0.00000000000E+00 -0.49813096347E+03  0.49813096347E+03  0.00000000000E+00 0. -1.
        -24    2    1    2    0    0  0.27706789317E+02 -0.36815109603E+02 -0.44848153363E+03  0.45736405536E+03  0.76962163821E+02 0.  0.
         25    2    1    2    0    0 -0.39261781836E+02  0.11890242191E+03  0.17048837803E+03  0.24576028258E+03  0.12511017544E+03 0.  0.
         24    2    1    2    0    0  0.11554992519E+02 -0.82087312303E+02  0.39881064524E+03  0.41395507865E+03  0.73736230489E+02 0.  0.
        -11    1    5    5    0    0  0.37714902343E+02 -0.37510292070E+02  0.26946491809E+03  0.27466484659E+03  0.00000000000E+00 0.  1.
         12    1    5    5    0    0 -0.26159909824E+02 -0.44577020233E+02  0.12934572715E+03  0.13929023206E+03  0.00000000000E+00 0. -1.
         13    1    3    3    0    0  0.16843076824E+02 -0.44504662774E+02 -0.43757959771E+03  0.44015935589E+03  0.00000000000E+00 0. -1.
        -14    1    3    3    0    0  0.10863712494E+02  0.76895531711E+01 -0.10901935922E+02  0.17204699473E+02  0.00000000000E+00 0.  1.
          5    1    4    4  501    0  0.30796089289E+02 -0.78417507533E+01  0.33732083004E+02  0.46531902972E+02  0.41800000000E+01 0.  1.
         -5    1    4    4    0  501 -0.70057871125E+02  0.12674417266E+03  0.13675629503E+03  0.19922837960E+03  0.41800000000E+01 0.  1.
</event>
<event>
11    1  0.7577197E-009  0.1284546E+03  0.7561462E-02  0.1121183E+00
         22   -1    0    0    0    0  0.00000000000E+00  0.00000000000E+00  0.26260275681E+03  0.26260275681E+03  0.00000000000E+00 0. -1.
         22   -1    0    0    0    0 -0.00000000000E+00 -0.00000000000E+00 -0.36870518057E+03  0.36870518057E+03  0.00000000000E+00 0.  1.
        -24    2    1    2    0    0  0.21751439874E+02 -0.36546424173E+01 -0.29915678180E+03  0.31047170929E+03  0.80071347094E+02 0.  0.
         25    2    1    2    0    0  0.91908424010E+01 -0.77579999690E+01  0.21860173401E+02  0.12754634242E+03  0.12508214955E+03 0.  0.
         24    2    1    2    0    0 -0.30942282275E+02  0.11412642386E+02  0.17119418464E+03  0.19328988567E+03  0.83461714632E+02 0.  0.
        -11    1    5    5    0    0 -0.18812926128E+02  0.21068879967E+02  0.79943551358E+01  0.29355299464E+02  0.00000000000E+00 0.  1.
         12    1    5    5    0    0 -0.12129356147E+02 -0.96562375804E+01  0.16319982950E+03  0.16393458620E+03  0.00000000000E+00 0. -1.
         13    1    3    3    0    0 -0.20822225564E+02  0.24180666376E+02 -0.10320825455E+03  0.10802876243E+03  0.00000000000E+00 0. -1.
        -14    1    3    3    0    0  0.42573665438E+02 -0.27835308794E+02 -0.19594852725E+03  0.20244294686E+03  0.00000000000E+00 0.  1.
          5    1    4    4  501    0 -0.38882762648E+02 -0.46019121629E+02  0.26159477198E+02  0.65813520145E+02  0.41800000000E+01 0. -1.
         -5    1    4    4    0  501  0.48073605049E+02  0.38261121660E+02 -0.42993037966E+01  0.61732822277E+02  0.41800000000E+01 0. -1.
</event>
<event>
11    1  0.7577197E-009  0.1518023E+03  0.7561462E-02  0.1095051E+00
         22   -1    0    0    0    0  0.00000000000E+00  0.00000000000E+00  0.18566447592E+03  0.18566447592E+03  0.00000000000E+00 0.  1.
         22   -1    0    0    0    0 -0.00000000000E+00 -0.00000000000E+00 -0.49730520258E+03  0.49730520258E+03  0.00000000000E+00 0.  1.
         24    2    1    2    0    0  0.32574590465E+02 -0.87957367571E+01 -0.37740833178E+03  0.38702758865E+03  0.78834234594E+02 0.  0.
         25    2    1    2    0    0  0.50957922712E+02  0.50372863535E+02 -0.15972997296E+02  0.14504953264E+03  0.12510033976E+03 0.  0.
        -24    2    1    2    0    0 -0.83532513178E+02 -0.41577126778E+02  0.81740602421E+02  0.15089255721E+03  0.85910997598E+02 0.  0.
        -13    1    3    3    0    0  0.30180823534E+02  0.20433415402E+02 -0.32445351472E+03  0.32649424159E+03  0.00000000000E+00 0.  1.
         14    1    3    3    0    0  0.23937669316E+01 -0.29229152159E+02 -0.52954817061E+02  0.60533347058E+02  0.00000000000E+00 0. -1.
         13    1    5    5    0    0 -0.33096204844E+01  0.98605489460E+01  0.49055471725E+02  0.50146019976E+02  0.00000000000E+00 0. -1.
        -14    1    5    5    0    0 -0.80222892693E+02 -0.51437675724E+02  0.32685130695E+02  0.10074653723E+03  0.00000000000E+00 0.  1.
          5    1    4    4  501    0  0.22743157082E+02  0.63991271942E+02 -0.60091379309E+02  0.90777642325E+02  0.41800000000E+01 0.  1.
         -5    1    4    4    0  501  0.28214765630E+02 -0.13618408407E+02  0.44118382013E+02  0.54271890316E+02  0.41800000000E+01 0.  1.
</event>
<event>
11    1  0.7577197E-009  0.1673320E+03  0.7561462E-02  0.1080377E+00
         22   -1    0    0    0    0  0.00000000000E+00  0.00000000000E+00  0.33615119024E+03  0.33615119024E+03  0.00000000000E+00 0.  1.
         22   -1    0    0    0    0 -0.00000000000E+00 -0.00000000000E+00 -0.21362028542E+04  0.21362028542E+04  0.00000000000E+00 0. -1.
         24    2    1    2    0    0  0.52985796054E+02 -0.96619215596E+02 -0.19839790269E+04  0.19886834144E+04  0.80908444081E+02 0.  0.
         25    2    1    2    0    0 -0.89541946693E+02  0.10569463803E+03 -0.81456796598E+02  0.20364419375E+03  0.12508649491E+03 0.  0.
        -24    2    1    2    0    0  0.36556150639E+02 -0.90754224381E+01  0.26538415955E+03  0.28002643622E+03  0.81039110316E+02 0.  0.
        -11    1    3    3    0    0 -0.11411242673E+00 -0.57909660779E+01 -0.80458947468E+03  0.80461032250E+03  0.00000000000E+00 0.  1.
         12    1    3    3    0    0  0.53099908481E+02 -0.90828249519E+02 -0.11793895522E+04  0.11840730919E+04  0.00000000000E+00 0. -1.
         13    1    5    5    0    0 -0.31832547182E+01  0.28926407919E+02  0.14190437099E+03  0.14485758763E+03  0.00000000000E+00 0. -1.
        -14    1    5    5    0    0  0.39739405357E+02 -0.38001830357E+02  0.12347978856E+03  0.13516884859E+03  0.00000000000E+00 0.  1.
          5    1    4    4  501    0 -0.92454004652E+02  0.15175061520E+02 -0.56973687353E+02  0.10973376381E+03  0.41800000000E+01 0.  1.
         -5    1    4    4    0  501  0.29120579590E+01  0.90519576514E+02 -0.24483109246E+02  0.93910429944E+02  0.41800000000E+01 0.  1.
</event>
<event>
11    1  0.7577197E-009  0.1695175E+03  0.7561462E-02  0.1078452E+00
         22   -1    0    0    0    0  0.00000000000E+00  0.00000000000E+00  0.92043918323E+02  0.92043918323E+02  0.00000000000E+00 0. -1.
         22   -1    0    0    0    0 -0.00000000000E+00 -0.00000000000E+00 -0.16346026783E+04  0.16346026783E+04  0.00000000000E+00 0.  1.
        -24    2    1    2    0    0 -0.10871247538E+03  0.52173654959E+02 -0.11524912483E+04  0.11616680168E+04  0.81829158375E+02 0.  0.
         25    2    1    2    0    0  0.46502456996E+02 -0.10385251143E+03 -0.41478567107E+03  0.44793593543E+03  0.12510646143E+03 0.  0.
         24    2    1    2    0    0  0.62210018387E+02  0.51678856469E+02  0.24718159374E+02  0.11704264446E+03  0.80914786194E+02 0.  0.
        -13    1    5    5    0    0  0.64206900567E+02  0.18256185654E+02 -0.11482068166E+02  0.67732210096E+02  0.00000000000E+00 0.  1.
         14    1    5    5    0    0 -0.19968821799E+01  0.33422670815E+02  0.36200227540E+02  0.49310434360E+02  0.00000000000E+00 0. -1.
         11    1    3    3    0    0  0.10613945610E+02 -0.11934617558E+01 -0.36007238374E+02  0.37557973956E+02  0.00000000000E+00 0. -1.
        -12    1    3    3    0    0 -0.11932642099E+03  0.53367116715E+02 -0.11164840099E+04  0.11241100428E+04  0.00000000000E+00 0.  1.
          5    1    4    4  501    0  0.66731759997E+02 -0.59925179226E+02 -0.37371810089E+03  0.38435250257E+03  0.41800000000E+01 0.  1.
         -5    1    4    4    0  501 -0.20229303001E+02 -0.43927332202E+02 -0.41067570177E+02  0.63583432862E+02  0.41800000000E+01 0.  1.
</event>
<event>
11    1  0.7577197E-009  0.1672557E+03  0.7561462E-02  0.1080445E+00
         22   -1    0    0    0    0  0.00000000000E+00  0.00000000000E+00  0.35500178774E+03  0.35500178774E+03  0.00000000000E+00 0.  1.
         22   -1    0    0    0    0 -0.00000000000E+00 -0.00000000000E+00 -0.15200536756E+04  0.15200536756E+04  0.00000000000E+00 0. -1.
         24    2    1    2    0    0 -0.55563338652E+02  0.91104772307E+02 -0.11692093051E+04  0.11769008011E+04  0.81594927586E+02 0.  0.
         25    2    1    2    0    0 -0.57573427391E+02 -0.94225201773E+02 -0.31151952264E+03  0.35339127563E+03  0.12509153656E+03 0.  0.
        -24    2    1    2    0    0  0.11313676604E+03  0.31204294661E+01  0.31567693990E+03  0.34476338664E+03  0.80001234213E+02 0.  0.
        -13    1    3    3    0    0  0.16649930729E+02  0.44601833328E+02 -0.35632589795E+03  0.35949226595E+03  0.00000000000E+00 0.  1.
         14    1    3    3    0    0 -0.72213269381E+02  0.46502938979E+02 -0.81288340719E+03  0.81740853512E+03  0.00000000000E+00 0. -1.
         13    1    5    5    0    0  0.46522111880E+02 -0.32285960570E+02  0.85611010452E+02  0.10264470398E+03  0.00000000000E+00 0. -1.
        -14    1    5    5    0    0  0.66614654162E+02  0.35406390036E+02  0.23006592945E+03  0.24211868267E+03  0.00000000000E+00 0.  1.
          5    1    4    4  501    0  0.20774758413E+02 -0.72938120354E+02 -0.92002694968E+02  0.11930435143E+03  0.41800000000E+01 0.  1.
         -5    1    4    4    0  501 -0.78348185804E+02 -0.21287081420E+02 -0.21951682767E+03  0.23408692420E+03  0.41800000000E+01 0.  1.
</event>
<event>
11    1  0.7577197E-009  0.1477024E+03  0.7561462E-02  0.1099250E+00
         22   -1    0    0    0    0  0.00000000000E+00  0.00000000000E+00  0.32775379764E+03  0.32775379764E+03  0.00000000000E+00 0. -1.
         22   -1    0    0    0    0 -0.00000000000E+00 -0.00000000000E+00 -0.12973565671E+04  0.12973565671E+04  0.00000000000E+00 0. -1.
         24    2    1    2    0    0 -0.17837126310E+02  0.71732732810E+01 -0.11157954282E+04  0.11188818455E+04  0.80793116063E+02 0.  0.
         25    2    1    2    0    0  0.97360319892E+01 -0.84949649300E+02 -0.13563321177E+03  0.20336971110E+03  0.12510650671E+03 0.  0.
        -24    2    1    2    0    0  0.81010943204E+01  0.77776376019E+02  0.28182587047E+03  0.30285880822E+03  0.78631062923E+02 0.  0.
        -13    1    3    3    0    0 -0.13965722378E+02  0.39408362328E+02 -0.36536638142E+03  0.36775080299E+03  0.00000000000E+00 0.  1.
         14    1    3    3    0    0 -0.38714039318E+01 -0.32235089047E+02 -0.75042904677E+03  0.75113104247E+03  0.00000000000E+00 0. -1.
         13    1    5    5    0    0 -0.74567510940E+01  0.78449420499E+02  0.27461495699E+03  0.28569789869E+03  0.00000000000E+00 0. -1.
        -14    1    5    5    0    0  0.15557845414E+02 -0.67304448030E+00  0.72109134819E+01  0.17160909535E+02  0.00000000000E+00 0.  1.
          5    1    4    4  501    0  0.64097883930E+02 -0.21613810993E+02 -0.65833207437E+02  0.94483750727E+02  0.41800000000E+01 0. -1.
         -5    1    4    4    0  501 -0.54361851941E+02 -0.63335838306E+02 -0.69800004336E+02  0.10888596037E+03  0.41800000000E+01 0. -1.
</event>
<event>
11    1  0.7577197E-009  0.1903915E+03  0.7561462E-02  0.1061534E+00
         22   -1    0    0    0    0  0.00000000000E+00  0.00000000000E+00  0.13289645181E+03  0.13289645181E+03  0.00000000000E+00 0. -1.
         22   -1    0    0    0    0 -0.00000000000E+00 -0.00000000000E+00 -0.68487944469E+03  0.68487944469E+03  0.00000000000E+00 0. -1.
        -24    2    1    2    0    0  0.26217287749E+02 -0.17020590074E+02 -0.31829461572E+03  0.33174355768E+03  0.88120820516E+02 0.  0.
         25    2    1    2    0    0  0.24792527498E+02  0.14964778425E+03 -0.25385530842E+03  0.32109020568E+03  0.12508906354E+03 0.  0.
         24    2    1    2    0    0 -0.51009815247E+02 -0.13262719418E+03  0.20166931249E+02  0.16494213314E+03  0.81284858870E+02 0.  0.
        -11    1    5    5    0    0 -0.77671879551E+01 -0.71103283281E+02 -0.26683523814E+02  0.76341447099E+02  0.00000000000E+00 0.  1.
         12    1    5    5    0    0 -0.43242627292E+02 -0.61523910897E+02  0.46850455063E+02  0.88600686040E+02  0.00000000000E+00 0. -1.
         11    1    3    3    0    0 -0.31337748569E+02  0.31545822486E+01 -0.86356488277E+02  0.91920884146E+02  0.00000000000E+00 0. -1.
        -12    1    3    3    0    0  0.57555036318E+02 -0.20175172323E+02 -0.23193812744E+03  0.23982267354E+03  0.00000000000E+00 0.  1.
          5    1    4    4  501    0  0.57512515527E+02  0.10556979236E+03 -0.95978410539E+02  0.15388956492E+03  0.41800000000E+01 0. -1.
         -5    1    4    4    0  501 -0.32719988029E+02  0.44077991890E+02 -0.15787689788E+03  0.16720064076E+03  0.41800000000E+01 0. -1.
</event>
<event>
11    1  0.7577197E-009  0.3206784E+03  0.7561462E-02  0.9918005E-01
         22   -1    0    0    0    0  0.00000000000E+00  0.00000000000E+00  0.16407242006E+04  0.16407242006E+04  0.00000000000E+00 0. -1.
         22   -1    0    0    0    0 -0.00000000000E+00 -0.00000000000E+00 -0.55997514515E+03  0.55997514515E+03  0.00000000000E+00 0. -1.
        -24    2    1    2    0    0 -0.90199500869E+02 -0.27925656805E+03 -0.41724781545E+03  0.51661786054E+03  0.81719603357E+02 0.  0.
         25    2    1    2    0    0  0.75152689815E+02  0.29734556834E+03  0.20585751078E+03  0.38998295817E+03  0.12508828531E+03 0.  0.
         24    2    1    2    0    0  0.15046811054E+02 -0.18089000284E+02  0.12921393601E+04  0.12940985270E+04  0.67180750553E+02 0.  0.
        -11    1    5    5    0    0 -0.15554894804E+02  0.30339145596E+01  0.90030625800E+02  0.91414839998E+02  0.00000000000E+00 0.  1.
         12    1    5    5    0    0  0.30601705858E+02 -0.21122914844E+02  0.12021087343E+04  0.12026836870E+04  0.00000000000E+00 0. -1.
         13    1    3    3    0    0 -0.72464341031E+02 -0.25564063805E+03 -0.32521255531E+03  0.41996002510E+03  0.00000000000E+00 0. -1.
        -14    1    3    3    0    0 -0.17735159838E+02 -0.23615930000E+02 -0.92035260134E+02  0.96657835442E+02  0.00000000000E+00 0.  1.
          5    1    4    4  501    0  0.10228697043E+03  0.24114692891E+03  0.19480586996E+03  0.32646786214E+03  0.41800000000E+01 0. -1.
         -5    1    4    4    0  501 -0.27134280614E+02  0.56198639430E+02  0.11051640814E+02  0.63515096024E+02  0.41800000000E+01 0. -1.
</event>
<event>
11    1  0.7577197E-009  0.1836561E+03  0.7561462E-02  0.1066723E+00
         22   -1    0    0    0    0  0.00000000000E+00  0.00000000000E+00  0.10594955834E+04  0.10594955834E+04  0.00000000000E+00 0. -1.
         22   -1    0    0    0    0 -0.00000000000E+00 -0.00000000000E+00 -0.36677550445E+03  0.36677550445E+03  0.00000000000E+00 0.  1.
        -24    2    1    2    0    0 -0.17291430932E+02 -0.13040417426E+02 -0.23863662756E+03  0.25072621414E+03  0.73804799141E+02 0.  0.
         25    2    1    2    0    0  0.14889418600E+03 -0.10600059687E+02 -0.34001985836E+02  0.19770443788E+03  0.12509624225E+03 0.  0.
         24    2    1    2    0    0 -0.13160275507E+03  0.23640477113E+02  0.96535869233E+03  0.97784043582E+03  0.79852086851E+02 0.  0.
        -11    1    5    5    0    0 -0.84783582778E+01  0.96409956590E+01  0.16412152142E+02  0.20837228566E+02  0.00000000000E+00 0.  1.
         12    1    5    5    0    0 -0.12312439679E+03  0.13999481454E+02  0.94894654019E+03  0.95700320725E+03  0.00000000000E+00 0. -1.
         13    1    3    3    0    0 -0.35861565823E+02  0.82397577145E+01 -0.64027378496E+02  0.73847482743E+02  0.00000000000E+00 0. -1.
        -14    1    3    3    0    0  0.18570134891E+02 -0.21280175140E+02 -0.17460924906E+03  0.17687873140E+03  0.00000000000E+00 0.  1.
          5    1    4    4  501    0  0.14764428642E+03  0.30331548905E+02 -0.12604021646E+02  0.15131150628E+03  0.41800000000E+01 0. -1.
         -5    1    4    4    0  501  0.12498995832E+01 -0.40931608593E+02 -0.21397964190E+02  0.46392931600E+02  0.41800000000E+01 0. -1.
</event>
<event>
11    1  0.7577197E-009  0.1301393E+03  0.7561462E-02  0.1119098E+00
         22   -1    0    0    0    0  0.00000000000E+00  0.00000000000E+00  0.25389864498E+03  0.25389864498E+03  0.00000000000E+00 0. -1.
         22   -1    0    0    0    0 -0.00000000000E+00 -0.00000000000E+00 -0.92751042341E+03  0.92751042341E+03  0.00000000000E+00 0.  1.
        -24    2    1    2    0    0 -0.99151208080E+01  0.10471720806E+02 -0.74919684230E+03  0.75362021272E+03  0.80246806504E+02 0.  0.
         25    2    1    2    0    0  0.42952629851E+02 -0.22789175994E+02 -0.14063687215E+03  0.19439915971E+03  0.12509208022E+03 0.  0.
         24    2    1    2    0    0 -0.33037509043E+02  0.12317455188E+02  0.21622193603E+03  0.23338969595E+03  0.80471285884E+02 0.  0.
        -11    1    5    5    0    0  0.14021663391E+02 -0.10927164347E+02  0.95953843720E+01  0.20201023889E+02  0.00000000000E+00 0.  1.
         12    1    5    5    0    0 -0.47059172434E+02  0.23244619536E+02  0.20662655166E+03  0.21318867206E+03  0.00000000000E+00 0. -1.
         11    1    3    3    0    0 -0.68676019525E+01  0.32600078789E+02 -0.13616104712E+03  0.14017760109E+03  0.00000000000E+00 0. -1.
        -12    1    3    3    0    0 -0.30475188555E+01 -0.22128357983E+02 -0.61303579518E+03  0.61344261164E+03  0.00000000000E+00 0.  1.
          5    1    4    4  501    0  0.57358502988E+02  0.68813885786E+01 -0.14921612902E+03  0.16006335287E+03  0.41800000000E+01 0. -1.
         -5    1    4    4    0  501 -0.14405873137E+02 -0.29670564573E+02  0.85792568630E+01  0.34335806838E+02  0.41800000000E+01 0. -1.
</event>
<event>
11    1  0.7577197E-009  0.1476363E+03  0.7561462E-02  0.1099319E+00
         22   -1    0    0    0    0  0.00000000000E+00  0.00000000000E+00  0.36512820102E+03  0.36512820102E+03  0.00000000000E+00 0.  1.
         22   -1    0    0    0    0 -0.00000000000E+00 -0.00000000000E+00 -0.54758715333E+03  0.54758715333E+03  0.00000000000E+00 0. -1.
         24    2    1    2    0    0  0.21318929429E+02  0.77651735451E+02 -0.42179911105E+03  0.43687925279E+03  0.80403374689E+02 0.  0.
         25    2    1    2    0    0 -0.40396727182E+02 -0.56868115570E+02 -0.66926281670E+02  0.15806302320E+03  0.12505564357E+03 0.  0.
        -24    2    1    2    0    0  0.19077797754E+02 -0.20783619881E+02  0.30626644041E+03  0.31777307836E+03  0.79904165002E+02 0.  0.
        -13    1    3    3    0    0  0.12286063938E+02  0.13819698008E+02 -0.12008219712E+02  0.22048327845E+02  0.00000000000E+00 0.  1.
         14    1    3    3    0    0  0.90328654907E+01  0.63832037443E+02 -0.40979089134E+03  0.41483092494E+03  0.00000000000E+00 0. -1.
         13    1    5    5    0    0  0.41153672663E+02  0.16905392256E+01  0.87026203586E+02  0.96281061518E+02  0.00000000000E+00 0. -1.
        -14    1    5    5    0    0 -0.22075874910E+02 -0.22474159107E+02  0.21924023682E+03  0.22149201684E+03  0.00000000000E+00 0.  1.
          5    1    4    4  501    0 -0.54534129263E+02  0.24467302671E+02 -0.20936226691E+02  0.63469820722E+02  0.41800000000E+01 0. -1.
         -5    1    4    4    0  501  0.14137402081E+02 -0.81335418241E+02 -0.45990054979E+02  0.94593202478E+02  0.41800000000E+01 0. -1.
</event>
<event>
11    1  0.7577197E-009  0.1725703E+03  0.7561462E-02  0.1075816E+00
         22   -1    0    0    0    0  0.00000000000E+00  0.00000000000E+00  0.19752271117E+04  0.19752271117E+04  0.00000000000E+00 0. -1.
         22   -1    0    0    0    0 -0.00000000000E+00 -0.00000000000E+00 -0.10614418088E+04  0.10614418088E+04  0.00000000000E+00 0.  1.
         24    2    1    2    0    0 -0.10831937410E+03  0.44031140411E+02 -0.93239558232E+03  0.94314021383E+03  0.80499148262E+02 0.  0.
         25    2    1    2    0    0  0.12806959862E+03 -0.74534623886E+02 -0.45962995540E+02  0.19929058277E+03  0.12508759800E+03 0.  0.
        -24    2    1    2    0    0 -0.19750224522E+02  0.30503483475E+02  0.18921438807E+04  0.18942381239E+04  0.81296191908E+02 0.  0.
        -11    1    3    3    0    0 -0.78805513677E+02  0.67712445210E+02 -0.65973738797E+03  0.66786877851E+03  0.00000000000E+00 0.  1.
         12    1    3    3    0    0 -0.29513860426E+02 -0.23681304798E+02 -0.27265819435E+03  0.27527143532E+03  0.00000000000E+00 0. -1.
         13    1    5    5    0    0  0.14694870624E+02  0.11539585372E+02  0.15023223078E+04  0.15024384905E+04  0.00000000000E+00 0. -1.
        -14    1    5    5    0    0 -0.34445095146E+02  0.18963898103E+02  0.38982157294E+03  0.39179963341E+03  0.00000000000E+00 0.  1.
          5    1    4    4  501    0 -0.53692526193E+01 -0.52750309224E+02  0.77453145666E+01  0.53748360855E+02  0.41800000000E+01 0. -1.
         -5    1    4    4    0  501  0.13343885124E+03 -0.21784314663E+02 -0.53708310106E+02  0.14554222192E+03  0.41800000000E+01 0. -1.
</event>
<event>
11    1  0.7577197E-009  0.1385277E+03  0.7561462E-02  0.1109214E+00
         22   -1    0    0    0    0  0.00000000000E+00  0.00000000000E+00  0.45183437349E+03  0.45183437349E+03  0.00000000000E+00 0.  1.
         22   -1    0    0    0    0 -0.00000000000E+00 -0.00000000000E+00 -0.78083037791E+03  0.78083037791E+03  0.00000000000E+00 0. -1.
        -24    2    1    2    0    0  0.40878520857E+02  0.23392951015E+01 -0.61147882051E+03  0.61802228326E+03  0.79803940426E+02 0.  0.
         25    2    1    2    0    0 -0.75281612915E+02  0.45066959431E+02 -0.12246945976E+03  0.19581878491E+03  0.12509147002E+03 0.  0.
         24    2    1    2    0    0  0.34403092058E+02 -0.47406254533E+02  0.40495227586E+03  0.41882368322E+03  0.89420390275E+02 0.  0.
        -13    1    5    5    0    0  0.57235521291E+02 -0.23926345121E+02  0.34477384032E+03  0.35031039930E+03  0.00000000000E+00 0.  1.
         14    1    5    5    0    0 -0.22832429233E+02 -0.23479909412E+02  0.60178435537E+02  0.68513283927E+02  0.00000000000E+00 0. -1.
         11    1    3    3    0    0  0.22210956768E+02 -0.38275842326E+02 -0.34389049141E+03  0.34672616974E+03  0.00000000000E+00 0. -1.
        -12    1    3    3    0    0  0.18667564089E+02  0.40615137427E+02 -0.26758832911E+03  0.27129611352E+03  0.00000000000E+00 0.  1.
          5    1    4    4  501    0 -0.21913689516E+02 -0.36602856033E+02 -0.51445479124E+01  0.43173112364E+02  0.41800000000E+01 0. -1.
         -5    1    4    4    0  501 -0.53367923399E+02  0.81669815464E+02 -0.11732491185E+03  0.15264567254E+03  0.41800000000E+01 0. -1.
</event>
<event>
11    1  0.7577197E-009  0.1445135E+03  0.7561462E-02  0.1102620E+00
         22   -1    0    0    0    0  0.00000000000E+00  0.00000000000E+00  0.31930875509E+04  0.31930875509E+04  0.00000000000E+00 0. -1.
         22   -1    0    0    0    0 -0.00000000000E+00 -0.00000000000E+00 -0.87019261608E+03  0.87019261608E+03  0.00000000000E+00 0. -1.
        -24    2    1    2    0    0  0.16299395169E+02 -0.69563764212E+02 -0.69738165752E+03  0.70559513275E+03  0.80115713479E+02 0.  0.
         25    2    1    2    0    0  0.46168087503E+02  0.91081303352E+02 -0.12898647031E+03  0.20667055007E+03  0.12509160892E+03 0.  0.
         24    2    1    2    0    0 -0.62467482671E+02 -0.21517539139E+02  0.31492630626E+04  0.31510144841E+04  0.81665480705E+02 0.  0.
        -13    1    5    5    0    0 -0.39453541739E+02 -0.22483086024E+02  0.62544733792E+03  0.62709364820E+03  0.00000000000E+00 0.  1.
         14    1    5    5    0    0 -0.23013940933E+02  0.96554688501E+00  0.25238157247E+04  0.25239208359E+04  0.00000000000E+00 0. -1.
         13    1    3    3    0    0  0.32955286015E+02 -0.23767481308E+02 -0.52170722821E+03  0.52328708757E+03  0.00000000000E+00 0. -1.
        -14    1    3    3    0    0 -0.16655890846E+02 -0.45796282904E+02 -0.17567442931E+03  0.18230804519E+03  0.00000000000E+00 0.  1.
          5    1    4    4  501    0 -0.16999907564E+02 -0.22518460674E+02 -0.39853513222E+02  0.49008701722E+02  0.41800000000E+01 0. -1.
         -5    1    4    4    0  501  0.63167995067E+02  0.11359976403E+03 -0.89132957083E+02  0.15766184835E+03  0.41800000000E+01 0. -1.
</event>
<event>
11    1  0.7577197E-009  0.5086176E+03  0.7561462E-02  0.9374468E-01
         22   -1    0    0    0    0  0.00000000000E+00  0.00000000000E+00  0.14148015811E+04  0.14148015811E+04  0.00000000000E+00 0.  1.
         22   -1    0    0    0    0 -0.00000000000E+00 -0.00000000000E+00 -0.41299360862E+03  0.41299360862E+03  0.00000000000E+00 0.  1.
         24    2    1    2    0    0 -0.22339873383E+03  0.23132744083E+03 -0.16562905141E+03  0.37024154111E+03  0.78907774866E+02 0.  0.
         25    2    1    2    0    0  0.24809749079E+03 -0.48234333655E+03  0.99988184179E+03  0.11443858769E+04  0.12509148043E+03 0.  0.
        -24    2    1    2    0    0 -0.24698756953E+02  0.25101589572E+03  0.16755518211E+03  0.31316777170E+03  0.79876815668E+02 0.  0.
        -13    1    3    3    0    0 -0.22123990122E+03  0.21697270131E+03 -0.13839002202E+03  0.33937596438E+03  0.00000000000E+00 0.  1.
         14    1    3    3    0    0 -0.21588326177E+01  0.14354739523E+02 -0.27239029389E+02  0.30865576734E+02  0.00000000000E+00 0. -1.
         13    1    5    5    0    0 -0.28961141543E+02  0.24600446362E+03  0.17496027393E+03  0.30326233082E+03  0.00000000000E+00 0. -1.
        -14    1    5    5    0    0  0.42623845904E+01  0.50114321067E+01 -0.74050918257E+01  0.99054408839E+01  0.00000000000E+00 0.  1.
          5    1    4    4  501    0  0.11491493335E+02 -0.75289883977E+00  0.67674854320E+02  0.68774847023E+02  0.41800000000E+01 0.  1.
         -5    1    4    4    0  501  0.23660599745E+03 -0.48159043771E+03  0.93220698747E+03  0.10756110299E+04  0.41800000000E+01 0.  1.
</event>
<event>
11    1  0.7577197E-009  0.2096359E+03  0.7561462E-02  0.1047911E+00
         22   -1    0    0    0    0  0.00000000000E+00  0.00000000000E+00  0.27499693298E+03  0.27499693298E+03  0.00000000000E+00 0. -1.
         22   -1    0    0    0    0 -0.00000000000E+00 -0.00000000000E+00 -0.43258424624E+03  0.43258424624E+03  0.00000000000E+00 0.  1.
         24    2    1    2    0    0  0.26456941797E+02  0.12233621969E+02 -0.20895874892E+03  0.22116465822E+03  0.66335631600E+02 0.  0.
         25    2    1    2    0    0  0.11993513254E+03 -0.10163200799E+03 -0.11351749121E+03  0.23075331348E+03  0.12508944721E+03 0.  0.
        -24    2    1    2    0    0 -0.14639207434E+03  0.89398386019E+02  0.16488892687E+03  0.25566320753E+03  0.93555366636E+02 0.  0.
        -13    1    3    3    0    0  0.37419945137E+02  0.31771123597E+02 -0.15917510751E+03  0.16657242100E+03  0.00000000000E+00 0.  1.
         14    1    3    3    0    0 -0.10963003340E+02 -0.19537501628E+02 -0.49783641410E+02  0.54592237215E+02  0.00000000000E+00 0. -1.
         13    1    5    5    0    0 -0.47356792710E+02  0.81047934691E+02  0.61329173184E+02  0.11212805633E+03  0.00000000000E+00 0. -1.
        -14    1    5    5    0    0 -0.99035281632E+02  0.83504513273E+01  0.10355975368E+03  0.14353515119E+03  0.00000000000E+00 0.  1.
          5    1    4    4  501    0  0.43601576951E+02  0.26148423219E+02 -0.19277042679E+02  0.54533607289E+02  0.41800000000E+01 0.  1.
         -5    1    4    4    0  501  0.76333555594E+02 -0.12778043121E+03 -0.94240448531E+02  0.17621970619E+03  0.41800000000E+01 0.  1.
</event>
<event>
11    1  0.7577197E-009  0.1317721E+03  0.7561462E-02  0.1117111E+00
         22   -1    0    0    0    0  0.00000000000E+00  0.00000000000E+00  0.70265425480E+03  0.70265425480E+03  0.00000000000E+00 0.  1.
         22   -1    0    0    0    0 -0.00000000000E+00 -0.00000000000E+00 -0.12288855610E+04  0.12288855610E+04  0.00000000000E+00 0.  1.
         24    2    1    2    0    0 -0.20421886399E+02 -0.64567844049E+00 -0.11243356852E+04  0.11268705288E+04  0.72725410392E+02 0.  0.
         25    2    1    2    0    0  0.48932369629E+02 -0.28567440251E+02 -0.51308840818E+02  0.14660415462E+03  0.12509878323E+03 0.  0.
        -24    2    1    2    0    0 -0.28510483230E+02  0.29213118691E+02  0.64941321976E+03  0.65806513245E+03  0.98213718972E+02 0.  0.
        -11    1    3    3    0    0  0.81464848277E+01 -0.54299324349E+01 -0.95674018705E+03  0.95679027739E+03  0.00000000000E+00 0.  1.
         12    1    3    3    0    0 -0.28568371227E+02  0.47842539944E+01 -0.16759549811E+03  0.17008025138E+03  0.00000000000E+00 0. -1.
         11    1    5    5    0    0 -0.22933498536E+01  0.10514662568E+02  0.34522708230E+01  0.11302024434E+02  0.00000000000E+00 0. -1.
        -12    1    5    5    0    0 -0.26217133376E+02  0.18698456123E+02  0.64596094894E+03  0.64676310802E+03  0.00000000000E+00 0.  1.
          5    1    4    4  501    0  0.40659846557E+02 -0.46321069731E+02 -0.86392060867E+02  0.10620699226E+03  0.41800000000E+01 0.  1.
         -5    1    4    4    0  501  0.82725230722E+01  0.17753629481E+02  0.35083220049E+02  0.40397162360E+02  0.41800000000E+01 0.  1.
</event>
<event>
11    1  0.7577197E-009  0.1643595E+03  0.7561462E-02  0.1083047E+00
         22   -1    0    0    0    0  0.00000000000E+00  0.00000000000E+00  0.32762606298E+03  0.32762606298E+03  0.00000000000E+00 0.  1.
         22   -1    0    0    0    0 -0.00000000000E+00 -0.00000000000E+00 -0.19324139996E+03  0.19324139996E+03  0.00000000000E+00 0.  1.
         24    2    1    2    0    0 -0.10479886697E+03  0.23297969852E+02 -0.82781914176E+02  0.15779623949E+03  0.80754008987E+02 0.  0.
         25    2    1    2    0    0  0.10826249578E+03  0.12991669951E+02  0.48726430823E+02  0.17294882431E+03  0.12508988484E+03 0.  0.
        -24    2    1    2    0    0 -0.34636288178E+01 -0.36289639803E+02  0.16844014638E+03  0.19012239913E+03  0.80283927772E+02 0.  0.
        -13    1    3    3    0    0 -0.54304415344E+02 -0.26667496872E+02 -0.54194274080E+02  0.81222806269E+02  0.00000000000E+00 0.  1.
         14    1    3    3    0    0 -0.50494451622E+02  0.49965466724E+02 -0.28587640096E+02  0.76573433225E+02  0.00000000000E+00 0. -1.
         13    1    5    5    0    0 -0.24466958017E+02  0.16607150198E+02  0.41003410435E+02  0.50554021992E+02  0.00000000000E+00 0. -1.
        -14    1    5    5    0    0  0.21003329199E+02 -0.52896790001E+02  0.12743673594E+03  0.13956837714E+03  0.00000000000E+00 0.  1.
          5    1    4    4  501    0  0.70164715055E+01 -0.16350868769E+01 -0.37919292357E+02  0.38823311480E+02  0.41800000000E+01 0. -1.
         -5    1    4    4    0  501  0.10124602428E+03  0.14626756828E+02  0.86645723180E+02  0.13412551283E+03  0.41800000000E+01 0. -1.
</event>
<event>
11    1  0.7577197E-009  0.2673901E+03  0.7561462E-02  0.1015022E+00
         22   -1    0    0    0    0  0.00000000000E+00  0.00000000000E+00  0.10338897778E+04  0.10338897778E+04  0.00000000000E+00 0. -1.
         22   -1    0    0    0    0 -0.00000000000E+00 -0.00000000000E+00 -0.53076161109E+03  0.53076161109E+03  0.00000000000E+00 0. -1.
         24    2    1    2    0    0 -0.18590849918E+03 -0.15158187589E+03 -0.38046354919E+03  0.45712999397E+03  0.81708530529E+02 0.  0.
         25    2    1    2    0    0  0.21298563897E+03  0.86451809428E+02  0.51944908546E+02  0.26680110627E+03  0.12509100297E+03 0.  0.
        -24    2    1    2    0    0 -0.27077139787E+02  0.65130066464E+02  0.83164680735E+03  0.84072028865E+03  0.10099056640E+03 0.  0.
        -11    1    3    3    0    0 -0.34562742347E+02  0.57512755257E+01 -0.56100907155E+02  0.66143571965E+02  0.00000000000E+00 0.  1.
         12    1    3    3    0    0 -0.15134575683E+03 -0.15733315142E+03 -0.32436264204E+03  0.39098642201E+03  0.00000000000E+00 0. -1.
         13    1    5    5    0    0 -0.43792958445E+02  0.65618275547E+02  0.80752103321E+03  0.81136539264E+03  0.00000000000E+00 0. -1.
        -14    1    5    5    0    0  0.16715818658E+02 -0.48820908247E+00  0.24125774143E+02  0.29354896006E+02  0.00000000000E+00 0.  1.
          5    1    4    4  501    0  0.16956640122E+03  0.42482125619E+02  0.87348952337E+02  0.19546050060E+03  0.41800000000E+01 0. -1.
         -5    1    4    4    0  501  0.43419237747E+02  0.43969683809E+02 -0.35404043791E+02  0.71340605672E+02  0.41800000000E+01 0. -1.
</event>
<event>
11    1  0.7577197E-009  0.1640500E+03  0.7561462E-02  0.1083329E+00
         22   -1    0    0    0    0  0.00000000000E+00  0.00000000000E+00  0.72515466215E+03  0.72515466215E+03  0.00000000000E+00 0.  1.
         22   -1    0    0    0    0 -0.00000000000E+00 -0.00000000000E+00 -0.45270386379E+03  0.45270386379E+03  0.00000000000E+00 0.  1.
         24    2    1    2    0    0 -0.52744248946E+02 -0.84185750081E+02 -0.23717088027E+03  0.26924847089E+03  0.79846830322E+02 0.  0.
         25    2    1    2    0    0  0.78895859818E+02  0.95017943143E+02 -0.15739225921E+03  0.23595020815E+03  0.12508881346E+03 0.  0.
        -24    2    1    2    0    0 -0.26151610873E+02 -0.10832193062E+02  0.66701393784E+03  0.67265984690E+03  0.82234014913E+02 0.  0.
        -13    1    3    3    0    0 -0.21743585008E+02 -0.80789346094E+02 -0.21577815543E+03  0.23143014992E+03  0.00000000000E+00 0.  1.
         14    1    3    3    0    0 -0.31000663938E+02 -0.33964039866E+01 -0.21392724844E+02  0.37818320969E+02  0.00000000000E+00 0. -1.
         13    1    5    5    0    0 -0.14011855566E+02  0.96298704876E+01  0.25165116994E+02  0.30370209340E+02  0.00000000000E+00 0. -1.
        -14    1    5    5    0    0 -0.12139755307E+02 -0.20462063550E+02  0.64184882084E+03  0.64228963756E+03  0.00000000000E+00 0.  1.
          5    1    4    4  501    0  0.10709791765E+03  0.66647051565E+02 -0.14825952329E+03  0.19470529550E+03  0.41800000000E+01 0.  1.
         -5    1    4    4    0  501 -0.28202057829E+02  0.28370891579E+02 -0.91327359120E+01  0.41244912656E+02  0.41800000000E+01 0.  1.
</event>
<event>
11    1  0.7577197E-009  0.1798155E+03  0.7561462E-02  0.1069792E+00
         22   -1    0    0    0    0  0.00000000000E+00  0.00000000000E+00  0.46881187070E+03  0.46881187070E+03  0.00000000000E+00 0. -1.
         22   -1    0    0    0    0 -0.00000000000E+00 -0.00000000000E+00 -0.42158230605E+03  0.42158230605E+03  0.00000000000E+00 0. -1.
         24    2    1    2    0    0 -0.25735467088E+01  0.25463428525E+01 -0.31464852644E+03  0.32347975192E+03  0.74982315937E+02 0.  0.
         25    2    1    2    0    0  0.14455094093E+02 -0.13074877842E+03  0.79030166213E+01  0.18169790640E+03  0.12508988253E+03 0.  0.
        -24    2    1    2    0    0 -0.11881547384E+02  0.12820243557E+03  0.35397507447E+03  0.38521651843E+03  0.80724079852E+02 0.  0.
        -11    1    3    3    0    0 -0.10173226246E+02 -0.72450843534E+01 -0.47947456068E+01  0.13378167474E+02  0.00000000000E+00 0.  1.
         12    1    3    3    0    0  0.75996795370E+01  0.97914272059E+01 -0.30985378084E+03  0.31010158444E+03  0.00000000000E+00 0. -1.
         13    1    5    5    0    0 -0.41716689461E+02  0.86016650455E+02  0.18108343779E+03  0.20476903520E+03  0.00000000000E+00 0. -1.
        -14    1    5    5    0    0  0.29835142077E+02  0.42185785115E+02  0.17289163668E+03  0.18044748323E+03  0.00000000000E+00 0.  1.
          5    1    4    4  501    0  0.19857681104E+02 -0.14486128544E+03 -0.22012491022E+02  0.14792275579E+03  0.41800000000E+01 0.  1.
         -5    1    4    4    0  501 -0.54025870116E+01  0.14112507022E+02  0.29915507644E+02  0.33775150606E+02  0.41800000000E+01 0.  1.
</event>
<event>
11    1  0.7577197E-009  0.1888060E+03  0.7561462E-02  0.1062734E+00
         22   -1    0    0    0    0  0.00000000000E+00  0.00000000000E+00  0.24469282484E+04  0.24469282484E+04  0.00000000000E+00 0.  1.
         22   -1    0    0    0    0 -0.00000000000E+00 -0.00000000000E+00 -0.39928094570E+03  0.39928094570E+03  0.00000000000E+00 0. -1.
         24    2    1    2    0    0  0.80263249344E+02  0.11599025412E+03 -0.36291686056E+03  0.39681009880E+03  0.76509336575E+02 0.  0.
         25    2    1    2    0    0 -0.67456089532E+02 -0.13893211822E+03  0.51711177525E+03  0.55399275705E+03  0.12510367410E+03 0.  0.
        -24    2    1    2    0    0 -0.12807159812E+02  0.22941864104E+02  0.18934523880E+04  0.18954063382E+04  0.81932221843E+02 0.  0.
        -13    1    3    3    0    0  0.76290942436E+02  0.44524531943E+02 -0.21677819170E+03  0.23408444254E+03  0.00000000000E+00 0.  1.
         14    1    3    3    0    0  0.39723069081E+01  0.71465722176E+02 -0.14613866885E+03  0.16272565625E+03  0.00000000000E+00 0. -1.
         11    1    5    5    0    0  0.15675654997E+02 -0.21815044193E+02  0.34451852557E+03  0.34556422959E+03  0.00000000000E+00 0. -1.
        -12    1    5    5    0    0 -0.28482814810E+02  0.44756908297E+02  0.15489338624E+04  0.15498421086E+04  0.00000000000E+00 0.  1.
          5    1    4    4  501    0 -0.15774649167E+01 -0.62487113133E+02  0.63230961042E+02  0.89009856407E+02  0.41800000000E+01 0.  1.
         -5    1    4    4    0  501 -0.65878624615E+02 -0.76445005090E+02  0.45388081420E+03  0.46498290064E+03  0.41800000000E+01 0.  1.
</event>
<event>
11    1  0.7577197E-009  0.1505490E+03  0.7561462E-02  0.1096319E+00
         22   -1    0    0    0    0  0.00000000000E+00  0.00000000000E+00  0.30751053437E+03  0.30751053437E+03  0.00000000000E+00 0. -1.
         22   -1    0    0    0    0 -0.00000000000E+00 -0.00000000000E+00 -0.45101401152E+03  0.45101401152E+03  0.00000000000E+00 0. -1.
        -24    2    1    2    0    0  0.43142414814E+02 -0.47919222172E+01 -0.28506664884E+03  0.30402803577E+03  0.96362968924E+02 0.  0.
         25    2    1    2    0    0 -0.12119266104E+02  0.83515304929E+02 -0.10342276600E+03  0.18295544338E+03  0.12511891530E+03 0.  0.
         24    2    1    2    0    0 -0.31023148709E+02 -0.78723382711E+02  0.24498593768E+03  0.27154106675E+03  0.80973048173E+02 0.  0.
        -13    1    5    5    0    0 -0.87556557700E+01 -0.62697821842E+02  0.69849738804E+02  0.94269106195E+02  0.00000000000E+00 0.  1.
         14    1    5    5    0    0 -0.22267492939E+02 -0.16025560869E+02  0.17513619888E+03  0.17727196056E+03  0.00000000000E+00 0. -1.
         13    1    3    3    0    0  0.90130704203E+01 -0.46970983686E+02 -0.17343826954E+03  0.17991203986E+03  0.00000000000E+00 0. -1.
        -14    1    3    3    0    0  0.34129344393E+02  0.42179061469E+02 -0.11162837930E+03  0.12411599591E+03  0.00000000000E+00 0.  1.
          5    1    4    4  501    0 -0.32192795351E+01  0.10120638751E+02 -0.10815355083E+03  0.10875409898E+03  0.41800000000E+01 0.  1.
         -5    1    4    4    0  501 -0.88999865692E+01  0.73394666178E+02  0.47307848312E+01  0.74201344391E+02  0.41800000000E+01 0.  1.
</event>
<event>
11    1  0.7577197E-009  0.1977410E+03  0.7561462E-02  0.1056133E+00
         22   -1    0    0    0    0  0.00000000000E+00  0.00000000000E+00  0.16697879080E+04  0.16697879080E+04  0.00000000000E+00 0.  1.
         22   -1    0    0    0    0 -0.00000000000E+00 -0.00000000000E+00 -0.54004971595E+03  0.54004971595E+03  0.00000000000E+00 0. -1.
        -24    2    1    2    0    0  0.18955817156E+02  0.10086030838E+02 -0.50533466799E+03  0.51180165033E+03  0.78209664278E+02 0.  0.
         25    2    1    2    0    0 -0.13094602972E+03  0.92367696723E+02  0.37619750628E+03  0.42761068068E+03  0.12509067272E+03 0.  0.
         24    2    1    2    0    0  0.11199021256E+03 -0.10245372756E+03  0.12588753538E+04  0.12704252930E+04  0.78579225417E+02 0.  0.
        -13    1    5    5    0    0  0.12179196833E+03 -0.95027100443E+02  0.12175009741E+04  0.12272620158E+04  0.00000000000E+00 0.  1.
         14    1    5    5    0    0 -0.98017557701E+01 -0.74266271174E+01  0.41374379650E+02  0.43163277192E+02  0.00000000000E+00 0. -1.
         13    1    3    3    0    0 -0.57632559111E+01  0.36805057374E+02 -0.36221561697E+03  0.36412632498E+03  0.00000000000E+00 0. -1.
        -14    1    3    3    0    0  0.24719073067E+02 -0.26719026536E+02 -0.14311905102E+03  0.14767532535E+03  0.00000000000E+00 0.  1.
          5    1    4    4  501    0 -0.88242599904E+02  0.11176624749E+03  0.33861228435E+03  0.36736113299E+03  0.41800000000E+01 0. -1.
         -5    1    4    4    0  501 -0.42703429815E+02 -0.19398550763E+02  0.37585221929E+02  0.60249547692E+02  0.41800000000E+01 0. -1.
</event>
<event>
11    1  0.7577197E-009  0.1563656E+03  0.7561462E-02  0.1090546E+00
         22   -1    0    0    0    0  0.00000000000E+00  0.00000000000E+00  0.84342931419E+03  0.84342931419E+03  0.00000000000E+00 0. -1.
         22   -1    0    0    0    0 -0.00000000000E+00 -0.00000000000E+00 -0.14855987083E+03  0.14855987083E+03  0.00000000000E+00 0.  1.
        -24    2    1    2    0    0 -0.39851574585E+02 -0.79107836635E+01 -0.79270965456E+02  0.11973536160E+03  0.80012138821E+02 0.  0.
         25    2    1    2    0    0 -0.12195516525E+02 -0.73777292369E+02  0.78009170131E+02  0.16530413520E+03  0.12509279355E+03 0.  0.
         24    2    1    2    0    0  0.52047091110E+02  0.81688076033E+02  0.69613123868E+03  0.70694968822E+03  0.76140125711E+02 0.  0.
        -11    1    5    5    0    0  0.21307188550E+02  0.53799820321E+02  0.17823597632E+03  0.18739391720E+03  0.00000000000E+00 0.  1.
         12    1    5    5    0    0  0.30739902560E+02  0.27888255712E+02  0.51789526237E+03  0.51955577102E+03  0.00000000000E+00 0. -1.
         13    1    3    3    0    0 -0.28978993686E+02 -0.24776980919E+02 -0.16878574877E+00  0.38127540533E+02  0.00000000000E+00 0. -1.
        -14    1    3    3    0    0 -0.10872580900E+02  0.16866197255E+02 -0.79102179708E+02  0.81607821070E+02  0.00000000000E+00 0.  1.
          5    1    4    4  501    0  0.18750809332E+02 -0.77248537703E+02 -0.17066145282E+01  0.79619811360E+02  0.41800000000E+01 0. -1.
         -5    1    4    4    0  501 -0.30946325857E+02  0.34712453339E+01  0.79715784659E+02  0.85684323841E+02  0.41800000000E+01 0. -1.
</event>
<event>
11    1  0.7577197E-009  0.1308400E+03  0.7561462E-02  0.1118241E+00
         22   -1    0    0    0    0  0.00000000000E+00  0.00000000000E+00  0.72009791830E+02  0.72009791830E+02  0.00000000000E+00 0.  1.
         22   -1    0    0    0    0 -0.00000000000E+00 -0.00000000000E+00 -0.87528431248E+03  0.87528431248E+03  0.00000000000E+00 0.  1.
        -24    2    1    2    0    0 -0.26075603865E+02 -0.27219566611E+02 -0.67276172335E+03  0.67848736584E+03  0.79472808424E+02 0.  0.
         25    2    1    2    0    0  0.45396217294E+02  0.18559124750E+02 -0.12379719957E+03  0.18269715414E+03  0.12508895177E+03 0.  0.
         24    2    1    2    0    0 -0.19320613429E+02  0.86604418602E+01 -0.67155977358E+01  0.86109584332E+02  0.83195383913E+02 0.  0.
        -11    1    5    5    0    0 -0.48821365053E+02 -0.88292537250E+01 -0.12895196094E+02  0.51261754645E+02  0.00000000000E+00 0.  1.
         12    1    5    5    0    0  0.29500751624E+02  0.17489695585E+02  0.61795983584E+01  0.34847829687E+02  0.00000000000E+00 0. -1.
         13    1    3    3    0    0 -0.47320522782E+02  0.60973816040E+01 -0.41098604112E+03  0.41374622166E+03  0.00000000000E+00 0. -1.
        -14    1    3    3    0    0  0.21244918916E+02 -0.33316948215E+02 -0.26177568223E+03  0.26474114418E+03  0.00000000000E+00 0.  1.
          5    1    4    4  501    0 -0.40407210257E+02  0.24638782788E+02 -0.35108046187E+02  0.59075033349E+02  0.41800000000E+01 0.  1.
         -5    1    4    4    0  501  0.85803427552E+02 -0.60796580378E+01 -0.88689153378E+02  0.12362212079E+03  0.41800000000E+01 0.  1.
</event>
<event>
11    1  0.7577197E-009  0.2045463E+03  0.7561462E-02  0.1051354E+00
         22   -1    0    0    0    0  0.00000000000E+00  0.00000000000E+00  0.29893083446E+03  0.29893083446E+03  0.00000000000E+00 0.  1.
         22   -1    0    0    0    0 -0.00000000000E+00 -0.00000000000E+00 -0.18126540490E+04  0.18126540490E+04  0.00000000000E+00 0. -1.
        -24    2    1    2    0    0 -0.68308132409E+02  0.22758944025E+02 -0.15317007604E+04  0.15355303226E+04  0.81007295397E+02 0.  0.
         25    2    1    2    0    0  0.45479396078E+02  0.14103764704E+03 -0.20847595293E+03  0.28472813929E+03  0.12509155449E+03 0.  0.
         24    2    1    2    0    0  0.22828736331E+02 -0.16379659106E+03  0.22645349878E+03  0.29132642153E+03  0.78990014079E+02 0.  0.
        -13    1    5    5    0    0  0.64789615344E+01 -0.16585281425E+03  0.21312551563E+03  0.27013259402E+03  0.00000000000E+00 0.  1.
         14    1    5    5    0    0  0.16349774796E+02  0.20562231878E+01  0.13327983143E+02  0.21193827506E+02  0.00000000000E+00 0. -1.
         13    1    3    3    0    0 -0.50964999904E+02  0.52985800586E+02 -0.10499829285E+04  0.10525535979E+04  0.00000000000E+00 0. -1.
        -14    1    3    3    0    0 -0.17343132505E+02 -0.30226856561E+02 -0.48171783185E+03  0.48297672472E+03  0.00000000000E+00 0.  1.
          5    1    4    4  501    0  0.31293025998E+01  0.14408855535E+03 -0.12433802782E+03  0.19039097111E+03  0.41800000000E+01 0. -1.
         -5    1    4    4    0  501  0.42350093479E+02 -0.30509083092E+01 -0.84137925116E+02  0.94337168190E+02  0.41800000000E+01 0. -1.
</event>
<event>
11    1  0.7577197E-009  0.1965822E+03  0.7561462E-02  0.1056967E+00
         22   -1    0    0    0    0  0.00000000000E+00  0.00000000000E+00  0.39869394177E+03  0.39869394177E+03  0.00000000000E+00 0. -1.
         22   -1    0    0    0    0 -0.00000000000E+00 -0.00000000000E+00 -0.13293028476E+04  0.13293028476E+04  0.00000000000E+00 0.  1.
        -24    2    1    2    0    0 -0.39526532462E+02 -0.23338297883E+01 -0.11357520444E+04  0.11392041644E+04  0.79281954739E+02 0.  0.
         25    2    1    2    0    0  0.34474698697E+02 -0.14956887173E+03 -0.11315485363E+03  0.22806008368E+03  0.12509208059E+03 0.  0.
         24    2    1    2    0    0  0.50518337651E+01  0.15190270152E+03  0.31829799222E+03  0.36073254125E+03  0.75593668423E+02 0.  0.
        -13    1    5    5    0    0 -0.56229220546E+01  0.65022972380E+02  0.62471712847E+02  0.90345553823E+02  0.00000000000E+00 0.  1.
         14    1    5    5    0    0  0.10674755820E+02  0.86879729142E+02  0.25582627938E+03  0.27038698742E+03  0.00000000000E+00 0. -1.
         13    1    3    3    0    0 -0.30269962329E+02  0.24487165465E+02 -0.25139667409E+03  0.25439374921E+03  0.00000000000E+00 0. -1.
        -14    1    3    3    0    0 -0.92565701336E+01 -0.26820995254E+02 -0.88435537032E+03  0.88481041522E+03  0.00000000000E+00 0.  1.
          5    1    4    4  501    0  0.20095975368E+02  0.13130031219E+02 -0.44705745730E+02  0.50914850949E+02  0.41800000000E+01 0.  1.
         -5    1    4    4    0  501  0.14378723329E+02 -0.16269890295E+03 -0.68449107897E+02  0.17714523273E+03  0.41800000000E+01 0.  1.
</event>
<event>
11    1  0.7577197E-009  0.1385035E+03  0.7561462E-02  0.1109241E+00
         22   -1    0    0    0    0  0.00000000000E+00  0.00000000000E+00  0.57479756406E+03  0.57479756406E+03  0.00000000000E+00 0.  1.
         22   -1    0    0    0    0 -0.00000000000E+00 -0.00000000000E+00 -0.13910977307E+03  0.13910977307E+03  0.00000000000E+00 0. -1.
         24    2    1    2    0    0  0.18129796448E+02 -0.90156490736E+01 -0.88124768154E+02  0.12249440822E+03  0.82637363430E+02 0.  0.
         25    2    1    2    0    0 -0.57254039478E+02 -0.34165738123E+02  0.15726618920E+03  0.21172127072E+03  0.12509164445E+03 0.  0.
        -24    2    1    2    0    0  0.39124243030E+02  0.43181387197E+02  0.36654636995E+03  0.37969165820E+03  0.80088547176E+02 0.  0.
        -11    1    3    3    0    0 -0.11933957081E+02 -0.33327485416E+02 -0.12469011888E+02  0.37531545042E+02  0.00000000000E+00 0.  1.
         12    1    3    3    0    0  0.30063753529E+02  0.24311836343E+02 -0.75655756267E+02  0.84962863175E+02  0.00000000000E+00 0. -1.
         13    1    5    5    0    0 -0.48864064193E+01  0.24736251149E+02  0.27523973011E+02  0.37327311434E+02  0.00000000000E+00 0. -1.
        -14    1    5    5    0    0  0.44010649449E+02  0.18445136048E+02  0.33902239694E+03  0.34236434676E+03  0.00000000000E+00 0.  1.
          5    1    4    4  501    0 -0.37102433455E+02 -0.77328832175E+02  0.13244001607E+03  0.15784222854E+03  0.41800000000E+01 0.  1.
         -5    1    4    4    0  501 -0.20151606023E+02  0.43163094052E+02  0.24826173129E+02  0.53879042175E+02  0.41800000000E+01 0.  1.
</event>
<event>
11    1  0.7577197E-009  0.1552925E+03  0.7561462E-02  0.1091590E+00
         22   -1    0    0    0    0  0.00000000000E+00  0.00000000000E+00  0.51496404926E+03  0.51496404926E+03  0.00000000000E+00 0.  1.
         22   -1    0    0    0    0 -0.00000000000E+00 -0.00000000000E+00 -0.46410699016E+03  0.46410699016E+03  0.00000000000E+00 0.  1.
         24    2    1    2    0    0 -0.45733458393E+02 -0.83160490871E+02 -0.32897487875E+03  0.35179409705E+03  0.80792322742E+02 0.  0.
         25    2    1    2    0    0  0.37976885940E+02  0.70891697373E+02 -0.74487018370E+02  0.16632410548E+03  0.12509002972E+03 0.  0.
        -24    2    1    2    0    0  0.77565724532E+01  0.12268793499E+02  0.45431895621E+03  0.46095283690E+03  0.76557926835E+02 0.  0.
        -11    1    3    3    0    0 -0.25608718077E+02 -0.87296407322E+02 -0.31245815169E+03  0.32543288975E+03  0.00000000000E+00 0.  1.
         12    1    3    3    0    0 -0.20124740316E+02  0.41359164503E+01 -0.16516727055E+02  0.26361207299E+02  0.00000000000E+00 0. -1.
         13    1    5    5    0    0 -0.34574506610E+02  0.65992179069E+01  0.20091325699E+03  0.20397324094E+03  0.00000000000E+00 0. -1.
        -14    1    5    5    0    0  0.42331079064E+02  0.56695755919E+01  0.25340569922E+03  0.25697959596E+03  0.00000000000E+00 0.  1.
          5    1    4    4  501    0  0.31880183879E+01  0.55498965598E+02  0.23976239210E+02  0.60684685798E+02  0.41800000000E+01 0. -1.
         -5    1    4    4    0  501  0.34788867552E+02  0.15392731774E+02 -0.98463257580E+02  0.10563941968E+03  0.41800000000E+01 0. -1.
</event>
<event>
11    1  0.7577197E-009  0.1550202E+03  0.7561462E-02  0.1091857E+00
         22   -1    0    0    0    0  0.00000000000E+00  0.00000000000E+00  0.19602219150E+04  0.19602219150E+04  0.00000000000E+00 0.  1.
         22   -1    0    0    0    0 -0.00000000000E+00 -0.00000000000E+00 -0.59846389262E+03  0.59846389262E+03  0.00000000000E+00 0. -1.
         24    2    1    2    0    0  0.91755304376E+02 -0.40778315832E+01 -0.56950838638E+03  0.58246850193E+03  0.80585910636E+02 0.  0.
         25    2    1    2    0    0 -0.76163185515E+02  0.56304762407E+02  0.27186781923E+03  0.31389505092E+03  0.12508770826E+03 0.  0.
        -24    2    1    2    0    0 -0.15592118861E+02 -0.52226930824E+02  0.16593985895E+04  0.16623222547E+04  0.82102578257E+02 0.  0.
        -11    1    3    3    0    0 -0.36480528759E+01  0.15289981715E+02 -0.26569124718E+02  0.30870863592E+02  0.00000000000E+00 0.  1.
         12    1    3    3    0    0  0.95403357252E+02 -0.19367813299E+02 -0.54293926166E+03  0.55159763833E+03  0.00000000000E+00 0. -1.
         13    1    5    5    0    0  0.59896617283E+00 -0.15534906747E+02  0.48632293875E+02  0.51056753673E+02  0.00000000000E+00 0. -1.
        -14    1    5    5    0    0 -0.16191085034E+02 -0.36692024077E+02  0.16107662956E+04  0.16112655011E+04  0.00000000000E+00 0.  1.
          5    1    4    4  501    0 -0.85062915252E+02  0.53548294633E+02  0.28206233584E+03  0.29946577953E+03  0.41800000000E+01 0. -1.
         -5    1    4    4    0  501  0.88997297368E+01  0.27564677746E+01 -0.10194516606E+02  0.14429271389E+02  0.41800000000E+01 0. -1.
</event>
<event>
11    1  0.9623284E-009  0.1523365E+03  0.7561462E-02  0.1094515E+00
         22   -1    0    0    0    0  0.00000000000E+00  0.00000000000E+00  0.13366307821E+04  0.13366307821E+04  0.00000000000E+00 0. -1.
         22   -1    0    0    0    0 -0.00000000000E+00 -0.00000000000E+00 -0.19105082876E+04  0.19105082876E+04  0.00000000000E+00 0.  1.
        -24    2    1    2    0    0  0.77478538854E+02  0.36597596982E+01 -0.12334465855E+04  0.12384758510E+04  0.80097667327E+02 0.  0.
         25    2    1    2    0    0 -0.13252053887E+03 -0.21482856332E+02 -0.66014253239E+03  0.68517064231E+03  0.12508972647E+03 0.  0.
         24    2    1    2    0    0  0.55042000012E+02  0.17823096634E+02  0.13197116124E+04  0.13234925765E+04  0.81526532314E+02 0.  0.
        -11    1    5    5    0    0  0.27036293486E+02  0.36741564544E+02  0.32269536287E+03  0.32590366820E+03  0.00000000000E+00 0.  1.
         12    1    5    5    0    0  0.28005706526E+02 -0.18918467910E+02  0.99701624955E+03  0.99758890827E+03  0.00000000000E+00 0. -1.
         11    1    3    3    0    0  0.29024339882E+02  0.63257856851E+01 -0.10878831028E+03  0.11277111476E+03  0.00000000000E+00 0. -1.
        -12    1    3    3    0    0  0.48454198972E+02 -0.26660259869E+01 -0.11246582752E+04  0.11257047362E+04  0.00000000000E+00 0.  1.
          5    1    4    4  501    0 -0.94617989855E+02  0.46375984843E+02 -0.39556617565E+03  0.40938168949E+03  0.41800000000E+01 0.  1.
         -5    1    4    4    0  501 -0.37902549011E+02 -0.67858841174E+02 -0.26457635674E+03  0.27578895281E+03  0.41800000000E+01 0.  1.
</event>
<event>
11    1  0.7577197E-009  0.1325606E+03  0.7561462E-02  0.1116162E+00
         22   -1    0    0    0    0  0.00000000000E+00  0.00000000000E+00  0.35471949408E+04  0.35471949408E+04  0.00000000000E+00 0. -1.
         22   -1    0    0    0    0 -0.00000000000E+00 -0.00000000000E+00 -0.14718642697E+04  0.14718642697E+04  0.00000000000E+00 0. -1.
        -24    2    1    2    0    0  0.22699133181E+02 -0.15609707912E+02 -0.14177983068E+04  0.14201784568E+04  0.77433176878E+02 0.  0.
         25    2    1    2    0    0 -0.38660942625E+02 -0.25337678758E+02  0.32806803505E+02  0.13733210898E+03  0.12508859001E+03 0.  0.
         24    2    1    2    0    0  0.15961809444E+02  0.40947386670E+02  0.34603221743E+04  0.34615486447E+04  0.80981487678E+02 0.  0.
        -13    1    5    5    0    0  0.24189959961E+02 -0.16452541649E+01  0.31654895292E+03  0.31747614181E+03  0.00000000000E+00 0.  1.
         14    1    5    5    0    0 -0.82281505173E+01  0.42592640835E+02  0.31437732214E+04  0.31440725029E+04  0.00000000000E+00 0. -1.
         13    1    3    3    0    0  0.15221066203E+02 -0.46552251542E+02 -0.98087984024E+03  0.98210185519E+03  0.00000000000E+00 0. -1.
        -14    1    3    3    0    0  0.74780669781E+01  0.30942543630E+02 -0.43691846653E+03  0.43807660162E+03  0.00000000000E+00 0.  1.
          5    1    4    4  501    0 -0.52040036132E+02 -0.68736298863E+02  0.11791132414E+02  0.87116860283E+02  0.41800000000E+01 0. -1.
         -5    1    4    4    0  501  0.13379093506E+02  0.43398620105E+02  0.21015671091E+02  0.50215248695E+02  0.41800000000E+01 0. -1.
</event>
<event>
11    1  0.7577197E-009  0.2295741E+03  0.7561462E-02  0.1035380E+00
         22   -1    0    0    0    0  0.00000000000E+00  0.00000000000E+00  0.52814254637E+03  0.52814254637E+03  0.00000000000E+00 0. -1.
         22   -1    0    0    0    0 -0.00000000000E+00 -0.00000000000E+00 -0.66248634290E+03  0.66248634290E+03  0.00000000000E+00 0.  1.
         24    2    1    2    0    0 -0.11902778648E+03  0.16410155846E+03 -0.35709735320E+03  0.41882133489E+03  0.82436978658E+02 0.  0.
         25    2    1    2    0    0  0.10645367085E+03  0.52875573302E+02 -0.21554323510E+03  0.27612537494E+03  0.12513243464E+03 0.  0.
        -24    2    1    2    0    0  0.12574115635E+02 -0.21697713176E+03  0.43829679177E+03  0.49568217945E+03  0.79746857303E+02 0.  0.
        -11    1    3    3    0    0 -0.94660423526E+02  0.16666925511E+03 -0.33431230928E+03  0.38536211090E+03  0.00000000000E+00 0.  1.
         12    1    3    3    0    0 -0.24367362955E+02 -0.25676966477E+01 -0.22785043923E+02  0.33459223990E+02  0.00000000000E+00 0. -1.
         13    1    5    5    0    0  0.23911741737E+02 -0.19191975781E+03  0.31728273189E+03  0.37158215349E+03  0.00000000000E+00 0. -1.
        -14    1    5    5    0    0 -0.11337626102E+02 -0.25057373954E+02  0.12101405988E+03  0.12410002596E+03  0.00000000000E+00 0.  1.
          5    1    4    4  501    0  0.12546059041E+03  0.38436723871E+02 -0.12104508972E+03  0.17856967164E+03  0.41800000000E+01 0.  1.
         -5    1    4    4    0  501 -0.19006919559E+02  0.14438849431E+02 -0.94498145384E+02  0.97555703293E+02  0.41800000000E+01 0.  1.
</event>
<event>
11    1  0.7577197E-009  0.1395359E+03  0.7561462E-02  0.1108078E+00
         22   -1    0    0    0    0  0.00000000000E+00  0.00000000000E+00  0.14761750489E+04  0.14761750489E+04  0.00000000000E+00 0. -1.
         22   -1    0    0    0    0 -0.00000000000E+00 -0.00000000000E+00 -0.13345981909E+03  0.13345981909E+03  0.00000000000E+00 0.  1.
        -24    2    1    2    0    0  0.12689064506E+02  0.56550421881E+02 -0.69205314618E+02  0.12103916437E+03  0.80635855339E+02 0.  0.
         25    2    1    2    0    0 -0.52606620186E+00 -0.86877297526E+02  0.12004731135E+03  0.19392493561E+03  0.12509029586E+03 0.  0.
         24    2    1    2    0    0 -0.12162998304E+02  0.30326875645E+02  0.12918732331E+04  0.12946707681E+04  0.78538457453E+02 0.  0.
        -13    1    5    5    0    0  0.18572940431E+02  0.93313661562E+00  0.83344859693E+02  0.85394323567E+02  0.00000000000E+00 0.  1.
         14    1    5    5    0    0 -0.30735938735E+02  0.29393739030E+02  0.12085283734E+04  0.12092764445E+04  0.00000000000E+00 0. -1.
         13    1    3    3    0    0  0.28910579728E+02 -0.81253957491E+01 -0.93953395480E+01  0.31466110047E+02  0.00000000000E+00 0. -1.
        -14    1    3    3    0    0 -0.16221515222E+02  0.64675817630E+02 -0.59809975070E+02  0.89573054319E+02  0.00000000000E+00 0.  1.
          5    1    4    4  501    0  0.20594534491E+02 -0.37454947990E+02  0.13191114821E+03  0.13872646251E+03  0.41800000000E+01 0. -1.
         -5    1    4    4    0  501 -0.21120600693E+02 -0.49422349536E+02 -0.11863836856E+02  0.55198473097E+02  0.41800000000E+01 0. -1.
</event>
<event>
11    1  0.7577197E-009  0.3051004E+03  0.7561462E-02  0.9980554E-01
         22   -1    0    0    0    0  0.00000000000E+00  0.00000000000E+00  0.71993437735E+03  0.71993437735E+03  0.00000000000E+00 0.  1.
         22   -1    0    0    0    0 -0.00000000000E+00 -0.00000000000E+00 -0.75241231263E+03  0.75241231263E+03  0.00000000000E+00 0.  1.
        -24    2    1    2    0    0  0.15816415127E+03 -0.18851864711E+03 -0.57445952060E+03  0.62983852025E+03  0.78343102684E+02 0.  0.
         25    2    1    2    0    0 -0.30542007951E+03 -0.68682038205E+02  0.26399016106E+03  0.42817966729E+03  0.12509346506E+03 0.  0.
         24    2    1    2    0    0  0.14725592824E+03  0.25720068531E+03  0.27799142426E+03  0.41432850243E+03  0.80946741990E+02 0.  0.
        -11    1    5    5    0    0  0.12476587834E+03  0.16104157712E+03  0.15162289421E+03  0.25394963282E+03  0.00000000000E+00 0.  1.
         12    1    5    5    0    0  0.22490049907E+02  0.96159108191E+02  0.12636853005E+03  0.16037886962E+03  0.00000000000E+00 0. -1.
         11    1    3    3    0    0  0.10235288439E+02 -0.64155022463E+02 -0.14085747602E+03  0.15511755731E+03  0.00000000000E+00 0. -1.
        -12    1    3    3    0    0  0.14792886283E+03 -0.12436362464E+03 -0.43360204458E+03  0.47472096294E+03  0.00000000000E+00 0.  1.
          5    1    4    4  501    0 -0.43099397234E+02  0.31389892021E+02  0.64228825328E+02  0.83580486754E+02  0.41800000000E+01 0.  1.
         -5    1    4    4    0  501 -0.26232068228E+03 -0.10007193023E+03  0.19976133573E+03  0.34459918053E+03  0.41800000000E+01 0.  1.
</event>
<event>
11    1  0.7577197E-009  0.1595088E+03  0.7561462E-02  0.1087540E+00
         22   -1    0    0    0    0  0.00000000000E+00  0.00000000000E+00  0.57083191893E+03  0.57083191893E+03  0.00000000000E+00 0. -1.
         22   -1    0    0    0    0 -0.00000000000E+00 -0.00000000000E+00 -0.26299894639E+03  0.26299894639E+03  0.00000000000E+00 0.  1.
         24    2    1    2    0    0  0.83894142390E+02 -0.53110603461E+02 -0.18096557838E+03  0.22122607035E+03  0.79583103213E+02 0.  0.
         25    2    1    2    0    0 -0.96135811003E+02  0.28824912360E+02  0.54496568459E+02  0.16938087778E+03  0.12508811316E+03 0.  0.
        -24    2    1    2    0    0  0.12241668612E+02  0.24285691101E+02  0.43430198247E+03  0.44322391719E+03  0.84199617308E+02 0.  0.
        -13    1    3    3    0    0  0.66263449512E+02  0.46042144898E+01 -0.85212990580E+02  0.10804303446E+03  0.00000000000E+00 0.  1.
         14    1    3    3    0    0  0.17630692879E+02 -0.57714817951E+02 -0.95752587800E+02  0.11318303589E+03  0.00000000000E+00 0. -1.
         11    1    5    5    0    0  0.22724316743E+02 -0.17010698847E+02  0.31970935997E+03  0.32096702837E+03  0.00000000000E+00 0. -1.
        -12    1    5    5    0    0 -0.10482648130E+02  0.41296389948E+02  0.11459262249E+03  0.12225688882E+03  0.00000000000E+00 0.  1.
          5    1    4    4  501    0  0.25040595792E+02 -0.53075776275E+01  0.32390171416E+02  0.41494546898E+02  0.41800000000E+01 0.  1.
         -5    1    4    4    0  501 -0.12117640679E+03  0.34132489987E+02  0.22106397043E+02  0.12788633088E+03  0.41800000000E+01 0.  1.
</event>
<event>
11    1  0.7577197E-009  0.1778290E+03  0.7561462E-02  0.1071413E+00
         22   -1    0    0    0    0  0.00000000000E+00  0.00000000000E+00  0.18809978715E+03  0.18809978715E+03  0.00000000000E+00 0. -1.
         22   -1    0    0    0    0 -0.00000000000E+00 -0.00000000000E+00 -0.98693191186E+03  0.98693191186E+03  0.00000000000E+00 0. -1.
        -24    2    1    2    0    0 -0.26209594118E+02 -0.12497067043E+03 -0.61578311184E+03  0.63405637061E+03  0.80833340848E+02 0.  0.
         25    2    1    2    0    0 -0.27968681713E+02  0.12839601173E+03 -0.32246949334E+03  0.36999531743E+03  0.12506869233E+03 0.  0.
         24    2    1    2    0    0  0.54178275831E+02 -0.34253412939E+01  0.13942048047E+03  0.17098001096E+03  0.82759139914E+02 0.  0.
        -11    1    5    5    0    0  0.29936977502E+02  0.15669848124E+02  0.13576344279E+03  0.13990525066E+03  0.00000000000E+00 0.  1.
         12    1    5    5    0    0  0.24241298329E+02 -0.19095189418E+02  0.36570376783E+01  0.31074760307E+02  0.00000000000E+00 0. -1.
         11    1    3    3    0    0 -0.30383049850E+02 -0.13389650670E+03 -0.59952020961E+03  0.61504136930E+03  0.00000000000E+00 0. -1.
        -12    1    3    3    0    0  0.41734557319E+01  0.89258362661E+01 -0.16262902237E+02  0.19015001314E+02  0.00000000000E+00 0.  1.
          5    1    4    4  501    0 -0.47352037654E+02  0.92531414384E+02 -0.31025790220E+03  0.32723342800E+03  0.41800000000E+01 0.  1.
         -5    1    4    4    0  501  0.19383355942E+02  0.35864597342E+02 -0.12211591137E+02  0.42761889437E+02  0.41800000000E+01 0.  1.
</event>
<event>
11    1  0.7577197E-009  0.1444490E+03  0.7561462E-02  0.1102690E+00
         22   -1    0    0    0    0  0.00000000000E+00  0.00000000000E+00  0.40336796234E+03  0.40336796234E+03  0.00000000000E+00 0. -1.
         22   -1    0    0    0    0 -0.00000000000E+00 -0.00000000000E+00 -0.28839922890E+03  0.28839922890E+03  0.00000000000E+00 0. -1.
        -24    2    1    2    0    0  0.23808783538E+01  0.85897683146E+02 -0.17516090379E+03  0.21088366540E+03  0.80040599463E+02 0.  0.
         25    2    1    2    0    0 -0.50456926832E+02 -0.24658223606E+02 -0.31219454847E+02  0.14062721277E+03  0.12508968444E+03 0.  0.
         24    2    1    2    0    0  0.48076048478E+02 -0.61239459540E+02  0.32134909208E+03  0.34025631307E+03  0.80296586237E+02 0.  0.
        -13    1    5    5    0    0 -0.17114904394E+02 -0.18179506100E+02  0.14830983006E+03  0.15039687525E+03  0.00000000000E+00 0.  1.
         14    1    5    5    0    0  0.65190952872E+02 -0.43059953440E+02  0.17303926202E+03  0.18985943782E+03  0.00000000000E+00 0. -1.
         13    1    3    3    0    0  0.98676182100E+01  0.23047396034E+02 -0.13179431217E+03  0.13415771716E+03  0.00000000000E+00 0. -1.
        -14    1    3    3    0    0 -0.74867398562E+01  0.62850287112E+02 -0.43366591618E+02  0.76725948234E+02  0.00000000000E+00 0.  1.
          5    1    4    4  501    0 -0.21671781338E+02 -0.60579279665E+02  0.23838101135E+02  0.68740400761E+02  0.41800000000E+01 0.  1.
         -5    1    4    4    0  501 -0.28785145494E+02  0.35921056058E+02 -0.55057555982E+02  0.71886812005E+02  0.41800000000E+01 0.  1.
</event>
<event>
11    1  0.7577197E-009  0.2404005E+03  0.7561462E-02  0.1029141E+00
         22   -1    0    0    0    0  0.00000000000E+00  0.00000000000E+00  0.38673770106E+03  0.38673770106E+03  0.00000000000E+00 0. -1.
         22   -1    0    0    0    0 -0.00000000000E+00 -0.00000000000E+00 -0.98645814415E+03  0.98645814415E+03  0.00000000000E+00 0.  1.
        -24    2    1    2    0    0  0.19165112689E+03 -0.56689750826E+02 -0.82792584692E+03  0.85571263758E+03  0.82698414916E+02 0.  0.
         25    2    1    2    0    0 -0.25029455478E+03  0.11107899720E+03  0.36645183567E+02  0.30327572200E+03  0.12508951315E+03 0.  0.
         24    2    1    2    0    0  0.58643427889E+02 -0.54389246377E+02  0.19156022027E+03  0.21420748564E+03  0.52842096442E+02 0.  0.
        -11    1    5    5    0    0 -0.11857527481E+01 -0.12849201385E+02  0.48358191685E+01  0.13780171727E+02  0.00000000000E+00 0.  1.
         12    1    5    5    0    0  0.59829180637E+02 -0.41540044992E+02  0.18672440110E+03  0.20042731391E+03  0.00000000000E+00 0. -1.
         11    1    3    3    0    0  0.12009189081E+03 -0.19103159299E+02 -0.33899090801E+03  0.36014140091E+03  0.00000000000E+00 0. -1.
        -12    1    3    3    0    0  0.71559236079E+02 -0.37586591528E+02 -0.48893493891E+03  0.49557123667E+03  0.00000000000E+00 0.  1.
          5    1    4    4  501    0 -0.62071769276E+02  0.92455594804E+02  0.57918371223E+01  0.11158834764E+03  0.41800000000E+01 0. -1.
         -5    1    4    4    0  501 -0.18822278551E+03  0.18623402399E+02  0.30853346445E+02  0.19168737436E+03  0.41800000000E+01 0. -1.
</event>
<event>
11    1  0.7577197E-009  0.1319674E+03  0.7561462E-02  0.1116875E+00
         22   -1    0    0    0    0  0.00000000000E+00  0.00000000000E+00  0.28660896947E+03  0.28660896947E+03  0.00000000000E+00 0. -1.
         22   -1    0    0    0    0 -0.00000000000E+00 -0.00000000000E+00 -0.47174385741E+03  0.47174385741E+03  0.00000000000E+00 0.  1.
        -24    2    1    2    0    0  0.39219769775E+02  0.34952117804E+01 -0.33397863638E+03  0.34542775756E+03  0.78918941260E+02 0.  0.
         25    2    1    2    0    0 -0.49423640852E+01  0.24409436099E+02 -0.90222465493E+02  0.15622974608E+03  0.12508953892E+03 0.  0.
         24    2    1    2    0    0 -0.34277405689E+02 -0.27904647879E+02  0.23906621393E+03  0.25669532324E+03  0.82378543414E+02 0.  0.
        -13    1    5    5    0    0  0.22355052470E+02  0.56799051886E+01  0.32236070734E+02  0.39638036660E+02  0.00000000000E+00 0.  1.
         14    1    5    5    0    0 -0.56632458159E+02 -0.33584553068E+02  0.20683014320E+03  0.21705728658E+03  0.00000000000E+00 0. -1.
         13    1    3    3    0    0 -0.16949298267E+02 -0.16606158427E+02 -0.51292360564E+02  0.56515037483E+02  0.00000000000E+00 0. -1.
        -14    1    3    3    0    0  0.56169068042E+02  0.20101370207E+02 -0.28268627581E+03  0.28891272008E+03  0.00000000000E+00 0.  1.
          5    1    4    4  501    0  0.32924934396E+02  0.64067821927E+02 -0.57271778523E+02  0.92120932076E+02  0.41800000000E+01 0. -1.
         -5    1    4    4    0  501 -0.37867298481E+02 -0.39658385828E+02 -0.32950686970E+02  0.64108814000E+02  0.41800000000E+01 0. -1.
</event>
<event>
11    1  0.7577197E-009  0.1330599E+03  0.7561462E-02  0.1115565E+00
         22   -1    0    0    0    0  0.00000000000E+00  0.00000000000E+00  0.41446956363E+03  0.41446956363E+03  0.00000000000E+00 0. -1.
         22   -1    0    0    0    0 -0.00000000000E+00 -0.00000000000E+00 -0.15354936281E+04  0.15354936281E+04  0.00000000000E+00 0.  1.
        -24    2    1    2    0    0 -0.22058576413E+02  0.37541553205E+02 -0.13466739913E+04  0.13498094944E+04  0.80986932830E+02 0.  0.
         25    2    1    2    0    0  0.25958842651E+02 -0.78841944060E+02 -0.15074222428E+03  0.21274535763E+03  0.12508978919E+03 0.  0.
         24    2    1    2    0    0 -0.39002662379E+01  0.41300390855E+02  0.37639215108E+03  0.38740833974E+03  0.81812199194E+02 0.  0.
        -11    1    5    5    0    0  0.23444305581E+02 -0.15686657771E+02  0.13140090647E+03  0.13439458664E+03  0.00000000000E+00 0.  1.
         12    1    5    5    0    0 -0.27344571819E+02  0.56987048626E+02  0.24499124461E+03  0.25301375309E+03  0.00000000000E+00 0. -1.
         13    1    3    3    0    0 -0.30174769692E+02 -0.41837452217E+01 -0.19623619924E+03  0.19858667212E+03  0.00000000000E+00 0. -1.
        -14    1    3    3    0    0  0.81161932796E+01  0.41725298427E+02 -0.11504377921E+04  0.11512228223E+04  0.00000000000E+00 0.  1.
          5    1    4    4  501    0 -0.46045961970E+02 -0.50163122700E+02 -0.45602464157E+02  0.82058677969E+02  0.41800000000E+01 0.  1.
         -5    1    4    4    0  501  0.72004804621E+02 -0.28678821360E+02 -0.10513976012E+03  0.13068667967E+03  0.41800000000E+01 0.  1.
</event>
<event>
11    1  0.7577197E-009  0.1687807E+03  0.7561462E-02  0.1079098E+00
         22   -1    0    0    0    0  0.00000000000E+00  0.00000000000E+00  0.14152487691E+04  0.14152487691E+04  0.00000000000E+00 0.  1.
         22   -1    0    0    0    0 -0.00000000000E+00 -0.00000000000E+00 -0.58397506464E+03  0.58397506464E+03  0.00000000000E+00 0. -1.
        -24    2    1    2    0    0  0.25730693889E+02  0.10129246024E+02 -0.37572435731E+03  0.38529090759E+03  0.80719393972E+02 0.  0.
         25    2    1    2    0    0  0.35581875602E+02 -0.10552793045E+03 -0.16488326121E+03  0.23502422326E+03  0.12509069396E+03 0.  0.
         24    2    1    2    0    0 -0.61312569491E+02  0.95398684429E+02  0.13718813230E+04  0.13789087029E+04  0.80440701212E+02 0.  0.
        -11    1    5    5    0    0 -0.63553874774E+02  0.48470475389E+02  0.56072945588E+03  0.56639739113E+03  0.00000000000E+00 0.  1.
         12    1    5    5    0    0  0.22413052833E+01  0.46928209041E+02  0.81115186713E+03  0.81251131180E+03  0.00000000000E+00 0. -1.
         13    1    3    3    0    0  0.47531756695E+02 -0.15806865268E+02 -0.25651934215E+03  0.26136430089E+03  0.00000000000E+00 0. -1.
        -14    1    3    3    0    0 -0.21801062806E+02  0.25936111292E+02 -0.11920501516E+03  0.12392660670E+03  0.00000000000E+00 0.  1.
          5    1    4    4  501    0  0.23560692320E+02  0.90466808963E+01 -0.98988844452E+02  0.10224095258E+03  0.41800000000E+01 0. -1.
         -5    1    4    4    0  501  0.12021183283E+02 -0.11457461135E+03 -0.65894416758E+02  0.13278327068E+03  0.41800000000E+01 0. -1.
</event>
<event>
11    1  0.7577197E-009  0.3006642E+03  0.7561462E-02  0.9999105E-01
         22   -1    0    0    0    0  0.00000000000E+00  0.00000000000E+00  0.32420243910E+03  0.32420243910E+03  0.00000000000E+00 0. -1.
         22   -1    0    0    0    0 -0.00000000000E+00 -0.00000000000E+00 -0.18239657392E+04  0.18239657392E+04  0.00000000000E+00 0. -1.
        -24    2    1    2    0    0  0.19527745020E+02 -0.39187590126E+02 -0.15165330620E+04  0.15193352418E+04  0.81179115388E+02 0.  0.
         25    2    1    2    0    0  0.86613919842E+02  0.28148460471E+03 -0.90259019914E+02  0.33246304601E+03  0.12509769178E+03 0.  0.
         24    2    1    2    0    0 -0.10614166486E+03 -0.24229701459E+03  0.10702878186E+03  0.29636989044E+03  0.80037838019E+02 0.  0.
        -11    1    5    5    0    0 -0.18508451311E+02 -0.50426858289E+01  0.22790344268E+02  0.29789112813E+02  0.00000000000E+00 0.  1.
         12    1    5    5    0    0 -0.87633213552E+02 -0.23725432876E+03  0.84238437592E+02  0.26658077763E+03  0.00000000000E+00 0. -1.
         11    1    3    3    0    0 -0.18624226548E+02  0.13670549177E+02 -0.62257409968E+03  0.62300261261E+03  0.00000000000E+00 0. -1.
        -12    1    3    3    0    0  0.38151971568E+02 -0.52858139303E+02 -0.89395896233E+03  0.89633262919E+03  0.00000000000E+00 0.  1.
          5    1    4    4  501    0  0.55307601326E+02  0.25575565874E+03 -0.35327810845E+02  0.26407463786E+03  0.41800000000E+01 0. -1.
         -5    1    4    4    0  501  0.31306318517E+02  0.25728945971E+02 -0.54931209069E+02  0.68388408153E+02  0.41800000000E+01 0. -1.
</event>
<event>
11    1  0.1145027E-008  0.2122556E+03  0.7561462E-02  0.1046180E+00
         22   -1    0    0    0    0  0.00000000000E+00  0.00000000000E+00  0.28401807297E+04  0.28401807297E+04  0.00000000000E+00 0. -1.
         22   -1    0    0    0    0 -0.00000000000E+00 -0.00000000000E+00 -0.16790883560E+04  0.16790883560E+04  0.00000000000E+00 0.  1.
         24    2    1    2    0    0  0.47149497026E+02 -0.10612302671E+02 -0.14151980589E+04  0.14186211045E+04  0.85817225377E+02 0.  0.
         25    2    1    2    0    0  0.73999262162E+02 -0.11146335724E+03 -0.22652380813E+03  0.29130747817E+03  0.12508813046E+03 0.  0.
        -24    2    1    2    0    0 -0.12114875919E+03  0.12207565991E+03  0.28028142407E+04  0.28093405031E+04  0.83945848207E+02 0.  0.
        -13    1    3    3    0    0  0.50775673486E+02  0.28037164953E+02 -0.97060915769E+03  0.97234067519E+03  0.00000000000E+00 0.  1.
         14    1    3    3    0    0 -0.36261764598E+01 -0.38649467625E+02 -0.44458890117E+03  0.44628042926E+03  0.00000000000E+00 0. -1.
         13    1    5    5    0    0 -0.12307641091E+03  0.13085623020E+03  0.25257054298E+04  0.25320859136E+04  0.00000000000E+00 0. -1.
        -14    1    5    5    0    0  0.19276517197E+01 -0.87805702905E+01  0.27710881098E+03  0.27725458947E+03  0.00000000000E+00 0.  1.
          5    1    4    4  501    0 -0.18707465108E+02  0.16345456687E+02 -0.29682434298E+02  0.38931510514E+02  0.41800000000E+01 0.  1.
         -5    1    4    4    0  501  0.92706727270E+02 -0.12780881393E+03 -0.19684137383E+03  0.25237596766E+03  0.41800000000E+01 0.  1.
</event>
<event>
11    1  0.7577197E-009  0.1574358E+03  0.7561462E-02  0.1089514E+00
         22   -1    0    0    0    0  0.00000000000E+00  0.00000000000E+00  0.75486315805E+02  0.75486315805E+02  0.00000000000E+00 0. -1.
         22   -1    0    0    0    0 -0.00000000000E+00 -0.00000000000E+00 -0.10394242297E+04  0.10394242297E+04  0.00000000000E+00 0.  1.
        -24    2    1    2    0    0  0.89996817847E+02 -0.17472875162E+02 -0.70345843279E+03  0.71386362912E+03  0.79641608042E+02 0.  0.
         25    2    1    2    0    0 -0.11072615552E+03  0.27816877993E+02 -0.26822649776E+03  0.31721819492E+03  0.12509144202E+03 0.  0.
         24    2    1    2    0    0  0.20729337674E+02 -0.10344002830E+02  0.77470166556E+01  0.83828721469E+02  0.80190613173E+02 0.  0.
        -11    1    5    5    0    0 -0.29518377102E+02 -0.13498967475E+02  0.82067572366E+01  0.33479957795E+02  0.00000000000E+00 0.  1.
         12    1    5    5    0    0  0.50247714776E+02  0.31549646443E+01 -0.45974058103E+00  0.50348763674E+02  0.00000000000E+00 0. -1.
         11    1    3    3    0    0  0.23570673232E+02 -0.14662044921E+02 -0.51332864887E+02  0.58357649159E+02  0.00000000000E+00 0. -1.
        -12    1    3    3    0    0  0.66426144615E+02 -0.28108302412E+01 -0.65212556790E+03  0.65550597996E+03  0.00000000000E+00 0.  1.
          5    1    4    4  501    0 -0.89688374590E+02 -0.32793133544E+02 -0.20892074138E+03  0.22974930407E+03  0.41800000000E+01 0. -1.
         -5    1    4    4    0  501 -0.21037780931E+02  0.60610011537E+02 -0.59305756386E+02  0.87468890844E+02  0.41800000000E+01 0. -1.
</event>
<event>
11    1  0.7577197E-009  0.1583928E+03  0.7561462E-02  0.1088599E+00
         22   -1    0    0    0    0  0.00000000000E+00  0.00000000000E+00  0.50507152603E+03  0.50507152603E+03  0.00000000000E+00 0.  1.
         22   -1    0    0    0    0 -0.00000000000E+00 -0.00000000000E+00 -0.33661661288E+03  0.33661661288E+03  0.00000000000E+00 0.  1.
        -24    2    1    2    0    0  0.47661084333E+02  0.37867345555E+01 -0.22298840157E+03  0.24193203784E+03  0.80754971239E+02 0.  0.
         25    2    1    2    0    0 -0.13308255657E+03  0.33803717131E+02 -0.38227385331E+01  0.18580489919E+03  0.12512069805E+03 0.  0.
         24    2    1    2    0    0  0.85421472234E+02 -0.37590451687E+02  0.39526605325E+03  0.41395120188E+03  0.80065440120E+02 0.  0.
        -11    1    5    5    0    0 -0.14666061699E+02 -0.50919013550E+01  0.82751717750E+02  0.84195413270E+02  0.00000000000E+00 0.  1.
         12    1    5    5    0    0  0.10008753393E+03 -0.32498550332E+02  0.31251433550E+03  0.32975578860E+03  0.00000000000E+00 0. -1.
         13    1    3    3    0    0 -0.18894453219E+02  0.12049050511E+02 -0.28818300118E+02  0.36505813268E+02  0.00000000000E+00 0. -1.
        -14    1    3    3    0    0  0.66555537551E+02 -0.82623159560E+01 -0.19417010145E+03  0.20542622457E+03  0.00000000000E+00 0.  1.
          5    1    4    4  501    0 -0.40982321467E+02 -0.29485818969E+02 -0.43877469755E+02  0.67019914542E+02  0.41800000000E+01 0. -1.
         -5    1    4    4    0  501 -0.92100235100E+02  0.63289536100E+02  0.40054731222E+02  0.11878498465E+03  0.41800000000E+01 0. -1.
</event>
<event>
11    1  0.7577197E-009  0.1870941E+03  0.7561462E-02  0.1064045E+00
         22   -1    0    0    0    0  0.00000000000E+00  0.00000000000E+00  0.38869482503E+03  0.38869482503E+03  0.00000000000E+00 0. -1.
         22   -1    0    0    0    0 -0.00000000000E+00 -0.00000000000E+00 -0.98706215433E+03  0.98706215433E+03  0.00000000000E+00 0.  1.
        -24    2    1    2    0    0  0.13530542629E+03 -0.30787236573E+02 -0.91674975656E+03  0.93065465765E+03  0.80203262682E+02 0.  0.
         25    2    1    2    0    0 -0.14277789655E+03  0.40673178312E+02  0.11485986341E+03  0.22556139464E+03  0.12508125100E+03 0.  0.
         24    2    1    2    0    0  0.74724702621E+01 -0.98859417385E+01  0.20352256385E+03  0.21954092707E+03  0.81383137119E+02 0.  0.
        -13    1    5    5    0    0  0.11024207489E+02 -0.23161044386E+01 -0.39218577003E+01  0.11928053419E+02  0.00000000000E+00 0.  1.
         14    1    5    5    0    0 -0.35517372270E+01 -0.75698372998E+01  0.20744442155E+03  0.20761287365E+03  0.00000000000E+00 0. -1.
         11    1    3    3    0    0  0.91976578992E+01 -0.52105455319E+01 -0.91566892982E+01  0.13985408627E+02  0.00000000000E+00 0. -1.
        -12    1    3    3    0    0  0.12610776839E+03 -0.25576691041E+02 -0.90759306726E+03  0.91666924903E+03  0.00000000000E+00 0.  1.
          5    1    4    4  501    0 -0.33479143398E+02  0.37614262463E+02  0.10397165770E+03  0.11559958386E+03  0.41800000000E+01 0.  1.
         -5    1    4    4    0  501 -0.10929875315E+03  0.30589158485E+01  0.10888205711E+02  0.10996181078E+03  0.41800000000E+01 0.  1.
</event>
<event>
11    1  0.7577197E-009  0.2423396E+03  0.7561462E-02  0.1028061E+00
         22   -1    0    0    0    0  0.00000000000E+00  0.00000000000E+00  0.12086420437E+04  0.12086420437E+04  0.00000000000E+00 0. -1.
         22   -1    0    0    0    0 -0.00000000000E+00 -0.00000000000E+00 -0.15413148411E+04  0.15413148411E+04  0.00000000000E+00 0.  1.
        -24    2    1    2    0    0 -0.20555091230E+03  0.15726945579E+02 -0.14352387929E+04  0.14525370744E+04  0.86342606051E+02 0.  0.
         25    2    1    2    0    0  0.23852482694E+03 -0.74434610051E+01  0.93945754268E+02  0.28534742030E+03  0.12509135599E+03 0.  0.
         24    2    1    2    0    0 -0.32973914649E+02 -0.82834845737E+01  0.10086202412E+04  0.10120723902E+04  0.76287854932E+02 0.  0.
        -11    1    5    5    0    0 -0.39653401848E+01 -0.35056919879E+02  0.25625582046E+03  0.25867306987E+03  0.00000000000E+00 0.  1.
         12    1    5    5    0    0 -0.29008574464E+02  0.26773435305E+02  0.75236442075E+03  0.75339932031E+03  0.00000000000E+00 0. -1.
         11    1    3    3    0    0  0.95309241888E+00  0.16523835564E+02 -0.84767223230E+02  0.86367978215E+02  0.00000000000E+00 0. -1.
        -12    1    3    3    0    0 -0.20650400471E+03 -0.79688998483E+00 -0.13504715696E+04  0.13661690962E+04  0.00000000000E+00 0.  1.
          5    1    4    4  501    0  0.15904440962E+03  0.98395188847E+00  0.12204735963E+03  0.20052212542E+03  0.41800000000E+01 0.  1.
         -5    1    4    4    0  501  0.79480417329E+02 -0.84274128936E+01 -0.28101605360E+02  0.84825294875E+02  0.41800000000E+01 0.  1.
</event>
<event>
11    1  0.7577197E-009  0.1644864E+03  0.7561462E-02  0.1082932E+00
         22   -1    0    0    0    0  0.00000000000E+00  0.00000000000E+00  0.12939896374E+04  0.12939896374E+04  0.00000000000E+00 0. -1.
         22   -1    0    0    0    0 -0.00000000000E+00 -0.00000000000E+00 -0.21002992154E+04  0.21002992154E+04  0.00000000000E+00 0. -1.
        -24    2    1    2    0    0 -0.62862971967E+02 -0.39685162409E+02 -0.20206619581E+04  0.20236588674E+04  0.81202199850E+02 0.  0.
         25    2    1    2    0    0 -0.11256029683E+02 -0.41951749752E+02 -0.15421311060E+02  0.13331123395E+03  0.12508965085E+03 0.  0.
         24    2    1    2    0    0  0.74119001650E+02  0.81636912161E+02  0.12297736911E+04  0.12373187514E+04  0.80350167414E+02 0.  0.
        -11    1    5    5    0    0  0.14044414292E+02 -0.14043029644E+02  0.10314552077E+03  0.10504023377E+03  0.00000000000E+00 0.  1.
         12    1    5    5    0    0  0.60074587357E+02  0.95679941805E+02  0.11266281704E+04  0.11322785177E+04  0.00000000000E+00 0. -1.
         11    1    3    3    0    0 -0.24879139630E+02  0.13356287649E+02 -0.12254451008E+04  0.12257703933E+04  0.00000000000E+00 0. -1.
        -12    1    3    3    0    0 -0.37983832337E+02 -0.53041450058E+02 -0.79521685728E+03  0.79788847406E+03  0.00000000000E+00 0.  1.
          5    1    4    4  501    0 -0.81523319547E+01 -0.64777748494E+00 -0.66661337050E+02  0.67291057276E+02  0.41800000000E+01 0.  1.
         -5    1    4    4    0  501 -0.31036977283E+01 -0.41303972267E+02  0.51240025990E+02  0.66020176674E+02  0.41800000000E+01 0.  1.
</event>
<event>
11    1  0.7577197E-009  0.1338932E+03  0.7561462E-02  0.1114576E+00
         22   -1    0    0    0    0  0.00000000000E+00  0.00000000000E+00  0.15364157317E+03  0.15364157317E+03  0.00000000000E+00 0.  1.
         22   -1    0    0    0    0 -0.00000000000E+00 -0.00000000000E+00 -0.10775709683E+04  0.10775709683E+04  0.00000000000E+00 0.  1.
        -24    2    1    2    0    0  0.45363238481E+02 -0.70672512252E+01 -0.80503073961E+03  0.81051048430E+03  0.82127851527E+02 0.  0.
         25    2    1    2    0    0 -0.64082063431E+02 -0.23833935255E+02 -0.23521774886E+03  0.27504527684E+03  0.12509175676E+03 0.  0.
         24    2    1    2    0    0  0.18718824951E+02  0.30901186480E+02  0.11631909334E+03  0.14565678035E+03  0.79877959744E+02 0.  0.
        -13    1    5    5    0    0  0.11767924006E+01  0.50420352116E+02  0.38259976872E+02  0.63304206638E+02  0.00000000000E+00 0.  1.
         14    1    5    5    0    0  0.17542032550E+02 -0.19519165637E+02  0.78059116464E+02  0.82352573708E+02  0.00000000000E+00 0. -1.
         11    1    3    3    0    0  0.88498622117E+01 -0.35887406918E+02 -0.55223235887E+03  0.55346797940E+03  0.00000000000E+00 0. -1.
        -12    1    3    3    0    0  0.36513376269E+02  0.28820155693E+02 -0.25279838074E+03  0.25704250490E+03  0.00000000000E+00 0.  1.
          5    1    4    4  501    0  0.21141679298E+02 -0.34239707274E+01  0.22039717791E+01  0.21932260957E+02  0.41800000000E+01 0.  1.
         -5    1    4    4    0  501 -0.85223742729E+02 -0.20409964527E+02 -0.23742172064E+03  0.25311301588E+03  0.41800000000E+01 0.  1.
</event>
<event>
11    1  0.7577197E-009  0.1574592E+03  0.7561462E-02  0.1089492E+00
         22   -1    0    0    0    0  0.00000000000E+00  0.00000000000E+00  0.19540402863E+03  0.19540402863E+03  0.00000000000E+00 0.  1.
         22   -1    0    0    0    0 -0.00000000000E+00 -0.00000000000E+00 -0.11106955219E+04  0.11106955219E+04  0.00000000000E+00 0.  1.
        -24    2    1    2    0    0  0.88843601079E+02  0.29254095763E+01 -0.76331130535E+03  0.77280809553E+03  0.81770778151E+02 0.  0.
         25    2    1    2    0    0 -0.13011077897E+03 -0.35093599967E+02 -0.30274480710E+03  0.35421532147E+03  0.12511474803E+03 0.  0.
         24    2    1    2    0    0  0.41267177890E+02  0.32168190390E+02  0.15076461917E+03  0.17907613354E+03  0.81243576766E+02 0.  0.
        -13    1    5    5    0    0 -0.20179033951E+02  0.10233257399E+02  0.78594407067E+02  0.81786268959E+02  0.00000000000E+00 0.  1.
         14    1    5    5    0    0  0.61446211841E+02  0.21934932991E+02  0.72170212108E+02  0.97289864584E+02  0.00000000000E+00 0. -1.
         11    1    3    3    0    0  0.41728983556E+02  0.20517909070E+02 -0.14104057286E+03  0.14850836964E+03  0.00000000000E+00 0. -1.
        -12    1    3    3    0    0  0.47114617523E+02 -0.17592499493E+02 -0.62227073249E+03  0.62429972588E+03  0.00000000000E+00 0.  1.
          5    1    4    4  501    0 -0.19938782056E+02  0.42786577389E+02 -0.59923232899E+02  0.76397071119E+02  0.41800000000E+01 0. -1.
         -5    1    4    4    0  501 -0.11017199691E+03 -0.77880177356E+02 -0.24282157420E+03  0.27781825035E+03  0.41800000000E+01 0. -1.
</event>
<event>
11    1  0.7577197E-009  0.1565283E+03  0.7561462E-02  0.1090389E+00
         22   -1    0    0    0    0  0.00000000000E+00  0.00000000000E+00  0.54427667391E+03  0.54427667391E+03  0.00000000000E+00 0. -1.
         22   -1    0    0    0    0 -0.00000000000E+00 -0.00000000000E+00 -0.10338351387E+04  0.10338351387E+04  0.00000000000E+00 0.  1.
        -24    2    1    2    0    0  0.11298978822E+02  0.25301964940E+02 -0.91673409100E+03  0.92073126456E+03  0.81097543681E+02 0.  0.
         25    2    1    2    0    0 -0.10460981796E+03 -0.24158006049E+02 -0.43766209349E+02  0.17055811317E+03  0.12509102933E+03 0.  0.
         24    2    1    2    0    0  0.93310839140E+02 -0.11439588919E+01  0.47094183556E+03  0.48682243487E+03  0.80632805161E+02 0.  0.
        -13    1    5    5    0    0  0.69549987784E+01 -0.27294931926E+02  0.18060953413E+03  0.18279274913E+03  0.00000000000E+00 0.  1.
         14    1    5    5    0    0  0.86355840361E+02  0.26150973034E+02  0.29033230143E+03  0.30402968573E+03  0.00000000000E+00 0. -1.
         11    1    3    3    0    0 -0.45945654413E+01  0.15197365447E+02 -0.31295768568E+02  0.35092664168E+02  0.00000000000E+00 0. -1.
        -12    1    3    3    0    0  0.15893544264E+02  0.10104599493E+02 -0.88543832243E+03  0.88563860040E+03  0.00000000000E+00 0.  1.
          5    1    4    4  501    0 -0.10356812137E+02 -0.57889050450E+02 -0.38115865235E+02  0.70204681484E+02  0.41800000000E+01 0. -1.
         -5    1    4    4    0  501 -0.94253005825E+02  0.33731044402E+02 -0.56503441137E+01  0.10035343169E+03  0.41800000000E+01 0. -1.
</event>
<event>
11    1  0.7577197E-009  0.2871707E+03  0.7561462E-02  0.1005772E+00
         22   -1    0    0    0    0  0.00000000000E+00  0.00000000000E+00  0.27406672738E+03  0.27406672738E+03  0.00000000000E+00 0.  1.
         22   -1    0    0    0    0 -0.00000000000E+00 -0.00000000000E+00 -0.43385773684E+03  0.43385773684E+03  0.00000000000E+00 0. -1.
         24    2    1    2    0    0  0.73789524069E+02  0.26629944267E+03 -0.17813885108E+03  0.33767715691E+03  0.77020289570E+02 0.  0.
         25    2    1    2    0    0 -0.70208138402E+02 -0.22167676199E+03 -0.32999255374E+02  0.26609420107E+03  0.12508958184E+03 0.  0.
        -24    2    1    2    0    0 -0.35813856675E+01 -0.44622680683E+02  0.51347096993E+02  0.10415310625E+03  0.78786643647E+02 0.  0.
        -13    1    3    3    0    0  0.46497377162E+02  0.18658869615E+03 -0.16297932454E+03  0.25207064058E+03  0.00000000000E+00 0.  1.
         14    1    3    3    0    0  0.27292146907E+02  0.79710746519E+02 -0.15159526541E+02  0.85606516331E+02  0.00000000000E+00 0. -1.
         13    1    5    5    0    0  0.39477520905E+01  0.20671846870E+02  0.49581906222E+00  0.21051266853E+02  0.00000000000E+00 0. -1.
        -14    1    5    5    0    0 -0.75291377580E+01 -0.65294527553E+02  0.50851277930E+02  0.83101839396E+02  0.00000000000E+00 0.  1.
          5    1    4    4  501    0  0.20144904776E+02 -0.56173997802E+02  0.30417135339E+02  0.67111919506E+02  0.41800000000E+01 0. -1.
         -5    1    4    4    0  501 -0.90353043178E+02 -0.16550276419E+03 -0.63416390713E+02  0.19898228156E+03  0.41800000000E+01 0. -1.
</event>
<event>
11    1  0.7577197E-009  0.2537445E+03  0.7561462E-02  0.1021923E+00
         22   -1    0    0    0    0  0.00000000000E+00  0.00000000000E+00  0.73893468517E+03  0.73893468517E+03  0.00000000000E+00 0. -1.
         22   -1    0    0    0    0 -0.00000000000E+00 -0.00000000000E+00 -0.86936983501E+03  0.86936983501E+03  0.00000000000E+00 0.  1.
        -24    2    1    2    0    0 -0.49319545536E+02 -0.20996492926E+03 -0.61954230122E+03  0.66353831385E+03  0.99663141914E+02 0.  0.
         25    2    1    2    0    0  0.51850269521E+01  0.24416013113E+03 -0.13996013114E+03  0.30803972812E+03  0.12513425453E+03 0.  0.
         24    2    1    2    0    0  0.44134518584E+02 -0.34195201866E+02  0.62906728250E+03  0.63672647821E+03  0.81103603936E+02 0.  0.
        -13    1    5    5    0    0  0.44978331656E+02  0.15470199949E+02  0.25781224391E+03  0.26216317536E+03  0.00000000000E+00 0.  1.
         14    1    5    5    0    0 -0.84381307183E+00 -0.49665401815E+02  0.37125503860E+03  0.37456330285E+03  0.00000000000E+00 0. -1.
         13    1    3    3    0    0  0.41277706433E+01 -0.21900437244E+02 -0.19347781944E+03  0.19475711607E+03  0.00000000000E+00 0. -1.
        -14    1    3    3    0    0 -0.53447316180E+02 -0.18806449202E+03 -0.42606448177E+03  0.46878119778E+03  0.00000000000E+00 0.  1.
          5    1    4    4  501    0  0.79961584901E+00  0.12762681270E+03 -0.24910480244E+01  0.12772204361E+03  0.41800000000E+01 0.  1.
         -5    1    4    4    0  501  0.43854111031E+01  0.11653331844E+03 -0.13746908311E+03  0.18031768451E+03  0.41800000000E+01 0.  1.
</event>
<event>
11    1  0.7577197E-009  0.1666308E+03  0.7561462E-02  0.1081001E+00
         22   -1    0    0    0    0  0.00000000000E+00  0.00000000000E+00  0.19505597425E+04  0.19505597425E+04  0.00000000000E+00 0.  1.
         22   -1    0    0    0    0 -0.00000000000E+00 -0.00000000000E+00 -0.16216784225E+03  0.16216784225E+03  0.00000000000E+00 0. -1.
         24    2    1    2    0    0 -0.13329559068E+01  0.10194627097E+02 -0.78144010417E+02  0.11229742805E+03  0.79990741900E+02 0.  0.
         25    2    1    2    0    0  0.42996765415E+02  0.92067465868E+02  0.36339713767E+02  0.16520331336E+03  0.12508565001E+03 0.  0.
        -24    2    1    2    0    0 -0.41663809509E+02 -0.10226209296E+03  0.18301961969E+04  0.18352268433E+04  0.79031883909E+02 0.  0.
        -13    1    3    3    0    0  0.23839127544E+02 -0.26708759430E+02 -0.38484785152E+02  0.52561778134E+02  0.00000000000E+00 0.  1.
         14    1    3    3    0    0 -0.25172083451E+02  0.36903386527E+02 -0.39659225265E+02  0.59735649918E+02  0.00000000000E+00 0. -1.
         11    1    5    5    0    0 -0.91632536736E+01  0.84889404640E+01  0.60789024209E+02  0.62059107248E+02  0.00000000000E+00 0. -1.
        -12    1    5    5    0    0 -0.32500555835E+02 -0.11075103343E+03  0.17694071727E+04  0.17731677361E+04  0.00000000000E+00 0.  1.
          5    1    4    4  501    0  0.24607900734E+02  0.31753788517E+02 -0.46125492657E+02  0.61309749115E+02  0.41800000000E+01 0.  1.
         -5    1    4    4    0  501  0.18388864681E+02  0.60313677351E+02  0.82465206424E+02  0.10389356424E+03  0.41800000000E+01 0.  1.
</event>
<event>
11    1  0.7577197E-009  0.1257694E+03  0.7561462E-02  0.1124579E+00
         22   -1    0    0    0    0  0.00000000000E+00  0.00000000000E+00  0.17978967410E+04  0.17978967410E+04  0.00000000000E+00 0.  1.
         22   -1    0    0    0    0 -0.00000000000E+00 -0.00000000000E+00 -0.15783047172E+03  0.15783047172E+03  0.00000000000E+00 0. -1.
        -24    2    1    2    0    0  0.11882955263E+02  0.30383921723E+02 -0.11808972768E+03  0.14593872599E+03  0.79300319268E+02 0.  0.
         25    2    1    2    0    0 -0.26459432821E+01 -0.38795109160E+02  0.14921110103E+03  0.19855188234E+03  0.12508731271E+03 0.  0.
         24    2    1    2    0    0 -0.92370119812E+01  0.84111874363E+01  0.16089448959E+04  0.16112366044E+04  0.84992039168E+02 0.  0.
        -11    1    5    5    0    0 -0.86193544266E+01 -0.31907672973E+02  0.11637592348E+04  0.11642284782E+04  0.00000000000E+00 0.  1.
         12    1    5    5    0    0 -0.61765755457E+00  0.40318860410E+02  0.44518566112E+03  0.44700812618E+03  0.00000000000E+00 0. -1.
         11    1    3    3    0    0 -0.22192413021E+02  0.42880774903E+02 -0.79089020846E+02  0.92662491173E+02  0.00000000000E+00 0. -1.
        -12    1    3    3    0    0  0.34075368285E+02 -0.12496853180E+02 -0.39000706832E+02  0.53276234819E+02  0.00000000000E+00 0.  1.
          5    1    4    4  501    0  0.48366958305E+02  0.20431226219E+02  0.62490519818E+02  0.81727199435E+02  0.41800000000E+01 0. -1.
         -5    1    4    4    0  501 -0.51012901587E+02 -0.59226335378E+02  0.86720581212E+02  0.11682468291E+03  0.41800000000E+01 0. -1.
</event>
<event>
11    1  0.7577197E-009  0.1850209E+03  0.7561462E-02  0.1065652E+00
         22   -1    0    0    0    0  0.00000000000E+00  0.00000000000E+00  0.12117577236E+03  0.12117577236E+03  0.00000000000E+00 0.  1.
         22   -1    0    0    0    0 -0.00000000000E+00 -0.00000000000E+00 -0.22151149271E+04  0.22151149271E+04  0.00000000000E+00 0.  1.
        -24    2    1    2    0    0 -0.18086862072E+02 -0.68950867493E+01 -0.18057391211E+04  0.18074996575E+04  0.77372873435E+02 0.  0.
         25    2    1    2    0    0 -0.77525968739E+02  0.10574494993E+03 -0.31923509180E+03  0.36708107732E+03  0.12508078681E+03 0.  0.
         24    2    1    2    0    0  0.95612830811E+02 -0.98849863177E+02  0.31035058135E+02  0.16170996467E+03  0.79207505796E+02 0.  0.
        -11    1    5    5    0    0  0.59712956057E+02 -0.10508219229E+03  0.32785978866E+02  0.12523108507E+03  0.00000000000E+00 0.  1.
         12    1    5    5    0    0  0.35899874754E+02  0.62323291129E+01 -0.17509207308E+01  0.36478879601E+02  0.00000000000E+00 0. -1.
         13    1    3    3    0    0  0.18152720963E+02 -0.23933004075E+02 -0.37532842173E+03  0.37652853029E+03  0.00000000000E+00 0. -1.
        -14    1    3    3    0    0 -0.36239583035E+02  0.17037917326E+02 -0.14304106994E+04  0.14309711272E+04  0.00000000000E+00 0.  1.
          5    1    4    4  501    0  0.11132791479E+02 -0.16202243599E+02 -0.87899974398E+01  0.21936002342E+02  0.41800000000E+01 0. -1.
         -5    1    4    4    0  501 -0.88658760218E+02  0.12194719352E+03 -0.31044509436E+03  0.34514507498E+03  0.41800000000E+01 0. -1.
</event>
<event>
11    1  0.7796783E-009  0.1705933E+03  0.7561462E-02  0.1077517E+00
         22   -1    0    0    0    0  0.00000000000E+00  0.00000000000E+00  0.58135222503E+03  0.58135222503E+03  0.00000000000E+00 0. -1.
         22   -1    0    0    0    0 -0.00000000000E+00 -0.00000000000E+00 -0.64360961814E+03  0.64360961814E+03  0.00000000000E+00 0. -1.
        -24    2    1    2    0    0 -0.36047077106E+02  0.17539180290E+02 -0.46051926516E+03  0.46908131060E+03  0.79701115181E+02 0.  0.
         25    2    1    2    0    0  0.80350746359E+02  0.89780329492E+02 -0.12491968777E+03  0.21393681971E+03  0.12508910596E+03 0.  0.
         24    2    1    2    0    0 -0.44303669253E+02 -0.10731950978E+03  0.52318155982E+03  0.54194371285E+03  0.80645837290E+02 0.  0.
        -11    1    5    5    0    0 -0.37044848533E+02 -0.30145841274E+02  0.33553843303E+03  0.33892054023E+03  0.00000000000E+00 0.  1.
         12    1    5    5    0    0 -0.72588207198E+01 -0.77173668508E+02  0.18764312679E+03  0.20302317262E+03  0.00000000000E+00 0. -1.
         11    1    3    3    0    0 -0.10002903641E+02 -0.19092732641E+02 -0.33613452850E+03  0.33682489779E+03  0.00000000000E+00 0. -1.
        -12    1    3    3    0    0 -0.26044173465E+02  0.36631912931E+02 -0.12438473666E+03  0.13225641281E+03  0.00000000000E+00 0.  1.
          5    1    4    4  501    0  0.85409345169E+02  0.67662114348E+02 -0.25647087021E+02  0.11201858521E+03  0.41800000000E+01 0.  1.
         -5    1    4    4    0  501 -0.50585988098E+01  0.22118215145E+02 -0.99272600752E+02  0.10191823450E+03  0.41800000000E+01 0.  1.
</event>
<event>
11    1  0.7577197E-009  0.1509662E+03  0.7561462E-02  0.1095896E+00
         22   -1    0    0    0    0  0.00000000000E+00  0.00000000000E+00  0.17477367902E+03  0.17477367902E+03  0.00000000000E+00 0. -1.
         22   -1    0    0    0    0 -0.00000000000E+00 -0.00000000000E+00 -0.50030980830E+03  0.50030980830E+03  0.00000000000E+00 0. -1.
        -24    2    1    2    0    0 -0.35031642184E+02 -0.35270751795E+00 -0.33087461768E+03  0.34247050730E+03  0.81121485356E+02 0.  0.
         25    2    1    2    0    0  0.34799106858E+02  0.84624218427E+02 -0.92211533262E+02  0.18034054305E+03  0.12509000127E+03 0.  0.
         24    2    1    2    0    0  0.23253532640E+00 -0.84271510909E+02  0.97550021659E+02  0.15227243698E+03  0.81050272761E+02 0.  0.
        -13    1    5    5    0    0  0.13474505955E+02 -0.15522981531E+02  0.76427253229E+02  0.79143226511E+02  0.00000000000E+00 0.  1.
         14    1    5    5    0    0 -0.13241970629E+02 -0.68748529378E+02  0.21122768430E+02  0.73129210470E+02  0.00000000000E+00 0. -1.
         11    1    3    3    0    0 -0.59797949470E+02  0.10801428923E+02 -0.24374059449E+03  0.25120100125E+03  0.00000000000E+00 0. -1.
        -12    1    3    3    0    0  0.24766307286E+02 -0.11154136441E+02 -0.87134023190E+02  0.91269506045E+02  0.00000000000E+00 0.  1.
          5    1    4    4  501    0  0.77808513678E+02  0.72291746638E+02 -0.45799111903E+02  0.11573803387E+03  0.41800000000E+01 0. -1.
         -5    1    4    4    0  501 -0.43009406821E+02  0.12332471789E+02 -0.46412421359E+02  0.64602509177E+02  0.41800000000E+01 0. -1.
</event>
<event>
11    1  0.7577197E-009  0.3661973E+03  0.7561462E-02  0.9755121E-01
         22   -1    0    0    0    0  0.00000000000E+00  0.00000000000E+00  0.45754199572E+03  0.45754199572E+03  0.00000000000E+00 0.  1.
         22   -1    0    0    0    0 -0.00000000000E+00 -0.00000000000E+00 -0.17446138382E+04  0.17446138382E+04  0.00000000000E+00 0.  1.
         24    2    1    2    0    0  0.37586171872E+02  0.12872898224E+03 -0.33149205639E+03  0.36693371292E+03  0.82276941145E+02 0.  0.
         25    2    1    2    0    0 -0.22218013372E+03 -0.41089082492E+03 -0.12751369456E+04  0.13637509900E+04  0.12508897194E+03 0.  0.
        -24    2    1    2    0    0  0.18459396185E+03  0.28216184268E+03  0.31955715951E+03  0.47147113098E+03  0.80486103995E+02 0.  0.
        -13    1    3    3    0    0  0.81854350796E+01  0.10450174215E+03 -0.16012788569E+03  0.19138588044E+03  0.00000000000E+00 0.  1.
         14    1    3    3    0    0  0.29400736792E+02  0.24227240093E+02 -0.17136417070E+03  0.17554783248E+03  0.00000000000E+00 0. -1.
         11    1    5    5    0    0  0.76251254516E+02  0.62362118958E+02  0.64345501572E+02  0.11765896170E+03  0.00000000000E+00 0. -1.
        -12    1    5    5    0    0  0.10834270733E+03  0.21979972373E+03  0.25521165794E+03  0.35381216928E+03  0.00000000000E+00 0.  1.
          5    1    4    4  501    0 -0.22794881352E+01 -0.45285303297E+02 -0.56396744312E+02  0.72484618575E+02  0.41800000000E+01 0. -1.
         -5    1    4    4    0  501 -0.21990064558E+03 -0.36560552163E+03 -0.12187402013E+04  0.12912663715E+04  0.41800000000E+01 0. -1.
</event>
<event>
11    1  0.7577197E-009  0.1504669E+03  0.7561462E-02  0.1096403E+00
         22   -1    0    0    0    0  0.00000000000E+00  0.00000000000E+00  0.11840928140E+03  0.11840928140E+03  0.00000000000E+00 0. -1.
         22   -1    0    0    0    0 -0.00000000000E+00 -0.00000000000E+00 -0.11079826572E+04  0.11079826572E+04  0.00000000000E+00 0. -1.
        -24    2    1    2    0    0 -0.80000574619E+02 -0.33657996684E+02 -0.80443935631E+03  0.81299269437E+03  0.79381927734E+02 0.  0.
         25    2    1    2    0    0  0.56233466050E+02  0.45271440172E+02 -0.26174998379E+03  0.29895213712E+03  0.12509044837E+03 0.  0.
         24    2    1    2    0    0  0.23767108570E+02 -0.11613443487E+02  0.76615964317E+02  0.11444710709E+03  0.80798433235E+02 0.  0.
        -13    1    5    5    0    0  0.83511070754E+01 -0.36948398067E+01 -0.16969407964E+02  0.19270538063E+02  0.00000000000E+00 0.  1.
         14    1    5    5    0    0  0.15416001494E+02 -0.79186036806E+01  0.93585372281E+02  0.95176569025E+02  0.00000000000E+00 0. -1.
         13    1    3    3    0    0 -0.73037901588E+02  0.36846798296E+00 -0.67620585849E+03  0.68013898131E+03  0.00000000000E+00 0. -1.
        -14    1    3    3    0    0 -0.69626730315E+01 -0.34026464667E+02 -0.12823349781E+03  0.13285371306E+03  0.00000000000E+00 0.  1.
          5    1    4    4  501    0  0.45138331543E+02  0.82614488759E+02 -0.22988669666E+03  0.24845117917E+03  0.41800000000E+01 0. -1.
         -5    1    4    4    0  501  0.11095134506E+02 -0.37343048587E+02 -0.31863287131E+02  0.50500957954E+02  0.41800000000E+01 0. -1.
</event>
<event>
11    1  0.7577197E-009  0.1378376E+03  0.7561462E-02  0.1109997E+00
         22   -1    0    0    0    0  0.00000000000E+00  0.00000000000E+00  0.69912312246E+03  0.69912312246E+03  0.00000000000E+00 0.  1.
         22   -1    0    0    0    0 -0.00000000000E+00 -0.00000000000E+00 -0.24422763817E+03  0.24422763817E+03  0.00000000000E+00 0.  1.
         24    2    1    2    0    0 -0.22331773161E+02  0.48716301265E+02 -0.15549602954E+03  0.18337763126E+03  0.81094724491E+02 0.  0.
         25    2    1    2    0    0  0.61363900053E+02 -0.62207957717E+02  0.11065419612E+02  0.15298634449E+03  0.12508804841E+03 0.  0.
        -24    2    1    2    0    0 -0.39032126892E+02  0.13491656452E+02  0.59932609423E+03  0.60698678489E+03  0.86808168295E+02 0.  0.
        -11    1    3    3    0    0 -0.15049897964E+02  0.55332827358E+01 -0.13333734381E+03  0.13429804131E+03  0.00000000000E+00 0.  1.
         12    1    3    3    0    0 -0.72818751969E+01  0.43183018529E+02 -0.22158685736E+02  0.49079589945E+02  0.00000000000E+00 0. -1.
         13    1    5    5    0    0 -0.25794978538E+02  0.17878480382E+02  0.62106179422E+02  0.69585907345E+02  0.00000000000E+00 0. -1.
        -14    1    5    5    0    0 -0.13237148354E+02 -0.43868239299E+01  0.53721991480E+03  0.53740087754E+03  0.00000000000E+00 0.  1.
          5    1    4    4  501    0  0.27856845935E+02  0.10854997748E+02  0.53923592168E+02  0.61798552037E+02  0.41800000000E+01 0.  1.
         -5    1    4    4    0  501  0.33507054119E+02 -0.73062955464E+02 -0.42858172556E+02  0.91187792449E+02  0.41800000000E+01 0.  1.
</event>
<event>
11    1  0.7577197E-009  0.2116578E+03  0.7561462E-02  0.1046573E+00
         22   -1    0    0    0    0  0.00000000000E+00  0.00000000000E+00  0.73973474144E+03  0.73973474144E+03  0.00000000000E+00 0.  1.
         22   -1    0    0    0    0 -0.00000000000E+00 -0.00000000000E+00 -0.12883719623E+04  0.12883719623E+04  0.00000000000E+00 0. -1.
        -24    2    1    2    0    0  0.84248482141E+01  0.63338107400E+02 -0.11968585379E+04  0.12012725327E+04  0.80638974440E+02 0.  0.
         25    2    1    2    0    0 -0.16005400635E+03  0.23202230064E+02  0.67482942336E+02  0.21530457659E+03  0.12508590954E+03 0.  0.
         24    2    1    2    0    0  0.15162915814E+03 -0.86540337465E+02  0.58073837471E+03  0.61152959442E+03  0.78935121376E+02 0.  0.
        -13    1    5    5    0    0  0.12369670452E+03 -0.98122740652E+02  0.52354062299E+03  0.54683062356E+03  0.00000000000E+00 0.  1.
         14    1    5    5    0    0  0.27932453619E+02  0.11582403187E+02  0.57197751715E+02  0.64698970857E+02  0.00000000000E+00 0. -1.
         13    1    3    3    0    0 -0.20517352592E+02  0.41511867340E+02 -0.10020959161E+04  0.10031652017E+04  0.00000000000E+00 0. -1.
        -14    1    3    3    0    0  0.28942200806E+02  0.21826240060E+02 -0.19476262188E+03  0.19810733107E+03  0.00000000000E+00 0.  1.
          5    1    4    4  501    0 -0.46134260349E+02 -0.33300071655E+02 -0.20493269602E+02  0.60619396641E+02  0.41800000000E+01 0.  1.
         -5    1    4    4    0  501 -0.11391974601E+03  0.56502301719E+02  0.87976211938E+02  0.15468517995E+03  0.41800000000E+01 0.  1.
</event>
<event>
11    1  0.7577197E-009  0.2013334E+03  0.7561462E-02  0.1053585E+00
         22   -1    0    0    0    0  0.00000000000E+00  0.00000000000E+00  0.41890240420E+04  0.41890240420E+04  0.00000000000E+00 0. -1.
         22   -1    0    0    0    0 -0.00000000000E+00 -0.00000000000E+00 -0.45400721711E+03  0.45400721711E+03  0.00000000000E+00 0. -1.
         24    2    1    2    0    0  0.13130256572E+03  0.81723674602E+02 -0.37711898741E+03  0.41500527573E+03  0.78048225225E+02 0.  0.
         25    2    1    2    0    0 -0.15612290926E+03 -0.12132689889E+03  0.18111453587E+03  0.29588061716E+03  0.12509310659E+03 0.  0.
        -24    2    1    2    0    0  0.24820343543E+02  0.39603224291E+02  0.39310212765E+04  0.39321453663E+04  0.81574754555E+02 0.  0.
        -11    1    3    3    0    0  0.54686100576E+02  0.60059196523E+02 -0.11312447752E+03  0.13926530113E+03  0.00000000000E+00 0.  1.
         12    1    3    3    0    0  0.76616465144E+02  0.21664478079E+02 -0.26399450989E+03  0.27573997460E+03  0.00000000000E+00 0. -1.
         13    1    5    5    0    0  0.10158729759E+02  0.12363036564E+02  0.34915383156E+04  0.34915749819E+04  0.00000000000E+00 0. -1.
        -14    1    5    5    0    0  0.14661613785E+02  0.27240187727E+02  0.43948296084E+03  0.44057038440E+03  0.00000000000E+00 0.  1.
          5    1    4    4  501    0 -0.84112243371E+02 -0.41640851328E+01  0.25339482469E+02  0.88044141552E+02  0.41800000000E+01 0.  1.
         -5    1    4    4    0  501 -0.72010665893E+02 -0.11716281376E+03  0.15577505340E+03  0.20783647561E+03  0.41800000000E+01 0.  1.
</event>
<event>
11    1  0.7577197E-009  0.2656918E+03  0.7561462E-02  0.1015857E+00
         22   -1    0    0    0    0  0.00000000000E+00  0.00000000000E+00  0.11228416074E+04  0.11228416074E+04  0.00000000000E+00 0. -1.
         22   -1    0    0    0    0 -0.00000000000E+00 -0.00000000000E+00 -0.26918630007E+03  0.26918630007E+03  0.00000000000E+00 0.  1.
        -24    2    1    2    0    0 -0.50368578928E+02 -0.98982259687E+02 -0.13080212339E+03  0.19031745998E+03  0.82322892412E+02 0.  0.
         25    2    1    2    0    0  0.26810129959E+03  0.20388480643E+02  0.15054239822E+03  0.33257631783E+03  0.12509994620E+03 0.  0.
         24    2    1    2    0    0 -0.21773272066E+03  0.78593779043E+02  0.83391503248E+03  0.86913412963E+03  0.79970833095E+02 0.  0.
        -13    1    5    5    0    0 -0.45595842741E+02  0.44090383245E+02  0.31509747448E+03  0.32141773628E+03  0.00000000000E+00 0.  1.
         14    1    5    5    0    0 -0.17213687792E+03  0.34503395798E+02  0.51881755800E+03  0.54771639335E+03  0.00000000000E+00 0. -1.
         11    1    3    3    0    0  0.17584621071E+01 -0.26233805237E+02  0.58797823131E+01  0.26942096545E+02  0.00000000000E+00 0. -1.
        -12    1    3    3    0    0 -0.52127041035E+02 -0.72748454450E+02 -0.13668190570E+03  0.16337536344E+03  0.00000000000E+00 0.  1.
          5    1    4    4  501    0  0.19632844492E+03 -0.26861677435E+02  0.58650311803E+02  0.20669721690E+03  0.41800000000E+01 0. -1.
         -5    1    4    4    0  501  0.71772854665E+02  0.47250158078E+02  0.91892086422E+02  0.12587910093E+03  0.41800000000E+01 0. -1.
</event>
<event>
11    1  0.7577197E-009  0.1401394E+03  0.7561462E-02  0.1107403E+00
         22   -1    0    0    0    0  0.00000000000E+00  0.00000000000E+00  0.39540272314E+03  0.39540272314E+03  0.00000000000E+00 0.  1.
         22   -1    0    0    0    0 -0.00000000000E+00 -0.00000000000E+00 -0.33638898712E+03  0.33638898712E+03  0.00000000000E+00 0.  1.
        -24    2    1    2    0    0  0.12384648625E+02  0.41409383993E+02 -0.28363340187E+03  0.29807490471E+03  0.80824659345E+02 0.  0.
         25    2    1    2    0    0  0.49248475186E+02 -0.54885697578E+02  0.11879712292E+03  0.18761176736E+03  0.12509023436E+03 0.  0.
         24    2    1    2    0    0 -0.61633123811E+02  0.13476313585E+02  0.22385001497E+03  0.24610503819E+03  0.80489798371E+02 0.  0.
        -13    1    5    5    0    0 -0.12218328831E+02 -0.80323697404E+01  0.16748224183E+03  0.16811932623E+03  0.00000000000E+00 0.  1.
         14    1    5    5    0    0 -0.49414794980E+02  0.21508683325E+02  0.56367773140E+02  0.77985711961E+02  0.00000000000E+00 0. -1.
         11    1    3    3    0    0 -0.29510727070E+02 -0.33656007114E+01 -0.10966708582E+03  0.11361813232E+03  0.00000000000E+00 0. -1.
        -12    1    3    3    0    0  0.41895375696E+02  0.44774984705E+02 -0.17396631606E+03  0.18445677239E+03  0.00000000000E+00 0.  1.
          5    1    4    4  501    0  0.49382806824E+01  0.60145993508E+01 -0.24297427813E+02  0.25853421820E+02  0.41800000000E+01 0.  1.
         -5    1    4    4    0  501  0.44310194504E+02 -0.60900296929E+02  0.14309455073E+03  0.16175834554E+03  0.41800000000E+01 0.  1.
</event>
<event>
11    1  0.7577197E-009  0.1396882E+03  0.7561462E-02  0.1107907E+00
         22   -1    0    0    0    0  0.00000000000E+00  0.00000000000E+00  0.85030092329E+02  0.85030092329E+02  0.00000000000E+00 0. -1.
         22   -1    0    0    0    0 -0.00000000000E+00 -0.00000000000E+00 -0.37978213250E+03  0.37978213250E+03  0.00000000000E+00 0.  1.
        -24    2    1    2    0    0 -0.41621091313E+02  0.42406352965E+02 -0.18690615216E+03  0.21103007098E+03  0.77904859462E+02 0.  0.
         25    2    1    2    0    0  0.38306081010E+02 -0.63012729060E+02 -0.74802884846E+02  0.16334163695E+03  0.12508820454E+03 0.  0.
         24    2    1    2    0    0  0.33150103028E+01  0.20606376096E+02 -0.33043003168E+02  0.90440516901E+02  0.81560008643E+02 0.  0.
        -11    1    5    5    0    0 -0.21170012386E+02 -0.23982807557E+02 -0.20673860984E+02  0.38088751761E+02  0.00000000000E+00 0.  1.
         12    1    5    5    0    0  0.24485022689E+02  0.44589183653E+02 -0.12369142184E+02  0.52351765140E+02  0.00000000000E+00 0. -1.
         11    1    3    3    0    0  0.19679590286E+02 -0.51448711666E+01 -0.35993672825E+02  0.41343687022E+02  0.00000000000E+00 0. -1.
        -12    1    3    3    0    0 -0.61300681599E+02  0.47551224131E+02 -0.15091247933E+03  0.16968638395E+03  0.00000000000E+00 0.  1.
          5    1    4    4  501    0  0.80364784579E+02 -0.43660988857E+02 -0.24347705946E+02  0.94736812979E+02  0.41800000000E+01 0. -1.
         -5    1    4    4    0  501 -0.42058703569E+02 -0.19351740203E+02 -0.50455178899E+02  0.68604823974E+02  0.41800000000E+01 0. -1.
</event>
<event>
11    1  0.7577197E-009  0.1390917E+03  0.7561462E-02  0.1108577E+00
         22   -1    0    0    0    0  0.00000000000E+00  0.00000000000E+00  0.54666712859E+03  0.54666712859E+03  0.00000000000E+00 0.  1.
         22   -1    0    0    0    0 -0.00000000000E+00 -0.00000000000E+00 -0.14450012837E+03  0.14450012837E+03  0.00000000000E+00 0. -1.
        -24    2    1    2    0    0 -0.24182002745E+01 -0.25849006102E+01 -0.92032785180E+02  0.12242439966E+03  0.80654638310E+02 0.  0.
         25    2    1    2    0    0 -0.13387603890E+02 -0.56743544231E+02  0.12599667177E+03  0.18687127828E+03  0.12508659240E+03 0.  0.
         24    2    1    2    0    0  0.15805804164E+02  0.59328444841E+02  0.36820311363E+03  0.38187157902E+03  0.80515105207E+02 0.  0.
        -13    1    5    5    0    0  0.48425779069E+02  0.42628125954E+02  0.22689057510E+03  0.23588460372E+03  0.00000000000E+00 0.  1.
         14    1    5    5    0    0 -0.32619974905E+02  0.16700318887E+02  0.14131253853E+03  0.14598697530E+03  0.00000000000E+00 0. -1.
         11    1    3    3    0    0  0.11463464854E+02  0.36900344707E+02 -0.48882482806E+02  0.62310060113E+02  0.00000000000E+00 0. -1.
        -12    1    3    3    0    0 -0.13881665129E+02 -0.39485245317E+02 -0.43150302374E+02  0.60114339549E+02  0.00000000000E+00 0.  1.
          5    1    4    4  501    0  0.63324925065E+01  0.16856509539E+02 -0.16789807000E+02  0.24972232464E+02  0.41800000000E+01 0.  1.
         -5    1    4    4    0  501 -0.19720096396E+02 -0.73600053770E+02  0.14278647877E+03  0.16189904581E+03  0.41800000000E+01 0.  1.
</event>
<event>
11    1  0.7577197E-009  0.1263646E+03  0.7561462E-02  0.1123818E+00
         22   -1    0    0    0    0  0.00000000000E+00  0.00000000000E+00  0.24466288214E+04  0.24466288214E+04  0.00000000000E+00 0.  1.
         22   -1    0    0    0    0 -0.00000000000E+00 -0.00000000000E+00 -0.11954928678E+03  0.11954928678E+03  0.00000000000E+00 0.  1.
        -24    2    1    2    0    0  0.63401435087E+02  0.13748692185E+01 -0.86263047116E+02  0.13232689782E+03  0.77765431605E+02 0.  0.
         25    2    1    2    0    0 -0.68252961634E+02  0.10805030143E+02  0.56546464948E+03  0.58324345024E+03  0.12508971577E+03 0.  0.
         24    2    1    2    0    0  0.48515265471E+01 -0.12179899361E+02  0.18478779322E+04  0.18506077601E+04  0.99620991845E+02 0.  0.
        -13    1    5    5    0    0 -0.19387096063E+02 -0.37889863548E+02  0.15584304422E+04  0.15590115280E+04  0.00000000000E+00 0.  1.
         14    1    5    5    0    0  0.24238622610E+02  0.25709964187E+02  0.28944749001E+03  0.29159623207E+03  0.00000000000E+00 0. -1.
         13    1    3    3    0    0 -0.40720077603E+01  0.27618616893E+02 -0.22563678265E+02  0.35895526506E+02  0.00000000000E+00 0. -1.
        -14    1    3    3    0    0  0.67473442847E+02 -0.26243747675E+02 -0.63699368851E+02  0.96431371315E+02  0.00000000000E+00 0.  1.
          5    1    4    4  501    0 -0.17019011665E+02  0.29947285752E+02  0.32752277081E+02  0.47714470928E+02  0.41800000000E+01 0. -1.
         -5    1    4    4    0  501 -0.51233949969E+02 -0.19142255609E+02  0.53271237240E+03  0.53552897932E+03  0.41800000000E+01 0. -1.
</event>
<event>
11    1  0.7577197E-009  0.1600443E+03  0.7561462E-02  0.1087036E+00
         22   -1    0    0    0    0  0.00000000000E+00  0.00000000000E+00  0.15456025907E+03  0.15456025907E+03  0.00000000000E+00 0.  1.
         22   -1    0    0    0    0 -0.00000000000E+00 -0.00000000000E+00 -0.17379848311E+04  0.17379848311E+04  0.00000000000E+00 0.  1.
         24    2    1    2    0    0 -0.97322765767E+02 -0.10323083947E+02 -0.12628998232E+04  0.12704301908E+04  0.97460860303E+02 0.  0.
         25    2    1    2    0    0  0.94568832573E+02  0.92517640982E+02 -0.42811693504E+03  0.46522517472E+03  0.12509026796E+03 0.  0.
        -24    2    1    2    0    0  0.27539331940E+01 -0.82194557035E+02  0.10759218620E+03  0.15688972473E+03  0.79213495310E+02 0.  0.
        -11    1    3    3    0    0 -0.46595226854E+02 -0.51437667932E+02 -0.79014039441E+03  0.79318269758E+03  0.00000000000E+00 0.  1.
         12    1    3    3    0    0 -0.50727538913E+02  0.41114583985E+02 -0.47275942880E+03  0.47724749318E+03  0.00000000000E+00 0. -1.
         13    1    5    5    0    0  0.19693557828E+02 -0.70791991065E+02  0.34831038160E+02  0.81317546927E+02  0.00000000000E+00 0. -1.
        -14    1    5    5    0    0 -0.16939624634E+02 -0.11402565970E+02  0.72761148038E+02  0.75572177799E+02  0.00000000000E+00 0.  1.
          5    1    4    4  501    0  0.94958010170E+02  0.72635155011E+01 -0.19706699621E+03  0.21891243854E+03  0.41800000000E+01 0.  1.
         -5    1    4    4    0  501 -0.38917759694E+00  0.85254125481E+02 -0.23104993883E+03  0.24631273618E+03  0.41800000000E+01 0.  1.
</event>
<event>
11    1  0.7577197E-009  0.1619131E+03  0.7561462E-02  0.1085292E+00
         22   -1    0    0    0    0  0.00000000000E+00  0.00000000000E+00  0.42748867166E+03  0.42748867166E+03  0.00000000000E+00 0.  1.
         22   -1    0    0    0    0 -0.00000000000E+00 -0.00000000000E+00 -0.28071642148E+03  0.28071642148E+03  0.00000000000E+00 0.  1.
         24    2    1    2    0    0 -0.59125038363E+02  0.20042633939E+01 -0.20168559131E+03  0.22497510553E+03  0.80230500020E+02 0.  0.
         25    2    1    2    0    0  0.14707298640E+03  0.15707719724E+02  0.12787275575E+03  0.23211277458E+03  0.12509077774E+03 0.  0.
        -24    2    1    2    0    0 -0.87947948033E+02 -0.17711983118E+02  0.22058508575E+03  0.25111721302E+03  0.79708962549E+02 0.  0.
        -11    1    3    3    0    0 -0.71670629101E+02  0.22619054235E+02 -0.14365204062E+03  0.16212405579E+03  0.00000000000E+00 0.  1.
         12    1    3    3    0    0  0.12545590738E+02 -0.20614790841E+02 -0.58033550691E+02  0.62851049746E+02  0.00000000000E+00 0. -1.
         11    1    5    5    0    0 -0.79141630820E+02 -0.20291322899E+02  0.95431400708E+02  0.12562757561E+03  0.00000000000E+00 0. -1.
        -12    1    5    5    0    0 -0.88063172129E+01  0.25793397808E+01  0.12515368504E+03  0.12548963740E+03  0.00000000000E+00 0.  1.
          5    1    4    4  501    0  0.42551318063E+02 -0.37892948735E+02  0.93637117814E+02  0.10968989227E+03  0.41800000000E+01 0.  1.
         -5    1    4    4    0  501  0.10452166833E+03  0.53600668459E+02  0.34235637937E+02  0.12242288232E+03  0.41800000000E+01 0.  1.
</event>
<event>
11    1  0.7577197E-009  0.1687112E+03  0.7561462E-02  0.1079159E+00
         22   -1    0    0    0    0  0.00000000000E+00  0.00000000000E+00  0.10664086417E+04  0.10664086417E+04  0.00000000000E+00 0.  1.
         22   -1    0    0    0    0 -0.00000000000E+00 -0.00000000000E+00 -0.12764450494E+03  0.12764450494E+03  0.00000000000E+00 0.  1.
         24    2    1    2    0    0 -0.21099833655E+01  0.56379589661E+02  0.20443796944E+02  0.99640716612E+02  0.79543782996E+02 0.  0.
         25    2    1    2    0    0 -0.79209984344E+02 -0.13174603168E+03  0.36446980816E+02  0.20151144342E+03  0.12508893210E+03 0.  0.
        -24    2    1    2    0    0  0.81319967710E+02  0.75366442015E+02  0.88187335898E+03  0.89290098659E+03  0.85314200683E+02 0.  0.
        -13    1    3    3    0    0 -0.20018789865E+01  0.69890567117E+02 -0.57625541571E+01  0.70156296380E+02  0.00000000000E+00 0.  1.
         14    1    3    3    0    0 -0.10810437899E+00 -0.13510977456E+02  0.26206351101E+02  0.29484420232E+02  0.00000000000E+00 0. -1.
         13    1    5    5    0    0  0.15506863859E+01 -0.17406933639E+02  0.11992181678E+03  0.12118848174E+03  0.00000000000E+00 0. -1.
        -14    1    5    5    0    0  0.79769281324E+02  0.92773375654E+02  0.76195154220E+03  0.77171250485E+03  0.00000000000E+00 0.  1.
          5    1    4    4  501    0  0.67670728313E+01 -0.10728558030E+03  0.92192038094E+01  0.10797432628E+03  0.41800000000E+01 0. -1.
         -5    1    4    4    0  501 -0.85977057176E+02 -0.24460451371E+02  0.27227777007E+02  0.93537117138E+02  0.41800000000E+01 0. -1.
</event>
<event>
11    1  0.7577197E-009  0.1287713E+03  0.7561462E-02  0.1120788E+00
         22   -1    0    0    0    0  0.00000000000E+00  0.00000000000E+00  0.24127438114E+04  0.24127438114E+04  0.00000000000E+00 0.  1.
         22   -1    0    0    0    0 -0.00000000000E+00 -0.00000000000E+00 -0.18163417046E+03  0.18163417046E+03  0.00000000000E+00 0. -1.
         24    2    1    2    0    0 -0.22952684780E+02  0.22316551840E+02 -0.13253772638E+03  0.15477417482E+03  0.73238938089E+02 0.  0.
         25    2    1    2    0    0 -0.42691778827E+01 -0.36760371386E+02  0.78049115376E+02  0.15201564985E+03  0.12509013792E+03 0.  0.
        -24    2    1    2    0    0  0.27221862662E+02  0.14443819547E+02  0.22855982519E+04  0.22875881571E+04  0.90280418365E+02 0.  0.
        -13    1    3    3    0    0 -0.29882158816E+02 -0.18542102233E+02 -0.83287752475E+02  0.90407979089E+02  0.00000000000E+00 0.  1.
         14    1    3    3    0    0  0.69294740367E+01  0.40858654072E+02 -0.49249973901E+02  0.64366195726E+02  0.00000000000E+00 0. -1.
         13    1    5    5    0    0  0.50055834797E+02 -0.11957322965E+01  0.71716720657E+03  0.71891294226E+03  0.00000000000E+00 0. -1.
        -14    1    5    5    0    0 -0.22833972134E+02  0.15639551843E+02  0.15684310453E+04  0.15686752149E+04  0.00000000000E+00 0.  1.
          5    1    4    4  501    0 -0.41264960996E+02  0.28092992009E+02  0.53539702191E+02  0.73321110989E+02  0.41800000000E+01 0. -1.
         -5    1    4    4    0  501  0.36995783113E+02 -0.64853363396E+02  0.24509413185E+02  0.78694538861E+02  0.41800000000E+01 0. -1.
</event>
<event>
11    1  0.7577197E-009  0.1762298E+03  0.7561462E-02  0.1072734E+00
         22   -1    0    0    0    0  0.00000000000E+00  0.00000000000E+00  0.47004089936E+03  0.47004089936E+03  0.00000000000E+00 0.  1.
         22   -1    0    0    0    0 -0.00000000000E+00 -0.00000000000E+00 -0.23878399934E+03  0.23878399934E+03  0.00000000000E+00 0.  1.
        -24    2    1    2    0    0  0.55182863662E+01  0.12900410723E+03 -0.16214214593E+03  0.22546003764E+03  0.88711002252E+02 0.  0.
         25    2    1    2    0    0 -0.24586721942E+02 -0.96140587855E+02  0.13259412674E+03  0.20754576963E+03  0.12508606843E+03 0.  0.
         24    2    1    2    0    0  0.19068435576E+02 -0.32863519372E+02  0.26080491920E+03  0.27581909143E+03  0.81322501066E+02 0.  0.
        -11    1    5    5    0    0 -0.47216500404E+01  0.22920882648E+02  0.12379035123E+03  0.12598298258E+03  0.00000000000E+00 0.  1.
         12    1    5    5    0    0  0.23790085616E+02 -0.55784402019E+02  0.13701456796E+03  0.14983610886E+03  0.00000000000E+00 0. -1.
         11    1    3    3    0    0 -0.25788551779E+02  0.13197754089E+02 -0.64767034376E+02  0.70950679051E+02  0.00000000000E+00 0. -1.
        -12    1    3    3    0    0  0.31306838145E+02  0.11580635314E+03 -0.97375111551E+02  0.15450935859E+03  0.00000000000E+00 0.  1.
          5    1    4    4  501    0 -0.13260798365E+02  0.12514542759E+02 -0.14926567063E+02  0.23931931766E+02  0.41800000000E+01 0.  1.
         -5    1    4    4    0  501 -0.11325923577E+02 -0.10865513061E+03  0.14752069381E+03  0.18361383786E+03  0.41800000000E+01 0.  1.
</event>
<event>
11    1  0.7577197E-009  0.1354914E+03  0.7561462E-02  0.1112700E+00
         22   -1    0    0    0    0  0.00000000000E+00  0.00000000000E+00  0.28498690692E+03  0.28498690692E+03  0.00000000000E+00 0. -1.
         22   -1    0    0    0    0 -0.00000000000E+00 -0.00000000000E+00 -0.15167801528E+04  0.15167801528E+04  0.00000000000E+00 0. -1.
         24    2    1    2    0    0  0.39683951170E+02 -0.26433217947E+02 -0.93616120760E+03  0.94084020581E+03  0.80678096565E+02 0.  0.
         25    2    1    2    0    0 -0.37849035853E+02  0.64780646915E+02 -0.56171618522E+03  0.58034594719E+03  0.12508902413E+03 0.  0.
        -24    2    1    2    0    0 -0.18349153170E+01 -0.38347428969E+02  0.26608414697E+03  0.28058090668E+03  0.80317991152E+02 0.  0.
        -11    1    3    3    0    0  0.36794529310E+02  0.67150040753E+01 -0.17501146200E+03  0.17896351723E+03  0.00000000000E+00 0.  1.
         12    1    3    3    0    0  0.28894218597E+01 -0.33148222022E+02 -0.76114974560E+03  0.76187668859E+03  0.00000000000E+00 0. -1.
         13    1    5    5    0    0 -0.32171803882E+01 -0.62759741889E+02  0.21412216978E+03  0.22315339801E+03  0.00000000000E+00 0. -1.
        -14    1    5    5    0    0  0.13822650712E+01  0.24412312920E+02  0.51961977191E+02  0.57427508674E+02  0.00000000000E+00 0.  1.
          5    1    4    4  501    0 -0.23427138356E+02  0.59047494477E+01 -0.46809112749E+03  0.46873283746E+03  0.41800000000E+01 0. -1.
         -5    1    4    4    0  501 -0.14421897497E+02  0.58875897468E+02 -0.93625057731E+02  0.11161310974E+03  0.41800000000E+01 0. -1.
</event>
<event>
11    1  0.7577197E-009  0.1461973E+03  0.7561462E-02  0.1100829E+00
         22   -1    0    0    0    0  0.00000000000E+00  0.00000000000E+00  0.89637435726E+02  0.89637435726E+02  0.00000000000E+00 0. -1.
         22   -1    0    0    0    0 -0.00000000000E+00 -0.00000000000E+00 -0.11709121113E+04  0.11709121113E+04  0.00000000000E+00 0.  1.
        -24    2    1    2    0    0 -0.71432158695E+02 -0.20431791137E+02 -0.94511494512E+03  0.95134275022E+03  0.79314295862E+02 0.  0.
         25    2    1    2    0    0  0.76501954536E+02  0.59181513226E+02 -0.15140359247E+03  0.21891988419E+03  0.12509143585E+03 0.  0.
         24    2    1    2    0    0 -0.50697958416E+01 -0.38749722090E+02  0.15243862061E+02  0.90286912576E+02  0.79950656408E+02 0.  0.
        -13    1    5    5    0    0  0.12386552118E+02 -0.60127241547E+02  0.10765053603E+02  0.62326545135E+02  0.00000000000E+00 0.  1.
         14    1    5    5    0    0 -0.17456347960E+02  0.21377519457E+02  0.44788084572E+01  0.27960367441E+02  0.00000000000E+00 0. -1.
         11    1    3    3    0    0 -0.65160569584E+02 -0.35536134031E+02 -0.45975929564E+03  0.46571163458E+03  0.00000000000E+00 0. -1.
        -12    1    3    3    0    0 -0.62715891105E+01  0.15104342894E+02 -0.48535564948E+03  0.48563111565E+03  0.00000000000E+00 0.  1.
          5    1    4    4  501    0 -0.29793000180E+02  0.10519802583E+02 -0.68473124322E+02  0.75527016759E+02  0.41800000000E+01 0. -1.
         -5    1    4    4    0  501  0.10629495472E+03  0.48661710643E+02 -0.82930468151E+02  0.14339286743E+03  0.41800000000E+01 0. -1.
</event>
<event>
11    1  0.7577197E-009  0.1577048E+03  0.7561462E-02  0.1089256E+00
         22   -1    0    0    0    0  0.00000000000E+00  0.00000000000E+00  0.19744407496E+03  0.19744407496E+03  0.00000000000E+00 0. -1.
         22   -1    0    0    0    0 -0.00000000000E+00 -0.00000000000E+00 -0.41277559537E+03  0.41277559537E+03  0.00000000000E+00 0. -1.
        -24    2    1    2    0    0  0.16170760400E+02 -0.27800548636E+02 -0.26744059079E+03  0.28131944377E+03  0.81128267858E+02 0.  0.
         25    2    1    2    0    0  0.98712202148E+01 -0.72255424687E+02 -0.55723647442E+02  0.15515033722E+03  0.12509282501E+03 0.  0.
         24    2    1    2    0    0 -0.26041980615E+02  0.10005597332E+03  0.10783271783E+03  0.17374988935E+03  0.88722863242E+02 0.  0.
        -11    1    5    5    0    0 -0.50828736825E+02  0.31413194180E+02  0.29326895488E+02  0.66561370590E+02  0.00000000000E+00 0.  1.
         12    1    5    5    0    0  0.24786756211E+02  0.68642779142E+02  0.78505822340E+02  0.10718851876E+03  0.00000000000E+00 0. -1.
         13    1    3    3    0    0  0.23496067452E+02  0.21775063319E+02 -0.15409379195E+03  0.15738842170E+03  0.00000000000E+00 0. -1.
        -14    1    3    3    0    0 -0.73253070519E+01 -0.49575611955E+02 -0.11334679884E+03  0.12393102207E+03  0.00000000000E+00 0.  1.
          5    1    4    4  501    0 -0.39970330309E+02 -0.81753313892E+01  0.18575355979E+02  0.45021990161E+02  0.41800000000E+01 0. -1.
         -5    1    4    4    0  501  0.49841550524E+02 -0.64080093298E+02 -0.74299003420E+02  0.11012834705E+03  0.41800000000E+01 0. -1.
</event>
<event>
11    1  0.7577197E-009  0.1427099E+03  0.7561462E-02  0.1104570E+00
         22   -1    0    0    0    0  0.00000000000E+00  0.00000000000E+00  0.42455703644E+03  0.42455703644E+03  0.00000000000E+00 0. -1.
         22   -1    0    0    0    0 -0.00000000000E+00 -0.00000000000E+00 -0.59134585510E+03  0.59134585510E+03  0.00000000000E+00 0.  1.
         24    2    1    2    0    0 -0.15871801448E+02  0.54648206489E+01 -0.32721444777E+03  0.33744224314E+03  0.80722947672E+02 0.  0.
         25    2    1    2    0    0 -0.45541188351E+02  0.26298209162E+02 -0.23369003356E+03  0.27023074093E+03  0.12509206974E+03 0.  0.
        -24    2    1    2    0    0  0.61412989799E+02 -0.31763029810E+02  0.39411566267E+03  0.40822990748E+03  0.80895342380E+02 0.  0.
        -11    1    3    3    0    0  0.24205057882E+02 -0.20510216451E+02 -0.17692419767E+03  0.17974628098E+03  0.00000000000E+00 0.  1.
         12    1    3    3    0    0 -0.40076859329E+02  0.25975037100E+02 -0.15029025010E+03  0.15769596216E+03  0.00000000000E+00 0. -1.
         11    1    5    5    0    0  0.78475486200E+01 -0.22250430539E+02  0.28815220519E+03  0.28911651463E+03  0.00000000000E+00 0. -1.
        -12    1    5    5    0    0  0.53565441179E+02 -0.95125992711E+01  0.10596345748E+03  0.11911339284E+03  0.00000000000E+00 0.  1.
          5    1    4    4  501    0 -0.28638665072E+02 -0.48816345177E+02 -0.77633640044E+02  0.96164770888E+02  0.41800000000E+01 0.  1.
         -5    1    4    4    0  501 -0.16902523279E+02  0.75114554338E+02 -0.15605639352E+03  0.17406597004E+03  0.41800000000E+01 0.  1.
</event>
<event>
11    1  0.7577197E-009  0.1330865E+03  0.7561462E-02  0.1115534E+00
         22   -1    0    0    0    0  0.00000000000E+00  0.00000000000E+00  0.50702019787E+03  0.50702019787E+03  0.00000000000E+00 0.  1.
         22   -1    0    0    0    0 -0.00000000000E+00 -0.00000000000E+00 -0.80470466614E+03  0.80470466614E+03  0.00000000000E+00 0. -1.
        -24    2    1    2    0    0  0.90676323682E+01  0.42858355733E+02 -0.64786732308E+03  0.65365889392E+03  0.74958793210E+02 0.  0.
         25    2    1    2    0    0 -0.13403249384E+02 -0.62534263781E+02 -0.11710934115E+03  0.18289956097E+03  0.12508984921E+03 0.  0.
         24    2    1    2    0    0  0.43356170154E+01  0.19675908048E+02  0.46729219596E+03  0.47516640912E+03  0.83756677498E+02 0.  0.
        -13    1    5    5    0    0  0.26868949897E+01  0.16675013733E+02  0.47030346211E+03  0.47060665312E+03  0.00000000000E+00 0.  1.
         14    1    5    5    0    0  0.16487220257E+01  0.30008943152E+01 -0.30112661511E+01  0.45597560069E+01  0.00000000000E+00 0. -1.
         13    1    3    3    0    0 -0.31990841664E+02  0.11492171719E+02 -0.31099737393E+03  0.31284956537E+03  0.00000000000E+00 0. -1.
        -14    1    3    3    0    0  0.41058474032E+02  0.31366184014E+02 -0.33686994914E+03  0.34080932855E+03  0.00000000000E+00 0.  1.
          5    1    4    4  501    0 -0.36176453340E+02  0.24755104600E+02 -0.14847633128E+02  0.46470158053E+02  0.41800000000E+01 0.  1.
         -5    1    4    4    0  501  0.22773203956E+02 -0.87289368381E+02 -0.10226170803E+03  0.13642940291E+03  0.41800000000E+01 0.  1.
</event>
<event>
11    1  0.7577197E-009  0.2874781E+03  0.7561462E-02  0.1005635E+00
         22   -1    0    0    0    0  0.00000000000E+00  0.00000000000E+00  0.11613973712E+03  0.11613973712E+03  0.00000000000E+00 0.  1.
         22   -1    0    0    0    0 -0.00000000000E+00 -0.00000000000E+00 -0.21784334349E+04  0.21784334349E+04  0.00000000000E+00 0. -1.
         24    2    1    2    0    0 -0.26009306742E+03  0.12551757719E+03 -0.14689137475E+04  0.14991765702E+04  0.80123186094E+02 0.  0.
         25    2    1    2    0    0  0.16775144961E+03 -0.13482741130E+03 -0.62323795683E+03  0.67111245262E+03  0.12508954213E+03 0.  0.
        -24    2    1    2    0    0  0.92341617817E+02  0.93098341043E+01  0.29858006537E+02  0.12428414927E+03  0.77080489195E+02 0.  0.
        -13    1    3    3    0    0 -0.12535472781E+03  0.10299955525E+03 -0.74073768737E+03  0.75829745987E+03  0.00000000000E+00 0.  1.
         14    1    3    3    0    0 -0.13473833962E+03  0.22518021944E+02 -0.72817606016E+03  0.74087911029E+03  0.00000000000E+00 0. -1.
         13    1    5    5    0    0 -0.67840965026E+01  0.66302285715E+00  0.23623088110E+02  0.24586863495E+02  0.00000000000E+00 0. -1.
        -14    1    5    5    0    0  0.99125714320E+02  0.86468112471E+01  0.62349184268E+01  0.99697285780E+02  0.00000000000E+00 0.  1.
          5    1    4    4  501    0  0.22839612221E+02 -0.78748389738E+02 -0.31989597553E+03  0.33026332574E+03  0.41800000000E+01 0.  1.
         -5    1    4    4    0  501  0.14491183739E+03 -0.56079021561E+02 -0.30334198131E+03  0.34084912688E+03  0.41800000000E+01 0.  1.
</event>
<event>
11    1  0.7577197E-009  0.2336762E+03  0.7561462E-02  0.1032973E+00
         22   -1    0    0    0    0  0.00000000000E+00  0.00000000000E+00  0.45942134839E+03  0.45942134839E+03  0.00000000000E+00 0. -1.
         22   -1    0    0    0    0 -0.00000000000E+00 -0.00000000000E+00 -0.29533744274E+03  0.29533744274E+03  0.00000000000E+00 0. -1.
         24    2    1    2    0    0  0.35014724523E+02  0.19126760113E+02 -0.95216950650E+02  0.13057959095E+03  0.79955600153E+02 0.  0.
         25    2    1    2    0    0  0.12573971919E+03  0.10705620732E+03 -0.78473891430E+02  0.22153828670E+03  0.12509817077E+03 0.  0.
        -24    2    1    2    0    0 -0.16075444372E+03 -0.12618296743E+03  0.33777474773E+03  0.40264091348E+03  0.79144125249E+02 0.  0.
        -13    1    3    3    0    0  0.51571205244E+02 -0.95378993007E+01 -0.75887291681E+02  0.92246635560E+02  0.00000000000E+00 0.  1.
         14    1    3    3    0    0 -0.16556480721E+02  0.28664659413E+02 -0.19329658969E+02  0.38332955391E+02  0.00000000000E+00 0. -1.
         13    1    5    5    0    0 -0.11919100341E+03 -0.13119739398E+03  0.27596151524E+03  0.32798477004E+03  0.00000000000E+00 0. -1.
        -14    1    5    5    0    0 -0.41563440305E+02  0.50144265479E+01  0.61813232485E+02  0.74656143443E+02  0.00000000000E+00 0.  1.
          5    1    4    4  501    0  0.47867821648E+02  0.21959090226E+02 -0.91217285303E+02  0.10541155312E+03  0.41800000000E+01 0. -1.
         -5    1    4    4    0  501  0.77871897545E+02  0.85097117092E+02  0.12743393873E+02  0.11612673358E+03  0.41800000000E+01 0. -1.
</event>
<event>
11    1  0.7577197E-009  0.1357227E+03  0.7561462E-02  0.1112431E+00
         22   -1    0    0    0    0  0.00000000000E+00  0.00000000000E+00  0.28926358392E+03  0.28926358392E+03  0.00000000000E+00 0.  1.
         22   -1    0    0    0    0 -0.00000000000E+00 -0.00000000000E+00 -0.10837727156E+04  0.10837727156E+04  0.00000000000E+00 0.  1.
         24    2    1    2    0    0  0.25200127083E+02  0.40832470454E+02 -0.88129945242E+03  0.88628610213E+03  0.80696920295E+02 0.  0.
         25    2    1    2    0    0  0.22936707897E+02 -0.62722058779E+02 -0.16510903464E+03  0.21764349324E+03  0.12509015790E+03 0.  0.
        -24    2    1    2    0    0 -0.48136834980E+02  0.21889588325E+02  0.25189935538E+03  0.26910670415E+03  0.78541861554E+02 0.  0.
        -13    1    3    3    0    0  0.11455707379E+01 -0.11151717970E+02 -0.54700293119E+03  0.54711779342E+03  0.00000000000E+00 0.  1.
         14    1    3    3    0    0  0.24054556345E+02  0.51984188424E+02 -0.33429652122E+03  0.33916830870E+03  0.00000000000E+00 0. -1.
         11    1    5    5    0    0  0.19126195760E+01 -0.25316837248E+02  0.56286515429E+02  0.61747649194E+02  0.00000000000E+00 0. -1.
        -12    1    5    5    0    0 -0.50049454556E+02  0.47206425572E+02  0.19561283995E+03  0.20735905496E+03  0.00000000000E+00 0.  1.
          5    1    4    4  501    0  0.37501398175E+01 -0.70722857338E+02 -0.23917422299E+02  0.74868562081E+02  0.41800000000E+01 0.  1.
         -5    1    4    4    0  501  0.19186568079E+02  0.80007985590E+01 -0.14119161234E+03  0.14277493116E+03  0.41800000000E+01 0.  1.
</event>
<event>
11    1  0.7577197E-009  0.2144778E+03  0.7561462E-02  0.1044733E+00
         22   -1    0    0    0    0  0.00000000000E+00  0.00000000000E+00  0.44747955824E+03  0.44747955824E+03  0.00000000000E+00 0. -1.
         22   -1    0    0    0    0 -0.00000000000E+00 -0.00000000000E+00 -0.51284151907E+03  0.51284151907E+03  0.00000000000E+00 0.  1.
        -24    2    1    2    0    0  0.32988220697E+02  0.19432737034E+02 -0.62351588588E+02  0.98373475430E+02  0.65755350316E+02 0.  0.
         25    2    1    2    0    0  0.10144323623E+03 -0.13131016665E+03 -0.38327419074E+03  0.43598088570E+03  0.12508851813E+03 0.  0.
         24    2    1    2    0    0 -0.13443145693E+03  0.11187742962E+03  0.38026381850E+03  0.42596671618E+03  0.79111919205E+02 0.  0.
        -13    1    5    5    0    0 -0.10789073839E+03  0.52733498204E+02  0.18812395737E+03  0.22318569981E+03  0.00000000000E+00 0.  1.
         14    1    5    5    0    0 -0.26540718537E+02  0.59143931417E+02  0.19213986113E+03  0.20278101636E+03  0.00000000000E+00 0. -1.
         13    1    3    3    0    0  0.87611708236E+01 -0.36341499777E+01 -0.64174753831E+02  0.64871906011E+02  0.00000000000E+00 0. -1.
        -14    1    3    3    0    0  0.24227049873E+02  0.23066887012E+02  0.18231652429E+01  0.33501569418E+02  0.00000000000E+00 0.  1.
          5    1    4    4  501    0  0.48514603737E+02 -0.64434905297E+02 -0.31910856757E+03  0.32917058509E+03  0.41800000000E+01 0.  1.
         -5    1    4    4    0  501  0.52928632492E+02 -0.66875261358E+02 -0.64165623172E+02  0.10681030061E+03  0.41800000000E+01 0.  1.
</event>
<event>
11    1  0.7577197E-009  0.1311638E+03  0.7561462E-02  0.1117847E+00
         22   -1    0    0    0    0  0.00000000000E+00  0.00000000000E+00  0.34196300973E+03  0.34196300973E+03  0.00000000000E+00 0. -1.
         22   -1    0    0    0    0 -0.00000000000E+00 -0.00000000000E+00 -0.24655969127E+04  0.24655969127E+04  0.00000000000E+00 0. -1.
         24    2    1    2    0    0 -0.39203758463E+02  0.30961662783E+01 -0.23697721243E+04  0.23714369434E+04  0.79666396581E+02 0.  0.
         25    2    1    2    0    0  0.48983454810E+02  0.19521127869E+02 -0.39848386421E+02  0.14147615325E+03  0.12508858764E+03 0.  0.
        -24    2    1    2    0    0 -0.97796963473E+01 -0.22617294147E+02  0.28598660775E+03  0.29464682574E+03  0.66492312707E+02 0.  0.
        -11    1    3    3    0    0 -0.88196259010E+01  0.33903410761E+02 -0.53023440948E+03  0.53139039891E+03  0.00000000000E+00 0.  1.
         12    1    3    3    0    0 -0.30384132562E+02 -0.30807244482E+02 -0.18395377148E+04  0.18400465445E+04  0.00000000000E+00 0. -1.
         11    1    5    5    0    0 -0.33470701298E+02 -0.31009588846E+02  0.19340462614E+03  0.19871394480E+03  0.00000000000E+00 0. -1.
        -12    1    5    5    0    0  0.23691004951E+02  0.83922946984E+01  0.92581981611E+02  0.95932880937E+02  0.00000000000E+00 0.  1.
          5    1    4    4  501    0  0.60423230676E+02  0.15310903915E+01  0.30513253960E+02  0.67836878689E+02  0.41800000000E+01 0.  1.
         -5    1    4    4    0  501 -0.11439775865E+02  0.17990037477E+02 -0.70361640381E+02  0.73639274558E+02  0.41800000000E+01 0.  1.
</event>
<event>
11    1  0.7577197E-009  0.1689830E+03  0.7561462E-02  0.1078920E+00
         22   -1    0    0    0    0  0.00000000000E+00  0.00000000000E+00  0.17209017639E+04  0.17209017639E+04  0.00000000000E+00 0. -1.
         22   -1    0    0    0    0 -0.00000000000E+00 -0.00000000000E+00 -0.80932483138E+03  0.80932483138E+03  0.00000000000E+00 0. -1.
         24    2    1    2    0    0 -0.37608426371E+02  0.10400300035E+03 -0.39183646474E+03  0.41507727798E+03  0.80760843060E+02 0.  0.
         25    2    1    2    0    0  0.12059522820E+02 -0.12004133792E+03 -0.38592635932E+03  0.42325174100E+03  0.12509007369E+03 0.  0.
        -24    2    1    2    0    0  0.25548903551E+02  0.16038337566E+02  0.16893397566E+04  0.16918975763E+04  0.87969430957E+02 0.  0.
        -13    1    3    3    0    0 -0.38547435245E+02  0.18109398299E+02 -0.20589121215E+03  0.21024996150E+03  0.00000000000E+00 0.  1.
         14    1    3    3    0    0  0.93900887473E+00  0.85893602055E+02 -0.18594525259E+03  0.20482731647E+03  0.00000000000E+00 0. -1.
         13    1    5    5    0    0  0.57909446234E+02  0.26329565963E+01  0.10573662851E+04  0.10589541526E+04  0.00000000000E+00 0. -1.
        -14    1    5    5    0    0 -0.32360542684E+02  0.13405380970E+02  0.63197347146E+03  0.63294342368E+03  0.00000000000E+00 0.  1.
          5    1    4    4  501    0 -0.31259208294E+02 -0.42133876846E+02 -0.40289500520E+02  0.66280599978E+02  0.41800000000E+01 0.  1.
         -5    1    4    4    0  501  0.43318731114E+02 -0.77907461074E+02 -0.34563685880E+03  0.35697114102E+03  0.41800000000E+01 0.  1.
</event>
<event>
11    1  0.7577197E-009  0.1430565E+03  0.7561462E-02  0.1104193E+00
         22   -1    0    0    0    0  0.00000000000E+00  0.00000000000E+00  0.11093971549E+03  0.11093971549E+03  0.00000000000E+00 0.  1.
         22   -1    0    0    0    0 -0.00000000000E+00 -0.00000000000E+00 -0.77084201755E+03  0.77084201755E+03  0.00000000000E+00 0. -1.
         24    2    1    2    0    0 -0.39005283369E+02 -0.88886381912E+01 -0.40865862372E+03  0.41829005370E+03  0.79776426777E+02 0.  0.
         25    2    1    2    0    0  0.60657965768E+02  0.72814940459E+02 -0.30696471563E+03  0.34475635520E+03  0.12509277935E+03 0.  0.
        -24    2    1    2    0    0 -0.21652682399E+02 -0.63926302268E+02  0.55721037283E+02  0.11873532413E+03  0.80236104238E+02 0.  0.
        -11    1    3    3    0    0 -0.15890566239E+02  0.35075638602E+02 -0.14707861273E+03  0.15203594589E+03  0.00000000000E+00 0.  1.
         12    1    3    3    0    0 -0.23114717129E+02 -0.43964276793E+02 -0.26158001098E+03  0.26625410781E+03  0.00000000000E+00 0. -1.
         11    1    5    5    0    0  0.92903419905E+01  0.13461551319E+02 -0.32003632932E+01  0.16666317633E+02  0.00000000000E+00 0. -1.
        -12    1    5    5    0    0 -0.30943024390E+02 -0.77387853587E+02  0.58921400576E+02  0.10206900650E+03  0.00000000000E+00 0.  1.
          5    1    4    4  501    0  0.77651539075E+02  0.90745623356E+02 -0.18498827803E+03  0.22023320614E+03  0.41800000000E+01 0.  1.
         -5    1    4    4    0  501 -0.16993573308E+02 -0.17930682897E+02 -0.12197643760E+03  0.12452314906E+03  0.41800000000E+01 0.  1.
</event>
<event>
11    1  0.7577197E-009  0.1401565E+03  0.7561462E-02  0.1107384E+00
         22   -1    0    0    0    0  0.00000000000E+00  0.00000000000E+00  0.11683969891E+04  0.11683969891E+04  0.00000000000E+00 0. -1.
         22   -1    0    0    0    0 -0.00000000000E+00 -0.00000000000E+00 -0.12061372099E+04  0.12061372099E+04  0.00000000000E+00 0.  1.
        -24    2    1    2    0    0  0.23348464829E+02 -0.25186037940E+02 -0.11815310362E+04  0.11851383664E+04  0.85778032736E+02 0.  0.
         25    2    1    2    0    0 -0.72781636779E+02  0.57369800807E+02  0.28433497466E+03  0.32416462552E+03  0.12509143026E+03 0.  0.
         24    2    1    2    0    0  0.49433171950E+02 -0.32183762867E+02  0.85945584062E+03  0.86523120704E+03  0.80506313911E+02 0.  0.
        -11    1    5    5    0    0  0.28097968700E+01 -0.30779473876E+02  0.10817573466E+03  0.11250449120E+03  0.00000000000E+00 0.  1.
         12    1    5    5    0    0  0.46623375080E+02 -0.14042889910E+01  0.75128010596E+03  0.75272671584E+03  0.00000000000E+00 0. -1.
         11    1    3    3    0    0  0.30107507073E+02  0.62988850055E+01 -0.15083427822E+03  0.15393868071E+03  0.00000000000E+00 0. -1.
        -12    1    3    3    0    0 -0.67590422438E+01 -0.31484922946E+02 -0.10306967579E+04  0.10311996857E+04  0.00000000000E+00 0.  1.
          5    1    4    4  501    0  0.20257708194E+02 -0.14231781625E+02  0.12533115678E+02  0.28061891207E+02  0.41800000000E+01 0. -1.
         -5    1    4    4    0  501 -0.93039344973E+02  0.71601582432E+02  0.27180185898E+03  0.29610273431E+03  0.41800000000E+01 0. -1.
</event>
<event>
11    1  0.7577197E-009  0.1439612E+03  0.7561462E-02  0.1103214E+00
         22   -1    0    0    0    0  0.00000000000E+00  0.00000000000E+00  0.31777066090E+03  0.31777066090E+03  0.00000000000E+00 0.  1.
         22   -1    0    0    0    0 -0.00000000000E+00 -0.00000000000E+00 -0.13036767077E+04  0.13036767077E+04  0.00000000000E+00 0.  1.
         24    2    1    2    0    0  0.50909777029E+02 -0.44413095911E+02 -0.99393175646E+03  0.99944850203E+03  0.80203760756E+02 0.  0.
         25    2    1    2    0    0 -0.10246999353E+03  0.36739466911E+02 -0.27599889591E+03  0.32197066234E+03  0.12505930139E+03 0.  0.
        -24    2    1    2    0    0  0.51560216501E+02  0.76736289995E+01  0.28402460560E+03  0.30002820420E+03  0.81422393849E+02 0.  0.
        -11    1    3    3    0    0  0.19075731642E+02  0.23252321253E+02 -0.27862690277E+03  0.28024543695E+03  0.00000000000E+00 0.  1.
         12    1    3    3    0    0  0.31834045387E+02 -0.67665417163E+02 -0.71530485368E+03  0.71920306509E+03  0.00000000000E+00 0. -1.
         11    1    5    5    0    0 -0.17431900046E+02  0.68303438558E+01  0.21135003114E+02  0.28234962246E+02  0.00000000000E+00 0. -1.
        -12    1    5    5    0    0  0.68992116547E+02  0.84328514373E+00  0.26288960249E+03  0.27179324195E+03  0.00000000000E+00 0.  1.
          5    1    4    4  501    0 -0.23151406363E+02  0.16944172685E+02  0.48855860067E+01  0.29401257714E+02  0.41800000000E+01 0.  1.
         -5    1    4    4    0  501 -0.79318587168E+02  0.19795294226E+02 -0.28088448191E+03  0.29256940463E+03  0.41800000000E+01 0.  1.
</event>
<event>
11    1  0.7577197E-009  0.1391843E+03  0.7561462E-02  0.1108473E+00
         22   -1    0    0    0    0  0.00000000000E+00  0.00000000000E+00  0.12319685807E+04  0.12319685807E+04  0.00000000000E+00 0. -1.
         22   -1    0    0    0    0 -0.00000000000E+00 -0.00000000000E+00 -0.32411168493E+03  0.32411168493E+03  0.00000000000E+00 0. -1.
        -24    2    1    2    0    0 -0.39087771213E+02  0.42534112050E+02 -0.24855553689E+03  0.26736593653E+03  0.79797772823E+02 0.  0.
         25    2    1    2    0    0  0.72335434477E+02 -0.61544659929E+02  0.31438215433E+02  0.16017221881E+03  0.12508644229E+03 0.  0.
         24    2    1    2    0    0 -0.33247663263E+02  0.19010547878E+02  0.11249742172E+04  0.11285421103E+04  0.81077106734E+02 0.  0.
        -13    1    5    5    0    0 -0.32618365520E+02  0.35909781146E+02  0.34600669794E+03  0.34939104907E+03  0.00000000000E+00 0.  1.
         14    1    5    5    0    0 -0.62929774390E+00 -0.16899233267E+02  0.77896751928E+03  0.77915106122E+03  0.00000000000E+00 0. -1.
         13    1    3    3    0    0 -0.51255510718E+02  0.51834024019E+02 -0.23761341122E+03  0.24854381227E+03  0.00000000000E+00 0. -1.
        -14    1    3    3    0    0  0.12167739505E+02 -0.92999119682E+01 -0.10942125669E+02  0.18822124254E+02  0.00000000000E+00 0.  1.
          5    1    4    4  501    0  0.43916829219E+02 -0.83665394116E+02  0.61715460921E+02  0.11293740115E+03  0.41800000000E+01 0.  1.
         -5    1    4    4    0  501  0.28418605258E+02  0.22120734187E+02 -0.30277245487E+02  0.47234817667E+02  0.41800000000E+01 0.  1.
</event>
<event>
11    1  0.7577197E-009  0.1593903E+03  0.7561462E-02  0.1087652E+00
         22   -1    0    0    0    0  0.00000000000E+00  0.00000000000E+00  0.41849533837E+03  0.41849533837E+03  0.00000000000E+00 0.  1.
         22   -1    0    0    0    0 -0.00000000000E+00 -0.00000000000E+00 -0.43370781951E+03  0.43370781951E+03  0.00000000000E+00 0. -1.
         24    2    1    2    0    0  0.26374374532E+02 -0.11142665600E+03 -0.22593380624E+03  0.26579529806E+03  0.80557733151E+02 0.  0.
         25    2    1    2    0    0  0.15733092453E+02  0.78365857657E+02 -0.15134507455E+03  0.21199054014E+03  0.12508365070E+03 0.  0.
        -24    2    1    2    0    0 -0.42107466985E+02  0.33060798341E+02  0.36206639965E+03  0.37441731968E+03  0.78931592888E+02 0.  0.
        -13    1    3    3    0    0  0.17565301375E+02 -0.80504691919E+02 -0.74822084148E+02  0.11130089627E+03  0.00000000000E+00 0.  1.
         14    1    3    3    0    0  0.88090731566E+01 -0.30921964079E+02 -0.15111172209E+03  0.15449440179E+03  0.00000000000E+00 0. -1.
         13    1    5    5    0    0  0.79853065740E+01 -0.20411807549E+02  0.93577822916E+02  0.96110436219E+02  0.00000000000E+00 0. -1.
        -14    1    5    5    0    0 -0.50092773559E+02  0.53472605890E+02  0.26848857674E+03  0.27830688346E+03  0.00000000000E+00 0.  1.
          5    1    4    4  501    0  0.17141838628E+02  0.52940308480E+02 -0.17079252929E+03  0.17967770967E+03  0.41800000000E+01 0.  1.
         -5    1    4    4    0  501 -0.14087461746E+01  0.25425549177E+02  0.19447454737E+02  0.32312830462E+02  0.41800000000E+01 0.  1.
</event>
<event>
11    1  0.7577197E-009  0.1408002E+03  0.7561462E-02  0.1106668E+00
         22   -1    0    0    0    0  0.00000000000E+00  0.00000000000E+00  0.38615674376E+03  0.38615674376E+03  0.00000000000E+00 0.  1.
         22   -1    0    0    0    0 -0.00000000000E+00 -0.00000000000E+00 -0.14236301800E+04  0.14236301800E+04  0.00000000000E+00 0.  1.
         24    2    1    2    0    0 -0.54674888441E+02 -0.36708395595E+02 -0.13177078658E+04  0.13217532800E+04  0.79629541229E+02 0.  0.
         25    2    1    2    0    0  0.15147293100E+02  0.43961648336E+02 -0.52420598237E+02  0.14337460164E+03  0.12508513207E+03 0.  0.
        -24    2    1    2    0    0  0.39527595341E+02 -0.72532527406E+01  0.33265502774E+03  0.34465904219E+03  0.80718321433E+02 0.  0.
        -11    1    3    3    0    0  0.10907605125E+02 -0.34346525875E+02 -0.58666712865E+03  0.58777289792E+03  0.00000000000E+00 0.  1.
         12    1    3    3    0    0 -0.65582493565E+02 -0.23618697202E+01 -0.73104073714E+03  0.73398038206E+03  0.00000000000E+00 0. -1.
         11    1    5    5    0    0 -0.21703570763E+02 -0.68143257679E+01  0.43471186774E+02  0.49063470109E+02  0.00000000000E+00 0. -1.
        -12    1    5    5    0    0  0.61231166104E+02 -0.43892697267E+00  0.28918384097E+03  0.29559557208E+03  0.00000000000E+00 0.  1.
          5    1    4    4  501    0 -0.43069941759E+02  0.46741285716E+02 -0.56026115703E+02  0.84830216988E+02  0.41800000000E+01 0.  1.
         -5    1    4    4    0  501  0.58217234859E+02 -0.27796373805E+01  0.36055174662E+01  0.58544384656E+02  0.41800000000E+01 0.  1.
</event>
<event>
11    1  0.7577197E-009  0.1325358E+03  0.7561462E-02  0.1116192E+00
         22   -1    0    0    0    0  0.00000000000E+00  0.00000000000E+00  0.25664132717E+03  0.25664132717E+03  0.00000000000E+00 0. -1.
         22   -1    0    0    0    0 -0.00000000000E+00 -0.00000000000E+00 -0.74554515669E+03  0.74554515669E+03  0.00000000000E+00 0. -1.
        -24    2    1    2    0    0 -0.10883986641E+02  0.45039129987E+02 -0.50878058301E+03  0.51700835486E+03  0.79328260717E+02 0.  0.
         25    2    1    2    0    0  0.11199995655E+02 -0.30545751414E+02 -0.20685384929E+03  0.24391546021E+03  0.12509098261E+03 0.  0.
         24    2    1    2    0    0 -0.31600901358E+00 -0.14493378573E+02  0.22673060277E+03  0.24126266879E+03  0.81183441879E+02 0.  0.
        -11    1    5    5    0    0 -0.37955763747E+02  0.46622044133E+01  0.81680953596E+02  0.90189546689E+02  0.00000000000E+00 0.  1.
         12    1    5    5    0    0  0.37639754734E+02 -0.19155582986E+02  0.14504964918E+03  0.15107312211E+03  0.00000000000E+00 0. -1.
         11    1    3    3    0    0 -0.27939513882E+02 -0.50508149430E+01 -0.31027541910E+03  0.31157176199E+03  0.00000000000E+00 0. -1.
        -12    1    3    3    0    0  0.17055527241E+02  0.50089944930E+02 -0.19850516391E+03  0.20543659287E+03  0.00000000000E+00 0.  1.
          5    1    4    4  501    0  0.39309103732E+02 -0.50829897853E+02 -0.45545425903E+02  0.78871682958E+02  0.41800000000E+01 0. -1.
         -5    1    4    4    0  501 -0.28109108077E+02  0.20284146439E+02 -0.16130842338E+03  0.16504377725E+03  0.41800000000E+01 0. -1.
</event>
<event>
11    1  0.7577197E-009  0.1512617E+03  0.7561462E-02  0.1095597E+00
         22   -1    0    0    0    0  0.00000000000E+00  0.00000000000E+00  0.11444410830E+04  0.11444410830E+04  0.00000000000E+00 0. -1.
         22   -1    0    0    0    0 -0.00000000000E+00 -0.00000000000E+00 -0.10616455694E+03  0.10616455694E+03  0.00000000000E+00 0. -1.
        -24    2    1    2    0    0  0.98705116756E+02 -0.24841102274E+02  0.79040472476E+01  0.12900075411E+03  0.78860257176E+02 0.  0.
         25    2    1    2    0    0 -0.57478113050E+02 -0.60713480536E+02  0.95603841156E+02  0.17826260251E+03  0.12509037058E+03 0.  0.
         24    2    1    2    0    0 -0.41227003706E+02  0.85554582810E+02  0.93476863770E+03  0.94334228335E+03  0.84160590964E+02 0.  0.
        -11    1    5    5    0    0 -0.62419075256E+02  0.34489634543E+02  0.55805527212E+03  0.56259342565E+03  0.00000000000E+00 0.  1.
         12    1    5    5    0    0  0.21192071551E+02  0.51064948267E+02  0.37671336558E+03  0.38074885770E+03  0.00000000000E+00 0. -1.
         11    1    3    3    0    0  0.87102347640E+02 -0.17422071128E+02 -0.25877154410E+02  0.92520131037E+02  0.00000000000E+00 0. -1.
        -12    1    3    3    0    0  0.11602769116E+02 -0.74190311452E+01  0.33781201658E+02  0.36480623072E+02  0.00000000000E+00 0.  1.
          5    1    4    4  501    0  0.68236872988E+01  0.32289053553E+02  0.40507531246E+02  0.52416392238E+02  0.41800000000E+01 0. -1.
         -5    1    4    4    0  501 -0.64301800349E+02 -0.93002534089E+02  0.55096309910E+02  0.12584621028E+03  0.41800000000E+01 0. -1.
</event>
<event>
11    1  0.7577197E-009  0.1486425E+03  0.7561462E-02  0.1098274E+00
         22   -1    0    0    0    0  0.00000000000E+00  0.00000000000E+00  0.78323926005E+02  0.78323926005E+02  0.00000000000E+00 0.  1.
         22   -1    0    0    0    0 -0.00000000000E+00 -0.00000000000E+00 -0.21241274170E+04  0.21241274170E+04  0.00000000000E+00 0.  1.
        -24    2    1    2    0    0 -0.25578176699E+02 -0.96103211790E+01 -0.13601642028E+04  0.13628485943E+04  0.81012536578E+02 0.  0.
         25    2    1    2    0    0  0.10330221507E+03 -0.36051861685E+01 -0.70664704760E+03  0.72503944863E+03  0.12509119548E+03 0.  0.
         24    2    1    2    0    0 -0.77724038367E+02  0.13215507347E+02  0.21007759354E+02  0.11456330010E+03  0.80422310347E+02 0.  0.
        -13    1    5    5    0    0 -0.86934176451E+02  0.71802120402E+01  0.37323309001E+02  0.94879586187E+02  0.00000000000E+00 0.  1.
         14    1    5    5    0    0  0.92101380847E+01  0.60352953072E+01 -0.16315549648E+02  0.19683713910E+02  0.00000000000E+00 0. -1.
         13    1    3    3    0    0  0.17111931040E+02 -0.31058072248E+02 -0.43065485890E+03  0.43211228810E+03  0.00000000000E+00 0. -1.
        -14    1    3    3    0    0 -0.42690107739E+02  0.21447751070E+02 -0.92950934388E+03  0.93073630620E+03  0.00000000000E+00 0.  1.
          5    1    4    4  501    0 -0.14007126975E+02 -0.67528099606E+01 -0.10880632564E+02  0.19433492055E+02  0.41800000000E+01 0.  1.
         -5    1    4    4    0  501  0.11730934204E+03  0.31476237921E+01 -0.69576641503E+03  0.70560595658E+03  0.41800000000E+01 0.  1.
</event>
<event>
11    1  0.7577197E-009  0.1316273E+03  0.7561462E-02  0.1117286E+00
         22   -1    0    0    0    0  0.00000000000E+00  0.00000000000E+00  0.31445412665E+03  0.31445412665E+03  0.00000000000E+00 0.  1.
         22   -1    0    0    0    0 -0.00000000000E+00 -0.00000000000E+00 -0.51876156979E+03  0.51876156979E+03  0.00000000000E+00 0.  1.
         24    2    1    2    0    0  0.16602419929E+02  0.27705959376E+02 -0.45339793113E+03  0.46156905015E+03  0.80206256432E+02 0.  0.
         25    2    1    2    0    0 -0.47959641485E+02 -0.49901274253E+00  0.34153157236E+02  0.13825927278E+03  0.12509521227E+03 0.  0.
        -24    2    1    2    0    0  0.31357221555E+02 -0.27206946634E+02  0.21493733076E+03  0.23338737352E+03  0.80920434244E+02 0.  0.
        -11    1    3    3    0    0 -0.12115243627E+02  0.49152434301E+02 -0.26533692464E+03  0.27012298033E+03  0.00000000000E+00 0.  1.
         12    1    3    3    0    0  0.28717663557E+02 -0.21446474924E+02 -0.18806100649E+03  0.19144606982E+03  0.00000000000E+00 0. -1.
         13    1    5    5    0    0  0.51723778591E+01  0.15840857654E+02  0.48687773643E+01  0.17360623749E+02  0.00000000000E+00 0. -1.
        -14    1    5    5    0    0  0.26184843696E+02 -0.43047804288E+02  0.21006855339E+03  0.21602674977E+03  0.00000000000E+00 0.  1.
          5    1    4    4  501    0  0.45015343747E+01  0.43065988718E+02  0.51853010708E+02  0.67684195462E+02  0.41800000000E+01 0. -1.
         -5    1    4    4    0  501 -0.52461175859E+02 -0.43565001460E+02 -0.17699853472E+02  0.70575077313E+02  0.41800000000E+01 0. -1.
</event>
<event>
11    1  0.7577197E-009  0.2401805E+03  0.7561462E-02  0.1029264E+00
         22   -1    0    0    0    0  0.00000000000E+00  0.00000000000E+00  0.73784038470E+03  0.73784038470E+03  0.00000000000E+00 0. -1.
         22   -1    0    0    0    0 -0.00000000000E+00 -0.00000000000E+00 -0.15068468277E+04  0.15068468277E+04  0.00000000000E+00 0. -1.
         24    2    1    2    0    0 -0.89069546506E+02  0.19512094622E+03 -0.13978527132E+04  0.14161121227E+04  0.73319632031E+02 0.  0.
         25    2    1    2    0    0  0.44337224278E+02 -0.11309071045E+03 -0.13161499137E+02  0.17486084808E+03  0.12509113832E+03 0.  0.
        -24    2    1    2    0    0  0.44732322228E+02 -0.82030235769E+02  0.64200776935E+03  0.65371424162E+03  0.80239600908E+02 0.  0.
        -11    1    3    3    0    0 -0.31217996271E+02  0.78537843459E+02 -0.34289971427E+03  0.35316139397E+03  0.00000000000E+00 0.  1.
         12    1    3    3    0    0 -0.57851550236E+02  0.11658310276E+03 -0.10549529990E+04  0.10629507288E+04  0.00000000000E+00 0. -1.
         13    1    5    5    0    0  0.43954282555E+02 -0.96403770429E+02  0.60065065011E+03  0.60992365865E+03  0.00000000000E+00 0. -1.
        -14    1    5    5    0    0  0.77803967314E+00  0.14373534660E+02  0.41357119238E+02  0.43790582961E+02  0.00000000000E+00 0.  1.
          5    1    4    4  501    0 -0.23698745589E+02 -0.37330252695E+00  0.27935644641E+02  0.36873330997E+02  0.41800000000E+01 0. -1.
         -5    1    4    4    0  501  0.68035969868E+02 -0.11271740792E+03 -0.41097143778E+02  0.13798751709E+03  0.41800000000E+01 0. -1.
</event>
<event>
11    1  0.7577197E-009  0.1900406E+03  0.7561462E-02  0.1061799E+00
         22   -1    0    0    0    0  0.00000000000E+00  0.00000000000E+00  0.11042091675E+04  0.11042091675E+04  0.00000000000E+00 0. -1.
         22   -1    0    0    0    0 -0.00000000000E+00 -0.00000000000E+00 -0.20166412513E+03  0.20166412513E+03  0.00000000000E+00 0. -1.
        -24    2    1    2    0    0 -0.97730933053E+02  0.93055437830E+02 -0.76745899301E+02  0.17462513557E+03  0.79958458765E+02 0.  0.
         25    2    1    2    0    0  0.17258770764E+03 -0.60769661902E+02  0.97891392402E+02  0.24229847281E+03  0.12508539717E+03 0.  0.
         24    2    1    2    0    0 -0.74856774584E+02 -0.32285775928E+02  0.88139954927E+03  0.88894968424E+03  0.81978458340E+02 0.  0.
        -13    1    5    5    0    0 -0.10606971370E+02 -0.16419359135E+02  0.36007853919E+02  0.40971560135E+02  0.00000000000E+00 0.  1.
         14    1    5    5    0    0 -0.64249803214E+02 -0.15866416793E+02  0.84539169535E+03  0.84797812411E+03  0.00000000000E+00 0. -1.
         11    1    3    3    0    0 -0.10761981630E+03  0.62136652716E+02 -0.57987531160E+02  0.13713330099E+03  0.00000000000E+00 0. -1.
        -12    1    3    3    0    0  0.98888832445E+01  0.30918785115E+02 -0.18758368142E+02  0.37491834579E+02  0.00000000000E+00 0.  1.
          5    1    4    4  501    0  0.82676224629E+02 -0.93277719674E+02  0.42679500585E+02  0.13181465501E+03  0.41800000000E+01 0. -1.
         -5    1    4    4    0  501  0.89911483008E+02  0.32508057772E+02  0.55211891817E+02  0.11048381780E+03  0.41800000000E+01 0. -1.
</event>
<event>
11    1  0.7577197E-009  0.1343232E+03  0.7561462E-02  0.1114068E+00
         22   -1    0    0    0    0  0.00000000000E+00  0.00000000000E+00  0.73321194785E+03  0.73321194785E+03  0.00000000000E+00 0.  1.
         22   -1    0    0    0    0 -0.00000000000E+00 -0.00000000000E+00 -0.19992799824E+03  0.19992799824E+03  0.00000000000E+00 0.  1.
        -24    2    1    2    0    0  0.44277511146E+02 -0.40431989266E+02 -0.11679318811E+03  0.15406670400E+03  0.80626650322E+02 0.  0.
         25    2    1    2    0    0 -0.88622383209E+01  0.62924137729E+01  0.33861553097E+01  0.12560821152E+03  0.12509125875E+03 0.  0.
         24    2    1    2    0    0 -0.35415272825E+02  0.34139575493E+02  0.64669098241E+03  0.65346503057E+03  0.79922257747E+02 0.  0.
        -13    1    5    5    0    0  0.12914935347E+01  0.52415370644E+02  0.33221463740E+03  0.33632663340E+03  0.00000000000E+00 0.  1.
         14    1    5    5    0    0 -0.36706766359E+02 -0.18275795151E+02  0.31447634501E+03  0.31713839717E+03  0.00000000000E+00 0. -1.
         11    1    3    3    0    0 -0.20529868703E+02 -0.91620561272E+01 -0.84752183628E+01  0.24025988174E+02  0.00000000000E+00 0. -1.
        -12    1    3    3    0    0  0.64807379849E+02 -0.31269933139E+02 -0.10831796975E+03  0.13004071582E+03  0.00000000000E+00 0.  1.
          5    1    4    4  501    0  0.55506693370E+02  0.96408163030E+00  0.19359288967E+02  0.58942149024E+02  0.41800000000E+01 0.  1.
         -5    1    4    4    0  501 -0.64368931691E+02  0.53283321426E+01 -0.15973133657E+02  0.66666062500E+02  0.41800000000E+01 0.  1.
</event>
<event>
11    1  0.7577197E-009  0.1287501E+03  0.7561462E-02  0.1120814E+00
         22   -1    0    0    0    0  0.00000000000E+00  0.00000000000E+00  0.52896089431E+03  0.52896089431E+03  0.00000000000E+00 0. -1.
         22   -1    0    0    0    0 -0.00000000000E+00 -0.00000000000E+00 -0.51079653259E+03  0.51079653259E+03  0.00000000000E+00 0.  1.
         24    2    1    2    0    0  0.19920905859E+02 -0.23866367222E+02 -0.45741187566E+03  0.46501325245E+03  0.77751237817E+02 0.  0.
         25    2    1    2    0    0  0.11783556678E+02  0.26435678981E+02  0.45348493665E+02  0.13619085213E+03  0.12511500708E+03 0.  0.
        -24    2    1    2    0    0 -0.31704462537E+02 -0.25693117595E+01  0.43022774371E+03  0.43855332232E+03  0.78875412829E+02 0.  0.
        -13    1    3    3    0    0  0.30986229108E+02 -0.47899066772E+02 -0.29598794215E+03  0.30143544731E+03  0.00000000000E+00 0.  1.
         14    1    3    3    0    0 -0.11065323248E+02  0.24032699551E+02 -0.16142393351E+03  0.16357780514E+03  0.00000000000E+00 0. -1.
         13    1    5    5    0    0 -0.11428719476E+02 -0.31645943133E+02  0.33923775545E+03  0.34090223828E+03  0.00000000000E+00 0. -1.
        -14    1    5    5    0    0 -0.20275743061E+02  0.29076631374E+02  0.90989988262E+02  0.97651084032E+02  0.00000000000E+00 0.  1.
          5    1    4    4  501    0 -0.20256729054E+02  0.28684899578E+00  0.79653780327E+02  0.82295895855E+02  0.41800000000E+01 0. -1.
         -5    1    4    4    0  501  0.32040285731E+02  0.26148829985E+02 -0.34305286662E+02  0.53894956279E+02  0.41800000000E+01 0. -1.
</event>
<event>
11    1  0.7577197E-009  0.1357234E+03  0.7561462E-02  0.1112430E+00
         22   -1    0    0    0    0  0.00000000000E+00  0.00000000000E+00  0.61342344050E+03  0.61342344050E+03  0.00000000000E+00 0. -1.
         22   -1    0    0    0    0 -0.00000000000E+00 -0.00000000000E+00 -0.91993643481E+03  0.91993643481E+03  0.00000000000E+00 0.  1.
        -24    2    1    2    0    0  0.17969865777E+02  0.26436107929E+02 -0.74376041659E+03  0.74870714229E+03  0.79756151799E+02 0.  0.
         25    2    1    2    0    0 -0.57128274281E+02 -0.60556251677E+02 -0.13637502720E+03  0.20292018400E+03  0.12509098166E+03 0.  0.
         24    2    1    2    0    0  0.39158408504E+02  0.34120143749E+02  0.57362244948E+03  0.58173254901E+03  0.81685242633E+02 0.  0.
        -13    1    5    5    0    0 -0.18768227235E+02 -0.11116478462E+02  0.93066980575E+02  0.95589148549E+02  0.00000000000E+00 0.  1.
         14    1    5    5    0    0  0.57926635740E+02  0.45236622211E+02  0.48055546891E+03  0.48614340046E+03  0.00000000000E+00 0. -1.
         11    1    3    3    0    0 -0.24581211839E+02  0.29820823509E+02 -0.47593887410E+03  0.47750531868E+03  0.00000000000E+00 0. -1.
        -12    1    3    3    0    0  0.42551077616E+02 -0.33847155800E+01 -0.26782154249E+03  0.27120182360E+03  0.00000000000E+00 0.  1.
          5    1    4    4  501    0  0.54937611158E+01 -0.68082483580E+02 -0.11915197150E+03  0.13740476955E+03  0.41800000000E+01 0.  1.
         -5    1    4    4    0  501 -0.62622035397E+02  0.75262319030E+01 -0.17223055702E+02  0.65515414458E+02  0.41800000000E+01 0.  1.
</event>
<event>
11    1  0.7577197E-009  0.2376519E+03  0.7561462E-02  0.1030691E+00
         22   -1    0    0    0    0  0.00000000000E+00  0.00000000000E+00  0.10008725866E+04  0.10008725866E+04  0.00000000000E+00 0.  1.
         22   -1    0    0    0    0 -0.00000000000E+00 -0.00000000000E+00 -0.18110664887E+04  0.18110664887E+04  0.00000000000E+00 0.  1.
         24    2    1    2    0    0  0.80248667964E+02  0.18076881480E+03 -0.16099964470E+04  0.16240702048E+04  0.79989109615E+02 0.  0.
         25    2    1    2    0    0 -0.65620463620E+02 -0.27633267089E+03 -0.62390120874E+02  0.31655050909E+03  0.12508360154E+03 0.  0.
        -24    2    1    2    0    0 -0.14628204344E+02  0.95563856086E+02  0.86219266581E+03  0.87131836139E+03  0.80455322787E+02 0.  0.
        -11    1    3    3    0    0  0.16116877371E+02  0.92346213124E+01 -0.38632116534E+03  0.38676746859E+03  0.00000000000E+00 0.  1.
         12    1    3    3    0    0  0.64131790593E+02  0.17153419349E+03 -0.12236752817E+04  0.12373027363E+04  0.00000000000E+00 0. -1.
         13    1    5    5    0    0 -0.28558911729E+02  0.78511163662E+02  0.40150275909E+03  0.41010252354E+03  0.00000000000E+00 0. -1.
        -14    1    5    5    0    0  0.13930707385E+02  0.17052692424E+02  0.46068990672E+03  0.46121583785E+03  0.00000000000E+00 0.  1.
          5    1    4    4  501    0 -0.78547544879E+02 -0.19049157551E+03  0.56575891637E+01  0.20617040976E+03  0.41800000000E+01 0. -1.
         -5    1    4    4    0  501  0.12927081259E+02 -0.85841095379E+02 -0.68047710038E+02  0.11038009933E+03  0.41800000000E+01 0. -1.
</event>
<event>
11    1  0.7577197E-009  0.1302174E+03  0.7561462E-02  0.1119002E+00
         22   -1    0    0    0    0  0.00000000000E+00  0.00000000000E+00  0.25731611061E+03  0.25731611061E+03  0.00000000000E+00 0.  1.
         22   -1    0    0    0    0 -0.00000000000E+00 -0.00000000000E+00 -0.44714052208E+03  0.44714052208E+03  0.00000000000E+00 0. -1.
        -24    2    1    2    0    0 -0.34151304007E+02  0.14384544506E+02 -0.37107969810E+03  0.38148815344E+03  0.80373143437E+02 0.  0.
         25    2    1    2    0    0  0.18574657612E+02 -0.20079769626E+02  0.60158856731E+01  0.12818384559E+03  0.12508673925E+03 0.  0.
         24    2    1    2    0    0  0.15576646395E+02  0.56952251203E+01  0.17523940095E+03  0.19478463365E+03  0.83409462043E+02 0.  0.
        -11    1    5    5    0    0  0.45556888788E+02  0.22352486263E+02  0.10484531012E+03  0.11648005328E+03  0.00000000000E+00 0.  1.
         12    1    5    5    0    0 -0.29980242394E+02 -0.16657261143E+02  0.70394090837E+02  0.78304580374E+02  0.00000000000E+00 0. -1.
         13    1    3    3    0    0 -0.19262479481E+02  0.36168327075E+02 -0.33084632179E+03  0.33337438360E+03  0.00000000000E+00 0. -1.
        -14    1    3    3    0    0 -0.14888824526E+02 -0.21783782569E+02 -0.40233376316E+02  0.48113769844E+02  0.00000000000E+00 0.  1.
          5    1    4    4  501    0  0.70983085183E+02 -0.22421037341E+01 -0.59525674632E+01  0.71389991389E+02  0.41800000000E+01 0.  1.
         -5    1    4    4    0  501 -0.52408427570E+02 -0.17837665892E+02  0.11968453136E+02  0.56793854204E+02  0.41800000000E+01 0.  1.
</event>
<event>
11    1  0.7577197E-009  0.1372787E+03  0.7561462E-02  0.1110636E+00
         22   -1    0    0    0    0  0.00000000000E+00  0.00000000000E+00  0.32921263874E+03  0.32921263874E+03  0.00000000000E+00 0. -1.
         22   -1    0    0    0    0 -0.00000000000E+00 -0.00000000000E+00 -0.86818516190E+03  0.86818516190E+03  0.00000000000E+00 0.  1.
         24    2    1    2    0    0  0.27642371056E+02 -0.38820456993E+02 -0.70734527909E+03  0.71349034468E+03  0.80374122322E+02 0.  0.
         25    2    1    2    0    0  0.24222792009E+02  0.62394039974E+02 -0.11619397073E+03  0.18337718811E+03  0.12508554835E+03 0.  0.
        -24    2    1    2    0    0 -0.51865163065E+02 -0.23573582981E+02  0.28456672666E+03  0.30053026785E+03  0.78067349222E+02 0.  0.
        -13    1    3    3    0    0  0.52686819748E+02 -0.30447710931E+02 -0.59403612083E+03  0.59714477049E+03  0.00000000000E+00 0.  1.
         14    1    3    3    0    0 -0.25044448692E+02 -0.83727460619E+01 -0.11330915826E+03  0.11634557419E+03  0.00000000000E+00 0. -1.
         11    1    5    5    0    0 -0.30309136772E+02  0.21420114996E+01  0.25181224558E+03  0.25363879634E+03  0.00000000000E+00 0. -1.
        -12    1    5    5    0    0 -0.21556026293E+02 -0.25715594480E+02  0.32754481081E+02  0.46891471505E+02  0.00000000000E+00 0.  1.
          5    1    4    4  501    0 -0.44102439769E+02  0.22223586795E+02 -0.96056341845E+01  0.50484191701E+02  0.41800000000E+01 0. -1.
         -5    1    4    4    0  501  0.68325231778E+02  0.40170453178E+02 -0.10658833655E+03  0.13289299641E+03  0.41800000000E+01 0. -1.
</event>
<event>
11    1  0.7577197E-009  0.1368582E+03  0.7561462E-02  0.1111118E+00
         22   -1    0    0    0    0  0.00000000000E+00  0.00000000000E+00  0.13480708806E+04  0.13480708806E+04  0.00000000000E+00 0. -1.
         22   -1    0    0    0    0 -0.00000000000E+00 -0.00000000000E+00 -0.58353676004E+03  0.58353676004E+03  0.00000000000E+00 0. -1.
        -24    2    1    2    0    0 -0.46317994020E+02 -0.29668304038E+02 -0.53214844456E+03  0.54112941921E+03  0.81323529550E+02 0.  0.
         25    2    1    2    0    0  0.40514332703E+02  0.64942209036E+02  0.73304905435E+02  0.16394719159E+03  0.12508465454E+03 0.  0.
         24    2    1    2    0    0  0.58036613178E+01 -0.35273904998E+02  0.12233776597E+04  0.12265310298E+04  0.80296563341E+02 0.  0.
        -13    1    5    5    0    0  0.35667891886E+02  0.97759484578E+00  0.33087715306E+03  0.33279549970E+03  0.00000000000E+00 0.  1.
         14    1    5    5    0    0 -0.29864230569E+02 -0.36251499844E+02  0.89250050662E+03  0.89373553013E+03  0.00000000000E+00 0. -1.
         13    1    3    3    0    0 -0.66145949056E+02 -0.21774461843E+02 -0.29881986274E+03  0.30682686345E+03  0.00000000000E+00 0. -1.
        -14    1    3    3    0    0  0.19827955035E+02 -0.78938421956E+01 -0.23332858181E+03  0.23430255576E+03  0.00000000000E+00 0.  1.
          5    1    4    4  501    0  0.49823797334E+02  0.54854366869E+02  0.10533031768E+03  0.12885402814E+03  0.41800000000E+01 0.  1.
         -5    1    4    4    0  501 -0.93094646309E+01  0.10087842167E+02 -0.32025412246E+02  0.35093163449E+02  0.41800000000E+01 0.  1.
</event>
<event>
11    1  0.7577197E-009  0.1329125E+03  0.7561462E-02  0.1115741E+00
         22   -1    0    0    0    0  0.00000000000E+00  0.00000000000E+00  0.93515482911E+02  0.93515482911E+02  0.00000000000E+00 0.  1.
         22   -1    0    0    0    0 -0.00000000000E+00 -0.00000000000E+00 -0.12560451761E+04  0.12560451761E+04  0.00000000000E+00 0. -1.
        -24    2    1    2    0    0  0.25445309820E+02  0.31954517258E+02 -0.89118543512E+03  0.89565079350E+03  0.79437454415E+02 0.  0.
         25    2    1    2    0    0 -0.31852985813E+02 -0.68352280870E+02 -0.32137256299E+03  0.35300876539E+03  0.12509283430E+03 0.  0.
         24    2    1    2    0    0  0.64076759932E+01  0.36397763612E+02  0.50028304940E+02  0.10090110010E+03  0.79450268713E+02 0.  0.
        -13    1    5    5    0    0  0.42550538988E+01  0.36940706254E+02  0.70821334676E+02  0.79989891283E+02  0.00000000000E+00 0.  1.
         14    1    5    5    0    0  0.21526220943E+01 -0.54294264197E+00 -0.20793029736E+02  0.20911208817E+02  0.00000000000E+00 0. -1.
         11    1    3    3    0    0 -0.64370786224E+00  0.53196855911E+02 -0.43818744998E+03  0.44140521197E+03  0.00000000000E+00 0. -1.
        -12    1    3    3    0    0  0.26089017683E+02 -0.21242338653E+02 -0.45299798514E+03  0.45424558153E+03  0.00000000000E+00 0.  1.
          5    1    4    4  501    0  0.11057075138E+02 -0.93763552317E+02 -0.18494577785E+03  0.20769274373E+03  0.41800000000E+01 0. -1.
         -5    1    4    4    0  501 -0.42910060951E+02  0.25411271447E+02 -0.13642678514E+03  0.14531602166E+03  0.41800000000E+01 0. -1.
</event>
<event>
11    1  0.7577197E-009  0.1583810E+03  0.7561462E-02  0.1088610E+00
         22   -1    0    0    0    0  0.00000000000E+00  0.00000000000E+00  0.12418188893E+03  0.12418188893E+03  0.00000000000E+00 0. -1.
         22   -1    0    0    0    0 -0.00000000000E+00 -0.00000000000E+00 -0.20854134085E+04  0.20854134085E+04  0.00000000000E+00 0. -1.
         24    2    1    2    0    0  0.90177057877E+02 -0.25446983358E+02 -0.17908480790E+04  0.17950674620E+04  0.79692536115E+02 0.  0.
         25    2    1    2    0    0 -0.16575017894E+03  0.70323747168E+02 -0.19013148127E+03  0.29020188412E+03  0.12509437293E+03 0.  0.
        -24    2    1    2    0    0  0.75573121068E+02 -0.44876763809E+02  0.19748040688E+02  0.12432595133E+03  0.85683933761E+02 0.  0.
        -11    1    3    3    0    0 -0.12512849727E+02 -0.15150695442E+02 -0.25531285024E+03  0.25606789428E+03  0.00000000000E+00 0.  1.
         12    1    3    3    0    0  0.10268990760E+03 -0.10296287916E+02 -0.15355352287E+04  0.15389995677E+04  0.00000000000E+00 0. -1.
         13    1    5    5    0    0  0.79874710100E+02 -0.31269821346E+01  0.19814519235E+02  0.82355100045E+02  0.00000000000E+00 0. -1.
        -14    1    5    5    0    0 -0.43015890325E+01 -0.41749781675E+02 -0.66478547607E-01  0.41970851284E+02  0.00000000000E+00 0.  1.
          5    1    4    4  501    0 -0.55499052109E+02 -0.19081258819E+02 -0.81929751914E+01  0.59404010518E+02  0.41800000000E+01 0. -1.
         -5    1    4    4    0  501 -0.11025112684E+03  0.89405005987E+02 -0.18193850608E+03  0.23079787360E+03  0.41800000000E+01 0. -1.
</event>
<event>
11    1  0.7577197E-009  0.1264093E+03  0.7561462E-02  0.1123761E+00
         22   -1    0    0    0    0  0.00000000000E+00  0.00000000000E+00  0.92345312565E+02  0.92345312565E+02  0.00000000000E+00 0. -1.
         22   -1    0    0    0    0 -0.00000000000E+00 -0.00000000000E+00 -0.43539395297E+03  0.43539395297E+03  0.00000000000E+00 0. -1.
         24    2    1    2    0    0 -0.74777518140E+01 -0.23299038918E+02 -0.22483419767E+03  0.24083290367E+03  0.82772634739E+02 0.  0.
         25    2    1    2    0    0  0.33203862976E+02 -0.23312935554E+02 -0.15014850174E+03  0.19959621118E+03  0.12509230776E+03 0.  0.
        -24    2    1    2    0    0 -0.25726111162E+02  0.46611974472E+02  0.31934059009E+02  0.87310150685E+02  0.61390303210E+02 0.  0.
        -13    1    3    3    0    0  0.53183894176E+01  0.30382234988E+02 -0.90187371858E+02  0.95315935245E+02  0.00000000000E+00 0.  1.
         14    1    3    3    0    0 -0.12796141232E+02 -0.53681273906E+02 -0.13464682581E+03  0.14551696843E+03  0.00000000000E+00 0. -1.
         13    1    5    5    0    0 -0.35048729505E+02  0.74375980742E+01  0.30439941134E+02  0.47014054508E+02  0.00000000000E+00 0. -1.
        -14    1    5    5    0    0  0.93226183428E+01  0.39174376398E+02  0.14941178748E+01  0.40296096177E+02  0.00000000000E+00 0.  1.
          5    1    4    4  501    0  0.59832079645E+02  0.13059449886E+02 -0.24589753514E+02  0.66125300482E+02  0.41800000000E+01 0.  1.
         -5    1    4    4    0  501 -0.26628216669E+02 -0.36372385440E+02 -0.12555874823E+03  0.13347091070E+03  0.41800000000E+01 0.  1.
</event>
<event>
11    1  0.7577197E-009  0.1452501E+03  0.7561462E-02  0.1101833E+00
         22   -1    0    0    0    0  0.00000000000E+00  0.00000000000E+00  0.16656235292E+04  0.16656235292E+04  0.00000000000E+00 0. -1.
         22   -1    0    0    0    0 -0.00000000000E+00 -0.00000000000E+00 -0.20309110134E+03  0.20309110134E+03  0.00000000000E+00 0.  1.
        -24    2    1    2    0    0  0.32148879027E+02  0.65578192097E+02 -0.17611214684E+03  0.20734584444E+03  0.81503136361E+02 0.  0.
         25    2    1    2    0    0 -0.61229491648E+02 -0.97634286148E+02  0.79956657817E+03  0.81745701810E+03  0.12509100300E+03 0.  0.
         24    2    1    2    0    0  0.29080612622E+02  0.32056094050E+02  0.83907799651E+03  0.84391176799E+03  0.79132248307E+02 0.  0.
        -13    1    5    5    0    0  0.10289361741E+01 -0.10230176037E+02  0.14508685251E+02  0.17782495863E+02  0.00000000000E+00 0.  1.
         14    1    5    5    0    0  0.28051676448E+02  0.42286270087E+02  0.82456931126E+03  0.82612927212E+03  0.00000000000E+00 0. -1.
         13    1    3    3    0    0 -0.16750135946E+02 -0.99197552825E+01 -0.32916767997E+02  0.38242413816E+02  0.00000000000E+00 0. -1.
        -14    1    3    3    0    0  0.48899014973E+02  0.75497947380E+02 -0.14319537885E+03  0.16910343062E+03  0.00000000000E+00 0.  1.
          5    1    4    4  501    0  0.55798117328E+01 -0.69418582867E+02  0.17067964192E+03  0.18438841209E+03  0.41800000000E+01 0. -1.
         -5    1    4    4    0  501 -0.66809303381E+02 -0.28215703281E+02  0.62888693625E+03  0.63306860601E+03  0.41800000000E+01 0. -1.
</event>
<event>
11    1  0.7577197E-009  0.1597252E+03  0.7561462E-02  0.1087336E+00
         22   -1    0    0    0    0  0.00000000000E+00  0.00000000000E+00  0.66864134824E+03  0.66864134824E+03  0.00000000000E+00 0. -1.
         22   -1    0    0    0    0 -0.00000000000E+00 -0.00000000000E+00 -0.93883004263E+03  0.93883004263E+03  0.00000000000E+00 0. -1.
        -24    2    1    2    0    0  0.94230293954E+02  0.40964822336E+01 -0.77566841167E+03  0.78530529584E+03  0.78401488205E+02 0.  0.
         25    2    1    2    0    0 -0.18418248050E+03 -0.25159964328E+02 -0.69275086396E+02  0.23452440707E+03  0.12508577053E+03 0.  0.
         24    2    1    2    0    0  0.89952186550E+02  0.21063482094E+02  0.57475480368E+03  0.58764168795E+03  0.80278284237E+02 0.  0.
        -13    1    5    5    0    0 -0.21371788916E+01 -0.21890666638E+01  0.23062396927E+03  0.23064426017E+03  0.00000000000E+00 0.  1.
         14    1    5    5    0    0  0.92089365442E+02  0.23252548758E+02  0.34413083441E+03  0.35699742778E+03  0.00000000000E+00 0. -1.
         11    1    3    3    0    0  0.10800078950E+03  0.52926375862E+01 -0.71107673173E+03  0.71925120852E+03  0.00000000000E+00 0. -1.
        -12    1    3    3    0    0 -0.13770495545E+02 -0.11961553526E+01 -0.64591679938E+02  0.66054087326E+02  0.00000000000E+00 0.  1.
          5    1    4    4  501    0 -0.85847303304E+02 -0.21518932396E+02 -0.97818812182E+02  0.13198036351E+03  0.41800000000E+01 0.  1.
         -5    1    4    4    0  501 -0.98335177199E+02 -0.36410319317E+01  0.28543725785E+02  0.10254404356E+03  0.41800000000E+01 0.  1.
</event>
<event>
11    1  0.7577197E-009  0.1635577E+03  0.7561462E-02  0.1083778E+00
         22   -1    0    0    0    0  0.00000000000E+00  0.00000000000E+00  0.10549057939E+04  0.10549057939E+04  0.00000000000E+00 0. -1.
         22   -1    0    0    0    0 -0.00000000000E+00 -0.00000000000E+00 -0.26028085870E+03  0.26028085870E+03  0.00000000000E+00 0.  1.
        -24    2    1    2    0    0  0.29461115337E+02 -0.20991693885E+02 -0.19649261028E+03  0.21515969002E+03  0.79848217178E+02 0.  0.
         25    2    1    2    0    0  0.13137225954E+02 -0.78427814190E+02  0.61422615429E+02  0.16045004440E+03  0.12509184752E+03 0.  0.
         24    2    1    2    0    0 -0.42598341291E+02  0.99419508075E+02  0.92969493006E+03  0.93957691819E+03  0.82299847907E+02 0.  0.
        -11    1    5    5    0    0 -0.34875942854E+02  0.72973877477E+02  0.34982885778E+03  0.35905674749E+03  0.00000000000E+00 0.  1.
         12    1    5    5    0    0 -0.77223984369E+01  0.26445630597E+02  0.57986607228E+03  0.58052017070E+03  0.00000000000E+00 0. -1.
         13    1    3    3    0    0  0.30680361385E+02 -0.42427651373E+01 -0.17886998705E+02  0.35766329885E+02  0.00000000000E+00 0. -1.
        -14    1    3    3    0    0 -0.12192460484E+01 -0.16748928748E+02 -0.17860561157E+03  0.17939336014E+03  0.00000000000E+00 0.  1.
          5    1    4    4  501    0 -0.13163603599E+02 -0.59734608836E+02 -0.26430901416E+02  0.66765027538E+02  0.41800000000E+01 0.  1.
         -5    1    4    4    0  501  0.26300829552E+02 -0.18693205354E+02  0.87853516845E+02  0.93685016858E+02  0.41800000000E+01 0.  1.
</event>
<event>
11    1  0.7577197E-009  0.1522292E+03  0.7561462E-02  0.1094622E+00
         22   -1    0    0    0    0  0.00000000000E+00  0.00000000000E+00  0.23155485678E+03  0.23155485678E+03  0.00000000000E+00 0. -1.
         22   -1    0    0    0    0 -0.00000000000E+00 -0.00000000000E+00 -0.21015611390E+03  0.21015611390E+03  0.00000000000E+00 0. -1.
        -24    2    1    2    0    0 -0.53267056160E+02 -0.48856525903E+02 -0.49397226110E+02  0.11952222031E+03  0.81370361962E+02 0.  0.
         25    2    1    2    0    0  0.82203209866E+02 -0.38476449465E+02 -0.37538863986E+02  0.15904842207E+03  0.12509767934E+03 0.  0.
         24    2    1    2    0    0 -0.28936153706E+02  0.87332975368E+02  0.10833483298E+03  0.16314032831E+03  0.80087334248E+02 0.  0.
        -11    1    5    5    0    0  0.16990570252E+02  0.36597718396E+02  0.71378695347E+01  0.40975866688E+02  0.00000000000E+00 0.  1.
         12    1    5    5    0    0 -0.45926723958E+02  0.50735256972E+02  0.10119696344E+03  0.12216446162E+03  0.00000000000E+00 0. -1.
         13    1    3    3    0    0 -0.61073650366E+02 -0.62724231344E+02 -0.54118107525E+02  0.10292273572E+03  0.00000000000E+00 0. -1.
        -14    1    3    3    0    0  0.78065942059E+01  0.13867705441E+02  0.47208814146E+01  0.16599484589E+02  0.00000000000E+00 0.  1.
          5    1    4    4  501    0  0.63904728018E+02 -0.27856218538E+02 -0.83155127158E+02  0.10859111726E+03  0.41800000000E+01 0. -1.
         -5    1    4    4    0  501  0.18298481849E+02 -0.10620230927E+02  0.45616263171E+02  0.50457304809E+02  0.41800000000E+01 0. -1.
</event>
<event>
11    1  0.7577197E-009  0.2418482E+03  0.7561462E-02  0.1028334E+00
         22   -1    0    0    0    0  0.00000000000E+00  0.00000000000E+00  0.58579682525E+03  0.58579682525E+03  0.00000000000E+00 0. -1.
         22   -1    0    0    0    0 -0.00000000000E+00 -0.00000000000E+00 -0.21915276562E+03  0.21915276562E+03  0.00000000000E+00 0. -1.
         24    2    1    2    0    0 -0.20831732581E+03  0.15890447137E+02 -0.76213936278E+02  0.23691883678E+03  0.81690615098E+02 0.  0.
         25    2    1    2    0    0  0.19921794769E+03 -0.27898856974E+02  0.19933460500E+03  0.30959249512E+03  0.12508833432E+03 0.  0.
        -24    2    1    2    0    0  0.90993781204E+01  0.12008409837E+02  0.24352339091E+03  0.25843825896E+03  0.85203821415E+02 0.  0.
        -13    1    3    3    0    0 -0.39568307919E+02  0.30352923435E+02 -0.39500042702E+02  0.63617641626E+02  0.00000000000E+00 0.  1.
         14    1    3    3    0    0 -0.16874901789E+03 -0.14462476298E+02 -0.36713893575E+02  0.17330119516E+03  0.00000000000E+00 0. -1.
         11    1    5    5    0    0 -0.37254691320E+02  0.14367849608E+02  0.12101574847E+03  0.12743295690E+03  0.00000000000E+00 0. -1.
        -12    1    5    5    0    0  0.46354069441E+02 -0.23594397713E+01  0.12250764244E+03  0.13100530206E+03  0.00000000000E+00 0.  1.
          5    1    4    4  501    0  0.84993494167E+02 -0.64036935797E+02  0.13980269363E+03  0.17574666069E+03  0.41800000000E+01 0.  1.
         -5    1    4    4    0  501  0.11422445353E+03  0.36138078823E+02  0.59531911365E+02  0.13384583443E+03  0.41800000000E+01 0.  1.
</event>
<event>
11    1  0.7577197E-009  0.1349277E+03  0.7561462E-02  0.1113358E+00
         22   -1    0    0    0    0  0.00000000000E+00  0.00000000000E+00  0.35084556947E+03  0.35084556947E+03  0.00000000000E+00 0. -1.
         22   -1    0    0    0    0 -0.00000000000E+00 -0.00000000000E+00 -0.68613879456E+03  0.68613879456E+03  0.00000000000E+00 0.  1.
         24    2    1    2    0    0 -0.35778908424E+02 -0.35215046785E+02 -0.59526901940E+03  0.60294690916E+03  0.81728452826E+02 0.  0.
         25    2    1    2    0    0  0.56358808910E+02  0.22692686971E+02 -0.21157571483E+02  0.14066416241E+03  0.12508992914E+03 0.  0.
        -24    2    1    2    0    0 -0.20579900485E+02  0.12522359814E+02  0.28113336579E+03  0.29337329246E+03  0.80321712911E+02 0.  0.
        -13    1    3    3    0    0 -0.44319403374E+02 -0.48649845895E+02 -0.56431139650E+03  0.56813587217E+03  0.00000000000E+00 0.  1.
         14    1    3    3    0    0  0.85404949496E+01  0.13434799109E+02 -0.30957622895E+02  0.34811036991E+02  0.00000000000E+00 0. -1.
         11    1    5    5    0    0 -0.22955104596E+02  0.15920919673E+02  0.28578202706E+03  0.28714417894E+03  0.00000000000E+00 0. -1.
        -12    1    5    5    0    0  0.23752041105E+01 -0.33985598592E+01 -0.46486612623E+01  0.62291135176E+01  0.00000000000E+00 0.  1.
          5    1    4    4  501    0 -0.26198630783E+02  0.45738518613E+02 -0.30818667661E+01  0.52965560911E+02  0.41800000000E+01 0. -1.
         -5    1    4    4    0  501  0.82557439692E+02 -0.23045831642E+02 -0.18075704716E+02  0.87698601503E+02  0.41800000000E+01 0. -1.
</event>
<event>
11    1  0.7577197E-009  0.1871192E+03  0.7561462E-02  0.1064025E+00
         22   -1    0    0    0    0  0.00000000000E+00  0.00000000000E+00  0.36255195048E+03  0.36255195048E+03  0.00000000000E+00 0.  1.
         22   -1    0    0    0    0 -0.00000000000E+00 -0.00000000000E+00 -0.60795897630E+03  0.60795897630E+03  0.00000000000E+00 0. -1.
        -24    2    1    2    0    0  0.54239330877E+02 -0.13758475679E+03 -0.41910722915E+03  0.45085339960E+03  0.75805330227E+02 0.  0.
         25    2    1    2    0    0 -0.65509896057E+01  0.11893005451E+03 -0.12033128663E+03  0.21051069113E+03  0.12509140341E+03 0.  0.
         24    2    1    2    0    0 -0.47688341272E+02  0.18654702280E+02  0.29403148996E+03  0.30914683606E+03  0.80592017894E+02 0.  0.
        -11    1    5    5    0    0 -0.69591510055E+02  0.10761013880E+02  0.19237498549E+03  0.20485827475E+03  0.00000000000E+00 0.  1.
         12    1    5    5    0    0  0.21903168783E+02  0.78936884008E+01  0.10165650447E+03  0.10428856131E+03  0.00000000000E+00 0. -1.
         13    1    3    3    0    0  0.46628192450E+02 -0.14691589018E+03 -0.38764976937E+03  0.41717000229E+03  0.00000000000E+00 0. -1.
        -14    1    3    3    0    0  0.76111384269E+01  0.93311333909E+01 -0.31457459779E+02  0.33683397309E+02  0.00000000000E+00 0.  1.
          5    1    4    4  501    0 -0.15067503265E+02  0.89066277517E+01 -0.95684561717E+02  0.97362032762E+02  0.41800000000E+01 0. -1.
         -5    1    4    4    0  501  0.85165136595E+01  0.11002342676E+03 -0.24646724910E+02  0.11314865836E+03  0.41800000000E+01 0. -1.
</event>
<event>
11    1  0.7577197E-009  0.1327066E+03  0.7561462E-02  0.1115988E+00
         22   -1    0    0    0    0  0.00000000000E+00  0.00000000000E+00  0.48384966296E+03  0.48384966296E+03  0.00000000000E+00 0.  1.
         22   -1    0    0    0    0 -0.00000000000E+00 -0.00000000000E+00 -0.30145345845E+04  0.30145345845E+04  0.00000000000E+00 0. -1.
         24    2    1    2    0    0 -0.41307604676E+02 -0.66340636156E+01 -0.19547315892E+04  0.19566011620E+04  0.74580108159E+02 0.  0.
         25    2    1    2    0    0  0.21664840888E+02 -0.33167701314E+02 -0.10504200995E+04  0.10585847611E+04  0.12509935768E+03 0.  0.
        -24    2    1    2    0    0  0.19642763788E+02  0.39801764929E+02  0.47446676717E+03  0.48319832427E+03  0.79949288747E+02 0.  0.
        -13    1    3    3    0    0 -0.46048191837E+02 -0.43315513742E+01 -0.57427418216E+03  0.57613369508E+03  0.00000000000E+00 0.  1.
         14    1    3    3    0    0  0.47405871612E+01 -0.23025122414E+01 -0.13804574070E+04  0.13804674669E+04  0.00000000000E+00 0. -1.
         11    1    5    5    0    0  0.35517778392E+02 -0.72845520279E+00  0.98317474655E+02  0.10453883992E+03  0.00000000000E+00 0. -1.
        -12    1    5    5    0    0 -0.15875014604E+02  0.40530220132E+02  0.37614929252E+03  0.37865948436E+03  0.00000000000E+00 0.  1.
          5    1    4    4  501    0  0.14693662641E+02  0.45976110941E+02 -0.51685183398E+03  0.51911751771E+03  0.41800000000E+01 0. -1.
         -5    1    4    4    0  501  0.69711782470E+01 -0.79143812255E+02 -0.53356826552E+03  0.53946724341E+03  0.41800000000E+01 0. -1.
</event>
<event>
11    1  0.7577197E-009  0.1794071E+03  0.7561462E-02  0.1070123E+00
         22   -1    0    0    0    0  0.00000000000E+00  0.00000000000E+00  0.17636262412E+04  0.17636262412E+04  0.00000000000E+00 0.  1.
         22   -1    0    0    0    0 -0.00000000000E+00 -0.00000000000E+00 -0.15510492127E+03  0.15510492127E+03  0.00000000000E+00 0. -1.
        -24    2    1    2    0    0 -0.10735292543E+02 -0.73436982389E+02 -0.94849583597E+02  0.14482454466E+03  0.80433005283E+02 0.  0.
         25    2    1    2    0    0 -0.10989341371E+03  0.11292576914E+03  0.29178106749E+03  0.35441892999E+03  0.12509114628E+03 0.  0.
         24    2    1    2    0    0  0.12062870625E+03 -0.39488786754E+02  0.14115898361E+04  0.14194876879E+04  0.79049235409E+02 0.  0.
        -11    1    5    5    0    0  0.97410417546E+02 -0.63302536716E+02  0.11183875555E+04  0.11244050537E+04  0.00000000000E+00 0.  1.
         12    1    5    5    0    0  0.23218288704E+02  0.23813749963E+02  0.29320228060E+03  0.29508263414E+03  0.00000000000E+00 0. -1.
         13    1    3    3    0    0 -0.17986914698E+02 -0.12081208937E+02 -0.77759070124E+02  0.80721482248E+02  0.00000000000E+00 0. -1.
        -14    1    3    3    0    0  0.72516221559E+01 -0.61355773451E+02 -0.17090513473E+02  0.64103062411E+02  0.00000000000E+00 0.  1.
          5    1    4    4  501    0 -0.17855266459E+02  0.46237969452E+01  0.15819486694E+03  0.15932130543E+03  0.41800000000E+01 0. -1.
         -5    1    4    4    0  501 -0.92038147248E+02  0.10830197220E+03  0.13358620054E+03  0.19509762455E+03  0.41800000000E+01 0. -1.
</event>
<event>
11    1  0.7577197E-009  0.1349694E+03  0.7561462E-02  0.1113310E+00
         22   -1    0    0    0    0  0.00000000000E+00  0.00000000000E+00  0.20610361017E+03  0.20610361017E+03  0.00000000000E+00 0. -1.
         22   -1    0    0    0    0 -0.00000000000E+00 -0.00000000000E+00 -0.27103224603E+04  0.27103224603E+04  0.00000000000E+00 0.  1.
        -24    2    1    2    0    0 -0.48334657469E+02 -0.16487429322E+02 -0.25713887749E+04  0.25731250247E+04  0.79524124745E+02 0.  0.
         25    2    1    2    0    0  0.36627690498E+02  0.44846223640E+01 -0.93726724822E+02  0.16060367951E+03  0.12508854215E+03 0.  0.
         24    2    1    2    0    0  0.11706966970E+02  0.12002806958E+02  0.16089664959E+03  0.18269736629E+03  0.84908629417E+02 0.  0.
        -11    1    5    5    0    0  0.35472864548E+02  0.33296740779E+02  0.62181026777E+02  0.78952372711E+02  0.00000000000E+00 0.  1.
         12    1    5    5    0    0 -0.23765897577E+02 -0.21293933821E+02  0.98715622816E+02  0.10374499358E+03  0.00000000000E+00 0. -1.
         13    1    3    3    0    0 -0.77728775761E+01 -0.28974483194E+02 -0.33682953991E+03  0.33816279698E+03  0.00000000000E+00 0. -1.
        -14    1    3    3    0    0 -0.40561779893E+02  0.12487053872E+02 -0.22345592350E+04  0.22349622277E+04  0.00000000000E+00 0.  1.
          5    1    4    4  501    0  0.47499509273E+02 -0.42461113974E+02 -0.11021376491E+02  0.64792690334E+02  0.41800000000E+01 0.  1.
         -5    1    4    4    0  501 -0.10871818774E+02  0.46945736338E+02 -0.82705348331E+02  0.95810989173E+02  0.41800000000E+01 0.  1.
</event>
<event>
11    1  0.7577197E-009  0.1412843E+03  0.7561462E-02  0.1106133E+00
         22   -1    0    0    0    0  0.00000000000E+00  0.00000000000E+00  0.14022209228E+04  0.14022209228E+04  0.00000000000E+00 0. -1.
         22   -1    0    0    0    0 -0.00000000000E+00 -0.00000000000E+00 -0.11233277407E+04  0.11233277407E+04  0.00000000000E+00 0. -1.
         24    2    1    2    0    0 -0.51743457033E+02 -0.25491829998E+02 -0.10961265773E+04  0.11006086070E+04  0.80737932905E+02 0.  0.
         25    2    1    2    0    0  0.11041462965E+00  0.69254327759E+02  0.20392780013E+03  0.24905972529E+03  0.12509206606E+03 0.  0.
        -24    2    1    2    0    0  0.51633042404E+02 -0.43762497762E+02  0.11710919592E+04  0.11758803312E+04  0.81590741659E+02 0.  0.
        -13    1    3    3    0    0 -0.26640482946E+02 -0.35829978387E+01 -0.89950708495E+02  0.93881218376E+02  0.00000000000E+00 0.  1.
         14    1    3    3    0    0 -0.25102974088E+02 -0.21908832159E+02 -0.10061758688E+04  0.10067273887E+04  0.00000000000E+00 0. -1.
         11    1    5    5    0    0  0.43126818911E+02 -0.59257619333E+02  0.11061621032E+04  0.11085873834E+04  0.00000000000E+00 0. -1.
        -12    1    5    5    0    0  0.85062234926E+01  0.15495121572E+02  0.64929855952E+02  0.67292947808E+02  0.00000000000E+00 0.  1.
          5    1    4    4  501    0  0.24213976009E+02 -0.23839754867E+02  0.10746937190E+03  0.11279090763E+03  0.41800000000E+01 0.  1.
         -5    1    4    4    0  501 -0.24103561379E+02  0.93094082626E+02  0.96458428230E+02  0.13626881766E+03  0.41800000000E+01 0.  1.
</event>
<event>
11    1  0.7577197E-009  0.2231859E+03  0.7561462E-02  0.1039240E+00
         22   -1    0    0    0    0  0.00000000000E+00  0.00000000000E+00  0.17660620232E+04  0.17660620232E+04  0.00000000000E+00 0. -1.
         22   -1    0    0    0    0 -0.00000000000E+00 -0.00000000000E+00 -0.98208112524E+02  0.98208112524E+02  0.00000000000E+00 0. -1.
         24    2    1    2    0    0  0.78073131920E+02 -0.21733694302E+01 -0.19657048650E+02  0.11402925296E+03  0.80722571228E+02 0.  0.
         25    2    1    2    0    0 -0.79789201197E+02  0.18468179632E+03  0.61405730246E+03  0.65816974613E+03  0.12508941402E+03 0.  0.
        -24    2    1    2    0    0  0.17160692778E+01 -0.18250842689E+03  0.10734536569E+04  0.10920711367E+04  0.83691954515E+02 0.  0.
        -13    1    3    3    0    0 -0.16343062365E+02  0.61566015352E+01 -0.45784846410E+01  0.18054416400E+02  0.00000000000E+00 0.  1.
         14    1    3    3    0    0  0.94416194284E+02 -0.83299709655E+01 -0.15078564009E+02  0.95974836556E+02  0.00000000000E+00 0. -1.
         13    1    5    5    0    0 -0.30124997737E+02 -0.41780397473E+02  0.40225302508E+03  0.40553743759E+03  0.00000000000E+00 0. -1.
        -14    1    5    5    0    0  0.31841067015E+02 -0.14072802942E+03  0.67120063181E+03  0.68653369906E+03  0.00000000000E+00 0.  1.
          5    1    4    4  501    0 -0.59631143380E+02  0.16399162053E+03  0.33644654645E+03  0.37902885891E+03  0.41800000000E+01 0.  1.
         -5    1    4    4    0  501 -0.20158057817E+02  0.20690175787E+02  0.27761075600E+03  0.27914088722E+03  0.41800000000E+01 0.  1.
</event>
<event>
11    1  0.7577197E-009  0.2872308E+03  0.7561462E-02  0.1005745E+00
         22   -1    0    0    0    0  0.00000000000E+00  0.00000000000E+00  0.12616652357E+03  0.12616652357E+03  0.00000000000E+00 0. -1.
         22   -1    0    0    0    0 -0.00000000000E+00 -0.00000000000E+00 -0.12732744161E+04  0.12732744161E+04  0.00000000000E+00 0. -1.
         24    2    1    2    0    0 -0.24901737071E+03  0.93982703055E+02 -0.55830584718E+03  0.62364359586E+03  0.79896910287E+02 0.  0.
         25    2    1    2    0    0  0.26326488414E+03  0.75278828255E+02 -0.26266180025E+03  0.39952085620E+03  0.12510152688E+03 0.  0.
        -24    2    1    2    0    0 -0.14247513432E+02 -0.16926153131E+03 -0.32614024511E+03  0.37627648761E+03  0.79775171747E+02 0.  0.
        -11    1    3    3    0    0 -0.11600747042E+03  0.60977719517E+02 -0.19131409014E+03  0.23189889296E+03  0.00000000000E+00 0.  1.
         12    1    3    3    0    0 -0.13300990029E+03  0.33004983539E+02 -0.36699175705E+03  0.39174470290E+03  0.00000000000E+00 0. -1.
         11    1    5    5    0    0  0.32230055508E+02 -0.58529174047E+02 -0.13311053010E+03  0.14893909465E+03  0.00000000000E+00 0. -1.
        -12    1    5    5    0    0 -0.46477568939E+02 -0.11073235726E+03 -0.19302971502E+03  0.22733739296E+03  0.00000000000E+00 0.  1.
          5    1    4    4  501    0  0.26049903429E+03  0.97306756124E+02 -0.24768767140E+03  0.37241778504E+03  0.41800000000E+01 0. -1.
         -5    1    4    4    0  501  0.27658498518E+01 -0.22027927869E+02 -0.14974128845E+02  0.27103071159E+02  0.41800000000E+01 0. -1.
</event>
<event>
11    1  0.7577197E-009  0.1800640E+03  0.7561462E-02  0.1069591E+00
         22   -1    0    0    0    0  0.00000000000E+00  0.00000000000E+00  0.76259787962E+03  0.76259787962E+03  0.00000000000E+00 0. -1.
         22   -1    0    0    0    0 -0.00000000000E+00 -0.00000000000E+00 -0.50763174966E+03  0.50763174966E+03  0.00000000000E+00 0.  1.
         24    2    1    2    0    0 -0.40536563152E+02 -0.12352392178E+03 -0.42642259863E+03  0.45267232540E+03  0.78578809850E+02 0.  0.
         25    2    1    2    0    0 -0.22176759047E+02  0.13710985104E+03  0.73137955714E+02  0.20070223658E+03  0.12506521222E+03 0.  0.
        -24    2    1    2    0    0  0.62713322199E+02 -0.13585929263E+02  0.60825077287E+03  0.61685506730E+03  0.80147570775E+02 0.  0.
        -13    1    3    3    0    0 -0.18212965739E+02 -0.12289604058E+03 -0.30711479451E+03  0.33129238735E+03  0.00000000000E+00 0.  1.
         14    1    3    3    0    0 -0.22323597412E+02 -0.62788119689E+00 -0.11930780412E+03  0.12137993805E+03  0.00000000000E+00 0. -1.
         11    1    5    5    0    0  0.33301795659E+02 -0.32091987585E+02  0.51933604368E+03  0.52139124612E+03  0.00000000000E+00 0. -1.
        -12    1    5    5    0    0  0.29411526540E+02  0.18506058322E+02  0.88914729191E+02  0.95463821184E+02  0.00000000000E+00 0.  1.
          5    1    4    4  501    0  0.31061158646E+02  0.12432535245E+03  0.32160152923E+02  0.13218674923E+03  0.41800000000E+01 0.  1.
         -5    1    4    4    0  501 -0.53237917694E+02  0.12784498598E+02  0.40977802790E+02  0.68515487346E+02  0.41800000000E+01 0.  1.
</event>
<event>
11    1  0.7577197E-009  0.1316466E+03  0.7561462E-02  0.1117262E+00
         22   -1    0    0    0    0  0.00000000000E+00  0.00000000000E+00  0.12784502947E+03  0.12784502947E+03  0.00000000000E+00 0.  1.
         22   -1    0    0    0    0 -0.00000000000E+00 -0.00000000000E+00 -0.72828729466E+03  0.72828729466E+03  0.00000000000E+00 0. -1.
        -24    2    1    2    0    0 -0.14692198921E+02 -0.16641854536E+02 -0.56888983077E+03  0.57499856820E+03  0.80590953935E+02 0.  0.
         25    2    1    2    0    0 -0.54207822513E+01  0.51046295483E+02 -0.98195310146E+02  0.16710710052E+03  0.12508938782E+03 0.  0.
         24    2    1    2    0    0  0.20112981173E+02 -0.34404440947E+02  0.66642875719E+02  0.11402665541E+03  0.83502141841E+02 0.  0.
        -13    1    5    5    0    0  0.38064285102E+02 -0.53488136397E+02  0.53643413022E+02  0.84779043968E+02  0.00000000000E+00 0.  1.
         14    1    5    5    0    0 -0.17951303929E+02  0.19083695450E+02  0.12999462697E+02  0.29247611444E+02  0.00000000000E+00 0. -1.
         13    1    3    3    0    0  0.17948393575E+01 -0.41176096603E+01 -0.53673913884E+03  0.53675793363E+03  0.00000000000E+00 0. -1.
        -14    1    3    3    0    0 -0.16487038279E+02 -0.12524244876E+02 -0.32150691927E+02  0.38240634570E+02  0.00000000000E+00 0.  1.
          5    1    4    4  501    0  0.22196656439E+02  0.10328630313E+02 -0.11288982375E+03  0.11558960536E+03  0.41800000000E+01 0.  1.
         -5    1    4    4    0  501 -0.27617438690E+02  0.40717665171E+02  0.14694513608E+02  0.51517495154E+02  0.41800000000E+01 0.  1.
</event>
<event>
11    1  0.7577197E-009  0.1383538E+03  0.7561462E-02  0.1109411E+00
         22   -1    0    0    0    0  0.00000000000E+00  0.00000000000E+00  0.56358055852E+03  0.56358055852E+03  0.00000000000E+00 0.  1.
         22   -1    0    0    0    0 -0.00000000000E+00 -0.00000000000E+00 -0.65761955026E+03  0.65761955026E+03  0.00000000000E+00 0. -1.
        -24    2    1    2    0    0 -0.28945777191E+02  0.20336678093E+02 -0.54726550610E+03  0.55538055235E+03  0.87730184427E+02 0.  0.
         25    2    1    2    0    0 -0.27650270737E+02 -0.40271310273E+02 -0.57213399792E+02  0.14597130080E+03  0.12509169293E+03 0.  0.
         24    2    1    2    0    0  0.56596047928E+02  0.19934632181E+02  0.51043991415E+03  0.51984825563E+03  0.78056394515E+02 0.  0.
        -13    1    5    5    0    0  0.67633372610E+02  0.88273521804E+01  0.48639567421E+03  0.49115470793E+03  0.00000000000E+00 0.  1.
         14    1    5    5    0    0 -0.11037324683E+02  0.11107280000E+02  0.24044239947E+02  0.28693547703E+02  0.00000000000E+00 0. -1.
         11    1    3    3    0    0 -0.46267645972E+02  0.26210589381E+02 -0.51897529463E+03  0.52169248269E+03  0.00000000000E+00 0. -1.
        -12    1    3    3    0    0  0.17321868781E+02 -0.58739112883E+01 -0.28290211478E+02  0.33688069660E+02  0.00000000000E+00 0.  1.
          5    1    4    4  501    0 -0.38437951304E+02  0.77071456772E+01  0.27403228520E+02  0.48013389052E+02  0.41800000000E+01 0. -1.
         -5    1    4    4    0  501  0.10787680567E+02 -0.47978455951E+02 -0.84616628312E+02  0.97957911750E+02  0.41800000000E+01 0. -1.
</event>
<event>
11    1  0.7577197E-009  0.1874577E+03  0.7561462E-02  0.1063765E+00
         22   -1    0    0    0    0  0.00000000000E+00  0.00000000000E+00  0.13058167191E+04  0.13058167191E+04  0.00000000000E+00 0.  1.
         22   -1    0    0    0    0 -0.00000000000E+00 -0.00000000000E+00 -0.22175885990E+03  0.22175885990E+03  0.00000000000E+00 0. -1.
        -24    2    1    2    0    0  0.89521945638E+01 -0.46703059602E+02 -0.17694045412E+03  0.20004638766E+03  0.80307629441E+02 0.  0.
         25    2    1    2    0    0  0.72607515934E+02  0.15184747940E+03  0.38782640503E+03  0.44089378512E+03  0.12509396845E+03 0.  0.
         24    2    1    2    0    0 -0.81559710497E+02 -0.10514441980E+03  0.87317190824E+03  0.88663540618E+03  0.77368125021E+02 0.  0.
        -13    1    5    5    0    0 -0.89584782919E+02 -0.73175031010E+02  0.76031343890E+03  0.76906211964E+03  0.00000000000E+00 0.  1.
         14    1    5    5    0    0  0.80250724215E+01 -0.31969388792E+02  0.11285846934E+03  0.11757328654E+03  0.00000000000E+00 0. -1.
         13    1    3    3    0    0  0.10143990131E+02 -0.53197453628E+02 -0.52484700730E+02  0.75415604612E+02  0.00000000000E+00 0. -1.
        -14    1    3    3    0    0 -0.11917955675E+01  0.64943940255E+01 -0.12445575339E+03  0.12463078304E+03  0.00000000000E+00 0.  1.
          5    1    4    4  501    0  0.41538801626E+02  0.21763174308E+02  0.22628715683E+03  0.23113298670E+03  0.41800000000E+01 0. -1.
         -5    1    4    4    0  501  0.31068714307E+02  0.13008430510E+03  0.16153924820E+03  0.20976079841E+03  0.41800000000E+01 0. -1.
</event>
<event>
11    1  0.7577197E-009  0.1317122E+03  0.7561462E-02  0.1117183E+00
         22   -1    0    0    0    0  0.00000000000E+00  0.00000000000E+00  0.44102607561E+03  0.44102607561E+03  0.00000000000E+00 0.  1.
         22   -1    0    0    0    0 -0.00000000000E+00 -0.00000000000E+00 -0.29715695855E+03  0.29715695855E+03  0.00000000000E+00 0.  1.
         24    2    1    2    0    0 -0.26181369610E+02 -0.30586169432E+02 -0.25872060929E+03  0.27377323796E+03  0.79965331730E+02 0.  0.
         25    2    1    2    0    0  0.44926874723E+02  0.57541103965E+02  0.23711123412E+03  0.27785371051E+03  0.12510613247E+03 0.  0.
        -24    2    1    2    0    0 -0.18745505113E+02 -0.26954934533E+02  0.16547849223E+03  0.18655608570E+03  0.79637172604E+02 0.  0.
        -11    1    3    3    0    0 -0.50751238083E+02 -0.24448174792E+02 -0.22287511146E+03  0.22988413761E+03  0.00000000000E+00 0.  1.
         12    1    3    3    0    0  0.24569868472E+02 -0.61379946402E+01 -0.35845497829E+02  0.43889100350E+02  0.00000000000E+00 0. -1.
         13    1    5    5    0    0 -0.13512847071E+02 -0.47568509977E+01 -0.45298828401E+01  0.15024796368E+02  0.00000000000E+00 0. -1.
        -14    1    5    5    0    0 -0.52326580422E+01 -0.22198083535E+02  0.17000837507E+03  0.17153128933E+03  0.00000000000E+00 0.  1.
          5    1    4    4  501    0  0.86454665771E+02  0.25661949406E+02  0.12654608518E+03  0.15544879850E+03  0.41800000000E+01 0.  1.
         -5    1    4    4    0  501 -0.41527791048E+02  0.31879154559E+02  0.11056514894E+03  0.12240491201E+03  0.41800000000E+01 0.  1.
</event>
<event>
11    1  0.7577197E-009  0.1408836E+03  0.7561462E-02  0.1106576E+00
         22   -1    0    0    0    0  0.00000000000E+00  0.00000000000E+00  0.54850489892E+03  0.54850489892E+03  0.00000000000E+00 0.  1.
         22   -1    0    0    0    0 -0.00000000000E+00 -0.00000000000E+00 -0.33440083442E+03  0.33440083442E+03  0.00000000000E+00 0. -1.
         24    2    1    2    0    0 -0.29589188845E+02 -0.31502357078E+02 -0.28715483579E+03  0.29941864434E+03  0.72977436683E+02 0.  0.
         25    2    1    2    0    0  0.47251900416E+02 -0.34509918094E+02  0.10516938769E+03  0.17358887165E+03  0.12509524258E+03 0.  0.
        -24    2    1    2    0    0 -0.17662711571E+02  0.66012275173E+02  0.39608951260E+03  0.40989821734E+03  0.80374465684E+02 0.  0.
        -11    1    3    3    0    0 -0.45309939622E+02  0.75953219174E+00 -0.11590966351E+03  0.12445327482E+03  0.00000000000E+00 0.  1.
         12    1    3    3    0    0  0.15720750777E+02 -0.32261889270E+02 -0.17124517228E+03  0.17496536953E+03  0.00000000000E+00 0. -1.
         11    1    5    5    0    0  0.15525479990E+02  0.10345867142E+02  0.16782707725E+02  0.25094556669E+02  0.00000000000E+00 0. -1.
        -12    1    5    5    0    0 -0.33188191561E+02  0.55666408031E+02  0.37930680487E+03  0.38480366067E+03  0.00000000000E+00 0.  1.
          5    1    4    4  501    0 -0.19504871548E+02 -0.30139781971E+02  0.10003303711E+03  0.10636224605E+03  0.41800000000E+01 0. -1.
         -5    1    4    4    0  501  0.66756771965E+02 -0.43701361236E+01  0.51363505814E+01  0.67226625605E+02  0.41800000000E+01 0. -1.
</event>
<event>
11    1  0.7577197E-009  0.1435609E+03  0.7561462E-02  0.1103646E+00
         22   -1    0    0    0    0  0.00000000000E+00  0.00000000000E+00  0.15096161022E+04  0.15096161022E+04  0.00000000000E+00 0.  1.
         22   -1    0    0    0    0 -0.00000000000E+00 -0.00000000000E+00 -0.11416933337E+03  0.11416933337E+03  0.00000000000E+00 0. -1.
        -24    2    1    2    0    0  0.74146593128E+02  0.96480555551E+01 -0.59870392840E+02  0.12507475665E+03  0.80426541406E+02 0.  0.
         25    2    1    2    0    0  0.43816873421E+01 -0.16964281835E+02  0.18876637291E+03  0.22712937313E+03  0.12509205632E+03 0.  0.
         24    2    1    2    0    0 -0.78528280470E+02  0.73162262800E+01  0.12665507888E+04  0.12715813058E+04  0.80919087693E+02 0.  0.
        -11    1    5    5    0    0 -0.46130471427E+02  0.42869893282E+02  0.83092195872E+03  0.83330495596E+03  0.00000000000E+00 0.  1.
         12    1    5    5    0    0 -0.32397809043E+02 -0.35553667002E+02  0.43562883008E+03  0.43827634988E+03  0.00000000000E+00 0. -1.
         13    1    3    3    0    0  0.68516826908E+02  0.39665794561E+02 -0.40749067100E+02  0.89041660458E+02  0.00000000000E+00 0. -1.
        -14    1    3    3    0    0  0.56297662200E+01 -0.30017739006E+02 -0.19121325740E+02  0.36033096187E+02  0.00000000000E+00 0.  1.
          5    1    4    4  501    0 -0.45758088605E+02 -0.47377234373E+02  0.11725612315E+03  0.13455436011E+03  0.41800000000E+01 0.  1.
         -5    1    4    4    0  501  0.50139775947E+02  0.30412952538E+02  0.71510249760E+02  0.92575013015E+02  0.41800000000E+01 0.  1.
</event>
<event>
11    1  0.7577197E-009  0.1707695E+03  0.7561462E-02  0.1077364E+00
         22   -1    0    0    0    0  0.00000000000E+00  0.00000000000E+00  0.69241801269E+03  0.69241801269E+03  0.00000000000E+00 0.  1.
         22   -1    0    0    0    0 -0.00000000000E+00 -0.00000000000E+00 -0.15421121439E+04  0.15421121439E+04  0.00000000000E+00 0. -1.
        -24    2    1    2    0    0 -0.22953542884E+02  0.80361535268E+01 -0.14800558894E+04  0.14824854276E+04  0.81278302435E+02 0.  0.
         25    2    1    2    0    0  0.68738284609E+02  0.98466558339E+02  0.94975977120E+02  0.19770967402E+03  0.12509222233E+03 0.  0.
         24    2    1    2    0    0 -0.45784741725E+02 -0.10650271187E+03  0.53538578104E+03  0.55433505499E+03  0.84913770648E+02 0.  0.
        -11    1    5    5    0    0 -0.44069593088E+02 -0.11632853363E+03  0.52643697272E+03  0.54093469386E+03  0.00000000000E+00 0.  1.
         12    1    5    5    0    0 -0.17151486363E+01  0.98258217653E+01  0.89488083154E+01  0.13400361132E+02  0.00000000000E+00 0. -1.
         13    1    3    3    0    0 -0.47228803976E+02  0.26285197279E+02 -0.10161776846E+04  0.10176141500E+04  0.00000000000E+00 0. -1.
        -14    1    3    3    0    0  0.24275261092E+02 -0.18249043752E+02 -0.46387820474E+03  0.46487127759E+03  0.00000000000E+00 0.  1.
          5    1    4    4  501    0  0.95282851602E+02  0.95193723022E+02  0.10284974870E+03  0.16951757997E+03  0.41800000000E+01 0.  1.
         -5    1    4    4    0  501 -0.26544566993E+02  0.32728353172E+01 -0.78737715757E+01  0.28192094046E+02  0.41800000000E+01 0.  1.
</event>
<event>
11    1  0.7577197E-009  0.1416117E+03  0.7561462E-02  0.1105772E+00
         22   -1    0    0    0    0  0.00000000000E+00  0.00000000000E+00  0.23739582507E+03  0.23739582507E+03  0.00000000000E+00 0.  1.
         22   -1    0    0    0    0 -0.00000000000E+00 -0.00000000000E+00 -0.28823460044E+03  0.28823460044E+03  0.00000000000E+00 0. -1.
        -24    2    1    2    0    0 -0.22950879374E+02 -0.70171997775E+01 -0.19417272119E+03  0.21299585171E+03  0.84191467696E+02 0.  0.
         25    2    1    2    0    0  0.75899790278E+02  0.38159672435E+02  0.18974902794E+02  0.15239353806E+03  0.12508718856E+03 0.  0.
         24    2    1    2    0    0 -0.52948910904E+02 -0.31142472657E+02  0.12435904303E+03  0.16024103575E+03  0.80240745184E+02 0.  0.
        -13    1    5    5    0    0 -0.47864328110E+02 -0.41738728558E+02  0.13181969039E+03  0.14632001279E+03  0.00000000000E+00 0.  1.
         14    1    5    5    0    0 -0.50845827942E+01  0.10596255901E+02 -0.74606473655E+01  0.13921022966E+02  0.00000000000E+00 0. -1.
         11    1    3    3    0    0 -0.17105756332E+02  0.34807551442E+02 -0.53218973573E+02  0.65851588327E+02  0.00000000000E+00 0. -1.
        -12    1    3    3    0    0 -0.58451230422E+01 -0.41824751219E+02 -0.14095374762E+03  0.14714426338E+03  0.00000000000E+00 0.  1.
          5    1    4    4  501    0 -0.71618503307E+01  0.40690383970E+02  0.48733502520E+02  0.64026760934E+02  0.41800000000E+01 0.  1.
         -5    1    4    4    0  501  0.83061640609E+02 -0.25307115351E+01 -0.29758599727E+02  0.88366777123E+02  0.41800000000E+01 0.  1.
</event>
<event>
11    1  0.7577197E-009  0.1559095E+03  0.7561462E-02  0.1090989E+00
         22   -1    0    0    0    0  0.00000000000E+00  0.00000000000E+00  0.10801247629E+04  0.10801247629E+04  0.00000000000E+00 0.  1.
         22   -1    0    0    0    0 -0.00000000000E+00 -0.00000000000E+00 -0.45358207376E+03  0.45358207376E+03  0.00000000000E+00 0.  1.
         24    2    1    2    0    0 -0.69132382729E+02  0.23304613230E+02 -0.33603692552E+03  0.35324010976E+03  0.80841625974E+02 0.  0.
         25    2    1    2    0    0  0.15846312978E+03 -0.67601123494E+01 -0.81625965103E+01  0.20215953118E+03  0.12508231468E+03 0.  0.
        -24    2    1    2    0    0 -0.89330747055E+02 -0.16544500880E+02  0.97074221119E+03  0.97830719572E+03  0.80565661096E+02 0.  0.
        -11    1    3    3    0    0 -0.30578148870E+02 -0.17530898998E+02 -0.23513501684E+03  0.23776213272E+03  0.00000000000E+00 0.  1.
         12    1    3    3    0    0 -0.38554233860E+02  0.40835512227E+02 -0.10090190868E+03  0.11547797705E+03  0.00000000000E+00 0. -1.
         13    1    5    5    0    0 -0.77031626722E+02 -0.44942725709E+02  0.77821990998E+03  0.78331344198E+03  0.00000000000E+00 0. -1.
        -14    1    5    5    0    0 -0.12299120333E+02  0.28398224829E+02  0.19252230121E+03  0.19499375374E+03  0.00000000000E+00 0.  1.
          5    1    4    4  501    0  0.15100497491E+03 -0.10791394654E+02 -0.49828925493E+02  0.15943447200E+03  0.41800000000E+01 0.  1.
         -5    1    4    4    0  501  0.74581548773E+01  0.40312823044E+01  0.41666328983E+02  0.42725059182E+02  0.41800000000E+01 0.  1.
</event>
<event>
11    1  0.7577197E-009  0.3731098E+03  0.7561462E-02  0.9732610E-01
         22   -1    0    0    0    0  0.00000000000E+00  0.00000000000E+00  0.14495532734E+03  0.14495532734E+03  0.00000000000E+00 0.  1.
         22   -1    0    0    0    0 -0.00000000000E+00 -0.00000000000E+00 -0.12101199130E+04  0.12101199130E+04  0.00000000000E+00 0. -1.
         24    2    1    2    0    0 -0.12155066812E+01  0.15629308439E+02 -0.22696178680E+03  0.23974679920E+03  0.75638100996E+02 0.  0.
         25    2    1    2    0    0  0.23331499693E+03  0.25572822027E+03 -0.41277008236E+03  0.55304461138E+03  0.12508553414E+03 0.  0.
        -24    2    1    2    0    0 -0.23209949024E+03 -0.27135752871E+03 -0.42543271651E+03  0.56228382976E+03  0.87550140937E+02 0.  0.
        -13    1    3    3    0    0  0.21835383604E+02 -0.47079158696E+01 -0.19157490810E+03  0.19287274007E+03  0.00000000000E+00 0.  1.
         14    1    3    3    0    0 -0.23050890285E+02  0.20337224309E+02 -0.35386878703E+02  0.46874059136E+02  0.00000000000E+00 0. -1.
         11    1    5    5    0    0 -0.18393591695E+03 -0.24990852398E+03 -0.32812967712E+03  0.45161463319E+03  0.00000000000E+00 0. -1.
        -12    1    5    5    0    0 -0.48163573297E+02 -0.21449004728E+02 -0.97303039385E+02  0.11066919657E+03  0.00000000000E+00 0.  1.
          5    1    4    4  501    0  0.22291118311E+03  0.21998934965E+03 -0.29803617111E+03  0.43235140939E+03  0.41800000000E+01 0.  1.
         -5    1    4    4    0  501  0.10403813817E+02  0.35738870623E+02 -0.11473391125E+03  0.12069320198E+03  0.41800000000E+01 0.  1.
</event>
<event>
11    1  0.7577197E-009  0.2503541E+03  0.7561462E-02  0.1023711E+00
         22   -1    0    0    0    0  0.00000000000E+00  0.00000000000E+00  0.38848181709E+03  0.38848181709E+03  0.00000000000E+00 0. -1.
         22   -1    0    0    0    0 -0.00000000000E+00 -0.00000000000E+00 -0.25525224578E+04  0.25525224578E+04  0.00000000000E+00 0. -1.
        -24    2    1    2    0    0  0.31304486424E+02  0.22195939839E+03 -0.23839855487E+04  0.23959622254E+04  0.83677618931E+02 0.  0.
         25    2    1    2    0    0 -0.10850281584E+03 -0.11501937001E+03 -0.72641687915E+02  0.21430918087E+03  0.12509713689E+03 0.  0.
         24    2    1    2    0    0  0.77198329420E+02 -0.10694002838E+03  0.29258659590E+03  0.33073286859E+03  0.79884682682E+02 0.  0.
        -13    1    5    5    0    0  0.42873959211E+02 -0.65918065907E+02  0.82613640367E+02  0.11405429131E+03  0.00000000000E+00 0.  1.
         14    1    5    5    0    0  0.34324370210E+02 -0.41021962474E+02  0.20997295553E+03  0.21667857728E+03  0.00000000000E+00 0. -1.
         13    1    3    3    0    0  0.19760095727E+02  0.11565914669E+03 -0.16577715607E+04  0.16619187847E+04  0.00000000000E+00 0. -1.
        -14    1    3    3    0    0  0.11544390697E+02  0.10630025171E+03 -0.72621398800E+03  0.73404344070E+03  0.00000000000E+00 0.  1.
          5    1    4    4  501    0 -0.12668363394E+03 -0.59010515805E+02 -0.34446925711E+02  0.14399669154E+03  0.41800000000E+01 0.  1.
         -5    1    4    4    0  501  0.18180818096E+02 -0.56008854208E+02 -0.38194762204E+02  0.70312489332E+02  0.41800000000E+01 0.  1.
</event>
<event>
11    1  0.7577197E-009  0.1703159E+03  0.7561462E-02  0.1077757E+00
         22   -1    0    0    0    0  0.00000000000E+00  0.00000000000E+00  0.40978099593E+03  0.40978099593E+03  0.00000000000E+00 0.  1.
         22   -1    0    0    0    0 -0.00000000000E+00 -0.00000000000E+00 -0.62843985569E+03  0.62843985569E+03  0.00000000000E+00 0. -1.
        -24    2    1    2    0    0  0.45158033472E+02 -0.44818694453E+02 -0.47642719253E+03  0.48771406497E+03  0.82669075365E+02 0.  0.
         25    2    1    2    0    0  0.24945043442E+02 -0.54822783857E+02 -0.95214079434E+02  0.16834312946E+03  0.12508355404E+03 0.  0.
         24    2    1    2    0    0 -0.70103076914E+02  0.99641478310E+02  0.35298241220E+03  0.38216365719E+03  0.81299520069E+02 0.  0.
        -11    1    5    5    0    0 -0.76399337586E+02  0.51036040929E+02  0.27611877113E+03  0.29100362889E+03  0.00000000000E+00 0.  1.
         12    1    5    5    0    0  0.62962606722E+01  0.48605437381E+02  0.76863641075E+02  0.91160028307E+02  0.00000000000E+00 0. -1.
         13    1    3    3    0    0  0.50895262864E+02 -0.39176801815E+02 -0.47526361485E+03  0.47958383332E+03  0.00000000000E+00 0. -1.
        -14    1    3    3    0    0 -0.57372293919E+01 -0.56418926381E+01 -0.11635776866E+01  0.81302316491E+01  0.00000000000E+00 0.  1.
          5    1    4    4  501    0  0.10727473854E+02  0.64485048266E+01 -0.10387779912E+03  0.10471261366E+03  0.41800000000E+01 0.  1.
         -5    1    4    4    0  501  0.14217569588E+02 -0.61271288684E+02  0.86637196865E+01  0.63630515798E+02  0.41800000000E+01 0.  1.
</event>
<event>
11    1  0.7577197E-009  0.1447622E+03  0.7561462E-02  0.1102354E+00
         22   -1    0    0    0    0  0.00000000000E+00  0.00000000000E+00  0.60945338050E+03  0.60945338050E+03  0.00000000000E+00 0. -1.
         22   -1    0    0    0    0 -0.00000000000E+00 -0.00000000000E+00 -0.33432529682E+03  0.33432529682E+03  0.00000000000E+00 0. -1.
         24    2    1    2    0    0 -0.59443285114E+02  0.42782061815E+02 -0.29810750341E+03  0.31879984625E+03  0.86031676825E+02 0.  0.
         25    2    1    2    0    0  0.49835922103E+02 -0.40977738034E+02  0.20937034046E+03  0.25228252504E+03  0.12509092226E+03 0.  0.
        -24    2    1    2    0    0  0.96073630109E+01 -0.18043237813E+01  0.36386524663E+03  0.37269630602E+03  0.80056616278E+02 0.  0.
        -11    1    3    3    0    0 -0.76491711508E+02  0.11925072705E+02 -0.19349785879E+03  0.20840971821E+03  0.00000000000E+00 0.  1.
         12    1    3    3    0    0  0.17048426395E+02  0.30856989110E+02 -0.10460964462E+03  0.11039012803E+03  0.00000000000E+00 0. -1.
         11    1    5    5    0    0  0.21127067631E+02  0.74831852374E+01  0.35444916111E+03  0.35515709040E+03  0.00000000000E+00 0. -1.
        -12    1    5    5    0    0 -0.11519704620E+02 -0.92875090187E+01  0.94160855230E+01  0.17539215629E+02  0.00000000000E+00 0.  1.
          5    1    4    4  501    0  0.81083359786E+02 -0.52960594611E+02  0.19022684315E+03  0.21350189711E+03  0.41800000000E+01 0.  1.
         -5    1    4    4    0  501 -0.31247437683E+02  0.11982856577E+02  0.19143497317E+02  0.38780627935E+02  0.41800000000E+01 0.  1.
</event>
<event>
11    1  0.7577197E-009  0.2699051E+03  0.7561462E-02  0.1013799E+00
         22   -1    0    0    0    0  0.00000000000E+00  0.00000000000E+00  0.15268837612E+03  0.15268837612E+03  0.00000000000E+00 0. -1.
         22   -1    0    0    0    0 -0.00000000000E+00 -0.00000000000E+00 -0.25060408636E+04  0.25060408636E+04  0.00000000000E+00 0. -1.
        -24    2    1    2    0    0 -0.16109269783E+03 -0.16123199084E+03 -0.11822621129E+04  0.12057498801E+04  0.64361926909E+02 0.  0.
         25    2    1    2    0    0  0.20174085176E+03  0.15642194288E+03 -0.12742358803E+04  0.13055618193E+04  0.12508952718E+03 0.  0.
         24    2    1    2    0    0 -0.40648153936E+02  0.48100479643E+01  0.10314550570E+03  0.14741754035E+03  0.97043943025E+02 0.  0.
        -13    1    5    5    0    0  0.28069869296E+02 -0.70726540369E+01  0.91142302668E+01  0.30348133234E+02  0.00000000000E+00 0.  1.
         14    1    5    5    0    0 -0.68718023232E+02  0.11882702001E+02  0.94031275429E+02  0.11706940712E+03  0.00000000000E+00 0. -1.
         11    1    3    3    0    0 -0.10676534447E+03 -0.14462417186E+03 -0.87362571193E+03  0.89192873841E+03  0.00000000000E+00 0. -1.
        -12    1    3    3    0    0 -0.54327353361E+02 -0.16607818983E+02 -0.30863640095E+03  0.31382114168E+03  0.00000000000E+00 0.  1.
          5    1    4    4  501    0  0.49268014502E+02  0.10480428771E+03 -0.39276890167E+03  0.40950721421E+03  0.41800000000E+01 0. -1.
         -5    1    4    4    0  501  0.15247283726E+03  0.51617655174E+02 -0.88146697864E+03  0.89605460506E+03  0.41800000000E+01 0. -1.
</event>
<event>
11    1  0.7577197E-009  0.2213363E+03  0.7561462E-02  0.1040384E+00
         22   -1    0    0    0    0  0.00000000000E+00  0.00000000000E+00  0.24411712684E+04  0.24411712684E+04  0.00000000000E+00 0. -1.
         22   -1    0    0    0    0 -0.00000000000E+00 -0.00000000000E+00 -0.42300594596E+03  0.42300594596E+03  0.00000000000E+00 0.  1.
        -24    2    1    2    0    0 -0.27312410581E+02  0.17983770470E+03 -0.35660892285E+03  0.40754143080E+03  0.76370977218E+02 0.  0.
         25    2    1    2    0    0  0.10174203649E+03 -0.17821738588E+03  0.32670355507E+03  0.40558641893E+03  0.12510895933E+03 0.  0.
         24    2    1    2    0    0 -0.74429625912E+02 -0.16203188179E+01  0.20480706902E+04  0.20510493646E+04  0.81655063423E+02 0.  0.
        -13    1    5    5    0    0  0.15223516813E+02 -0.59900571003E+01  0.58444478549E+03  0.58467370690E+03  0.00000000000E+00 0.  1.
         14    1    5    5    0    0 -0.89653142725E+02  0.43697382824E+01  0.14636259047E+04  0.14663756577E+04  0.00000000000E+00 0. -1.
         11    1    3    3    0    0 -0.15370015995E+02  0.42206946338E+01 -0.10051720910E+02  0.18843798665E+02  0.00000000000E+00 0. -1.
        -12    1    3    3    0    0 -0.11942394586E+02  0.17561701007E+03 -0.34655720194E+03  0.38869763214E+03  0.00000000000E+00 0.  1.
          5    1    4    4  501    0  0.91738709935E+02 -0.12677731527E+03  0.31496335488E+03  0.35172129006E+03  0.41800000000E+01 0. -1.
         -5    1    4    4    0  501  0.10003326557E+02 -0.51440070617E+02  0.11740200191E+02  0.53865128867E+02  0.41800000000E+01 0. -1.
</event>
<event>
11    1  0.7577197E-009  0.1447280E+03  0.7561462E-02  0.1102391E+00
         22   -1    0    0    0    0  0.00000000000E+00  0.00000000000E+00  0.39137392055E+03  0.39137392055E+03  0.00000000000E+00 0.  1.
         22   -1    0    0    0    0 -0.00000000000E+00 -0.00000000000E+00 -0.57036376281E+03  0.57036376281E+03  0.00000000000E+00 0. -1.
        -24    2    1    2    0    0 -0.50642048189E+02 -0.27554881452E+02 -0.51979899420E+03  0.52913361923E+03  0.80420793854E+02 0.  0.
         25    2    1    2    0    0  0.60850872894E+02 -0.49067495429E+02  0.14210885074E+03  0.20482408765E+03  0.12509010186E+03 0.  0.
         24    2    1    2    0    0 -0.10208824705E+02  0.76622376881E+02  0.19870030120E+03  0.22777997649E+03  0.80166696644E+02 0.  0.
        -13    1    5    5    0    0 -0.38728603483E+02  0.13677068115E+02  0.58563372234E+02  0.71530661170E+02  0.00000000000E+00 0.  1.
         14    1    5    5    0    0  0.28519778777E+02  0.62945308766E+02  0.14013692897E+03  0.15624931532E+03  0.00000000000E+00 0. -1.
         13    1    3    3    0    0 -0.66972349264E+02 -0.34662602641E+02 -0.33028311153E+03  0.33878271111E+03  0.00000000000E+00 0. -1.
        -14    1    3    3    0    0  0.16330301075E+02  0.71077211892E+01 -0.18951588267E+03  0.19035090811E+03  0.00000000000E+00 0.  1.
          5    1    4    4  501    0  0.19670917612E+02  0.73882656086E+01 -0.19333309142E+02  0.28857940169E+02  0.41800000000E+01 0. -1.
         -5    1    4    4    0  501  0.41179955282E+02 -0.56455761038E+02  0.16144215988E+03  0.17596614748E+03  0.41800000000E+01 0. -1.
</event>
<event>
11    1  0.7577197E-009  0.1381060E+03  0.7561462E-02  0.1109692E+00
         22   -1    0    0    0    0  0.00000000000E+00  0.00000000000E+00  0.24775404291E+03  0.24775404291E+03  0.00000000000E+00 0.  1.
         22   -1    0    0    0    0 -0.00000000000E+00 -0.00000000000E+00 -0.11061494548E+04  0.11061494548E+04  0.00000000000E+00 0.  1.
         24    2    1    2    0    0  0.12082387042E+02 -0.26996480129E+02 -0.10149879342E+04  0.10185742390E+04  0.80113542895E+02 0.  0.
         25    2    1    2    0    0  0.39797967699E+02 -0.74589005072E+01 -0.18667524252E+02  0.13280499178E+03  0.12509666642E+03 0.  0.
        -24    2    1    2    0    0 -0.51880354741E+02  0.34455380636E+02  0.17526004659E+03  0.20252426690E+03  0.80132704255E+02 0.  0.
        -13    1    3    3    0    0 -0.87039629117E+01 -0.29341638277E+02 -0.94575711690E+03  0.94625219411E+03  0.00000000000E+00 0.  1.
         14    1    3    3    0    0  0.20786349954E+02  0.23451581483E+01 -0.69230817329E+02  0.72322044904E+02  0.00000000000E+00 0. -1.
         13    1    5    5    0    0  0.17735462335E+02  0.14406331248E+02  0.17027907871E+02  0.28496291877E+02  0.00000000000E+00 0. -1.
        -14    1    5    5    0    0 -0.69615817076E+02  0.20049049388E+02  0.15823213872E+03  0.17402797503E+03  0.00000000000E+00 0.  1.
          5    1    4    4  501    0 -0.36095284212E+02 -0.26854299670E+02 -0.28992086366E+02  0.53684601377E+02  0.41800000000E+01 0. -1.
         -5    1    4    4    0  501  0.75893251911E+02  0.19395399162E+02  0.10324562114E+02  0.79120390401E+02  0.41800000000E+01 0. -1.
</event>
<event>
11    1  0.7577197E-009  0.1653284E+03  0.7561462E-02  0.1082170E+00
         22   -1    0    0    0    0  0.00000000000E+00  0.00000000000E+00  0.59669722781E+03  0.59669722781E+03  0.00000000000E+00 0. -1.
         22   -1    0    0    0    0 -0.00000000000E+00 -0.00000000000E+00 -0.27097706969E+04  0.27097706969E+04  0.00000000000E+00 0.  1.
        -24    2    1    2    0    0  0.54110591072E+02 -0.91899432453E+02 -0.25269587468E+04  0.25305023896E+04  0.80922024290E+02 0.  0.
         25    2    1    2    0    0 -0.53424605202E+02  0.14858390370E+03 -0.11912316866E+03  0.23402852492E+03  0.12509059231E+03 0.  0.
         24    2    1    2    0    0 -0.68598586947E+00 -0.56684471242E+02  0.53300844644E+03  0.54193701011E+03  0.79900682698E+02 0.  0.
        -13    1    5    5    0    0  0.22027929017E+02  0.70080005020E+00  0.30274256557E+03  0.30354370654E+03  0.00000000000E+00 0.  1.
         14    1    5    5    0    0 -0.22713914886E+02 -0.57385271293E+02  0.23026588087E+03  0.23839330357E+03  0.00000000000E+00 0. -1.
         13    1    3    3    0    0 -0.16312709903E+02 -0.96491651030E+01 -0.16912490302E+03  0.17018355888E+03  0.00000000000E+00 0. -1.
        -14    1    3    3    0    0  0.70423300974E+02 -0.82250267350E+02 -0.23578338438E+04  0.23603188308E+04  0.00000000000E+00 0.  1.
          5    1    4    4  501    0  0.49136927182E+01  0.51789047863E+02  0.18974820669E+02  0.55531667309E+02  0.41800000000E+01 0.  1.
         -5    1    4    4    0  501 -0.58338297920E+02  0.96794855832E+02 -0.13809798933E+03  0.17849685761E+03  0.41800000000E+01 0.  1.
</event>
<event>
11    1  0.7577197E-009  0.1304379E+03  0.7561462E-02  0.1118732E+00
         22   -1    0    0    0    0  0.00000000000E+00  0.00000000000E+00  0.79009155879E+02  0.79009155879E+02  0.00000000000E+00 0.  1.
         22   -1    0    0    0    0 -0.00000000000E+00 -0.00000000000E+00 -0.15285391516E+04  0.15285391516E+04  0.00000000000E+00 0.  1.
        -24    2    1    2    0    0  0.24757185628E+01 -0.20501307728E+01 -0.95614345665E+03  0.95953299514E+03  0.80516624674E+02 0.  0.
         25    2    1    2    0    0 -0.29374029867E+02 -0.23376841485E+02 -0.53497704178E+03  0.55068347632E+03  0.12507016235E+03 0.  0.
         24    2    1    2    0    0  0.26898311304E+02  0.25426972258E+02  0.41590502711E+02  0.97331836019E+02  0.79835244835E+02 0.  0.
        -11    1    5    5    0    0  0.37563279709E+02  0.45739072316E+02  0.44714349173E+02  0.74178404814E+02  0.00000000000E+00 0.  1.
         12    1    5    5    0    0 -0.10664968405E+02 -0.20312100058E+02 -0.31238464616E+01  0.23153431205E+02  0.00000000000E+00 0. -1.
         13    1    3    3    0    0  0.13693879326E+02 -0.26787491459E+02 -0.15296745039E+03  0.15589782843E+03  0.00000000000E+00 0. -1.
        -14    1    3    3    0    0 -0.11218160763E+02  0.24737360686E+02 -0.80317600626E+03  0.80363516671E+03  0.00000000000E+00 0.  1.
          5    1    4    4  501    0  0.97740373534E+01 -0.41361706574E+02 -0.59496005270E+02  0.73236395460E+02  0.41800000000E+01 0. -1.
         -5    1    4    4    0  501 -0.39148067221E+02  0.17984865090E+02 -0.47548103651E+03  0.47744708086E+03  0.41800000000E+01 0. -1.
</event>
<event>
11    1  0.7577197E-009  0.2317860E+03  0.7561462E-02  0.1034076E+00
         22   -1    0    0    0    0  0.00000000000E+00  0.00000000000E+00  0.30149383507E+04  0.30149383507E+04  0.00000000000E+00 0. -1.
         22   -1    0    0    0    0 -0.00000000000E+00 -0.00000000000E+00 -0.67254513033E+03  0.67254513033E+03  0.00000000000E+00 0.  1.
         24    2    1    2    0    0  0.18352742881E+03 -0.70719944152E+02 -0.59586233233E+03  0.63233700364E+03  0.78195520732E+02 0.  0.
         25    2    1    2    0    0 -0.16674764402E+03  0.61596390751E+02  0.14649803021E+03  0.26212533164E+03  0.12509646076E+03 0.  0.
        -24    2    1    2    0    0 -0.16779784789E+02  0.91235534016E+01  0.27917575225E+04  0.27930211457E+04  0.81806208673E+02 0.  0.
        -11    1    3    3    0    0  0.12444469261E+03 -0.83561192741E+02 -0.45472633832E+03  0.47879536047E+03  0.00000000000E+00 0.  1.
         12    1    3    3    0    0  0.59082736194E+02  0.12841248588E+02 -0.14113599401E+03  0.15354164317E+03  0.00000000000E+00 0. -1.
         11    1    5    5    0    0 -0.60182147030E+01 -0.23296468479E+02  0.22790148552E+04  0.22791418680E+04  0.00000000000E+00 0. -1.
        -12    1    5    5    0    0 -0.10761570086E+02  0.32420021881E+02  0.51274266727E+03  0.51387927770E+03  0.00000000000E+00 0.  1.
          5    1    4    4  501    0 -0.17388672173E+01  0.51462558416E+02  0.41162467803E+02  0.66054823696E+02  0.41800000000E+01 0. -1.
         -5    1    4    4    0  501 -0.16500877680E+03  0.10133832335E+02  0.10533556241E+03  0.19607050795E+03  0.41800000000E+01 0. -1.
</event>
<event>
11    1  0.7577197E-009  0.1295815E+03  0.7561462E-02  0.1119784E+00
         22   -1    0    0    0    0  0.00000000000E+00  0.00000000000E+00  0.35264135277E+03  0.35264135277E+03  0.00000000000E+00 0.  1.
         22   -1    0    0    0    0 -0.00000000000E+00 -0.00000000000E+00 -0.17887225667E+03  0.17887225667E+03  0.00000000000E+00 0.  1.
         24    2    1    2    0    0 -0.17940204406E+02  0.11007694294E+02 -0.91802587410E+02  0.12354632615E+03  0.79955984033E+02 0.  0.
         25    2    1    2    0    0  0.43789978660E+02  0.94443076242E+01  0.60985570659E+01  0.13301011714E+03  0.12509093367E+03 0.  0.
        -24    2    1    2    0    0 -0.25849774254E+02 -0.20452001919E+02  0.25947312644E+03  0.27495716615E+03  0.84785875369E+02 0.  0.
        -11    1    3    3    0    0 -0.35262232971E+02 -0.19681082582E+02 -0.73436833156E+02  0.83807747552E+02  0.00000000000E+00 0.  1.
         12    1    3    3    0    0  0.17322028565E+02  0.30688776877E+02 -0.18365754254E+02  0.39738578600E+02  0.00000000000E+00 0. -1.
         13    1    5    5    0    0 -0.28295617086E+02  0.21554542719E+01  0.20752935376E+02  0.35156397087E+02  0.00000000000E+00 0. -1.
        -14    1    5    5    0    0  0.24458428314E+01 -0.22607456191E+02  0.23872019106E+03  0.23980076907E+03  0.00000000000E+00 0.  1.
          5    1    4    4  501    0 -0.43148008981E+02  0.12029641716E+01 -0.89932740102E+01  0.44289379982E+02  0.41800000000E+01 0.  1.
         -5    1    4    4    0  501  0.86937987641E+02  0.82413434526E+01  0.15091831076E+02  0.88720737160E+02  0.41800000000E+01 0.  1.
</event>
<event>
11    1  0.7577197E-009  0.1731404E+03  0.7561462E-02  0.1075331E+00
         22   -1    0    0    0    0  0.00000000000E+00  0.00000000000E+00  0.11868921488E+04  0.11868921488E+04  0.00000000000E+00 0. -1.
         22   -1    0    0    0    0 -0.00000000000E+00 -0.00000000000E+00 -0.52587796149E+03  0.52587796149E+03  0.00000000000E+00 0. -1.
        -24    2    1    2    0    0 -0.77952773704E+01  0.15763095144E+02 -0.46241428428E+03  0.46994349225E+03  0.81918704132E+02 0.  0.
         25    2    1    2    0    0 -0.74455825251E+02  0.73119152742E+02  0.66413081845E+02  0.17592379585E+03  0.12509358136E+03 0.  0.
         24    2    1    2    0    0  0.82251102621E+02 -0.88882247886E+02  0.10570153897E+04  0.10669028222E+04  0.79591456474E+02 0.  0.
        -13    1    5    5    0    0 -0.12415372392E+02 -0.25698307786E+02  0.14230723909E+03  0.14514094802E+03  0.00000000000E+00 0.  1.
         14    1    5    5    0    0  0.94666475014E+02 -0.63183940100E+02  0.91470815065E+03  0.92176187416E+03  0.00000000000E+00 0. -1.
         13    1    3    3    0    0  0.67828229295E+01  0.46663501629E+02 -0.21010495774E+03  0.21533133153E+03  0.00000000000E+00 0. -1.
        -14    1    3    3    0    0 -0.14578100300E+02 -0.30900406484E+02 -0.25230932654E+03  0.25461216072E+03  0.00000000000E+00 0.  1.
          5    1    4    4  501    0 -0.52389518853E+02  0.10531752367E+03  0.69251924392E+02  0.13656406522E+03  0.41800000000E+01 0.  1.
         -5    1    4    4    0  501 -0.22066306398E+02 -0.32198370929E+02 -0.28388425469E+01  0.39359730633E+02  0.41800000000E+01 0.  1.
</event>
<event>
11    1  0.7577197E-009  0.1506337E+03  0.7561462E-02  0.1096233E+00
         22   -1    0    0    0    0  0.00000000000E+00  0.00000000000E+00  0.12074802912E+03  0.12074802912E+03  0.00000000000E+00 0. -1.
         22   -1    0    0    0    0 -0.00000000000E+00 -0.00000000000E+00 -0.44920273561E+03  0.44920273561E+03  0.00000000000E+00 0. -1.
         24    2    1    2    0    0 -0.38504831123E+01 -0.74937527471E+01 -0.16663181141E+03  0.18485164658E+03  0.79580073638E+02 0.  0.
         25    2    1    2    0    0  0.62675340433E+02  0.65478259232E+02 -0.20190209963E+03  0.25421752614E+03  0.12508593860E+03 0.  0.
        -24    2    1    2    0    0 -0.58824857320E+02 -0.57984506485E+02  0.40079204544E+02  0.13088159201E+03  0.93279588650E+02 0.  0.
        -13    1    3    3    0    0  0.18073379481E+02 -0.29094032716E+02 -0.32436973348E+02  0.47172736040E+02  0.00000000000E+00 0.  1.
         14    1    3    3    0    0 -0.21923862593E+02  0.21600279969E+02 -0.13419483806E+03  0.13767891054E+03  0.00000000000E+00 0. -1.
         13    1    5    5    0    0 -0.40598177190E+02 -0.82174573345E+02  0.41382735923E+02  0.10056541815E+03  0.00000000000E+00 0. -1.
        -14    1    5    5    0    0 -0.18226680131E+02  0.24190066860E+02 -0.13035313797E+01  0.30316173857E+02  0.00000000000E+00 0.  1.
          5    1    4    4  501    0 -0.14253793435E+02 -0.28989273146E+02 -0.42576198197E+02  0.53607402826E+02  0.41800000000E+01 0. -1.
         -5    1    4    4    0  501  0.76929133867E+02  0.94467532378E+02 -0.15932590143E+03  0.20061012332E+03  0.41800000000E+01 0. -1.
</event>
<event>
11    1  0.7577197E-009  0.2932630E+03  0.7561462E-02  0.1003083E+00
         22   -1    0    0    0    0  0.00000000000E+00  0.00000000000E+00  0.69615925680E+03  0.69615925680E+03  0.00000000000E+00 0.  1.
         22   -1    0    0    0    0 -0.00000000000E+00 -0.00000000000E+00 -0.82815997738E+03  0.82815997738E+03  0.00000000000E+00 0. -1.
         24    2    1    2    0    0 -0.24401634111E+03 -0.10902322661E+03 -0.60069212335E+03  0.66231258148E+03  0.79980559307E+02 0.  0.
         25    2    1    2    0    0  0.24811238836E+03  0.76665761003E+02 -0.85964192581E+02  0.30078997015E+03  0.12508943829E+03 0.  0.
        -24    2    1    2    0    0 -0.40960472513E+01  0.32357465610E+02  0.55465559535E+03  0.56121668254E+03  0.79104690860E+02 0.  0.
        -13    1    3    3    0    0 -0.41642618219E+02  0.11718492734E+02 -0.98181820971E+02  0.10728979771E+03  0.00000000000E+00 0.  1.
         14    1    3    3    0    0 -0.20237372289E+03 -0.12074171935E+03 -0.50251030238E+03  0.55502278377E+03  0.00000000000E+00 0. -1.
         13    1    5    5    0    0  0.20194558976E+02  0.43276780593E+02  0.20248622609E+03  0.20804175472E+03  0.00000000000E+00 0. -1.
        -14    1    5    5    0    0 -0.24290606227E+02 -0.10919314984E+02  0.35216936926E+03  0.35317492781E+03  0.00000000000E+00 0.  1.
          5    1    4    4  501    0 -0.68876875041E+01 -0.13678241654E+02  0.26298515470E+01  0.16091086136E+02  0.41800000000E+01 0. -1.
         -5    1    4    4    0  501  0.25500007586E+03  0.90344002656E+02 -0.88594044128E+02  0.28469888402E+03  0.41800000000E+01 0. -1.
</event>
<event>
11    1  0.7577197E-009  0.1421583E+03  0.7561462E-02  0.1105172E+00
         22   -1    0    0    0    0  0.00000000000E+00  0.00000000000E+00  0.69935483554E+03  0.69935483554E+03  0.00000000000E+00 0. -1.
         22   -1    0    0    0    0 -0.00000000000E+00 -0.00000000000E+00 -0.88205093118E+03  0.88205093118E+03  0.00000000000E+00 0. -1.
        -24    2    1    2    0    0 -0.13917077393E+02  0.67924474677E+02 -0.74696796817E+03  0.75487839374E+03  0.84100086590E+02 0.  0.
         25    2    1    2    0    0  0.24149440790E+02 -0.47128680250E+02 -0.92598076712E+02  0.16439909919E+03  0.12509337317E+03 0.  0.
         24    2    1    2    0    0 -0.10232363397E+02 -0.20795794427E+02  0.65686994924E+03  0.66212827378E+03  0.79990964534E+02 0.  0.
        -11    1    5    5    0    0 -0.16742148905E+01 -0.38081511131E+02  0.14599007396E+03  0.15088441331E+03  0.00000000000E+00 0.  1.
         12    1    5    5    0    0 -0.85581485067E+01  0.17285716703E+02  0.51087987528E+03  0.51124386047E+03  0.00000000000E+00 0. -1.
         13    1    3    3    0    0 -0.48637262705E+02  0.35489249934E+02 -0.47363386227E+03  0.47744539549E+03  0.00000000000E+00 0. -1.
        -14    1    3    3    0    0  0.34720185312E+02  0.32435224744E+02 -0.27333410589E+03  0.27743299825E+03  0.00000000000E+00 0.  1.
          5    1    4    4  501    0  0.11256298316E+02  0.11499360375E+02 -0.10213007378E+03  0.10347446018E+03  0.41800000000E+01 0.  1.
         -5    1    4    4    0  501  0.12893142474E+02 -0.58628040625E+02  0.95319970635E+01  0.60924639009E+02  0.41800000000E+01 0.  1.
</event>
<event>
11    1  0.7577197E-009  0.1333755E+03  0.7561462E-02  0.1115190E+00
         22   -1    0    0    0    0  0.00000000000E+00  0.00000000000E+00  0.42268879974E+02  0.42268879974E+02  0.00000000000E+00 0.  1.
         22   -1    0    0    0    0 -0.00000000000E+00 -0.00000000000E+00 -0.82107730528E+03  0.82107730528E+03  0.00000000000E+00 0.  1.
        -24    2    1    2    0    0 -0.71079602559E+01  0.48906707924E+01 -0.38113139118E+03  0.38747123848E+03  0.69270351132E+02 0.  0.
         25    2    1    2    0    0  0.44288007702E+02 -0.29681915619E+02 -0.34346953905E+03  0.36940693236E+03  0.12509082172E+03 0.  0.
         24    2    1    2    0    0 -0.37180047446E+02  0.24791244826E+02 -0.54207495078E+02  0.10646801442E+03  0.80000148896E+02 0.  0.
        -13    1    5    5    0    0  0.11090471812E+02 -0.21543994800E+02 -0.19431371210E+02  0.31059949518E+02  0.00000000000E+00 0.  1.
         14    1    5    5    0    0 -0.48270519258E+02  0.46335239626E+02 -0.34776123868E+02  0.75408064900E+02  0.00000000000E+00 0. -1.
         11    1    3    3    0    0  0.18312841477E+02  0.63185491234E+01 -0.31959964597E+02  0.37372764990E+02  0.00000000000E+00 0. -1.
        -12    1    3    3    0    0 -0.25420801733E+02 -0.14278783310E+01 -0.34917142658E+03  0.35009847349E+03  0.00000000000E+00 0.  1.
          5    1    4    4  501    0 -0.36154789462E+02 -0.37931691142E+02 -0.17055047775E+03  0.17846826008E+03  0.41800000000E+01 0. -1.
         -5    1    4    4    0  501  0.80442797164E+02  0.82497755233E+01 -0.17291906130E+03  0.19093867228E+03  0.41800000000E+01 0. -1.
</event>
<event>
11    1  0.7577197E-009  0.2144678E+03  0.7561462E-02  0.1044739E+00
         22   -1    0    0    0    0  0.00000000000E+00  0.00000000000E+00  0.19341512012E+04  0.19341512012E+04  0.00000000000E+00 0.  1.
         22   -1    0    0    0    0 -0.00000000000E+00 -0.00000000000E+00 -0.13717323098E+03  0.13717323098E+03  0.00000000000E+00 0. -1.
         24    2    1    2    0    0  0.84120495112E+02 -0.14226149505E+03 -0.21354747612E+02  0.18632245975E+03  0.83339324977E+02 0.  0.
         25    2    1    2    0    0 -0.12360772571E+03  0.20201003526E+03  0.54666125309E+03  0.60874728698E+03  0.12509120505E+03 0.  0.
        -24    2    1    2    0    0  0.39487230597E+02 -0.59748540205E+02  0.12716714647E+04  0.12762546854E+04  0.80923287572E+02 0.  0.
        -13    1    3    3    0    0  0.29118294017E+02 -0.56618554081E+02  0.32158824500E+02  0.71328295268E+02  0.00000000000E+00 0.  1.
         14    1    3    3    0    0  0.55002201095E+02 -0.85642940972E+02 -0.53513572112E+02  0.11499416448E+03  0.00000000000E+00 0. -1.
         13    1    5    5    0    0  0.39122294660E+02 -0.10194277142E+02  0.23903255141E+03  0.24242738677E+03  0.00000000000E+00 0. -1.
        -14    1    5    5    0    0  0.36493593703E+00 -0.49554263063E+02  0.10326389133E+04  0.10338272986E+04  0.00000000000E+00 0.  1.
          5    1    4    4  501    0 -0.21486863038E+02  0.14223921643E+03  0.36002324118E+03  0.38772140328E+03  0.41800000000E+01 0.  1.
         -5    1    4    4    0  501 -0.10212086267E+03  0.59770818823E+02  0.18663801191E+03  0.22102588370E+03  0.41800000000E+01 0.  1.
</event>
<event>
11    1  0.7577197E-009  0.1917243E+03  0.7561462E-02  0.1060535E+00
         22   -1    0    0    0    0  0.00000000000E+00  0.00000000000E+00  0.61434614965E+03  0.61434614965E+03  0.00000000000E+00 0.  1.
         22   -1    0    0    0    0 -0.00000000000E+00 -0.00000000000E+00 -0.26304518757E+03  0.26304518757E+03  0.00000000000E+00 0. -1.
         24    2    1    2    0    0  0.13917157042E+03  0.29701876195E+02 -0.11208424645E+03  0.19739735233E+03  0.78434105719E+02 0.  0.
         25    2    1    2    0    0 -0.12728261255E+03 -0.10677247995E+03  0.49245655705E+01  0.20801969848E+03  0.12508684055E+03 0.  0.
        -24    2    1    2    0    0 -0.11888957876E+02  0.77070603751E+02  0.45846064296E+03  0.47197428641E+03  0.80575061928E+02 0.  0.
        -13    1    3    3    0    0  0.33266699675E+01 -0.14423934902E+02  0.15410746013E+01  0.14882591914E+02  0.00000000000E+00 0.  1.
         14    1    3    3    0    0  0.13584490046E+03  0.44125811097E+02 -0.11362532105E+03  0.18251476042E+03  0.00000000000E+00 0. -1.
         11    1    5    5    0    0 -0.25583150941E+02  0.69027156104E+02  0.20154918850E+03  0.21457241499E+03  0.00000000000E+00 0. -1.
        -12    1    5    5    0    0  0.13694193065E+02  0.80434476468E+01  0.25691145447E+03  0.25740187142E+03  0.00000000000E+00 0.  1.
          5    1    4    4  501    0 -0.21324662150E+02 -0.99197211770E+02 -0.83920071461E+00  0.10155296498E+03  0.41800000000E+01 0.  1.
         -5    1    4    4    0  501 -0.10595795040E+03 -0.75752681751E+01  0.57637662851E+01  0.10646673350E+03  0.41800000000E+01 0.  1.
</event>
<event>
11    1  0.7577197E-009  0.2018162E+03  0.7561462E-02  0.1053247E+00
         22   -1    0    0    0    0  0.00000000000E+00  0.00000000000E+00  0.24187021550E+03  0.24187021550E+03  0.00000000000E+00 0. -1.
         22   -1    0    0    0    0 -0.00000000000E+00 -0.00000000000E+00 -0.63010699491E+03  0.63010699491E+03  0.00000000000E+00 0.  1.
        -24    2    1    2    0    0  0.15000004998E+03  0.40645781713E+02 -0.49008237049E+03  0.52099088732E+03  0.84253666046E+02 0.  0.
         25    2    1    2    0    0 -0.19657014555E+03  0.26132710633E+01  0.79637902001E+02  0.24623261310E+03  0.12506659430E+03 0.  0.
         24    2    1    2    0    0  0.46570095573E+02 -0.43259052776E+02  0.22207689081E+02  0.10475370999E+03  0.80249852671E+02 0.  0.
        -11    1    5    5    0    0  0.19377707883E+02 -0.13707063677E+01 -0.27907839552E+02  0.34003263185E+02  0.00000000000E+00 0.  1.
         12    1    5    5    0    0  0.27192387689E+02 -0.41888346409E+02  0.50115528633E+02  0.70750446806E+02  0.00000000000E+00 0. -1.
         11    1    3    3    0    0 -0.79216745945E+01 -0.73390416544E+01 -0.19319911319E+02  0.22133084605E+02  0.00000000000E+00 0. -1.
        -12    1    3    3    0    0  0.15792172457E+03  0.47984823368E+02 -0.47076245917E+03  0.49885780272E+03  0.00000000000E+00 0.  1.
          5    1    4    4  501    0 -0.15782800287E+03  0.30993411880E+02  0.95669168604E+01  0.16118085609E+03  0.41800000000E+01 0.  1.
         -5    1    4    4    0  501 -0.38742142676E+02 -0.28380140817E+02  0.70070985140E+02  0.85051757010E+02  0.41800000000E+01 0.  1.
</event>
<event>
11    1  0.7577197E-009  0.2355193E+03  0.7561462E-02  0.1031909E+00
         22   -1    0    0    0    0  0.00000000000E+00  0.00000000000E+00  0.83287855729E+03  0.83287855729E+03  0.00000000000E+00 0. -1.
         22   -1    0    0    0    0 -0.00000000000E+00 -0.00000000000E+00 -0.31092564852E+03  0.31092564852E+03  0.00000000000E+00 0. -1.
         24    2    1    2    0    0 -0.38926612523E+02 -0.18358462050E+03 -0.18148039888E+03  0.27320321461E+03  0.80537365556E+02 0.  0.
         25    2    1    2    0    0  0.97029556960E+02  0.27145031744E+03  0.26109944596E+03  0.40857222130E+03  0.12513324730E+03 0.  0.
        -24    2    1    2    0    0 -0.58102944438E+02 -0.87865696940E+02  0.44233386168E+03  0.46202876989E+03  0.81945141190E+02 0.  0.
        -13    1    3    3    0    0 -0.16794898065E+02 -0.11439806606E+02 -0.54457623671E+02  0.58125472490E+02  0.00000000000E+00 0.  1.
         14    1    3    3    0    0 -0.22131714457E+02 -0.17214481389E+03 -0.12702277521E+03  0.21507774212E+03  0.00000000000E+00 0. -1.
         11    1    5    5    0    0 -0.36555021144E+02 -0.98825670240E+02  0.39585357111E+03  0.40963744022E+03  0.00000000000E+00 0. -1.
        -12    1    5    5    0    0 -0.21547923294E+02  0.10959973300E+02  0.46480290577E+02  0.52391329675E+02  0.00000000000E+00 0.  1.
          5    1    4    4  501    0  0.96677362784E+01  0.90316996661E+02  0.15860236280E+03  0.18281905507E+03  0.41800000000E+01 0.  1.
         -5    1    4    4    0  501  0.87361820682E+02  0.18113332078E+03  0.10249708316E+03  0.22575316623E+03  0.41800000000E+01 0.  1.
</event>
<event>
11    1  0.7577197E-009  0.2537128E+03  0.7561462E-02  0.1021940E+00
         22   -1    0    0    0    0  0.00000000000E+00  0.00000000000E+00  0.15790976723E+04  0.15790976723E+04  0.00000000000E+00 0.  1.
         22   -1    0    0    0    0 -0.00000000000E+00 -0.00000000000E+00 -0.22352392683E+03  0.22352392683E+03  0.00000000000E+00 0. -1.
        -24    2    1    2    0    0 -0.18369043083E+03  0.16064386549E+01 -0.71780365305E+02  0.21183307827E+03  0.77305091575E+02 0.  0.
         25    2    1    2    0    0  0.25169812771E+03 -0.20098592753E+03  0.35603910373E+03  0.49614365334E+03  0.12508953117E+03 0.  0.
         24    2    1    2    0    0 -0.68007696876E+02  0.19937948887E+03  0.10713150071E+04  0.10946448675E+04  0.78449437413E+02 0.  0.
        -13    1    5    5    0    0 -0.11774125115E+02  0.84461431343E+02  0.60945196279E+03  0.61538935509E+03  0.00000000000E+00 0.  1.
         14    1    5    5    0    0 -0.56233571761E+02  0.11491805753E+03  0.46186304426E+03  0.47925551243E+03  0.00000000000E+00 0. -1.
         11    1    3    3    0    0 -0.19136309602E+03  0.24619991550E+01 -0.67079969862E+02  0.20279452240E+03  0.00000000000E+00 0. -1.
        -12    1    3    3    0    0  0.76726651922E+01 -0.85556050017E+00 -0.47003954430E+01  0.90385558715E+01  0.00000000000E+00 0.  1.
          5    1    4    4  501    0  0.22319821797E+03 -0.15891612619E+03  0.35043167475E+03  0.44485009917E+03  0.41800000000E+01 0. -1.
         -5    1    4    4    0  501  0.28499909741E+02 -0.42069801334E+02  0.56074289864E+01  0.51293554170E+02  0.41800000000E+01 0. -1.
</event>
<event>
11    1  0.7577197E-009  0.1688094E+03  0.7561462E-02  0.1079072E+00
         22   -1    0    0    0    0  0.00000000000E+00  0.00000000000E+00  0.18278048181E+04  0.18278048181E+04  0.00000000000E+00 0.  1.
         22   -1    0    0    0    0 -0.00000000000E+00 -0.00000000000E+00 -0.21195862561E+03  0.21195862561E+03  0.00000000000E+00 0.  1.
         24    2    1    2    0    0 -0.49014022742E+02 -0.98842965728E+02 -0.16299123649E+03  0.21280788987E+03  0.80924338235E+02 0.  0.
         25    2    1    2    0    0  0.75894486398E+02  0.16495962709E+03  0.53818895897E+03  0.58160565075E+03  0.12508447462E+03 0.  0.
        -24    2    1    2    0    0 -0.26880463656E+02 -0.66116661358E+02  0.12406484701E+04  0.12453499031E+04  0.81202110716E+02 0.  0.
        -11    1    3    3    0    0 -0.49762254926E+02 -0.13704330963E+02 -0.58280558181E+02  0.77850588722E+02  0.00000000000E+00 0.  1.
         12    1    3    3    0    0  0.74823218381E+00 -0.85138634765E+02 -0.10471067830E+03  0.13495730114E+03  0.00000000000E+00 0. -1.
         13    1    5    5    0    0 -0.85779297642E+01 -0.12788205645E+02  0.33325540126E+02  0.36711179596E+02  0.00000000000E+00 0. -1.
        -14    1    5    5    0    0 -0.18302533891E+02 -0.53328455713E+02  0.12073229299E+04  0.12086387236E+04  0.00000000000E+00 0.  1.
          5    1    4    4  501    0  0.24802318969E+02  0.16542904086E+03  0.44190408743E+03  0.47252366869E+03  0.41800000000E+01 0.  1.
         -5    1    4    4    0  501  0.51092167429E+02 -0.46941377560E+00  0.96284871536E+02  0.10908198205E+03  0.41800000000E+01 0.  1.
</event>
<event>
11    1  0.7577197E-009  0.1360945E+03  0.7561462E-02  0.1112000E+00
         22   -1    0    0    0    0  0.00000000000E+00  0.00000000000E+00  0.25554847398E+04  0.25554847398E+04  0.00000000000E+00 0.  1.
         22   -1    0    0    0    0 -0.00000000000E+00 -0.00000000000E+00 -0.23024836065E+03  0.23024836065E+03  0.00000000000E+00 0.  1.
         24    2    1    2    0    0  0.50785508361E+02 -0.12974272977E+02 -0.21107967164E+03  0.23201634711E+03  0.80805061280E+02 0.  0.
         25    2    1    2    0    0 -0.10400754429E+02 -0.31184924653E+02  0.55533302700E+03  0.57019573764E+03  0.12509089943E+03 0.  0.
        -24    2    1    2    0    0 -0.40384753932E+02  0.44159197630E+02  0.19809830238E+04  0.19835210157E+04  0.80504137298E+02 0.  0.
        -11    1    3    3    0    0  0.21215846043E+02 -0.16802314369E+02 -0.19733896957E+03  0.19918609088E+03  0.00000000000E+00 0.  1.
         12    1    3    3    0    0  0.29569662317E+02  0.38280413926E+01 -0.13740702070E+02  0.32830256226E+02  0.00000000000E+00 0. -1.
         11    1    5    5    0    0 -0.41871488075E+02  0.20206259729E+02  0.45895777196E+03  0.46130656931E+03  0.00000000000E+00 0. -1.
        -12    1    5    5    0    0  0.14867341434E+01  0.23952937901E+02  0.15220252518E+04  0.15222144464E+04  0.00000000000E+00 0.  1.
          5    1    4    4  501    0 -0.30490562158E+02 -0.74313120492E+02  0.38379055271E+03  0.39212851848E+03  0.41800000000E+01 0.  1.
         -5    1    4    4    0  501  0.20089807729E+02  0.43128195839E+02  0.17154247429E+03  0.17806721915E+03  0.41800000000E+01 0.  1.
</event>
<event>
11    1  0.7577197E-009  0.1468297E+03  0.7561462E-02  0.1100163E+00
         22   -1    0    0    0    0  0.00000000000E+00  0.00000000000E+00  0.14237209892E+04  0.14237209892E+04  0.00000000000E+00 0.  1.
         22   -1    0    0    0    0 -0.00000000000E+00 -0.00000000000E+00 -0.21168512360E+04  0.21168512360E+04  0.00000000000E+00 0.  1.
         24    2    1    2    0    0 -0.77150766329E+02 -0.31320806227E+01 -0.20719708511E+04  0.20749800283E+04  0.80727067835E+02 0.  0.
         25    2    1    2    0    0  0.51235568218E+02  0.26074758459E+02  0.71098894956E+02  0.15494315725E+03  0.12508937859E+03 0.  0.
        -24    2    1    2    0    0  0.25915198111E+02 -0.22942677837E+02  0.13077417093E+04  0.13106490395E+04  0.80090964200E+02 0.  0.
        -13    1    3    3    0    0 -0.11688570851E+02 -0.41756673668E+01 -0.13474353131E+04  0.13474924793E+04  0.00000000000E+00 0.  1.
         14    1    3    3    0    0 -0.65462195479E+02  0.10435867442E+01 -0.72453553800E+03  0.72748754899E+03  0.00000000000E+00 0. -1.
         13    1    5    5    0    0 -0.66049873430E+01  0.26866666007E+02  0.44452842176E+03  0.44538855099E+03  0.00000000000E+00 0. -1.
        -14    1    5    5    0    0  0.32520185454E+02 -0.49809343844E+02  0.86321328758E+03  0.86526048855E+03  0.00000000000E+00 0.  1.
          5    1    4    4  501    0 -0.14817079157E+01 -0.44844548032E+02  0.67869948609E+01  0.45571533283E+02  0.41800000000E+01 0. -1.
         -5    1    4    4    0  501  0.52717276134E+02  0.70919306491E+02  0.64311900095E+02  0.10937162397E+03  0.41800000000E+01 0. -1.
</event>
<event>
11    1  0.7577197E-009  0.1529099E+04  0.7561462E-02  0.8293334E-01
         22   -1    0    0    0    0  0.00000000000E+00  0.00000000000E+00  0.98011330648E+03  0.98011330648E+03  0.00000000000E+00 0.  1.
         22   -1    0    0    0    0 -0.00000000000E+00 -0.00000000000E+00 -0.59639640507E+03  0.59639640507E+03  0.00000000000E+00 0.  1.
         24    2    1    2    0    0 -0.64448525155E+03  0.25609677584E+03  0.87327585749E+02  0.70292406716E+03  0.74359524633E+02 0.  0.
         25    2    1    2    0    0  0.67227940812E+03 -0.26984072900E+03  0.27524037960E+03  0.78496935391E+03  0.12508396540E+03 0.  0.
        -24    2    1    2    0    0 -0.27794156574E+02  0.13743953155E+02  0.21148936058E+02  0.88616290485E+02  0.80275513420E+02 0.  0.
        -13    1    3    3    0    0 -0.24851567071E+03  0.13179897716E+03  0.55156186974E+02  0.28665870636E+03  0.00000000000E+00 0.  1.
         14    1    3    3    0    0 -0.39596958084E+03  0.12429779868E+03  0.32171398775E+02  0.41626536080E+03  0.00000000000E+00 0. -1.
         11    1    5    5    0    0  0.24590837152E+02 -0.12364812222E+02  0.68766761868E+01  0.28370522176E+02  0.00000000000E+00 0. -1.
        -12    1    5    5    0    0 -0.52384993727E+02  0.26108765378E+02  0.14272259871E+02  0.60245768309E+02  0.00000000000E+00 0.  1.
          5    1    4    4  501    0  0.22704152517E+03 -0.30779448132E+02  0.10064824892E+03  0.25028537909E+03  0.41800000000E+01 0. -1.
         -5    1    4    4    0  501  0.44523788295E+03 -0.23906128086E+03  0.17459213068E+03  0.53468397481E+03  0.41800000000E+01 0. -1.
</event>
<event>
11    1  0.7577197E-009  0.1386341E+03  0.7561462E-02  0.1109093E+00
         22   -1    0    0    0    0  0.00000000000E+00  0.00000000000E+00  0.23467253991E+03  0.23467253991E+03  0.00000000000E+00 0.  1.
         22   -1    0    0    0    0 -0.00000000000E+00 -0.00000000000E+00 -0.58161386641E+03  0.58161386641E+03  0.00000000000E+00 0. -1.
         24    2    1    2    0    0 -0.14874292857E+01 -0.30626610695E+02 -0.49661717015E+03  0.50457900056E+03  0.83851967119E+02 0.  0.
         25    2    1    2    0    0 -0.14015168278E+01 -0.35529349407E+02  0.18359614897E+01  0.13003482820E+03  0.12506553031E+03 0.  0.
        -24    2    1    2    0    0  0.28889461135E+01  0.66155960102E+02  0.14783988216E+03  0.18167257755E+03  0.82239513696E+02 0.  0.
        -11    1    3    3    0    0  0.33823089014E+02 -0.40258358746E+02 -0.28089355431E+03  0.28577250682E+03  0.00000000000E+00 0.  1.
         12    1    3    3    0    0 -0.35310518300E+02  0.96317480514E+01 -0.21572361584E+03  0.21880649374E+03  0.00000000000E+00 0. -1.
         11    1    5    5    0    0  0.19284929132E+02 -0.13957688680E+02  0.32581195590E+02  0.40351702207E+02  0.00000000000E+00 0. -1.
        -12    1    5    5    0    0 -0.16395983018E+02  0.80113648782E+02  0.11525868657E+03  0.14132087535E+03  0.00000000000E+00 0.  1.
          5    1    4    4  501    0  0.31898175634E+02  0.26534334101E+02  0.32728763979E+02  0.53011403363E+02  0.41800000000E+01 0.  1.
         -5    1    4    4    0  501 -0.33299692461E+02 -0.62063683508E+02 -0.30892802490E+02  0.77023424841E+02  0.41800000000E+01 0.  1.
</event>
<event>
11    1  0.7577197E-009  0.2022011E+03  0.7561462E-02  0.1052978E+00
         22   -1    0    0    0    0  0.00000000000E+00  0.00000000000E+00  0.14279909713E+04  0.14279909713E+04  0.00000000000E+00 0. -1.
         22   -1    0    0    0    0 -0.00000000000E+00 -0.00000000000E+00 -0.73912660593E+03  0.73912660593E+03  0.00000000000E+00 0. -1.
         24    2    1    2    0    0  0.59390753804E+02 -0.15325119385E+02 -0.69720772987E+03  0.70444638764E+03  0.79899771889E+02 0.  0.
         25    2    1    2    0    0 -0.18474549868E+02  0.16847948151E+03  0.32796442809E+03  0.38978736135E+03  0.12508747458E+03 0.  0.
        -24    2    1    2    0    0 -0.40916203936E+02 -0.15315436213E+03  0.10581076671E+04  0.10728838282E+04  0.79733802152E+02 0.  0.
        -13    1    3    3    0    0  0.14176962053E+02  0.20469292064E+02 -0.64869071902E+02  0.69483628720E+02  0.00000000000E+00 0.  1.
         14    1    3    3    0    0  0.45213791751E+02 -0.35794411449E+02 -0.63233865797E+03  0.63496275892E+03  0.00000000000E+00 0. -1.
         11    1    5    5    0    0  0.47734511359E+00 -0.12978742658E+03  0.79205296990E+03  0.80261629131E+03  0.00000000000E+00 0. -1.
        -12    1    5    5    0    0 -0.41393549050E+02 -0.23366935553E+02  0.26605469721E+03  0.27026753687E+03  0.00000000000E+00 0.  1.
          5    1    4    4  501    0  0.48946776456E+02  0.55940524243E+02  0.80370348929E+02  0.10955361502E+03  0.41800000000E+01 0.  1.
         -5    1    4    4    0  501 -0.67421326323E+02  0.11253895727E+03  0.24759407916E+03  0.28023374633E+03  0.41800000000E+01 0.  1.
</event>
<event>
11    1  0.7577197E-009  0.1473043E+03  0.7561462E-02  0.1099665E+00
         22   -1    0    0    0    0  0.00000000000E+00  0.00000000000E+00  0.73379450017E+02  0.73379450017E+02  0.00000000000E+00 0.  1.
         22   -1    0    0    0    0 -0.00000000000E+00 -0.00000000000E+00 -0.15531554295E+04  0.15531554295E+04  0.00000000000E+00 0. -1.
        -24    2    1    2    0    0 -0.16071496313E+02  0.77657622287E+02 -0.13074522901E+04  0.13122676158E+04  0.79534930378E+02 0.  0.
         25    2    1    2    0    0 -0.14184657150E+02 -0.66134405247E+02 -0.18047839561E+03  0.22977055273E+03  0.12508833506E+03 0.  0.
         24    2    1    2    0    0  0.30256153462E+02 -0.11523217040E+02  0.81547062518E+01  0.84496711012E+02  0.77620716207E+02 0.  0.
        -13    1    5    5    0    0  0.63107283797E+01 -0.31294072890E+02  0.32108988046E+02  0.45278376782E+02  0.00000000000E+00 0.  1.
         14    1    5    5    0    0  0.23945425083E+02  0.19770855850E+02 -0.23954281794E+02  0.39218334229E+02  0.00000000000E+00 0. -1.
         11    1    3    3    0    0 -0.14701836139E+02  0.93722518909E+02 -0.10350347387E+04  0.10393733520E+04  0.00000000000E+00 0. -1.
        -12    1    3    3    0    0 -0.13696601739E+01 -0.16064896622E+02 -0.27241755146E+03  0.27289426380E+03  0.00000000000E+00 0.  1.
          5    1    4    4  501    0 -0.50218561326E+02 -0.21585205366E+02 -0.15941979855E+03  0.16858223383E+03  0.41800000000E+01 0.  1.
         -5    1    4    4    0  501  0.36033904176E+02 -0.44549199882E+02 -0.21058597052E+02  0.61188318903E+02  0.41800000000E+01 0.  1.
</event>
<event>
11    1  0.7577197E-009  0.1398040E+03  0.7561462E-02  0.1107777E+00
         22   -1    0    0    0    0  0.00000000000E+00  0.00000000000E+00  0.18800309033E+03  0.18800309033E+03  0.00000000000E+00 0. -1.
         22   -1    0    0    0    0 -0.00000000000E+00 -0.00000000000E+00 -0.10362060276E+04  0.10362060276E+04  0.00000000000E+00 0.  1.
         24    2    1    2    0    0  0.64639965215E+02  0.69426792936E+00 -0.65853798623E+03  0.66631592226E+03  0.78267629529E+02 0.  0.
         25    2    1    2    0    0 -0.51821323193E+02 -0.37521474370E+02 -0.34814288031E+03  0.37542585910E+03  0.12509116672E+03 0.  0.
        -24    2    1    2    0    0 -0.12818642022E+02  0.36827206441E+02  0.15847792925E+03  0.18246733661E+03  0.81599719064E+02 0.  0.
        -11    1    3    3    0    0  0.63298581507E+02  0.14187288029E+02 -0.64036248025E+03  0.64363972506E+03  0.00000000000E+00 0.  1.
         12    1    3    3    0    0  0.13413837077E+01 -0.13493020099E+02 -0.18175505981E+02  0.22676197197E+02  0.00000000000E+00 0. -1.
         11    1    5    5    0    0 -0.11360340164E+02  0.37197544734E+02  0.16819557212E+03  0.17263390497E+03  0.00000000000E+00 0. -1.
        -12    1    5    5    0    0 -0.14583018581E+01 -0.37033829289E+00 -0.97176428734E+01  0.98334316378E+01  0.00000000000E+00 0.  1.
          5    1    4    4  501    0  0.27481943193E+02  0.12961043567E+02 -0.18129570497E+03  0.18387183279E+03  0.41800000000E+01 0.  1.
         -5    1    4    4    0  501 -0.79303266386E+02 -0.50482517938E+02 -0.16684717534E+03  0.19155402631E+03  0.41800000000E+01 0.  1.
</event>
<event>
11    1  0.7577197E-009  0.1555201E+03  0.7561462E-02  0.1091368E+00
         22   -1    0    0    0    0  0.00000000000E+00  0.00000000000E+00  0.31254960225E+04  0.31254960225E+04  0.00000000000E+00 0. -1.
         22   -1    0    0    0    0 -0.00000000000E+00 -0.00000000000E+00 -0.59911891282E+02  0.59911891282E+02  0.00000000000E+00 0.  1.
        -24    2    1    2    0    0  0.46977625316E+02  0.79528992640E+02  0.16636596031E+02  0.12609396678E+03  0.84208991090E+02 0.  0.
         25    2    1    2    0    0 -0.23204272635E+02 -0.93710773095E+02  0.16834396875E+04  0.16908405964E+04  0.12511032635E+03 0.  0.
         24    2    1    2    0    0 -0.23773352681E+02  0.14181780456E+02  0.13655078476E+04  0.13684733505E+04  0.85681584856E+02 0.  0.
        -13    1    5    5    0    0  0.64631277571E+01 -0.10378881934E+02  0.29978036874E+02  0.32375544867E+02  0.00000000000E+00 0.  1.
         14    1    5    5    0    0 -0.30236480438E+02  0.24560662389E+02  0.13355298107E+04  0.13360978057E+04  0.00000000000E+00 0. -1.
         13    1    3    3    0    0  0.42277028395E+02 -0.22108745440E+01  0.12382897118E+02  0.44108629963E+02  0.00000000000E+00 0. -1.
        -14    1    3    3    0    0  0.47005969204E+01  0.81739867184E+02  0.42536989129E+01  0.81985336818E+02  0.00000000000E+00 0.  1.
          5    1    4    4  501    0 -0.60318353997E+02 -0.38730560567E+01  0.61073634396E+03  0.61373419215E+03  0.41800000000E+01 0.  1.
         -5    1    4    4    0  501  0.37114081362E+02 -0.89837717039E+02  0.10727033436E+04  0.10771064043E+04  0.41800000000E+01 0.  1.
</event>
<event>
11    1  0.7577197E-009  0.1423837E+03  0.7561462E-02  0.1104925E+00
         22   -1    0    0    0    0  0.00000000000E+00  0.00000000000E+00  0.34099937462E+03  0.34099937462E+03  0.00000000000E+00 0. -1.
         22   -1    0    0    0    0 -0.00000000000E+00 -0.00000000000E+00 -0.24231615047E+04  0.24231615047E+04  0.00000000000E+00 0. -1.
         24    2    1    2    0    0  0.61628489943E+02  0.28377469630E+02 -0.23560712668E+04  0.23584240285E+04  0.80552667813E+02 0.  0.
         25    2    1    2    0    0 -0.99862254410E+02  0.13961721987E+02  0.62793773282E+02  0.17250227680E+03  0.12508628223E+03 0.  0.
        -24    2    1    2    0    0  0.38233764467E+02 -0.42339191617E+02  0.21111536342E+03  0.23323457406E+03  0.81081699373E+02 0.  0.
        -13    1    3    3    0    0  0.56176064039E+02  0.49621102584E+02 -0.21231062663E+04  0.21244289167E+04  0.00000000000E+00 0.  1.
         14    1    3    3    0    0  0.54524259033E+01 -0.21243632954E+02 -0.23296500046E+03  0.23399511176E+03  0.00000000000E+00 0. -1.
         13    1    5    5    0    0  0.61300571589E+02 -0.15249147841E+02  0.14475091485E+03  0.15793392269E+03  0.00000000000E+00 0. -1.
        -14    1    5    5    0    0 -0.23066807121E+02 -0.27090043777E+02  0.66364448574E+02  0.75300651373E+02  0.00000000000E+00 0.  1.
          5    1    4    4  501    0 -0.57668635533E+02 -0.37673329648E+02 -0.14309665193E+02  0.70478296013E+02  0.41800000000E+01 0.  1.
         -5    1    4    4    0  501 -0.42193618877E+02  0.51635051635E+02  0.77103438475E+02  0.10202398079E+03  0.41800000000E+01 0.  1.
</event>
<event>
11    1  0.7577197E-009  0.1386309E+03  0.7561462E-02  0.1109097E+00
         22   -1    0    0    0    0  0.00000000000E+00  0.00000000000E+00  0.92062431374E+03  0.92062431374E+03  0.00000000000E+00 0. -1.
         22   -1    0    0    0    0 -0.00000000000E+00 -0.00000000000E+00 -0.18686282847E+04  0.18686282847E+04  0.00000000000E+00 0.  1.
         24    2    1    2    0    0  0.38161204339E+02 -0.45831373308E+02 -0.18136110505E+04  0.18161187568E+04  0.74468141663E+02 0.  0.
         25    2    1    2    0    0 -0.23284470301E+02  0.71292448964E+02  0.51758539045E+02  0.15476096342E+03  0.12508888679E+03 0.  0.
        -24    2    1    2    0    0 -0.14876734038E+02 -0.25461075657E+02  0.81384854047E+03  0.81837287822E+03  0.80716401007E+02 0.  0.
        -11    1    3    3    0    0  0.48134468599E+02 -0.57497193764E+02 -0.16715411566E+04  0.16732222484E+04  0.00000000000E+00 0.  1.
         12    1    3    3    0    0 -0.99732642603E+01  0.11665820456E+02 -0.14206989387E+03  0.14289650840E+03  0.00000000000E+00 0. -1.
         13    1    5    5    0    0 -0.23201337855E+02  0.10801962646E+01  0.72273003855E+03  0.72310315829E+03  0.00000000000E+00 0. -1.
        -14    1    5    5    0    0  0.83246038169E+01 -0.26541271921E+02  0.91118501915E+02  0.95269719928E+02  0.00000000000E+00 0.  1.
          5    1    4    4  501    0 -0.96102326367E+01  0.14119101865E+02  0.85202891325E+02  0.86998337335E+02  0.41800000000E+01 0.  1.
         -5    1    4    4    0  501 -0.13674237664E+02  0.57173347099E+02 -0.33444352280E+02  0.67762626083E+02  0.41800000000E+01 0.  1.
</event>
<event>
11    1  0.7577197E-009  0.1558471E+03  0.7561462E-02  0.1091050E+00
         22   -1    0    0    0    0  0.00000000000E+00  0.00000000000E+00  0.32087172845E+04  0.32087172845E+04  0.00000000000E+00 0.  1.
         22   -1    0    0    0    0 -0.00000000000E+00 -0.00000000000E+00 -0.65485067816E+02  0.65485067816E+02  0.00000000000E+00 0.  1.
        -24    2    1    2    0    0  0.89756257658E+02 -0.11843278124E+02  0.78727386556E+01  0.12269557181E+03  0.82436486467E+02 0.  0.
         25    2    1    2    0    0 -0.14231636944E+03  0.44541812608E+02  0.14534110356E+04  0.14663865036E+04  0.12509123559E+03 0.  0.
         24    2    1    2    0    0  0.52560111777E+02 -0.32698534483E+02  0.16819484424E+04  0.16851202770E+04  0.82752797135E+02 0.  0.
        -11    1    5    5    0    0  0.64367711895E+01 -0.22458191998E+02  0.13067477527E+04  0.13069565760E+04  0.00000000000E+00 0.  1.
         12    1    5    5    0    0  0.46123340588E+02 -0.10240342485E+02  0.37520068974E+03  0.37816370099E+03  0.00000000000E+00 0. -1.
         11    1    3    3    0    0  0.27663163905E+01 -0.10840202397E+02  0.30766895676E+02  0.32737812449E+02  0.00000000000E+00 0. -1.
        -12    1    3    3    0    0  0.86989941268E+02 -0.10030757273E+01 -0.22894157021E+02  0.89957759356E+02  0.00000000000E+00 0.  1.
          5    1    4    4  501    0 -0.11692429400E+03  0.56997194944E+02  0.13979065256E+04  0.14039516008E+04  0.41800000000E+01 0. -1.
         -5    1    4    4    0  501 -0.25392075433E+02 -0.12455382336E+02  0.55504510036E+02  0.62434902725E+02  0.41800000000E+01 0. -1.
</event>
<event>
11    1  0.7577197E-009  0.1362154E+03  0.7561462E-02  0.1111860E+00
         22   -1    0    0    0    0  0.00000000000E+00  0.00000000000E+00  0.16560872456E+03  0.16560872456E+03  0.00000000000E+00 0. -1.
         22   -1    0    0    0    0 -0.00000000000E+00 -0.00000000000E+00 -0.42610934023E+03  0.42610934023E+03  0.00000000000E+00 0. -1.
         24    2    1    2    0    0  0.35430925082E+02 -0.31573253660E+02 -0.26082485471E+03  0.27713929241E+03  0.80773521434E+02 0.  0.
         25    2    1    2    0    0 -0.66000007005E+02  0.57038747380E+02 -0.96250768621E+02  0.18033562731E+03  0.12508920174E+03 0.  0.
        -24    2    1    2    0    0  0.30569081923E+02 -0.25465493721E+02  0.96575007668E+02  0.13424314507E+03  0.84329886465E+02 0.  0.
        -11    1    3    3    0    0 -0.22200426368E+02 -0.40529569702E+01 -0.12535364497E+03  0.12736884116E+03  0.00000000000E+00 0.  1.
         12    1    3    3    0    0  0.57631351449E+02 -0.27520296690E+02 -0.13547120975E+03  0.14977045126E+03  0.00000000000E+00 0. -1.
         11    1    5    5    0    0  0.58826309539E+02 -0.11309241264E+02  0.50386470882E+02  0.78276625373E+02  0.00000000000E+00 0. -1.
        -12    1    5    5    0    0 -0.28257227615E+02 -0.14156252457E+02  0.46188536786E+02  0.55966519693E+02  0.00000000000E+00 0.  1.
          5    1    4    4  501    0  0.31919500535E+02  0.39705471356E+02 -0.19734490039E+02  0.54793261147E+02  0.41800000000E+01 0. -1.
         -5    1    4    4    0  501 -0.97919507540E+02  0.17333276024E+02 -0.76516278582E+02  0.12554236617E+03  0.41800000000E+01 0. -1.
</event>
<event>
11    1  0.7577197E-009  0.2229565E+03  0.7561462E-02  0.1039381E+00
         22   -1    0    0    0    0  0.00000000000E+00  0.00000000000E+00  0.50750091846E+03  0.50750091846E+03  0.00000000000E+00 0. -1.
         22   -1    0    0    0    0 -0.00000000000E+00 -0.00000000000E+00 -0.16447301835E+04  0.16447301835E+04  0.00000000000E+00 0.  1.
         24    2    1    2    0    0 -0.18142935914E+03  0.40000813997E+00 -0.14935860399E+04  0.15066933496E+04  0.80055097768E+02 0.  0.
         25    2    1    2    0    0  0.33655182369E+03 -0.24459646638E+02  0.21686483560E+03  0.42017064939E+03  0.12509042067E+03 0.  0.
        -24    2    1    2    0    0 -0.15512246455E+03  0.24059638498E+02  0.13949193931E+03  0.22536710295E+03  0.81795383415E+02 0.  0.
        -11    1    3    3    0    0 -0.17746086511E+03  0.10548681619E+02 -0.14700139939E+04  0.14807244091E+04  0.00000000000E+00 0.  1.
         12    1    3    3    0    0 -0.39684940392E+01 -0.10148673479E+02 -0.23572045991E+02  0.25968940497E+02  0.00000000000E+00 0. -1.
         11    1    5    5    0    0 -0.53356717272E+02 -0.28471654309E+02  0.64805583470E+02  0.88641626937E+02  0.00000000000E+00 0. -1.
        -12    1    5    5    0    0 -0.10176574727E+03  0.52531292807E+02  0.74686355840E+02  0.13672547601E+03  0.00000000000E+00 0.  1.
          5    1    4    4  501    0  0.19657201282E+02  0.23113771024E+02 -0.41031341693E+01  0.30902428436E+02  0.41800000000E+01 0.  1.
         -5    1    4    4    0  501  0.31689462241E+03 -0.47573417662E+02  0.22096796977E+03  0.38926822095E+03  0.41800000000E+01 0.  1.
</event>
<event>
11    1  0.7577197E-009  0.1667237E+03  0.7561462E-02  0.1080918E+00
         22   -1    0    0    0    0  0.00000000000E+00  0.00000000000E+00  0.12274637539E+04  0.12274637539E+04  0.00000000000E+00 0. -1.
         22   -1    0    0    0    0 -0.00000000000E+00 -0.00000000000E+00 -0.18763671188E+04  0.18763671188E+04  0.00000000000E+00 0.  1.
         24    2    1    2    0    0 -0.43902722521E+01 -0.41555593170E+02 -0.17643538813E+04  0.17667271739E+04  0.81450272229E+02 0.  0.
         25    2    1    2    0    0  0.66287997786E+02  0.13120316924E+03 -0.19875868216E+02  0.19403858635E+03  0.12509017782E+03 0.  0.
        -24    2    1    2    0    0 -0.61897725534E+02 -0.89647576065E+02  0.11353263846E+04  0.11430651124E+04  0.75919927842E+02 0.  0.
        -13    1    3    3    0    0 -0.24103041192E+02 -0.16266197876E+01 -0.13041933460E+04  0.13044170676E+04  0.00000000000E+00 0.  1.
         14    1    3    3    0    0  0.19712768940E+02 -0.39928973382E+02 -0.46016053531E+03  0.46231010635E+03  0.00000000000E+00 0. -1.
         13    1    5    5    0    0 -0.73065338115E+02 -0.95443062552E+02  0.10301920038E+04  0.10371805468E+04  0.00000000000E+00 0. -1.
        -14    1    5    5    0    0  0.11167612581E+02  0.57954864873E+01  0.10513438070E+03  0.10588456564E+03  0.00000000000E+00 0.  1.
          5    1    4    4  501    0 -0.41981098964E+01  0.77344193281E+02  0.39660991103E+02  0.87121839835E+02  0.41800000000E+01 0. -1.
         -5    1    4    4    0  501  0.70486107682E+02  0.53858975954E+02 -0.59536859319E+02  0.10691674651E+03  0.41800000000E+01 0. -1.
</event>
<event>
11    1  0.7577197E-009  0.1464271E+03  0.7561462E-02  0.1100586E+00
         22   -1    0    0    0    0  0.00000000000E+00  0.00000000000E+00  0.11205838513E+03  0.11205838513E+03  0.00000000000E+00 0.  1.
         22   -1    0    0    0    0 -0.00000000000E+00 -0.00000000000E+00 -0.14291286429E+04  0.14291286429E+04  0.00000000000E+00 0.  1.
         24    2    1    2    0    0 -0.66510717980E+02 -0.42422545600E+02 -0.11615340132E+04  0.11671984867E+04  0.83472724092E+02 0.  0.
         25    2    1    2    0    0  0.47179676383E+02  0.32411355698E+02 -0.22610445064E+03  0.26466501295E+03  0.12509168094E+03 0.  0.
        -24    2    1    2    0    0  0.19331041597E+02  0.10011189901E+02  0.70568206024E+02  0.10932352837E+03  0.80609236831E+02 0.  0.
        -11    1    3    3    0    0 -0.29206707674E+02 -0.60653003737E+02 -0.88598740000E+03  0.88854121547E+03  0.00000000000E+00 0.  1.
         12    1    3    3    0    0 -0.37304010306E+02  0.18230458138E+02 -0.27554661315E+03  0.27865727123E+03  0.00000000000E+00 0. -1.
         11    1    5    5    0    0  0.17348725075E+02 -0.17979746080E+02 -0.77262693636E+01  0.26152337737E+02  0.00000000000E+00 0. -1.
        -12    1    5    5    0    0  0.19823165216E+01  0.27990935982E+02  0.78294475387E+02  0.83171190638E+02  0.00000000000E+00 0.  1.
          5    1    4    4  501    0  0.18215879306E+02 -0.20366241221E+02  0.29456360429E+01  0.27798403049E+02  0.41800000000E+01 0. -1.
         -5    1    4    4    0  501  0.28963797077E+02  0.52777596919E+02 -0.22905008668E+03  0.23686660990E+03  0.41800000000E+01 0. -1.
</event>
<event>
11    1  0.7577197E-009  0.1308475E+03  0.7561462E-02  0.1118232E+00
         22   -1    0    0    0    0  0.00000000000E+00  0.00000000000E+00  0.16255056867E+04  0.16255056867E+04  0.00000000000E+00 0. -1.
         22   -1    0    0    0    0 -0.00000000000E+00 -0.00000000000E+00 -0.14462306833E+03  0.14462306833E+03  0.00000000000E+00 0. -1.
        -24    2    1    2    0    0 -0.41092879392E+02 -0.25283163082E+02 -0.61125691990E+02  0.11223438911E+03  0.80822922523E+02 0.  0.
         25    2    1    2    0    0  0.94284992770E+01  0.67706554083E+01  0.12969663804E+02  0.12629005620E+03  0.12508488215E+03 0.  0.
         24    2    1    2    0    0  0.31664380115E+02  0.18512507674E+02  0.15290386466E+04  0.15316043097E+04  0.80667422243E+02 0.  0.
        -13    1    5    5    0    0  0.21149712879E+02  0.21499738836E+02  0.17910452814E+03  0.18162593737E+03  0.00000000000E+00 0.  1.
         14    1    5    5    0    0  0.10514667236E+02 -0.29872311628E+01  0.13499341184E+04  0.13499783724E+04  0.00000000000E+00 0. -1.
         11    1    3    3    0    0 -0.38120557163E+02 -0.14619436261E+02 -0.80306017423E+02  0.90088629856E+02  0.00000000000E+00 0. -1.
        -12    1    3    3    0    0 -0.29723222293E+01 -0.10663726821E+02  0.19180325433E+02  0.22145759253E+02  0.00000000000E+00 0.  1.
          5    1    4    4  501    0  0.45549215488E+02  0.46880455957E+02  0.26224066771E+02  0.70552691376E+02  0.41800000000E+01 0.  1.
         -5    1    4    4    0  501 -0.36120716211E+02 -0.40109800549E+02 -0.13254402968E+02  0.55737364826E+02  0.41800000000E+01 0.  1.
</event>
<event>
11    1  0.7577197E-009  0.1401022E+03  0.7561462E-02  0.1107444E+00
         22   -1    0    0    0    0  0.00000000000E+00  0.00000000000E+00  0.10032118236E+04  0.10032118236E+04  0.00000000000E+00 0. -1.
         22   -1    0    0    0    0 -0.00000000000E+00 -0.00000000000E+00 -0.88078311310E+03  0.88078311310E+03  0.00000000000E+00 0.  1.
         24    2    1    2    0    0 -0.36032833192E+00  0.63840059150E+01 -0.80321929560E+03  0.80722605704E+03  0.80073622140E+02 0.  0.
         25    2    1    2    0    0 -0.50411181283E+02  0.31343865288E+02 -0.66147211606E+01  0.13861855680E+03  0.12509046592E+03 0.  0.
        -24    2    1    2    0    0  0.50771509615E+02 -0.37727871203E+02  0.93226272723E+03  0.93815032282E+03  0.83732294695E+02 0.  0.
        -13    1    3    3    0    0  0.33483451575E+02  0.19002087549E+02 -0.56204361499E+03  0.56336067134E+03  0.00000000000E+00 0.  1.
         14    1    3    3    0    0 -0.33843779907E+02 -0.12618081634E+02 -0.24117568061E+03  0.24386538570E+03  0.00000000000E+00 0. -1.
         11    1    5    5    0    0  0.45373009244E+02 -0.58361403863E+02  0.84852747367E+03  0.85174153181E+03  0.00000000000E+00 0. -1.
        -12    1    5    5    0    0  0.53985003715E+01  0.20633532660E+02  0.83735253557E+02  0.86408791014E+02  0.00000000000E+00 0.  1.
          5    1    4    4  501    0 -0.92116624361E+02  0.27907604385E+02 -0.26706154100E+01  0.96378999024E+02  0.41800000000E+01 0. -1.
         -5    1    4    4    0  501  0.41705443078E+02  0.34362609032E+01 -0.39441057506E+01  0.42239557781E+02  0.41800000000E+01 0. -1.
</event>
<event>
11    1  0.7577197E-009  0.3306271E+03  0.7561462E-02  0.9880023E-01
         22   -1    0    0    0    0  0.00000000000E+00  0.00000000000E+00  0.52450524059E+03  0.52450524059E+03  0.00000000000E+00 0. -1.
         22   -1    0    0    0    0 -0.00000000000E+00 -0.00000000000E+00 -0.36733351388E+03  0.36733351388E+03  0.00000000000E+00 0. -1.
         24    2    1    2    0    0 -0.29896273286E+03  0.34970543952E+02 -0.15546822022E+03  0.34864740150E+03  0.82358900511E+02 0.  0.
         25    2    1    2    0    0  0.32523113353E+03 -0.73141405637E+01  0.25974568698E+03  0.43467566532E+03  0.12508527188E+03 0.  0.
        -24    2    1    2    0    0 -0.26268400674E+02 -0.27656403388E+02  0.52894259958E+02  0.10851568765E+03  0.86734919194E+02 0.  0.
        -13    1    3    3    0    0 -0.13800707925E+03 -0.20083351723E+02 -0.48272868706E+02  0.14757901203E+03  0.00000000000E+00 0.  1.
         14    1    3    3    0    0 -0.16095565361E+03  0.55053895674E+02 -0.10719535152E+03  0.20106838947E+03  0.00000000000E+00 0. -1.
         11    1    5    5    0    0 -0.57854125994E+02 -0.15021257880E+02  0.40976384786E+02  0.72469318977E+02  0.00000000000E+00 0. -1.
        -12    1    5    5    0    0  0.31585725320E+02 -0.12635145508E+02  0.11917875173E+02  0.36046368675E+02  0.00000000000E+00 0.  1.
          5    1    4    4  501    0  0.10128296332E+03  0.29661830844E+02  0.25877898756E+02  0.10874373964E+03  0.41800000000E+01 0. -1.
         -5    1    4    4    0  501  0.22394817021E+03 -0.36975971408E+02  0.23386778823E+03  0.32593192567E+03  0.41800000000E+01 0. -1.
</event>
<event>
11    1  0.7577197E-009  0.1968875E+03  0.7561462E-02  0.1056747E+00
         22   -1    0    0    0    0  0.00000000000E+00  0.00000000000E+00  0.76651836657E+03  0.76651836657E+03  0.00000000000E+00 0.  1.
         22   -1    0    0    0    0 -0.00000000000E+00 -0.00000000000E+00 -0.83534658025E+03  0.83534658025E+03  0.00000000000E+00 0. -1.
        -24    2    1    2    0    0  0.14547970289E+03 -0.43464811814E+02 -0.78527357475E+03  0.80429936004E+03  0.84789973093E+02 0.  0.
         25    2    1    2    0    0 -0.15752152921E+03  0.25210309812E+02  0.24115780828E+03  0.31504432787E+03  0.12508896093E+03 0.  0.
         24    2    1    2    0    0  0.12041826313E+02  0.18254502002E+02  0.47528755279E+03  0.48252125892E+03  0.80313604335E+02 0.  0.
        -11    1    5    5    0    0  0.15033499514E+02  0.42188680356E+02  0.41758957138E+03  0.41998445326E+03  0.00000000000E+00 0.  1.
         12    1    5    5    0    0 -0.29916732012E+01 -0.23934178354E+02  0.57697981417E+02  0.62536805656E+02  0.00000000000E+00 0. -1.
         11    1    3    3    0    0  0.14009745699E+03 -0.48371167912E+02 -0.57163675163E+03  0.59053843495E+03  0.00000000000E+00 0. -1.
        -12    1    3    3    0    0  0.53822459015E+01  0.49063560975E+01 -0.21363682312E+03  0.21376092509E+03  0.00000000000E+00 0.  1.
          5    1    4    4  501    0 -0.13149635760E+03  0.10114395681E+02  0.87298675586E+02  0.15821543610E+03  0.41800000000E+01 0. -1.
         -5    1    4    4    0  501 -0.26025171607E+02  0.15095914131E+02  0.15385913269E+03  0.15682889177E+03  0.41800000000E+01 0. -1.
</event>
<event>
11    1  0.7577197E-009  0.2797032E+03  0.7561462E-02  0.1009167E+00
         22   -1    0    0    0    0  0.00000000000E+00  0.00000000000E+00  0.10891925408E+04  0.10891925408E+04  0.00000000000E+00 0.  1.
         22   -1    0    0    0    0 -0.00000000000E+00 -0.00000000000E+00 -0.79351817899E+03  0.79351817899E+03  0.00000000000E+00 0. -1.
        -24    2    1    2    0    0 -0.83178446573E+02 -0.23509658755E+03 -0.70360283553E+03  0.75096074762E+03  0.81829303103E+02 0.  0.
         25    2    1    2    0    0  0.61546948438E+01  0.27560419861E+03  0.31344694165E+03  0.43576602686E+03  0.12508992916E+03 0.  0.
         24    2    1    2    0    0  0.77023751729E+02 -0.40507611059E+02  0.68583025571E+03  0.69598394532E+03  0.80355383246E+02 0.  0.
        -11    1    5    5    0    0  0.40591520097E+02 -0.18948099638E+02  0.58385203677E+03  0.58556801725E+03  0.00000000000E+00 0.  1.
         12    1    5    5    0    0  0.36432231632E+02 -0.21559511421E+02  0.10197821893E+03  0.11041592807E+03  0.00000000000E+00 0. -1.
         11    1    3    3    0    0 -0.83872906827E+02 -0.17202810880E+03 -0.59881361624E+03  0.62865418293E+03  0.00000000000E+00 0. -1.
        -12    1    3    3    0    0  0.69446025446E+00 -0.63068478759E+02 -0.10478921929E+03  0.12230656470E+03  0.00000000000E+00 0.  1.
          5    1    4    4  501    0  0.65076087596E+02  0.15966806030E+03  0.18515748719E+03  0.25304061753E+03  0.41800000000E+01 0.  1.
         -5    1    4    4    0  501 -0.58921392752E+02  0.11593613831E+03  0.12828945445E+03  0.18272540933E+03  0.41800000000E+01 0.  1.
</event>
<event>
11    1  0.7577197E-009  0.1376786E+03  0.7561462E-02  0.1110179E+00
         22   -1    0    0    0    0  0.00000000000E+00  0.00000000000E+00  0.11180456494E+04  0.11180456494E+04  0.00000000000E+00 0.  1.
         22   -1    0    0    0    0 -0.00000000000E+00 -0.00000000000E+00 -0.57867726284E+02  0.57867726284E+02  0.00000000000E+00 0.  1.
         24    2    1    2    0    0 -0.29862989239E+02  0.27189371343E+01  0.58524879934E+01  0.84899911067E+02  0.79212073184E+02 0.  0.
         25    2    1    2    0    0 -0.28481784450E+02  0.20907332180E+02  0.26944105783E+03  0.29915576009E+03  0.12508939432E+03 0.  0.
        -24    2    1    2    0    0  0.58344773688E+02 -0.23626269314E+02  0.78488437733E+03  0.79185770455E+03  0.83861941713E+02 0.  0.
        -13    1    3    3    0    0 -0.46589132909E+02  0.23280782748E+02 -0.11345695934E+02  0.53303536156E+02  0.00000000000E+00 0.  1.
         14    1    3    3    0    0  0.16726143670E+02 -0.20561845613E+02  0.17198183927E+02  0.31596374911E+02  0.00000000000E+00 0. -1.
         13    1    5    5    0    0  0.32239630629E+02  0.13944802586E+02  0.11107172210E+03  0.11649368547E+03  0.00000000000E+00 0. -1.
        -14    1    5    5    0    0  0.26105143060E+02 -0.37571071899E+02  0.67381265522E+03  0.67536401909E+03  0.00000000000E+00 0.  1.
          5    1    4    4  501    0 -0.10603927630E+02  0.41014660673E+02  0.17956124770E+02  0.46201087520E+02  0.41800000000E+01 0. -1.
         -5    1    4    4    0  501 -0.17877856819E+02 -0.20107328493E+02  0.25148493306E+03  0.25295467257E+03  0.41800000000E+01 0. -1.
</event>
<event>
11    1  0.7577197E-009  0.1391986E+03  0.7561462E-02  0.1108457E+00
         22   -1    0    0    0    0  0.00000000000E+00  0.00000000000E+00  0.45692638607E+03  0.45692638607E+03  0.00000000000E+00 0. -1.
         22   -1    0    0    0    0 -0.00000000000E+00 -0.00000000000E+00 -0.78665481143E+03  0.78665481143E+03  0.00000000000E+00 0. -1.
         24    2    1    2    0    0  0.13607523456E+02  0.25953458226E+02 -0.63279575635E+03  0.63855574093E+03  0.80400362817E+02 0.  0.
         25    2    1    2    0    0 -0.69001759818E+02 -0.49332098446E+02 -0.10527920636E+03  0.18418945556E+03  0.12508855044E+03 0.  0.
        -24    2    1    2    0    0  0.55394236362E+02  0.23378640221E+02  0.40834653734E+03  0.42083600101E+03  0.82103367445E+02 0.  0.
        -13    1    3    3    0    0 -0.18884422636E+01 -0.56623349912E+01 -0.13379024173E+01  0.61170445980E+01  0.00000000000E+00 0.  1.
         14    1    3    3    0    0  0.15495965719E+02  0.31615793217E+02 -0.63145785393E+03  0.63243869634E+03  0.00000000000E+00 0. -1.
         13    1    5    5    0    0  0.56453638477E+02  0.48283869614E+01  0.12927446394E+03  0.14114607202E+03  0.00000000000E+00 0. -1.
        -14    1    5    5    0    0 -0.10594021154E+01  0.18550253260E+02  0.27907207340E+03  0.27968992899E+03  0.00000000000E+00 0.  1.
          5    1    4    4  501    0 -0.38890828975E+02 -0.76319642200E+02 -0.17602053967E+02  0.87547067728E+02  0.41800000000E+01 0. -1.
         -5    1    4    4    0  501 -0.30110930843E+02  0.26987543753E+02 -0.87677152391E+02  0.96642387830E+02  0.41800000000E+01 0. -1.
</event>
<event>
11    1  0.7577197E-009  0.2200270E+03  0.7561462E-02  0.1041201E+00
         22   -1    0    0    0    0  0.00000000000E+00  0.00000000000E+00  0.67159484266E+02  0.67159484266E+02  0.00000000000E+00 0. -1.
         22   -1    0    0    0    0 -0.00000000000E+00 -0.00000000000E+00 -0.20108392625E+04  0.20108392625E+04  0.00000000000E+00 0. -1.
        -24    2    1    2    0    0 -0.68536776770E+02  0.65496007780E+02 -0.11614852665E+04  0.11683013071E+04  0.83023508928E+02 0.  0.
         25    2    1    2    0    0 -0.23753080529E+00  0.12856110144E+03 -0.57918632777E+03  0.60632765359E+03  0.12509359701E+03 0.  0.
         24    2    1    2    0    0  0.68774307576E+02 -0.19405710922E+03 -0.20300818398E+03  0.30336978610E+03  0.91830481505E+02 0.  0.
        -11    1    5    5    0    0  0.88699374867E+02 -0.17915578692E+03 -0.18730391498E+03  0.27394731548E+03  0.00000000000E+00 0.  1.
         12    1    5    5    0    0 -0.19925067291E+02 -0.14901322305E+02 -0.15704268997E+02  0.29422470626E+02  0.00000000000E+00 0. -1.
         11    1    3    3    0    0  0.73761188892E+01 -0.11770572080E+02 -0.25307076914E+03  0.25345170682E+03  0.00000000000E+00 0. -1.
        -12    1    3    3    0    0 -0.75912895660E+02  0.77266579861E+02 -0.90841449736E+03  0.91484960026E+03  0.00000000000E+00 0.  1.
          5    1    4    4  501    0 -0.58122253000E+02  0.34553199460E+02 -0.25436914206E+03  0.26323611591E+03  0.41800000000E+01 0. -1.
         -5    1    4    4    0  501  0.57884722195E+02  0.94007901983E+02 -0.32481718570E+03  0.34309153768E+03  0.41800000000E+01 0. -1.
</event>
<event>
11    1  0.7577197E-009  0.2221357E+03  0.7561462E-02  0.1039888E+00
         22   -1    0    0    0    0  0.00000000000E+00  0.00000000000E+00  0.10887516686E+03  0.10887516686E+03  0.00000000000E+00 0. -1.
         22   -1    0    0    0    0 -0.00000000000E+00 -0.00000000000E+00 -0.27946361786E+04  0.27946361786E+04  0.00000000000E+00 0. -1.
        -24    2    1    2    0    0  0.17995562035E+03  0.59345379601E+02 -0.21806860056E+04  0.21903878428E+04  0.80632175569E+02 0.  0.
         25    2    1    2    0    0 -0.13006740653E+03 -0.10906408341E+03 -0.55498742233E+03  0.59369884490E+03  0.12511904316E+03 0.  0.
         24    2    1    2    0    0 -0.49888213820E+02  0.49718703809E+02  0.49912416194E+02  0.11942465769E+03  0.82524034001E+02 0.  0.
        -13    1    5    5    0    0 -0.62867046522E+02  0.63240707250E+01  0.28061513558E+02  0.69135431958E+02  0.00000000000E+00 0.  1.
         14    1    5    5    0    0  0.12978832702E+02  0.43394633084E+02  0.21850902637E+02  0.50289225733E+02  0.00000000000E+00 0. -1.
         13    1    3    3    0    0  0.17986285705E+03  0.47764242627E+02 -0.21402653533E+04  0.21483407208E+04  0.00000000000E+00 0. -1.
        -14    1    3    3    0    0  0.92763299222E-01  0.11581136974E+02 -0.40420652272E+02  0.42047122003E+02  0.00000000000E+00 0.  1.
          5    1    4    4  501    0 -0.95267390713E+02 -0.85834325213E+02 -0.52884511137E+03  0.54418565888E+03  0.41800000000E+01 0. -1.
         -5    1    4    4    0  501 -0.34800015821E+02 -0.23229758196E+02 -0.26142310959E+02  0.49513186014E+02  0.41800000000E+01 0. -1.
</event>
<event>
11    1  0.7577197E-009  0.1269069E+03  0.7561462E-02  0.1123129E+00
         22   -1    0    0    0    0  0.00000000000E+00  0.00000000000E+00  0.89039202449E+02  0.89039202449E+02  0.00000000000E+00 0. -1.
         22   -1    0    0    0    0 -0.00000000000E+00 -0.00000000000E+00 -0.95896697408E+03  0.95896697408E+03  0.00000000000E+00 0.  1.
        -24    2    1    2    0    0  0.75550415475E+01 -0.17919544368E+02 -0.76817403272E+03  0.77286863327E+03  0.82803327335E+02 0.  0.
         25    2    1    2    0    0 -0.24819707174E+02  0.37737317307E+02 -0.13004011709E+03  0.18600655654E+03  0.12509150268E+03 0.  0.
         24    2    1    2    0    0  0.17264665627E+02 -0.19817772939E+02  0.28286378182E+02  0.89130986715E+02  0.80333061678E+02 0.  0.
        -13    1    5    5    0    0  0.27852811845E+02  0.28578030104E+01 -0.20228447037E+02  0.34541804169E+02  0.00000000000E+00 0.  1.
         14    1    5    5    0    0 -0.10588146218E+02 -0.22675575949E+02  0.48514825219E+02  0.54589182545E+02  0.00000000000E+00 0. -1.
         13    1    3    3    0    0  0.10859354847E+02  0.32071765709E+02 -0.37238339924E+03  0.37391967022E+03  0.00000000000E+00 0. -1.
        -14    1    3    3    0    0 -0.33043132999E+01 -0.49991310077E+02 -0.39579063348E+03  0.39894896305E+03  0.00000000000E+00 0.  1.
          5    1    4    4  501    0 -0.44876988194E+01 -0.46159399574E+02 -0.46290069272E+02  0.65658758158E+02  0.41800000000E+01 0. -1.
         -5    1    4    4    0  501 -0.20332008355E+02  0.83896716880E+02 -0.83750047815E+02  0.12034779838E+03  0.41800000000E+01 0. -1.
</event>
<event>
11    1  0.7577197E-009  0.1330518E+03  0.7561462E-02  0.1115575E+00
         22   -1    0    0    0    0  0.00000000000E+00  0.00000000000E+00  0.58623755865E+02  0.58623755865E+02  0.00000000000E+00 0. -1.
         22   -1    0    0    0    0 -0.00000000000E+00 -0.00000000000E+00 -0.17243698811E+04  0.17243698811E+04  0.00000000000E+00 0. -1.
         24    2    1    2    0    0  0.36345792847E+02 -0.30107511334E+02 -0.12482295257E+04  0.12517647024E+04  0.81304626916E+02 0.  0.
         25    2    1    2    0    0 -0.45865580377E+01  0.62625363155E+02 -0.40586718486E+03  0.42932263275E+03  0.12508708414E+03 0.  0.
        -24    2    1    2    0    0 -0.31759234809E+02 -0.32517851821E+02 -0.11649414635E+02  0.10190630181E+03  0.90460631247E+02 0.  0.
        -13    1    3    3    0    0  0.29738340823E+02 -0.41462385317E+02 -0.37712496815E+03  0.38056108565E+03  0.00000000000E+00 0.  1.
         14    1    3    3    0    0  0.66074520237E+01  0.11354873984E+02 -0.87110455760E+03  0.87120361676E+03  0.00000000000E+00 0. -1.
         11    1    5    5    0    0 -0.18548349168E+02 -0.62880706562E+02 -0.18443170429E+02  0.68104148552E+02  0.00000000000E+00 0. -1.
        -12    1    5    5    0    0 -0.13210885641E+02  0.30362854740E+02  0.67937557942E+01  0.33802153263E+02  0.00000000000E+00 0.  1.
          5    1    4    4  501    0 -0.58477041681E+01  0.41421590675E+02 -0.27277844873E+02  0.50114838511E+02  0.41800000000E+01 0.  1.
         -5    1    4    4    0  501  0.12611461304E+01  0.21203772480E+02 -0.37858933999E+03  0.37920779424E+03  0.41800000000E+01 0.  1.
</event>
<event>
11    1  0.7577197E-009  0.1430887E+03  0.7561462E-02  0.1104158E+00
         22   -1    0    0    0    0  0.00000000000E+00  0.00000000000E+00  0.59373162221E+03  0.59373162221E+03  0.00000000000E+00 0. -1.
         22   -1    0    0    0    0 -0.00000000000E+00 -0.00000000000E+00 -0.96408038083E+03  0.96408038083E+03  0.00000000000E+00 0.  1.
        -24    2    1    2    0    0  0.66553211837E+02 -0.25545240152E+02 -0.88915239355E+03  0.89611011452E+03  0.85670701415E+02 0.  0.
         25    2    1    2    0    0 -0.32462241341E+02  0.17969658556E+02 -0.48324026400E+01  0.13056576946E+03  0.12508941721E+03 0.  0.
         24    2    1    2    0    0 -0.34090970495E+02  0.75755815952E+01  0.52363603758E+03  0.53113611906E+03  0.81800326463E+02 0.  0.
        -11    1    5    5    0    0  0.75922319449E+01  0.23046704372E+02  0.51709224679E+02  0.57119493041E+02  0.00000000000E+00 0.  1.
         12    1    5    5    0    0 -0.41683202440E+02 -0.15471122777E+02  0.47192681290E+03  0.47401662602E+03  0.00000000000E+00 0. -1.
         11    1    3    3    0    0  0.74263764517E+01  0.52587573170E+01 -0.71005600775E+01  0.11542250610E+02  0.00000000000E+00 0. -1.
        -12    1    3    3    0    0  0.59126835385E+02 -0.30803997468E+02 -0.88205183348E+03  0.88456786391E+03  0.00000000000E+00 0.  1.
          5    1    4    4  501    0  0.61097393111E+01  0.49389251579E+02  0.39597311664E+02  0.63734186878E+02  0.41800000000E+01 0. -1.
         -5    1    4    4    0  501 -0.38571980653E+02 -0.31419593023E+02 -0.44429714304E+02  0.66831582581E+02  0.41800000000E+01 0. -1.
</event>
<event>
11    1  0.7577197E-009  0.1304759E+03  0.7561462E-02  0.1118686E+00
         22   -1    0    0    0    0  0.00000000000E+00  0.00000000000E+00  0.81895112261E+03  0.81895112261E+03  0.00000000000E+00 0.  1.
         22   -1    0    0    0    0 -0.00000000000E+00 -0.00000000000E+00 -0.19114808969E+03  0.19114808969E+03  0.00000000000E+00 0.  1.
        -24    2    1    2    0    0 -0.24824051011E+02 -0.34177184623E+02 -0.13969809352E+03  0.16901496951E+03  0.85241944661E+02 0.  0.
         25    2    1    2    0    0 -0.95532987227E+01  0.19006747928E+01  0.83354216777E+02  0.15063384134E+03  0.12509096938E+03 0.  0.
         24    2    1    2    0    0  0.34377349734E+02  0.32276509830E+02  0.68414690967E+03  0.69045040145E+03  0.80257009646E+02 0.  0.
        -13    1    5    5    0    0  0.49910831495E+02  0.31112561034E+01  0.24439760832E+03  0.24946134363E+03  0.00000000000E+00 0.  1.
         14    1    5    5    0    0 -0.15533481761E+02  0.29165253726E+02  0.43974930135E+03  0.44098905782E+03  0.00000000000E+00 0. -1.
         11    1    3    3    0    0  0.84299310153E+01  0.14321077949E+02  0.87205667192E+00  0.16640838121E+02  0.00000000000E+00 0. -1.
        -12    1    3    3    0    0 -0.33253982026E+02 -0.48498262571E+02 -0.14057015019E+03  0.15237413139E+03  0.00000000000E+00 0.  1.
          5    1    4    4  501    0 -0.45871922017E+02 -0.44636269597E+02  0.57166049667E+02  0.85918911932E+02  0.41800000000E+01 0. -1.
         -5    1    4    4    0  501  0.36318623294E+02  0.46536944390E+02  0.26188167110E+02  0.64714929403E+02  0.41800000000E+01 0. -1.
</event>
<event>
11    1  0.7577197E-009  0.1881694E+03  0.7561462E-02  0.1063220E+00
         22   -1    0    0    0    0  0.00000000000E+00  0.00000000000E+00  0.45091113142E+03  0.45091113142E+03  0.00000000000E+00 0.  1.
         22   -1    0    0    0    0 -0.00000000000E+00 -0.00000000000E+00 -0.11762501877E+04  0.11762501877E+04  0.00000000000E+00 0.  1.
         24    2    1    2    0    0  0.63288721436E+01 -0.34448396402E+02 -0.10829402218E+04  0.10864778618E+04  0.80298653113E+02 0.  0.
         25    2    1    2    0    0  0.81146565686E+02 -0.84164203943E+02  0.30692468457E+02  0.17394753916E+03  0.12508932973E+03 0.  0.
        -24    2    1    2    0    0 -0.87475437829E+02  0.11861260035E+03  0.32690869699E+03  0.36673591817E+03  0.76844234157E+02 0.  0.
        -13    1    3    3    0    0 -0.26188400128E+02 -0.45950282663E+02 -0.69286811815E+03  0.69488379599E+03  0.00000000000E+00 0.  1.
         14    1    3    3    0    0  0.32517272272E+02  0.11501886261E+02 -0.39007210362E+03  0.39159406585E+03  0.00000000000E+00 0. -1.
         11    1    5    5    0    0 -0.33674310398E+02 -0.23710967451E+01  0.63002338599E+02  0.71476401347E+02  0.00000000000E+00 0. -1.
        -12    1    5    5    0    0 -0.53801127431E+02  0.12098369709E+03  0.26390635839E+03  0.29525951682E+03  0.00000000000E+00 0.  1.
          5    1    4    4  501    0 -0.23068891907E+02 -0.51194034129E+02 -0.10094130846E+02  0.57204604550E+02  0.41800000000E+01 0. -1.
         -5    1    4    4    0  501  0.10421545759E+03 -0.32970169815E+02  0.40786599302E+02  0.11674293461E+03  0.41800000000E+01 0. -1.
</event>
<event>
11    1  0.7577197E-009  0.1350614E+03  0.7561462E-02  0.1113202E+00
         22   -1    0    0    0    0  0.00000000000E+00  0.00000000000E+00  0.86597864835E+03  0.86597864835E+03  0.00000000000E+00 0.  1.
         22   -1    0    0    0    0 -0.00000000000E+00 -0.00000000000E+00 -0.26402597243E+03  0.26402597243E+03  0.00000000000E+00 0. -1.
         24    2    1    2    0    0  0.16925012881E+02 -0.47270522311E+02 -0.23730028559E+03  0.25514488743E+03  0.79161415471E+02 0.  0.
         25    2    1    2    0    0 -0.37777872143E+02  0.80933116742E+02  0.45566539342E+03  0.48089047938E+03  0.12508942958E+03 0.  0.
        -24    2    1    2    0    0  0.20852859262E+02 -0.33662594430E+02  0.38358756810E+03  0.39396925396E+03  0.80649480248E+02 0.  0.
        -13    1    3    3    0    0  0.31639647026E+01 -0.12267983258E+02  0.20704271506E+01  0.12837474614E+02  0.00000000000E+00 0.  1.
         14    1    3    3    0    0  0.13761048179E+02 -0.35002539053E+02 -0.23937071275E+03  0.24230741282E+03  0.00000000000E+00 0. -1.
         13    1    5    5    0    0 -0.23161978507E+02 -0.17306985047E+02  0.55904485352E+02  0.62939021777E+02  0.00000000000E+00 0. -1.
        -14    1    5    5    0    0  0.44014837769E+02 -0.16355609383E+02  0.32768308275E+03  0.33103023218E+03  0.00000000000E+00 0.  1.
          5    1    4    4  501    0 -0.24820890599E+02 -0.26422682931E+02  0.56056952610E+02  0.66888632213E+02  0.41800000000E+01 0. -1.
         -5    1    4    4    0  501 -0.12956981544E+02  0.10735579967E+03  0.39960844081E+03  0.41400184717E+03  0.41800000000E+01 0. -1.
</event>
<event>
11    1  0.7577197E-009  0.2085523E+03  0.7561462E-02  0.1048635E+00
         22   -1    0    0    0    0  0.00000000000E+00  0.00000000000E+00  0.54358874603E+03  0.54358874603E+03  0.00000000000E+00 0.  1.
         22   -1    0    0    0    0 -0.00000000000E+00 -0.00000000000E+00 -0.73126635994E+03  0.73126635994E+03  0.00000000000E+00 0.  1.
        -24    2    1    2    0    0 -0.42804375433E+02 -0.42532801843E+02 -0.49231365284E+03  0.49869243224E+03  0.51770217436E+02 0.  0.
         25    2    1    2    0    0  0.34615278478E+02  0.20611366155E+03 -0.14988946240E+03  0.28600130802E+03  0.12509531674E+03 0.  0.
         24    2    1    2    0    0  0.81890969551E+01 -0.16358085971E+03  0.45452550134E+03  0.49016136570E+03  0.82698090005E+02 0.  0.
        -13    1    5    5    0    0  0.38258378083E+02 -0.12976834013E+03  0.37507919595E+03  0.39873290412E+03  0.00000000000E+00 0.  1.
         14    1    5    5    0    0 -0.30069281128E+02 -0.33812519579E+02  0.79446305389E+02  0.91428461585E+02  0.00000000000E+00 0. -1.
         11    1    3    3    0    0 -0.71680810247E+01 -0.26726913238E+02 -0.82253438936E+02  0.86783278882E+02  0.00000000000E+00 0. -1.
        -12    1    3    3    0    0 -0.35636294408E+02 -0.15805888604E+02 -0.41006021390E+03  0.41190915336E+03  0.00000000000E+00 0.  1.
          5    1    4    4  501    0 -0.25798404350E+02  0.74561229989E+01 -0.46850654902E+02  0.54162788905E+02  0.41800000000E+01 0. -1.
         -5    1    4    4    0  501  0.60413682828E+02  0.19865753855E+03 -0.10303880750E+03  0.23183851912E+03  0.41800000000E+01 0. -1.
</event>
<event>
11    1  0.7577197E-009  0.1338887E+03  0.7561462E-02  0.1114581E+00
         22   -1    0    0    0    0  0.00000000000E+00  0.00000000000E+00  0.36769210078E+03  0.36769210078E+03  0.00000000000E+00 0.  1.
         22   -1    0    0    0    0 -0.00000000000E+00 -0.00000000000E+00 -0.94606658110E+03  0.94606658110E+03  0.00000000000E+00 0.  1.
        -24    2    1    2    0    0  0.17508411974E+01  0.46842409525E+02 -0.85135213268E+03  0.85635796157E+03  0.79694590473E+02 0.  0.
         25    2    1    2    0    0  0.23577109272E+02 -0.69394613131E+02 -0.24988610368E+02  0.14711674675E+03  0.12508962432E+03 0.  0.
         24    2    1    2    0    0 -0.25327950469E+02  0.22552203607E+02  0.29796626272E+03  0.31028397356E+03  0.79637576369E+02 0.  0.
        -13    1    5    5    0    0 -0.32332242272E+02 -0.21075245285E+02  0.94544158646E+02  0.10211825394E+03  0.00000000000E+00 0.  1.
         14    1    5    5    0    0  0.70042918030E+01  0.43627448891E+02  0.20342210407E+03  0.20816571962E+03  0.00000000000E+00 0. -1.
         11    1    3    3    0    0 -0.36522444535E+02  0.72915119345E+01 -0.36993309068E+03  0.37180310203E+03  0.00000000000E+00 0. -1.
        -12    1    3    3    0    0  0.38273285733E+02  0.39550897590E+02 -0.48141904200E+03  0.48455485954E+03  0.00000000000E+00 0.  1.
          5    1    4    4  501    0  0.83712643596E+01 -0.99756968995E+02  0.67858548154E+01  0.10042435539E+03  0.41800000000E+01 0. -1.
         -5    1    4    4    0  501  0.15205844912E+02  0.30362355863E+02 -0.31774465183E+02  0.46692391358E+02  0.41800000000E+01 0. -1.
</event>
<event>
11    1  0.7577197E-009  0.1260846E+03  0.7561462E-02  0.1124176E+00
         22   -1    0    0    0    0  0.00000000000E+00  0.00000000000E+00  0.11358646737E+03  0.11358646737E+03  0.00000000000E+00 0. -1.
         22   -1    0    0    0    0 -0.00000000000E+00 -0.00000000000E+00 -0.12094715261E+04  0.12094715261E+04  0.00000000000E+00 0.  1.
        -24    2    1    2    0    0 -0.37310677586E+01  0.32311482298E+01 -0.84561981948E+03  0.84937969565E+03  0.79678272501E+02 0.  0.
         25    2    1    2    0    0  0.18262483116E+02 -0.88650584347E+01 -0.33325495467E+03  0.35653682059E+03  0.12509009583E+03 0.  0.
         24    2    1    2    0    0 -0.14531415357E+02  0.56339102050E+01  0.82989715437E+02  0.11714147722E+03  0.81190700449E+02 0.  0.
        -13    1    5    5    0    0 -0.42439586077E+02  0.12804689789E+02  0.21569997012E+02  0.49298512332E+02  0.00000000000E+00 0.  1.
         14    1    5    5    0    0  0.27908170720E+02 -0.71707795841E+01  0.61419718425E+02  0.67842964884E+02  0.00000000000E+00 0. -1.
         11    1    3    3    0    0  0.36653021834E+02 -0.87872515847E+01 -0.39460602935E+03  0.39640204111E+03  0.00000000000E+00 0. -1.
        -12    1    3    3    0    0 -0.40384089593E+02  0.12018399814E+02 -0.45101379013E+03  0.45297765454E+03  0.00000000000E+00 0.  1.
          5    1    4    4  501    0 -0.44678270761E+02  0.25070124933E+02 -0.98612412185E+02  0.11120494269E+03  0.41800000000E+01 0. -1.
         -5    1    4    4    0  501  0.62940753876E+02 -0.33935183368E+02 -0.23464254249E+03  0.24533187790E+03  0.41800000000E+01 0. -1.
</event>
<event>
11    1  0.1588030E-008  0.1582265E+03  0.7561462E-02  0.1088757E+00
         22   -1    0    0    0    0  0.00000000000E+00  0.00000000000E+00  0.58618661006E+03  0.58618661006E+03  0.00000000000E+00 0. -1.
         22   -1    0    0    0    0 -0.00000000000E+00 -0.00000000000E+00 -0.59018494275E+03  0.59018494275E+03  0.00000000000E+00 0.  1.
        -24    2    1    2    0    0  0.68484361166E+02  0.42391510325E+02 -0.33979110488E+03  0.35820705649E+03  0.79794438973E+02 0.  0.
         25    2    1    2    0    0 -0.13299562293E+03 -0.11110252261E+03 -0.18396053687E+03  0.28199152411E+03  0.12508450862E+03 0.  0.
         24    2    1    2    0    0  0.64511261761E+02  0.68711012285E+02  0.51975330907E+03  0.53617297220E+03  0.91951333451E+02 0.  0.
        -13    1    5    5    0    0 -0.95606251319E+01 -0.11114146072E+02  0.15006653235E+03  0.15078094683E+03  0.00000000000E+00 0.  1.
         14    1    5    5    0    0  0.74071886893E+02  0.79825158357E+02  0.36968677672E+03  0.38539202537E+03  0.00000000000E+00 0. -1.
         11    1    3    3    0    0  0.43986946933E+02  0.71985349915E+01 -0.57878192485E+02  0.73051732162E+02  0.00000000000E+00 0. -1.
        -12    1    3    3    0    0  0.24497414232E+02  0.35192975334E+02 -0.28191291240E+03  0.28515532433E+03  0.00000000000E+00 0.  1.
          5    1    4    4  501    0 -0.72397445930E+02 -0.92867391282E+02 -0.39581952757E+02  0.12429781142E+03  0.41800000000E+01 0.  1.
         -5    1    4    4    0  501 -0.60598176997E+02 -0.18235131329E+02 -0.14437858412E+03  0.15769371269E+03  0.41800000000E+01 0.  1.
</event>
<event>
11    1  0.7577197E-009  0.1412693E+03  0.7561462E-02  0.1106149E+00
         22   -1    0    0    0    0  0.00000000000E+00  0.00000000000E+00  0.32393641925E+03  0.32393641925E+03  0.00000000000E+00 0.  1.
         22   -1    0    0    0    0 -0.00000000000E+00 -0.00000000000E+00 -0.10197529190E+04  0.10197529190E+04  0.00000000000E+00 0. -1.
         24    2    1    2    0    0 -0.13520636067E+02  0.13457088118E+02 -0.83052418498E+03  0.83528907664E+03  0.87025966752E+02 0.  0.
         25    2    1    2    0    0 -0.18852195571E+02 -0.70267577472E+02 -0.14820114364E+03  0.20713551055E+03  0.12509437651E+03 0.  0.
        -24    2    1    2    0    0  0.32372831638E+02  0.56810489354E+02  0.28290882887E+03  0.30126475106E+03  0.80297028903E+02 0.  0.
        -11    1    3    3    0    0  0.10303222155E+02  0.38863155867E+02 -0.21160866794E+03  0.21539435837E+03  0.00000000000E+00 0.  1.
         12    1    3    3    0    0 -0.23823858222E+02 -0.25406067748E+02 -0.61891551704E+03  0.61989471827E+03  0.00000000000E+00 0. -1.
         11    1    5    5    0    0 -0.24090439087E+02  0.55372247103E+01  0.10166914043E+03  0.10463089520E+03  0.00000000000E+00 0. -1.
        -12    1    5    5    0    0  0.56463270725E+02  0.51273264644E+02  0.18123968843E+03  0.19663385586E+03  0.00000000000E+00 0.  1.
          5    1    4    4  501    0 -0.49632881382E+02 -0.88565271520E+02 -0.77568416510E+02  0.12783411858E+03  0.41800000000E+01 0. -1.
         -5    1    4    4    0  501  0.30780685812E+02  0.18297694048E+02 -0.70632727130E+02  0.79301391970E+02  0.41800000000E+01 0. -1.
</event>
<event>
11    1  0.7577197E-009  0.1750495E+03  0.7561462E-02  0.1073719E+00
         22   -1    0    0    0    0  0.00000000000E+00  0.00000000000E+00  0.26653565048E+03  0.26653565048E+03  0.00000000000E+00 0. -1.
         22   -1    0    0    0    0 -0.00000000000E+00 -0.00000000000E+00 -0.18651912232E+04  0.18651912232E+04  0.00000000000E+00 0.  1.
        -24    2    1    2    0    0 -0.87663983632E+00  0.14643388010E+02 -0.16916551911E+04  0.16936041319E+04  0.79890379691E+02 0.  0.
         25    2    1    2    0    0 -0.87768423507E+02 -0.97086192524E+02 -0.91185971638E+02  0.20271016853E+03  0.12508999183E+03 0.  0.
         24    2    1    2    0    0  0.88645063343E+02  0.82442804514E+02  0.18418559008E+03  0.23541257317E+03  0.82704200254E+02 0.  0.
        -11    1    5    5    0    0  0.57790551338E+01 -0.12001465760E+02  0.11061512109E+01  0.13366234666E+02  0.00000000000E+00 0.  1.
         12    1    5    5    0    0  0.82866008209E+02  0.94444270274E+02  0.18307943887E+03  0.22204633850E+03  0.00000000000E+00 0. -1.
         13    1    3    3    0    0 -0.24626046924E+02  0.84184242571E+00 -0.17774849238E+03  0.17944825836E+03  0.00000000000E+00 0. -1.
        -14    1    3    3    0    0  0.23749407088E+02  0.13801545584E+02 -0.15139066987E+04  0.15141558736E+04  0.00000000000E+00 0.  1.
          5    1    4    4  501    0  0.15510279724E+02 -0.73218243058E+02 -0.37686174074E+02  0.83899940464E+02  0.41800000000E+01 0.  1.
         -5    1    4    4    0  501 -0.10327870323E+03 -0.23867949466E+02 -0.53499797565E+02  0.11881022806E+03  0.41800000000E+01 0.  1.
</event>
<event>
11    1  0.7577197E-009  0.1406453E+03  0.7561462E-02  0.1106840E+00
         22   -1    0    0    0    0  0.00000000000E+00  0.00000000000E+00  0.10621730115E+04  0.10621730115E+04  0.00000000000E+00 0. -1.
         22   -1    0    0    0    0 -0.00000000000E+00 -0.00000000000E+00 -0.37462761106E+03  0.37462761106E+03  0.00000000000E+00 0. -1.
        -24    2    1    2    0    0  0.43848731701E+02 -0.19242848078E+02 -0.35016073097E+03  0.36165044575E+03  0.76717070636E+02 0.  0.
         25    2    1    2    0    0  0.24281820447E+02  0.40425339752E+02  0.28478472785E+03  0.31459956196E+03  0.12508688290E+03 0.  0.
         24    2    1    2    0    0 -0.68130552149E+02 -0.21182491674E+02  0.75292140353E+03  0.76055061480E+03  0.80350032371E+02 0.  0.
        -13    1    5    5    0    0 -0.29116310887E+02  0.17464647681E+02  0.10605198912E+03  0.11135437968E+03  0.00000000000E+00 0.  1.
         14    1    5    5    0    0 -0.39014241262E+02 -0.38647139355E+02  0.64686941441E+03  0.64919623513E+03  0.00000000000E+00 0. -1.
         11    1    3    3    0    0  0.18777565101E+02 -0.63942541423E+01 -0.31910382386E+03  0.31971977392E+03  0.00000000000E+00 0. -1.
        -12    1    3    3    0    0  0.25071166600E+02 -0.12848593936E+02 -0.31056907114E+02  0.41930671832E+02  0.00000000000E+00 0.  1.
          5    1    4    4  501    0  0.48165993578E+02  0.20566953318E+02  0.27749042263E+03  0.28242055442E+03  0.41800000000E+01 0. -1.
         -5    1    4    4    0  501 -0.23884173130E+02  0.19858386434E+02  0.72943052145E+01  0.32179007543E+02  0.41800000000E+01 0. -1.
</event>
<event>
11    1  0.7577197E-009  0.1709787E+03  0.7561462E-02  0.1077183E+00
         22   -1    0    0    0    0  0.00000000000E+00  0.00000000000E+00  0.25599420701E+04  0.25599420701E+04  0.00000000000E+00 0. -1.
         22   -1    0    0    0    0 -0.00000000000E+00 -0.00000000000E+00 -0.33425889968E+03  0.33425889968E+03  0.00000000000E+00 0. -1.
         24    2    1    2    0    0  0.34153864414E+02  0.15531301931E+02 -0.30915871405E+03  0.32220102461E+03  0.82623737476E+02 0.  0.
         25    2    1    2    0    0 -0.79179157496E+02  0.91983306040E+02  0.45414454215E+03  0.48645150198E+03  0.12513005651E+03 0.  0.
        -24    2    1    2    0    0  0.45025293082E+02 -0.10751460797E+03  0.20806973423E+04  0.20855484432E+04  0.81389253556E+02 0.  0.
        -11    1    3    3    0    0  0.35635899784E+01 -0.27102374099E+02 -0.43250156730E+02  0.51164576735E+02  0.00000000000E+00 0.  1.
         12    1    3    3    0    0  0.30590274435E+02  0.42633676031E+02 -0.26590855732E+03  0.27103644788E+03  0.00000000000E+00 0. -1.
         11    1    5    5    0    0  0.28125639929E+02 -0.11842265015E+03  0.18320802257E+04  0.18361189855E+04  0.00000000000E+00 0. -1.
        -12    1    5    5    0    0  0.16899653153E+02  0.10908042182E+02  0.24861711662E+03  0.24942945764E+03  0.00000000000E+00 0.  1.
          5    1    4    4  501    0 -0.61680801083E+02  0.53997539516E+02  0.97997268788E+02  0.12783267417E+03  0.41800000000E+01 0. -1.
         -5    1    4    4    0  501 -0.17498356414E+02  0.37985766525E+02  0.35614727336E+03  0.35861882781E+03  0.41800000000E+01 0. -1.
</event>
<event>
11    1  0.7577197E-009  0.1496674E+03  0.7561462E-02  0.1097219E+00
         22   -1    0    0    0    0  0.00000000000E+00  0.00000000000E+00  0.24023184574E+03  0.24023184574E+03  0.00000000000E+00 0. -1.
         22   -1    0    0    0    0 -0.00000000000E+00 -0.00000000000E+00 -0.27446264690E+04  0.27446264690E+04  0.00000000000E+00 0.  1.
        -24    2    1    2    0    0  0.41509696463E+02 -0.71590563659E+02 -0.26775148293E+04  0.26798407873E+04  0.74918091169E+02 0.  0.
         25    2    1    2    0    0  0.63946596472E+01  0.50760701797E+02  0.27894606902E+02  0.13799785822E+03  0.12509100391E+03 0.  0.
         24    2    1    2    0    0 -0.47904356111E+02  0.20829861862E+02  0.14522559912E+03  0.16701966927E+03  0.63846572381E+02 0.  0.
        -11    1    5    5    0    0 -0.10274218797E+02  0.39198501386E+02  0.67389922538E+02  0.78635130460E+02  0.00000000000E+00 0.  1.
         12    1    5    5    0    0 -0.37630137314E+02 -0.18368639524E+02  0.77835676578E+02  0.88384538809E+02  0.00000000000E+00 0. -1.
         11    1    3    3    0    0  0.82147339325E+01 -0.53219648105E+02 -0.74160814120E+03  0.74356065515E+03  0.00000000000E+00 0. -1.
        -12    1    3    3    0    0  0.33294962531E+02 -0.18370915554E+02 -0.19359066881E+04  0.19362801321E+04  0.00000000000E+00 0.  1.
          5    1    4    4  501    0 -0.33764572626E+02 -0.68863014758E+01  0.52930095728E+02  0.63297195407E+02  0.41800000000E+01 0. -1.
         -5    1    4    4    0  501  0.40159232273E+02  0.57647003273E+02 -0.25035488826E+02  0.74700662808E+02  0.41800000000E+01 0. -1.
</event>
<event>
11    1  0.7577197E-009  0.1374320E+03  0.7561462E-02  0.1110460E+00
         22   -1    0    0    0    0  0.00000000000E+00  0.00000000000E+00  0.19382216396E+04  0.19382216396E+04  0.00000000000E+00 0. -1.
         22   -1    0    0    0    0 -0.00000000000E+00 -0.00000000000E+00 -0.78111876194E+02  0.78111876194E+02  0.00000000000E+00 0. -1.
         24    2    1    2    0    0  0.61970654724E+02  0.16135702525E+02 -0.27347751233E+02  0.10617009061E+03  0.80146526432E+02 0.  0.
         25    2    1    2    0    0 -0.48978172449E+01 -0.45628212348E+02  0.45799829445E+03  0.47699087161E+03  0.12510767965E+03 0.  0.
        -24    2    1    2    0    0 -0.57072837479E+02  0.29492509823E+02  0.14294592202E+04  0.14331725536E+04  0.80639873629E+02 0.  0.
        -11    1    3    3    0    0  0.24836106288E+01 -0.28254337309E+02 -0.74451569627E+01  0.29324158312E+02  0.00000000000E+00 0.  1.
         12    1    3    3    0    0  0.59487044095E+02  0.44390039834E+02 -0.19902594270E+02  0.76845932295E+02  0.00000000000E+00 0. -1.
         11    1    5    5    0    0 -0.39460896927E+02  0.33391279496E+02  0.13714414125E+04  0.13724152753E+04  0.00000000000E+00 0. -1.
        -12    1    5    5    0    0 -0.17611940552E+02 -0.38987696734E+01  0.58017807647E+02  0.60757278241E+02  0.00000000000E+00 0.  1.
          5    1    4    4  501    0  0.91095353111E+01 -0.78630525884E+02  0.18027967315E+03  0.19693647754E+03  0.41800000000E+01 0.  1.
         -5    1    4    4    0  501 -0.14007352556E+02  0.33002313536E+02  0.27771862130E+03  0.28005439407E+03  0.41800000000E+01 0.  1.
</event>
<event>
11    1  0.7577197E-009  0.1375383E+03  0.7561462E-02  0.1110339E+00
         22   -1    0    0    0    0  0.00000000000E+00  0.00000000000E+00  0.16446951660E+04  0.16446951660E+04  0.00000000000E+00 0.  1.
         22   -1    0    0    0    0 -0.00000000000E+00 -0.00000000000E+00 -0.39265118705E+03  0.39265118705E+03  0.00000000000E+00 0.  1.
        -24    2    1    2    0    0  0.29040798938E+01  0.59197970228E+01 -0.35036099975E+03  0.35980330301E+03  0.81621743604E+02 0.  0.
         25    2    1    2    0    0  0.81108957984E+01  0.50423219706E+02  0.91270420565E+02  0.16307016986E+03  0.12511316042E+03 0.  0.
         24    2    1    2    0    0 -0.11014975692E+02 -0.56343016729E+02  0.15111345581E+04  0.15144728802E+04  0.82489919354E+02 0.  0.
        -13    1    5    5    0    0 -0.29876180322E+02 -0.69678947535E+02  0.12597524506E+04  0.12620316868E+04  0.00000000000E+00 0.  1.
         14    1    5    5    0    0  0.18861204630E+02  0.13335930807E+02  0.25138210757E+03  0.25244119334E+03  0.00000000000E+00 0. -1.
         13    1    3    3    0    0 -0.21843170270E+02 -0.18255630216E+02 -0.50646465864E+02  0.58098680076E+02  0.00000000000E+00 0. -1.
        -14    1    3    3    0    0  0.24747250164E+02  0.24175427239E+02 -0.29971453389E+03  0.30170462293E+03  0.00000000000E+00 0.  1.
          5    1    4    4  501    0  0.57418254533E+02  0.61686875195E+02  0.57838119872E+02  0.10229783495E+03  0.41800000000E+01 0.  1.
         -5    1    4    4    0  501 -0.49307358735E+02 -0.11263655490E+02  0.33432300692E+02  0.60772334906E+02  0.41800000000E+01 0.  1.
</event>
<event>
11    1  0.7577197E-009  0.1483731E+03  0.7561462E-02  0.1098553E+00
         22   -1    0    0    0    0  0.00000000000E+00  0.00000000000E+00  0.62814510326E+03  0.62814510326E+03  0.00000000000E+00 0. -1.
         22   -1    0    0    0    0 -0.00000000000E+00 -0.00000000000E+00 -0.46468912989E+03  0.46468912989E+03  0.00000000000E+00 0.  1.
        -24    2    1    2    0    0  0.33167491947E+02 -0.10993224408E+02 -0.42212575598E+03  0.43113429320E+03  0.80409523123E+02 0.  0.
         25    2    1    2    0    0  0.28575677180E+02  0.66353190349E+02  0.13908406431E+03  0.20052662367E+03  0.12508890701E+03 0.  0.
         24    2    1    2    0    0 -0.61743169127E+02 -0.55359965941E+02  0.44649766503E+03  0.46117331628E+03  0.80272772480E+02 0.  0.
        -13    1    5    5    0    0  0.49721934797E+01  0.11805344471E+02  0.16558492852E+02  0.20934960034E+02  0.00000000000E+00 0.  1.
         14    1    5    5    0    0 -0.66715362607E+02 -0.67165310412E+02  0.42993917218E+03  0.44023835624E+03  0.00000000000E+00 0. -1.
         13    1    3    3    0    0  0.36524254359E+02  0.76204186310E+01 -0.77743881272E+02  0.86233421663E+02  0.00000000000E+00 0. -1.
        -14    1    3    3    0    0 -0.33567624118E+01 -0.18613643039E+02 -0.34438187470E+03  0.34490087154E+03  0.00000000000E+00 0.  1.
          5    1    4    4  501    0 -0.24409230395E+02  0.80509019057E+02  0.56951679213E+02  0.10167831058E+03  0.41800000000E+01 0.  1.
         -5    1    4    4    0  501  0.52984907576E+02 -0.14155828708E+02  0.82132385101E+02  0.98848313084E+02  0.41800000000E+01 0.  1.
</event>
<event>
11    1  0.7577197E-009  0.1377419E+03  0.7561462E-02  0.1110106E+00
         22   -1    0    0    0    0  0.00000000000E+00  0.00000000000E+00  0.27006380462E+03  0.27006380462E+03  0.00000000000E+00 0. -1.
         22   -1    0    0    0    0 -0.00000000000E+00 -0.00000000000E+00 -0.88125826222E+03  0.88125826222E+03  0.00000000000E+00 0.  1.
        -24    2    1    2    0    0 -0.71961840102E+01  0.38218380909E+01 -0.79723888060E+03  0.80203217358E+03  0.87174441252E+02 0.  0.
         25    2    1    2    0    0  0.17090461622E+02 -0.59825609085E+02  0.19860940410E+01  0.13972435004E+03  0.12509101504E+03 0.  0.
         24    2    1    2    0    0 -0.98942776116E+01  0.56003770994E+02  0.18405832896E+03  0.20956554322E+03  0.82498056634E+02 0.  0.
        -13    1    5    5    0    0 -0.26158049112E+02 -0.54950625334E+01  0.19344439507E+02  0.32994644799E+02  0.00000000000E+00 0.  1.
         14    1    5    5    0    0  0.16263771500E+02  0.61498833528E+02  0.16471388945E+03  0.17657089842E+03  0.00000000000E+00 0. -1.
         11    1    3    3    0    0 -0.17977462708E+02  0.41916386472E+02 -0.33312282356E+03  0.33623055809E+03  0.00000000000E+00 0. -1.
        -12    1    3    3    0    0  0.10781278698E+02 -0.38094548381E+02 -0.46411605704E+03  0.46580161549E+03  0.00000000000E+00 0.  1.
          5    1    4    4  501    0  0.19152723098E+02 -0.77015568302E+02 -0.43696710016E+02  0.90692333905E+02  0.41800000000E+01 0. -1.
         -5    1    4    4    0  501 -0.20622614762E+01  0.17189959217E+02  0.45682804056E+02  0.49032016140E+02  0.41800000000E+01 0. -1.
</event>
<event>
11    1  0.7577197E-009  0.1587517E+03  0.7561462E-02  0.1088257E+00
         22   -1    0    0    0    0  0.00000000000E+00  0.00000000000E+00  0.66929399091E+02  0.66929399091E+02  0.00000000000E+00 0. -1.
         22   -1    0    0    0    0 -0.00000000000E+00 -0.00000000000E+00 -0.97539490757E+03  0.97539490757E+03  0.00000000000E+00 0.  1.
        -24    2    1    2    0    0 -0.30933517039E+02  0.47561084286E+02 -0.63423866769E+03  0.64170568801E+03  0.79426464169E+02 0.  0.
         25    2    1    2    0    0 -0.59175032407E+02  0.29478658617E+02 -0.18304688253E+03  0.23135359510E+03  0.12509056313E+03 0.  0.
         24    2    1    2    0    0  0.90108549446E+02 -0.77039742903E+02 -0.91179958258E+02  0.16926502356E+03  0.79260272161E+02 0.  0.
        -11    1    5    5    0    0  0.68251908327E+02 -0.66121767468E+01 -0.49376057766E+02  0.84498751187E+02  0.00000000000E+00 0.  1.
         12    1    5    5    0    0  0.21856641119E+02 -0.70427566156E+02 -0.41803900492E+02  0.84766272373E+02  0.00000000000E+00 0. -1.
         13    1    3    3    0    0 -0.38730469480E+02  0.52550198006E+02 -0.28647374177E+03  0.29381759189E+03  0.00000000000E+00 0. -1.
        -14    1    3    3    0    0  0.77969524409E+01 -0.49891137196E+01 -0.34776492592E+03  0.34788809612E+03  0.00000000000E+00 0.  1.
          5    1    4    4  501    0 -0.34552233709E+02 -0.44852279248E+02 -0.11187791724E+03  0.12545805902E+03  0.41800000000E+01 0.  1.
         -5    1    4    4    0  501 -0.24622798698E+02  0.74330937865E+02 -0.71168965294E+02  0.10589553608E+03  0.41800000000E+01 0.  1.
</event>
<event>
11    1  0.7577197E-009  0.1346686E+03  0.7561462E-02  0.1113662E+00
         22   -1    0    0    0    0  0.00000000000E+00  0.00000000000E+00  0.16117743782E+04  0.16117743782E+04  0.00000000000E+00 0. -1.
         22   -1    0    0    0    0 -0.00000000000E+00 -0.00000000000E+00 -0.81315781229E+03  0.81315781229E+03  0.00000000000E+00 0.  1.
         24    2    1    2    0    0 -0.16098308138E+02  0.12522217083E+02 -0.52221994127E+03  0.52889328266E+03  0.81231003522E+02 0.  0.
         25    2    1    2    0    0  0.10491030355E+02  0.37089859523E+02 -0.27122165158E+03  0.30115894202E+03  0.12509917935E+03 0.  0.
        -24    2    1    2    0    0  0.56072777833E+01 -0.49612076606E+02  0.15920581588E+04  0.15948799658E+04  0.80623350991E+02 0.  0.
        -11    1    3    3    0    0 -0.14356026742E+02  0.11027808725E+02 -0.52498647510E+03  0.52529849334E+03  0.00000000000E+00 0.  1.
         12    1    3    3    0    0 -0.17422813960E+01  0.14944083582E+01  0.27665338283E+01  0.35947893161E+01  0.00000000000E+00 0. -1.
         11    1    5    5    0    0  0.37093103237E+02 -0.24326035030E+01  0.74300272335E+03  0.74393202833E+03  0.00000000000E+00 0. -1.
        -12    1    5    5    0    0 -0.31485825454E+02 -0.47179473103E+02  0.84905543543E+03  0.85094793749E+03  0.00000000000E+00 0.  1.
          5    1    4    4  501    0  0.32128371316E+02 -0.52241222356E+01 -0.81745521437E+01  0.33820399159E+02  0.41800000000E+01 0. -1.
         -5    1    4    4    0  501 -0.21637340961E+02  0.42313981758E+02 -0.26304709944E+03  0.26733854286E+03  0.41800000000E+01 0. -1.
</event>
<event>
11    1  0.7577197E-009  0.1602398E+03  0.7561462E-02  0.1086852E+00
         22   -1    0    0    0    0  0.00000000000E+00  0.00000000000E+00  0.18438314925E+03  0.18438314925E+03  0.00000000000E+00 0.  1.
         22   -1    0    0    0    0 -0.00000000000E+00 -0.00000000000E+00 -0.33546824704E+04  0.33546824704E+04  0.00000000000E+00 0.  1.
         24    2    1    2    0    0 -0.32685185397E+02  0.81853489161E+01 -0.27132567274E+04  0.27146104515E+04  0.78819498090E+02 0.  0.
         25    2    1    2    0    0 -0.18950772244E+02 -0.94401498572E+02 -0.60700727047E+03  0.62719760466E+03  0.12509290222E+03 0.  0.
        -24    2    1    2    0    0  0.51635957641E+02  0.86216149656E+02  0.14996467672E+03  0.19725756350E+03  0.79508776318E+02 0.  0.
        -13    1    3    3    0    0 -0.48598851449E+02  0.62678223542E+01 -0.25687752355E+04  0.25692425624E+04  0.00000000000E+00 0.  1.
         14    1    3    3    0    0  0.15913666052E+02  0.19175265619E+01 -0.14448149191E+03  0.14536788909E+03  0.00000000000E+00 0. -1.
         11    1    5    5    0    0  0.31759936713E+01  0.37475107543E+02  0.11325576611E+03  0.11933708216E+03  0.00000000000E+00 0. -1.
        -12    1    5    5    0    0  0.48459963970E+02  0.48741042113E+02  0.36708910608E+02  0.77920481340E+02  0.00000000000E+00 0.  1.
          5    1    4    4  501    0 -0.21362093407E+02 -0.37544859540E+02 -0.52777795188E+03  0.52955924542E+03  0.41800000000E+01 0. -1.
         -5    1    4    4    0  501  0.24113211629E+01 -0.56856639032E+02 -0.79229318581E+02  0.97638359237E+02  0.41800000000E+01 0. -1.
</event>
<event>
11    1  0.7577197E-009  0.1669849E+03  0.7561462E-02  0.1080686E+00
         22   -1    0    0    0    0  0.00000000000E+00  0.00000000000E+00  0.80013233042E+03  0.80013233042E+03  0.00000000000E+00 0. -1.
         22   -1    0    0    0    0 -0.00000000000E+00 -0.00000000000E+00 -0.12234102330E+03  0.12234102330E+03  0.00000000000E+00 0.  1.
        -24    2    1    2    0    0 -0.88628200677E+02  0.30936158200E+02  0.56808190039E+02  0.13616420477E+03  0.80631981031E+02 0.  0.
         25    2    1    2    0    0  0.89129069077E+02 -0.10665769724E+03  0.34936570219E+02  0.19023141131E+03  0.12509024972E+03 0.  0.
         24    2    1    2    0    0 -0.50086839964E+00  0.75721539041E+02  0.58604654686E+03  0.59607773764E+03  0.78256705033E+02 0.  0.
        -11    1    5    5    0    0 -0.17333670429E+02  0.46053331135E+02  0.13405592413E+03  0.14280180753E+03  0.00000000000E+00 0.  1.
         12    1    5    5    0    0  0.16832802030E+02  0.29668207906E+02  0.45199062273E+03  0.45327593011E+03  0.00000000000E+00 0. -1.
         13    1    3    3    0    0 -0.32729186824E+02  0.19561252985E+02  0.68067161150E+02  0.78019104811E+02  0.00000000000E+00 0. -1.
        -14    1    3    3    0    0 -0.55899013853E+02  0.11374905215E+02 -0.11258971111E+02  0.58145099956E+02  0.00000000000E+00 0.  1.
          5    1    4    4  501    0  0.80599248206E+01 -0.49714487448E+02 -0.41210212116E+02  0.65209252664E+02  0.41800000000E+01 0.  1.
         -5    1    4    4    0  501  0.81069144256E+02 -0.56943209793E+02  0.76146782335E+02  0.12502215864E+03  0.41800000000E+01 0.  1.
</event>
<event>
11    1  0.7577197E-009  0.1655679E+03  0.7561462E-02  0.1081954E+00
         22   -1    0    0    0    0  0.00000000000E+00  0.00000000000E+00  0.60180564129E+03  0.60180564129E+03  0.00000000000E+00 0.  1.
         22   -1    0    0    0    0 -0.00000000000E+00 -0.00000000000E+00 -0.17609602727E+03  0.17609602727E+03  0.00000000000E+00 0. -1.
         24    2    1    2    0    0 -0.10493826264E+03  0.34793036394E+02 -0.11122917258E+03  0.17588812067E+03  0.79637351857E+02 0.  0.
         25    2    1    2    0    0  0.91708026263E+02 -0.22260438852E+02  0.19547840941E+03  0.25052849411E+03  0.12508728390E+03 0.  0.
        -24    2    1    2    0    0  0.13230236377E+02 -0.12532597541E+02  0.34146037718E+03  0.35148505378E+03  0.81329260976E+02 0.  0.
        -13    1    3    3    0    0 -0.80593356262E+02 -0.13105142644E+02 -0.76653140515E+02  0.11199436498E+03  0.00000000000E+00 0.  1.
         14    1    3    3    0    0 -0.24344906378E+02  0.47898179038E+02 -0.34576032066E+02  0.63893755682E+02  0.00000000000E+00 0. -1.
         11    1    5    5    0    0  0.27076508281E+02 -0.25611740395E+02  0.32237200729E+03  0.32451935170E+03  0.00000000000E+00 0. -1.
        -12    1    5    5    0    0 -0.13846271904E+02  0.13079142853E+02  0.19088369896E+02  0.26965702080E+02  0.00000000000E+00 0.  1.
          5    1    4    4  501    0 -0.14990614357E+02  0.29013449875E+02  0.73307679008E+02  0.80361601490E+02  0.41800000000E+01 0.  1.
         -5    1    4    4    0  501  0.10669864062E+03 -0.51273888728E+02  0.12217073041E+03  0.17016689262E+03  0.41800000000E+01 0.  1.
</event>
<event>
11    1  0.7577197E-009  0.1470315E+03  0.7561462E-02  0.1099951E+00
         22   -1    0    0    0    0  0.00000000000E+00  0.00000000000E+00  0.19074498196E+04  0.19074498196E+04  0.00000000000E+00 0.  1.
         22   -1    0    0    0    0 -0.00000000000E+00 -0.00000000000E+00 -0.45841705445E+03  0.45841705445E+03  0.00000000000E+00 0. -1.
        -24    2    1    2    0    0  0.42783622970E+02 -0.63901218068E+02 -0.42656156994E+03  0.44137625901E+03  0.83333216691E+02 0.  0.
         25    2    1    2    0    0 -0.14926080780E+02  0.99524845580E+02  0.25680555481E+03  0.30286011508E+03  0.12508866274E+03 0.  0.
         24    2    1    2    0    0 -0.27857542190E+02 -0.35623627512E+02  0.16187887803E+04  0.16216305000E+04  0.84636149269E+02 0.  0.
        -13    1    5    5    0    0  0.71403357964E+01 -0.45735890632E+02  0.12898967064E+04  0.12907270313E+04  0.00000000000E+00 0.  1.
         14    1    5    5    0    0 -0.34997877987E+02  0.10112263121E+02  0.32889207391E+03  0.33090346872E+03  0.00000000000E+00 0. -1.
         13    1    3    3    0    0  0.47917566489E+02 -0.69498532613E+02 -0.42539734356E+03  0.43369233233E+03  0.00000000000E+00 0. -1.
        -14    1    3    3    0    0 -0.51339435193E+01  0.55973145445E+01 -0.11642263786E+01  0.76839266805E+01  0.00000000000E+00 0.  1.
          5    1    4    4  501    0  0.24173029291E+02  0.35236471342E+02  0.20956279349E+03  0.21391582708E+03  0.41800000000E+01 0. -1.
         -5    1    4    4    0  501 -0.39099110071E+02  0.64288374239E+02  0.47242761320E+02  0.88944287999E+02  0.41800000000E+01 0. -1.
</event>
<event>
11    1  0.7577197E-009  0.2279362E+03  0.7561462E-02  0.1036357E+00
         22   -1    0    0    0    0  0.00000000000E+00  0.00000000000E+00  0.60511514530E+03  0.60511514530E+03  0.00000000000E+00 0. -1.
         22   -1    0    0    0    0 -0.00000000000E+00 -0.00000000000E+00 -0.12005928014E+04  0.12005928014E+04  0.00000000000E+00 0.  1.
        -24    2    1    2    0    0  0.17162808666E+03  0.73725846184E+02 -0.10689458384E+04  0.10881659593E+04  0.81044734475E+02 0.  0.
         25    2    1    2    0    0 -0.32066732143E+03 -0.11686143187E+03  0.29808166285E+03  0.47008685564E+03  0.12507937011E+03 0.  0.
         24    2    1    2    0    0  0.14903923478E+03  0.43135585688E+02  0.17538651951E+03  0.24745513171E+03  0.80001492040E+02 0.  0.
        -13    1    5    5    0    0  0.11075373832E+03  0.49808734715E+02  0.16894560795E+03  0.20806229609E+03  0.00000000000E+00 0.  1.
         14    1    5    5    0    0  0.38285496457E+02 -0.66731490275E+01  0.64409115578E+01  0.39392835625E+02  0.00000000000E+00 0. -1.
         11    1    3    3    0    0  0.56237857471E+02  0.57054511639E+02 -0.30364525825E+03  0.31403559793E+03  0.00000000000E+00 0. -1.
        -12    1    3    3    0    0  0.11539022919E+03  0.16671334545E+02 -0.76530058017E+03  0.77413036137E+03  0.00000000000E+00 0.  1.
          5    1    4    4  501    0 -0.72757711935E+02  0.77452661640E+01  0.17265748834E+02  0.75294437224E+02  0.41800000000E+01 0.  1.
         -5    1    4    4    0  501 -0.24790960950E+03 -0.12460669804E+03  0.28081591402E+03  0.39479241842E+03  0.41800000000E+01 0.  1.
</event>
<event>
11    1  0.7577197E-009  0.1937881E+03  0.7561462E-02  0.1059005E+00
         22   -1    0    0    0    0  0.00000000000E+00  0.00000000000E+00  0.26116614610E+03  0.26116614610E+03  0.00000000000E+00 0. -1.
         22   -1    0    0    0    0 -0.00000000000E+00 -0.00000000000E+00 -0.50039670776E+03  0.50039670776E+03  0.00000000000E+00 0.  1.
        -24    2    1    2    0    0 -0.24836557333E+02  0.38077209227E+01 -0.34697364763E+03  0.35797715332E+03  0.84413131855E+02 0.  0.
         25    2    1    2    0    0  0.97278460022E+02 -0.12745344475E+03 -0.65543829334E+01  0.20346493706E+03  0.12509013276E+03 0.  0.
         24    2    1    2    0    0 -0.72441902689E+02  0.12364572383E+03  0.11429746890E+03  0.20012076349E+03  0.80301396593E+02 0.  0.
        -11    1    5    5    0    0 -0.30855589230E+02  0.19641419369E+02  0.71312525220E+02  0.80145673588E+02  0.00000000000E+00 0.  1.
         12    1    5    5    0    0 -0.41586313459E+02  0.10400430446E+03  0.42984943684E+02  0.11997508990E+03  0.00000000000E+00 0. -1.
         13    1    3    3    0    0 -0.22439313662E+02  0.11228521400E+02 -0.23400807076E+02  0.34310352115E+02  0.00000000000E+00 0. -1.
        -14    1    3    3    0    0 -0.23972436706E+01 -0.74208004776E+01 -0.32357284055E+03  0.32366680120E+03  0.00000000000E+00 0.  1.
          5    1    4    4  501    0  0.43493711833E+02 -0.13547195203E+03 -0.27619158763E+02  0.14499876926E+03  0.41800000000E+01 0.  1.
         -5    1    4    4    0  501  0.53784748189E+02  0.80185072791E+01  0.21064775830E+02  0.58466167802E+02  0.41800000000E+01 0.  1.
</event>
<event>
11    1  0.7577197E-009  0.4670481E+03  0.7561462E-02  0.9470326E-01
         22   -1    0    0    0    0  0.00000000000E+00  0.00000000000E+00  0.40987656904E+03  0.40987656904E+03  0.00000000000E+00 0.  1.
         22   -1    0    0    0    0 -0.00000000000E+00 -0.00000000000E+00 -0.11190892310E+04  0.11190892310E+04  0.00000000000E+00 0.  1.
        -24    2    1    2    0    0 -0.35560730756E+03  0.32886521630E+03 -0.81342738877E+03  0.95009260865E+03  0.80018501141E+02 0.  0.
         25    2    1    2    0    0  0.26573241935E+03 -0.24327097066E+03 -0.25584200844E+02  0.38222626638E+03  0.12509150059E+03 0.  0.
         24    2    1    2    0    0  0.89874888217E+02 -0.85594245636E+02  0.12979892762E+03  0.19664692505E+03  0.80114799515E+02 0.  0.
        -13    1    5    5    0    0 -0.10377632476E+02 -0.15728999120E+00  0.28948550680E+02  0.30752862996E+02  0.00000000000E+00 0.  1.
         14    1    5    5    0    0  0.10025252069E+03 -0.85436955644E+02  0.10085037694E+03  0.16589406205E+03  0.00000000000E+00 0. -1.
         11    1    3    3    0    0 -0.74042040302E+02  0.94678951859E+02 -0.14916582895E+03  0.19156401589E+03  0.00000000000E+00 0. -1.
        -12    1    3    3    0    0 -0.28156526726E+03  0.23418626444E+03 -0.66426155982E+03  0.75852859276E+03  0.00000000000E+00 0.  1.
          5    1    4    4  501    0  0.27663808448E+03 -0.21818118408E+03 -0.32060534226E+02  0.35380363074E+03  0.41800000000E+01 0. -1.
         -5    1    4    4    0  501 -0.10905665133E+02 -0.25089786580E+02  0.64763333812E+01  0.28422635639E+02  0.41800000000E+01 0. -1.
</event>
<event>
11    1  0.7577197E-009  0.1320771E+03  0.7561462E-02  0.1116743E+00
         22   -1    0    0    0    0  0.00000000000E+00  0.00000000000E+00  0.73393356464E+03  0.73393356464E+03  0.00000000000E+00 0. -1.
         22   -1    0    0    0    0 -0.00000000000E+00 -0.00000000000E+00 -0.19292690816E+03  0.19292690816E+03  0.00000000000E+00 0.  1.
         24    2    1    2    0    0 -0.37500416950E+02 -0.18085871369E+02 -0.15667228399E+03  0.18316822518E+03  0.85270241773E+02 0.  0.
         25    2    1    2    0    0  0.63420862574E+02 -0.77077336705E+00  0.24058113604E+03  0.27847685600E+03  0.12508907388E+03 0.  0.
        -24    2    1    2    0    0 -0.25920445624E+02  0.18856644736E+02  0.45709780442E+03  0.46521539163E+03  0.80371109540E+02 0.  0.
        -11    1    3    3    0    0 -0.56926612459E+02 -0.34311548438E+02 -0.13216113866E+03  0.14793406685E+03  0.00000000000E+00 0.  1.
         12    1    3    3    0    0  0.19426195509E+02  0.16225677069E+02 -0.24511145328E+02  0.35234158335E+02  0.00000000000E+00 0. -1.
         13    1    5    5    0    0 -0.18731524456E+02  0.47344266021E+02  0.36528009357E+03  0.36881146442E+03  0.00000000000E+00 0. -1.
        -14    1    5    5    0    0 -0.71889211685E+01 -0.28487621285E+02  0.91817710854E+02  0.96403927205E+02  0.00000000000E+00 0.  1.
          5    1    4    4  501    0  0.88939848134E+02  0.79573536684E+01  0.23386892800E+03  0.25037125224E+03  0.41800000000E+01 0.  1.
         -5    1    4    4    0  501 -0.25518985560E+02 -0.87281270355E+01  0.67122080399E+01  0.28105603753E+02  0.41800000000E+01 0.  1.
</event>
<event>
11    1  0.7577197E-009  0.1737864E+03  0.7561462E-02  0.1074783E+00
         22   -1    0    0    0    0  0.00000000000E+00  0.00000000000E+00  0.10984119572E+04  0.10984119572E+04  0.00000000000E+00 0. -1.
         22   -1    0    0    0    0 -0.00000000000E+00 -0.00000000000E+00 -0.12507653191E+04  0.12507653191E+04  0.00000000000E+00 0.  1.
        -24    2    1    2    0    0 -0.10477143779E+02  0.93519345378E+02 -0.12186205259E+04  0.12250761825E+04  0.83186707218E+02 0.  0.
         25    2    1    2    0    0  0.12459425536E+03 -0.96769642027E+02  0.46475167476E+03  0.50648762488E+03  0.12508997912E+03 0.  0.
         24    2    1    2    0    0 -0.11411711158E+03  0.32502966488E+01  0.60151548932E+03  0.61761346889E+03  0.81192570362E+02 0.  0.
        -13    1    5    5    0    0  0.89850518646E+01 -0.12865288359E+02  0.79901258509E+02  0.81427623771E+02  0.00000000000E+00 0.  1.
         14    1    5    5    0    0 -0.12310216344E+03  0.16115585008E+02  0.52161423081E+03  0.53618584512E+03  0.00000000000E+00 0. -1.
         11    1    3    3    0    0  0.91808676278E+01  0.17200547916E+02 -0.48041642748E+02  0.51847339536E+02  0.00000000000E+00 0. -1.
        -12    1    3    3    0    0 -0.19658011407E+02  0.76318797462E+02 -0.11705788832E+04  0.11732288430E+04  0.00000000000E+00 0.  1.
          5    1    4    4  501    0  0.13516453496E+03 -0.65541297197E+02  0.44027290689E+03  0.46521265900E+03  0.41800000000E+01 0.  1.
         -5    1    4    4    0  501 -0.10570279607E+02 -0.31228344830E+02  0.24478767865E+02  0.41274965875E+02  0.41800000000E+01 0.  1.
</event>
<event>
11    1  0.7577197E-009  0.1555779E+03  0.7561462E-02  0.1091312E+00
         22   -1    0    0    0    0  0.00000000000E+00  0.00000000000E+00  0.83839120253E+02  0.83839120253E+02  0.00000000000E+00 0.  1.
         22   -1    0    0    0    0 -0.00000000000E+00 -0.00000000000E+00 -0.70262726075E+03  0.70262726075E+03  0.00000000000E+00 0. -1.
        -24    2    1    2    0    0 -0.11583941222E+02  0.11384694025E+03 -0.31775879915E+03  0.35437452047E+03  0.10730951880E+03 0.  0.
         25    2    1    2    0    0  0.71575829364E+02 -0.49873079273E+02 -0.27036999889E+03  0.31041636801E+03  0.12509181366E+03 0.  0.
         24    2    1    2    0    0 -0.59991888142E+02 -0.63973860974E+02 -0.30659342462E+02  0.12167549252E+03  0.78570023990E+02 0.  0.
        -11    1    5    5    0    0 -0.69353679227E+01  0.17006474133E+02 -0.14766811275E+02  0.23566463584E+02  0.00000000000E+00 0.  1.
         12    1    5    5    0    0 -0.53056520220E+02 -0.80980335107E+02 -0.15892531188E+02  0.98109028939E+02  0.00000000000E+00 0. -1.
         11    1    3    3    0    0 -0.16947793183E+02  0.13304097870E+03 -0.29541826843E+03  0.32443656241E+03  0.00000000000E+00 0. -1.
        -12    1    3    3    0    0  0.53638519609E+01 -0.19194038454E+02 -0.22340530720E+02  0.29937958061E+02  0.00000000000E+00 0.  1.
          5    1    4    4  501    0 -0.15732202336E+02  0.22676294518E+02 -0.11259206079E+03  0.11600069429E+03  0.41800000000E+01 0. -1.
         -5    1    4    4    0  501  0.87308031700E+02 -0.72549373791E+02 -0.15777793810E+03  0.19441567372E+03  0.41800000000E+01 0. -1.
</event>
<event>
11    1  0.7577197E-009  0.3768673E+03  0.7561462E-02  0.9720591E-01
         22   -1    0    0    0    0  0.00000000000E+00  0.00000000000E+00  0.30722774590E+04  0.30722774590E+04  0.00000000000E+00 0.  1.
         22   -1    0    0    0    0 -0.00000000000E+00 -0.00000000000E+00 -0.82744382874E+03  0.82744382874E+03  0.00000000000E+00 0. -1.
        -24    2    1    2    0    0  0.34554934242E+02  0.35182194267E+03 -0.72439424904E+03  0.80954868081E+03  0.75161930046E+02 0.  0.
         25    2    1    2    0    0 -0.38349367170E+02 -0.38608828156E+03  0.63670442792E+03  0.75602599149E+03  0.12509171099E+03 0.  0.
         24    2    1    2    0    0  0.37944329281E+01  0.34266338889E+02  0.23325234514E+04  0.23341466155E+04  0.79913649676E+02 0.  0.
        -11    1    5    5    0    0 -0.15080933893E+02  0.54151073559E+02  0.18420505548E+04  0.18429080335E+04  0.00000000000E+00 0.  1.
         12    1    5    5    0    0  0.18875366821E+02 -0.19884734670E+02  0.49047289661E+03  0.49123858201E+03  0.00000000000E+00 0. -1.
         13    1    3    3    0    0  0.56648008952E+02  0.25768092865E+03 -0.55436843726E+03  0.61394855008E+03  0.00000000000E+00 0. -1.
        -14    1    3    3    0    0 -0.22093074709E+02  0.94141014023E+02 -0.17002581178E+03  0.19560013073E+03  0.00000000000E+00 0.  1.
          5    1    4    4  501    0 -0.19506593135E+02 -0.13408930435E+03  0.34142484458E+03  0.36735384252E+03  0.41800000000E+01 0. -1.
         -5    1    4    4    0  501 -0.18842774036E+02 -0.25199897722E+03  0.29527958333E+03  0.38867214897E+03  0.41800000000E+01 0. -1.
</event>
<event>
11    1  0.7577197E-009  0.1958819E+03  0.7561462E-02  0.1057475E+00
         22   -1    0    0    0    0  0.00000000000E+00  0.00000000000E+00  0.95801626953E+03  0.95801626953E+03  0.00000000000E+00 0.  1.
         22   -1    0    0    0    0 -0.00000000000E+00 -0.00000000000E+00 -0.85016887661E+03  0.85016887661E+03  0.00000000000E+00 0.  1.
         24    2    1    2    0    0  0.80711581225E+02 -0.53419272311E+02 -0.75726347256E+03  0.76765598420E+03  0.80496988778E+02 0.  0.
         25    2    1    2    0    0 -0.47022534464E+02 -0.10068634043E+03  0.10346717236E+02  0.16764456082E+03  0.12509510909E+03 0.  0.
        -24    2    1    2    0    0 -0.33689046761E+02  0.15410561274E+03  0.85476414825E+03  0.87288460113E+03  0.80139166562E+02 0.  0.
        -13    1    3    3    0    0 -0.41092160136E+01 -0.33975773302E+02 -0.31945558811E+03  0.32128353771E+03  0.00000000000E+00 0.  1.
         14    1    3    3    0    0  0.84820797239E+02 -0.19443499009E+02 -0.43780788445E+03  0.44637244649E+03  0.00000000000E+00 0. -1.
         13    1    5    5    0    0 -0.49293512415E+02  0.13729668492E+03  0.61671387755E+03  0.63373199131E+03  0.00000000000E+00 0. -1.
        -14    1    5    5    0    0  0.15604465654E+02  0.16808927820E+02  0.23805027070E+03  0.23915260982E+03  0.00000000000E+00 0.  1.
          5    1    4    4  501    0  0.26213314956E+02 -0.59535796562E+02  0.42259102775E+02  0.77684960710E+02  0.41800000000E+01 0.  1.
         -5    1    4    4    0  501 -0.73235849420E+02 -0.41150543864E+02 -0.31912385539E+02  0.89959600107E+02  0.41800000000E+01 0.  1.
</event>
<event>
11    1  0.7577197E-009  0.1919711E+03  0.7561462E-02  0.1060351E+00
         22   -1    0    0    0    0  0.00000000000E+00  0.00000000000E+00  0.96753083552E+03  0.96753083552E+03  0.00000000000E+00 0.  1.
         22   -1    0    0    0    0 -0.00000000000E+00 -0.00000000000E+00 -0.12473945029E+03  0.12473945029E+03  0.00000000000E+00 0.  1.
        -24    2    1    2    0    0  0.80606326889E+02 -0.14685013399E+03  0.35402715501E+01  0.18578564231E+03  0.80258517163E+02 0.  0.
         25    2    1    2    0    0 -0.23908618981E+02  0.94754034896E+02  0.18908925004E+03  0.24688440029E+03  0.12508882219E+03 0.  0.
         24    2    1    2    0    0 -0.56697707909E+02  0.52096099097E+02  0.65016186364E+03  0.65960024321E+03  0.80208467755E+02 0.  0.
        -11    1    5    5    0    0 -0.63734941160E+02  0.16078417437E+02  0.52710518211E+03  0.53118784930E+03  0.00000000000E+00 0.  1.
         12    1    5    5    0    0  0.70372332510E+01  0.36017681660E+02  0.12305668152E+03  0.12841239392E+03  0.00000000000E+00 0. -1.
         13    1    3    3    0    0  0.57517987876E+02 -0.53556641470E+02 -0.29810752856E+02  0.84055420769E+02  0.00000000000E+00 0. -1.
        -14    1    3    3    0    0  0.23088339013E+02 -0.93293492523E+02  0.33351024406E+02  0.10173022154E+03  0.00000000000E+00 0.  1.
          5    1    4    4  501    0 -0.21972163487E+02  0.36669872459E+02 -0.59180315010E+01  0.43358401854E+02  0.41800000000E+01 0.  1.
         -5    1    4    4    0  501 -0.19364554935E+01  0.58084162437E+02  0.19500728154E+03  0.20352599844E+03  0.41800000000E+01 0.  1.
</event>
<event>
11    1  0.7609320E-009  0.1283457E+03  0.7561462E-02  0.1121318E+00
         22   -1    0    0    0    0  0.00000000000E+00  0.00000000000E+00  0.46239298485E+03  0.46239298485E+03  0.00000000000E+00 0. -1.
         22   -1    0    0    0    0 -0.00000000000E+00 -0.00000000000E+00 -0.27725006843E+04  0.27725006843E+04  0.00000000000E+00 0. -1.
         24    2    1    2    0    0  0.11565682665E+03 -0.23217021610E+02 -0.25093153658E+04  0.25134810083E+04  0.83711662729E+02 0.  0.
         25    2    1    2    0    0 -0.23990792565E+02 -0.66056078123E+01 -0.23569112579E+03  0.26798697885E+03  0.12509005506E+03 0.  0.
        -24    2    1    2    0    0 -0.91666034082E+02  0.29822629422E+02  0.43489879214E+03  0.45342568198E+03  0.84651276710E+02 0.  0.
        -11    1    3    3    0    0  0.98848941875E+02 -0.35252381208E+02 -0.13830764514E+04  0.13870523833E+04  0.00000000000E+00 0.  1.
         12    1    3    3    0    0  0.16807884772E+02  0.12035359598E+02 -0.11262389144E+04  0.11264286250E+04  0.00000000000E+00 0. -1.
         13    1    5    5    0    0 -0.49267170982E+02 -0.24782678223E+02  0.13860950630E+03  0.14917784860E+03  0.00000000000E+00 0. -1.
        -14    1    5    5    0    0 -0.42398863100E+02  0.54605307645E+02  0.29628928584E+03  0.30424783338E+03  0.00000000000E+00 0.  1.
          5    1    4    4  501    0  0.16526346905E+02  0.12713273760E+02  0.60252613854E+01  0.22102571038E+02  0.41800000000E+01 0. -1.
         -5    1    4    4    0  501 -0.40517139470E+02 -0.19318881573E+02 -0.24171638718E+03  0.24588440781E+03  0.41800000000E+01 0. -1.
</event>
<event>
11    1  0.7577197E-009  0.1649084E+03  0.7561462E-02  0.1082549E+00
         22   -1    0    0    0    0  0.00000000000E+00  0.00000000000E+00  0.21006567875E+03  0.21006567875E+03  0.00000000000E+00 0. -1.
         22   -1    0    0    0    0 -0.00000000000E+00 -0.00000000000E+00 -0.39443963841E+03  0.39443963841E+03  0.00000000000E+00 0. -1.
        -24    2    1    2    0    0 -0.82966533618E+02 -0.67680199896E+02 -0.23493363495E+03  0.27106280159E+03  0.82566182049E+02 0.  0.
         25    2    1    2    0    0  0.12052772997E+03  0.17990979288E+02 -0.58388454643E+02  0.18413961855E+03  0.12509028123E+03 0.  0.
         24    2    1    2    0    0 -0.37561196353E+02  0.49689220608E+02  0.10894812993E+03  0.14930289702E+03  0.80881381838E+02 0.  0.
        -11    1    5    5    0    0 -0.41586480704E+01  0.62756682462E+02  0.86647835499E+02  0.10706793612E+03  0.00000000000E+00 0.  1.
         12    1    5    5    0    0 -0.33402548283E+02 -0.13067461854E+02  0.22300294427E+02  0.42234960905E+02  0.00000000000E+00 0. -1.
         13    1    3    3    0    0 -0.79360964931E+02 -0.58797425417E+02 -0.24049009209E+03  0.25998227706E+03  0.00000000000E+00 0. -1.
        -14    1    3    3    0    0 -0.36055686877E+01 -0.88827744795E+01  0.55564571412E+01  0.11080524535E+02  0.00000000000E+00 0.  1.
          5    1    4    4  501    0  0.31782452917E+02  0.50377313382E+02 -0.66325859701E+02  0.89244552114E+02  0.41800000000E+01 0.  1.
         -5    1    4    4    0  501  0.88745277054E+02 -0.32386334094E+02  0.79374050576E+01  0.94895066439E+02  0.41800000000E+01 0.  1.
</event>
<event>
11    1  0.7577197E-009  0.2752939E+03  0.7561462E-02  0.1011226E+00
         22   -1    0    0    0    0  0.00000000000E+00  0.00000000000E+00  0.38895479269E+04  0.38895479269E+04  0.00000000000E+00 0.  1.
         22   -1    0    0    0    0 -0.00000000000E+00 -0.00000000000E+00 -0.26691315512E+03  0.26691315512E+03  0.00000000000E+00 0. -1.
        -24    2    1    2    0    0 -0.28787199648E+02 -0.14017705066E+02  0.35054488010E+02  0.92520611718E+02  0.79410626141E+02 0.  0.
         25    2    1    2    0    0 -0.89099935916E+01 -0.22864780020E+03 -0.16096571793E+03  0.30645756332E+03  0.12508825381E+03 0.  0.
         24    2    1    2    0    0  0.37697193240E+02  0.24266550527E+03  0.37485460017E+04  0.37574829070E+04  0.82298503296E+02 0.  0.
        -13    1    5    5    0    0 -0.73613516065E+01  0.14677671920E+03  0.25640103215E+04  0.25682185506E+04  0.00000000000E+00 0.  1.
         14    1    5    5    0    0  0.45058544846E+02  0.95888786074E+02  0.11845356802E+04  0.11892643564E+04  0.00000000000E+00 0. -1.
         13    1    3    3    0    0  0.91929970740E+01 -0.38989480116E+02  0.18762594717E+02  0.44234892511E+02  0.00000000000E+00 0. -1.
        -14    1    3    3    0    0 -0.37980196722E+02  0.24971775050E+02  0.16291893293E+02  0.48285719207E+02  0.00000000000E+00 0.  1.
          5    1    4    4  501    0  0.48853770640E+02 -0.12906930199E+03 -0.12371949707E+03  0.18539029634E+03  0.41800000000E+01 0.  1.
         -5    1    4    4    0  501 -0.57763764231E+02 -0.99578498216E+02 -0.37246220859E+02  0.12106726698E+03  0.41800000000E+01 0.  1.
</event>
<event>
11    1  0.7577197E-009  0.1949647E+03  0.7561462E-02  0.1058143E+00
         22   -1    0    0    0    0  0.00000000000E+00  0.00000000000E+00  0.82036164774E+03  0.82036164774E+03  0.00000000000E+00 0.  1.
         22   -1    0    0    0    0 -0.00000000000E+00 -0.00000000000E+00 -0.25702008044E+03  0.25702008044E+03  0.00000000000E+00 0.  1.
        -24    2    1    2    0    0 -0.96924795825E+02  0.11003284941E+03 -0.16232476825E+03  0.23244453126E+03  0.78609705067E+02 0.  0.
         25    2    1    2    0    0  0.95391927385E+02 -0.13617058102E+03  0.13454115672E+03  0.24777225325E+03  0.12509084573E+03 0.  0.
         24    2    1    2    0    0  0.15328684402E+01  0.26137731613E+02  0.59112517883E+03  0.59716494366E+03  0.80569610819E+02 0.  0.
        -11    1    5    5    0    0 -0.24104073217E+02  0.39038882187E+02  0.48701285294E+03  0.48916925455E+03  0.00000000000E+00 0.  1.
         12    1    5    5    0    0  0.25636941657E+02 -0.12901150575E+02  0.10411232589E+03  0.10799568911E+03  0.00000000000E+00 0. -1.
         11    1    3    3    0    0  0.65934698587E+01  0.16815722170E+02  0.61638741602E+00  0.18072694606E+02  0.00000000000E+00 0. -1.
        -12    1    3    3    0    0 -0.10351826568E+03  0.93217127242E+02 -0.16294115567E+03  0.21437183666E+03  0.00000000000E+00 0.  1.
          5    1    4    4  501    0  0.85715522683E+02 -0.10999170338E+03  0.15821385207E+03  0.21093700726E+03  0.41800000000E+01 0.  1.
         -5    1    4    4    0  501  0.96764047013E+01 -0.26178877641E+02 -0.23672695354E+02  0.36835245999E+02  0.41800000000E+01 0.  1.
</event>
<event>
11    1  0.7577197E-009  0.2988621E+03  0.7561462E-02  0.1000674E+00
         22   -1    0    0    0    0  0.00000000000E+00  0.00000000000E+00  0.10271910520E+04  0.10271910520E+04  0.00000000000E+00 0.  1.
         22   -1    0    0    0    0 -0.00000000000E+00 -0.00000000000E+00 -0.39176266223E+03  0.39176266223E+03  0.00000000000E+00 0. -1.
        -24    2    1    2    0    0 -0.42429578539E+02  0.22896743122E+03 -0.92031588699E+02  0.26305832062E+03  0.80644361443E+02 0.  0.
         25    2    1    2    0    0  0.20491116693E+03 -0.31625807010E+03 -0.44516309545E+01  0.39708347667E+03  0.12509083574E+03 0.  0.
         24    2    1    2    0    0 -0.16248158839E+03  0.87290638881E+02  0.73191160941E+03  0.75881191692E+03  0.77980760924E+02 0.  0.
        -13    1    5    5    0    0 -0.85128259786E+02  0.70691047413E+02  0.54022009689E+03  0.55143612312E+03  0.00000000000E+00 0.  1.
         14    1    5    5    0    0 -0.77353328605E+02  0.16599591468E+02  0.19169151251E+03  0.20737579380E+03  0.00000000000E+00 0. -1.
         13    1    3    3    0    0 -0.13931913740E+02  0.19605045969E+03 -0.50593684030E+02  0.20295221562E+03  0.00000000000E+00 0. -1.
        -14    1    3    3    0    0 -0.28497664799E+02  0.32916971538E+02 -0.41437904669E+02  0.60106104994E+02  0.00000000000E+00 0.  1.
          5    1    4    4  501    0  0.78432905672E+02 -0.30026428277E+02  0.34397810783E+00  0.84088630671E+02  0.41800000000E+01 0. -1.
         -5    1    4    4    0  501  0.12647826126E+03 -0.28623164183E+03 -0.47956090624E+01  0.31299484600E+03  0.41800000000E+01 0. -1.
</event>
<event>
11    1  0.7577197E-009  0.1608826E+03  0.7561462E-02  0.1086250E+00
         22   -1    0    0    0    0  0.00000000000E+00  0.00000000000E+00  0.13958275316E+04  0.13958275316E+04  0.00000000000E+00 0. -1.
         22   -1    0    0    0    0 -0.00000000000E+00 -0.00000000000E+00 -0.11237134837E+03  0.11237134837E+03  0.00000000000E+00 0.  1.
         24    2    1    2    0    0 -0.87261971297E+02 -0.66955215437E+02 -0.46902363535E+02  0.14276093692E+03  0.77994877370E+02 0.  0.
         25    2    1    2    0    0  0.47865901689E+02  0.12001776300E+02  0.28749396609E+03  0.31738803885E+03  0.12508876643E+03 0.  0.
        -24    2    1    2    0    0  0.39396069608E+02  0.54953439137E+02  0.10428645806E+04  0.10480499042E+04  0.79184198522E+02 0.  0.
        -11    1    3    3    0    0 -0.33658813211E+01 -0.47846378965E+02 -0.24441102214E+02  0.53832820979E+02  0.00000000000E+00 0.  1.
         12    1    3    3    0    0 -0.83896089976E+02 -0.19108836473E+02 -0.22461261321E+02  0.88928115940E+02  0.00000000000E+00 0. -1.
         11    1    5    5    0    0 -0.17364339323E+02  0.66927561209E+01  0.46901449681E+03  0.46938354411E+03  0.00000000000E+00 0. -1.
        -12    1    5    5    0    0  0.56760408931E+02  0.48260683016E+02  0.57385008383E+03  0.57866636005E+03  0.00000000000E+00 0.  1.
          5    1    4    4  501    0 -0.77626038791E+01  0.52675067135E+02  0.63383163749E+02  0.82884368632E+02  0.41800000000E+01 0.  1.
         -5    1    4    4    0  501  0.55628505568E+02 -0.40673290835E+02  0.22411080234E+03  0.23450367022E+03  0.41800000000E+01 0.  1.
</event>
<event>
11    1  0.7577197E-009  0.1755726E+03  0.7561462E-02  0.1073281E+00
         22   -1    0    0    0    0  0.00000000000E+00  0.00000000000E+00  0.41532108627E+03  0.41532108627E+03  0.00000000000E+00 0. -1.
         22   -1    0    0    0    0 -0.00000000000E+00 -0.00000000000E+00 -0.12119206686E+04  0.12119206686E+04  0.00000000000E+00 0.  1.
         24    2    1    2    0    0 -0.62097247877E+02  0.10406023140E+03 -0.11037784088E+04  0.11132525840E+04  0.79498050699E+02 0.  0.
         25    2    1    2    0    0  0.54018216077E+02 -0.17909713843E+03  0.45081252316E+02  0.22950705124E+03  0.12508962626E+03 0.  0.
        -24    2    1    2    0    0  0.80790318007E+01  0.75036907031E+02  0.26209757420E+03  0.28448211960E+03  0.80864886074E+02 0.  0.
        -13    1    3    3    0    0 -0.72984916176E+02  0.65173380894E+02 -0.91416252174E+03  0.91938429600E+03  0.00000000000E+00 0.  1.
         14    1    3    3    0    0  0.10887668298E+02  0.38886850507E+02 -0.18961588705E+03  0.19386828798E+03  0.00000000000E+00 0. -1.
         11    1    5    5    0    0 -0.85642536021E+01  0.81092377878E+02  0.25018346523E+03  0.26313701082E+03  0.00000000000E+00 0. -1.
        -12    1    5    5    0    0  0.16643285403E+02 -0.60554708471E+01  0.11914108965E+02  0.21345108775E+02  0.00000000000E+00 0.  1.
          5    1    4    4  501    0  0.40689550528E+01 -0.37643097965E+02  0.67757844724E+02  0.77731313775E+02  0.41800000000E+01 0. -1.
         -5    1    4    4    0  501  0.49949261024E+02 -0.14145404047E+03 -0.22676592408E+02  0.15177573747E+03  0.41800000000E+01 0. -1.
</event>
<event>
11    1  0.7577197E-009  0.1505596E+03  0.7561462E-02  0.1096308E+00
         22   -1    0    0    0    0  0.00000000000E+00  0.00000000000E+00  0.29118747357E+04  0.29118747357E+04  0.00000000000E+00 0. -1.
         22   -1    0    0    0    0 -0.00000000000E+00 -0.00000000000E+00 -0.17807464441E+03  0.17807464441E+03  0.00000000000E+00 0.  1.
        -24    2    1    2    0    0 -0.70128607274E+02 -0.75854728184E+01 -0.14419470730E+03  0.17968557468E+03  0.80741756103E+02 0.  0.
         25    2    1    2    0    0  0.15044342994E+02  0.74901109435E+02  0.34980815124E+03  0.37927493486E+03  0.12508886878E+03 0.  0.
         24    2    1    2    0    0  0.55084264280E+02 -0.67315636616E+02  0.25281866474E+04  0.25309888706E+04  0.81309704037E+02 0.  0.
        -13    1    5    5    0    0 -0.95705458547E+00  0.38529586643E+01  0.61132646845E+01  0.72892557269E+01  0.00000000000E+00 0.  1.
         14    1    5    5    0    0  0.56041318865E+02 -0.71168595280E+02  0.25220733827E+04  0.25236996149E+04  0.00000000000E+00 0. -1.
         11    1    3    3    0    0 -0.72459755374E+02  0.18911372498E+02 -0.76967091707E+02  0.10738710055E+03  0.00000000000E+00 0. -1.
        -12    1    3    3    0    0  0.23311481001E+01 -0.26496845316E+02 -0.67227615596E+02  0.72298474132E+02  0.00000000000E+00 0.  1.
          5    1    4    4  501    0  0.82065062808E+01  0.10286465086E+03  0.32509523813E+03  0.34110536407E+03  0.41800000000E+01 0. -1.
         -5    1    4    4    0  501  0.68378367129E+01 -0.27963541430E+02  0.24712913107E+02  0.38169570792E+02  0.41800000000E+01 0. -1.
</event>
<event>
11    1  0.7577197E-009  0.1292958E+03  0.7561462E-02  0.1120137E+00
         22   -1    0    0    0    0  0.00000000000E+00  0.00000000000E+00  0.34277522843E+03  0.34277522843E+03  0.00000000000E+00 0.  1.
         22   -1    0    0    0    0 -0.00000000000E+00 -0.00000000000E+00 -0.61733600617E+03  0.61733600617E+03  0.00000000000E+00 0.  1.
        -24    2    1    2    0    0 -0.28626633683E+02 -0.17122735123E+02 -0.51095599040E+03  0.51833180302E+03  0.80493239957E+02 0.  0.
         25    2    1    2    0    0  0.23039189097E+02  0.10780977175E+02 -0.54477830637E+02  0.13878880227E+03  0.12508982334E+03 0.  0.
         24    2    1    2    0    0  0.55874445866E+01  0.63417579485E+01  0.29087304330E+03  0.30299062931E+03  0.84408273885E+02 0.  0.
        -13    1    5    5    0    0 -0.60385356364E+01 -0.36636048567E+02  0.92319265911E+02  0.99506335606E+02  0.00000000000E+00 0.  1.
         14    1    5    5    0    0  0.11625980223E+02  0.42977806516E+02  0.19855377739E+03  0.20348429371E+03  0.00000000000E+00 0. -1.
         13    1    3    3    0    0 -0.36071100860E+02  0.21046218864E+02 -0.16524779730E+03  0.17044325202E+03  0.00000000000E+00 0. -1.
        -14    1    3    3    0    0  0.74444671769E+01 -0.38168953987E+02 -0.34570819310E+03  0.34788855100E+03  0.00000000000E+00 0.  1.
          5    1    4    4  501    0  0.22056072322E+02 -0.43953532437E+02 -0.66274848434E+02  0.82632991444E+02  0.41800000000E+01 0. -1.
         -5    1    4    4    0  501  0.98311677451E+00  0.54734509612E+02  0.11797017797E+02  0.56155810830E+02  0.41800000000E+01 0. -1.
</event>
<event>
11    1  0.7577197E-009  0.1596599E+03  0.7561462E-02  0.1087398E+00
         22   -1    0    0    0    0  0.00000000000E+00  0.00000000000E+00  0.60314210931E+03  0.60314210931E+03  0.00000000000E+00 0. -1.
         22   -1    0    0    0    0 -0.00000000000E+00 -0.00000000000E+00 -0.55330253335E+03  0.55330253335E+03  0.00000000000E+00 0. -1.
        -24    2    1    2    0    0  0.20317994336E+02  0.14632216262E+02 -0.37646367819E+03  0.38564445010E+03  0.79811141157E+02 0.  0.
         25    2    1    2    0    0 -0.11614221707E+02 -0.11293616923E+03 -0.12176148087E+03  0.20823024718E+03  0.12507801225E+03 0.  0.
         24    2    1    2    0    0 -0.87037726297E+01  0.98303952970E+02  0.54806473502E+03  0.56256994537E+03  0.79815830776E+02 0.  0.
        -13    1    5    5    0    0  0.17289068185E+02  0.88554187574E+02  0.30913782800E+03  0.32203563890E+03  0.00000000000E+00 0.  1.
         14    1    5    5    0    0 -0.25992840815E+02  0.97497653958E+01  0.23892690701E+03  0.24053430648E+03  0.00000000000E+00 0. -1.
         13    1    3    3    0    0  0.29039251833E+00  0.44455526103E+02 -0.25975990978E+03  0.26353669357E+03  0.00000000000E+00 0. -1.
        -14    1    3    3    0    0  0.20027601818E+02 -0.29823309842E+02 -0.11670376840E+03  0.12210775653E+03  0.00000000000E+00 0.  1.
          5    1    4    4  501    0 -0.44574085931E+02 -0.12561483462E+03 -0.96761908977E+02  0.16476126742E+03  0.41800000000E+01 0.  1.
         -5    1    4    4    0  501  0.32959864224E+02  0.12678665393E+02 -0.24999571895E+02  0.43468979752E+02  0.41800000000E+01 0.  1.
</event>
<event>
11    1  0.7577197E-009  0.1294566E+03  0.7561462E-02  0.1119938E+00
         22   -1    0    0    0    0  0.00000000000E+00  0.00000000000E+00  0.37493143637E+03  0.37493143637E+03  0.00000000000E+00 0.  1.
         22   -1    0    0    0    0 -0.00000000000E+00 -0.00000000000E+00 -0.35887748179E+03  0.35887748179E+03  0.00000000000E+00 0.  1.
         24    2    1    2    0    0 -0.12655575190E+02  0.38702469286E+02 -0.24680653946E+03  0.25745875208E+03  0.60938463948E+02 0.  0.
         25    2    1    2    0    0 -0.96592976323E+01 -0.61944238517E+02 -0.52389708827E+02  0.14941020492E+03  0.12509331328E+03 0.  0.
        -24    2    1    2    0    0  0.22314872823E+02  0.23241769231E+02  0.31525020286E+03  0.32693996116E+03  0.80429561815E+02 0.  0.
        -11    1    3    3    0    0 -0.97653228216E+01  0.52742181738E+02 -0.22541350258E+03  0.23170745868E+03  0.00000000000E+00 0.  1.
         12    1    3    3    0    0 -0.28902523687E+01 -0.14039712452E+02 -0.21393036885E+02  0.25751293397E+02  0.00000000000E+00 0. -1.
         13    1    5    5    0    0 -0.25102449528E+02  0.14561589419E+02  0.54238189164E+02  0.61513852282E+02  0.00000000000E+00 0. -1.
        -14    1    5    5    0    0  0.47417322351E+02  0.86801798119E+01  0.26101201370E+03  0.26542610888E+03  0.00000000000E+00 0.  1.
          5    1    4    4  501    0 -0.31383481481E+02  0.32389766649E+01 -0.71252716718E+02  0.78037400773E+02  0.41800000000E+01 0.  1.
         -5    1    4    4    0  501  0.21724183848E+02 -0.65183215182E+02  0.18863007891E+02  0.71372804149E+02  0.41800000000E+01 0.  1.
</event>
<event>
11    1  0.7577197E-009  0.1112375E+04  0.7561462E-02  0.8578910E-01
         22   -1    0    0    0    0  0.00000000000E+00  0.00000000000E+00  0.22946796124E+04  0.22946796124E+04  0.00000000000E+00 0.  1.
         22   -1    0    0    0    0 -0.00000000000E+00 -0.00000000000E+00 -0.22995648331E+04  0.22995648331E+04  0.00000000000E+00 0.  1.
         24    2    1    2    0    0  0.10753715490E+04  0.26372386502E+03 -0.19959470565E+04  0.22841359782E+04  0.86592544820E+02 0.  0.
         25    2    1    2    0    0 -0.10470233677E+04 -0.25878721610E+03  0.18676571202E+04  0.21603280293E+04  0.12508125205E+03 0.  0.
        -24    2    1    2    0    0 -0.28348181304E+02 -0.49366489193E+01  0.12340471567E+03  0.14978043809E+03  0.79859037682E+02 0.  0.
        -13    1    3    3    0    0  0.55920613348E+03  0.12253135475E+03 -0.11155143403E+04  0.12538331931E+04  0.00000000000E+00 0.  1.
         14    1    3    3    0    0  0.51616541554E+03  0.14119251027E+03 -0.88043271620E+03  0.10303027851E+04  0.00000000000E+00 0. -1.
         11    1    5    5    0    0 -0.13055131109E+02  0.30687366663E+02  0.18935184951E+02  0.38349604302E+02  0.00000000000E+00 0. -1.
        -12    1    5    5    0    0 -0.15293050195E+02 -0.35624015582E+02  0.10446953072E+03  0.11143083379E+03  0.00000000000E+00 0.  1.
          5    1    4    4  501    0 -0.82696926993E+03 -0.21972351311E+03  0.13778772520E+04  0.16219493795E+04  0.41800000000E+01 0.  1.
         -5    1    4    4    0  501 -0.22005409779E+03 -0.39063702987E+02  0.48977986820E+03  0.53837864978E+03  0.41800000000E+01 0.  1.
</event>
<event>
11    1  0.7577197E-009  0.1452686E+03  0.7561462E-02  0.1101814E+00
         22   -1    0    0    0    0  0.00000000000E+00  0.00000000000E+00  0.11034279109E+03  0.11034279109E+03  0.00000000000E+00 0.  1.
         22   -1    0    0    0    0 -0.00000000000E+00 -0.00000000000E+00 -0.22236757948E+04  0.22236757948E+04  0.00000000000E+00 0. -1.
         24    2    1    2    0    0  0.33887709658E+02 -0.66200814952E+02 -0.17349988962E+04  0.17383151736E+04  0.77379250043E+02 0.  0.
         25    2    1    2    0    0 -0.74622697756E+01  0.74474254020E+02 -0.45696041467E+03  0.47964903762E+03  0.12509308029E+03 0.  0.
        -24    2    1    2    0    0 -0.26425439882E+02 -0.82734390681E+01  0.78626307177E+02  0.11605437460E+03  0.80745080443E+02 0.  0.
        -13    1    3    3    0    0  0.33109329995E+02 -0.19282182647E+02 -0.28581037861E+03  0.28836713201E+03  0.00000000000E+00 0.  1.
         14    1    3    3    0    0  0.77837966272E+00 -0.46918632304E+02 -0.14491885176E+04  0.14499480416E+04  0.00000000000E+00 0. -1.
         11    1    5    5    0    0  0.11761599137E+02 -0.56631512925E+01 -0.11965610304E+02  0.17708255893E+02  0.00000000000E+00 0. -1.
        -12    1    5    5    0    0 -0.38187039020E+02 -0.26102877755E+01  0.90591917480E+02  0.98346118704E+02  0.00000000000E+00 0.  1.
          5    1    4    4  501    0  0.41206329602E+01 -0.54049136116E+01  0.58122757125E+01  0.98715579368E+01  0.41800000000E+01 0.  1.
         -5    1    4    4    0  501 -0.11582902736E+02  0.79879167632E+02 -0.46277269038E+03  0.46977747969E+03  0.41800000000E+01 0.  1.
</event>
<event>
11    1  0.7577197E-009  0.3689631E+03  0.7561462E-02  0.9746051E-01
         22   -1    0    0    0    0  0.00000000000E+00  0.00000000000E+00  0.29408588838E+03  0.29408588838E+03  0.00000000000E+00 0. -1.
         22   -1    0    0    0    0 -0.00000000000E+00 -0.00000000000E+00 -0.72166081678E+03  0.72166081678E+03  0.00000000000E+00 0.  1.
        -24    2    1    2    0    0 -0.28947069737E+03 -0.25222324191E+03 -0.21874678033E+03  0.44950687003E+03  0.82440426372E+02 0.  0.
         25    2    1    2    0    0  0.29557935746E+03  0.13373977039E+03 -0.23630460134E+03  0.42040515870E+03  0.12508856906E+03 0.  0.
         24    2    1    2    0    0 -0.61086600861E+01  0.11848347153E+03  0.27476453272E+02  0.14583467642E+03  0.80231842868E+02 0.  0.
        -11    1    5    5    0    0 -0.10359493757E+02  0.57502677543E+02 -0.26619841053E+02  0.64206642750E+02  0.00000000000E+00 0.  1.
         12    1    5    5    0    0  0.42508336705E+01  0.60980793983E+02  0.54096294324E+02  0.81628033673E+02  0.00000000000E+00 0. -1.
         11    1    3    3    0    0 -0.38903549238E+02 -0.76241122834E+02 -0.35451631053E+02  0.92644552450E+02  0.00000000000E+00 0. -1.
        -12    1    3    3    0    0 -0.25056714813E+03 -0.17598211908E+03 -0.18329514928E+03  0.35686231758E+03  0.00000000000E+00 0.  1.
          5    1    4    4  501    0  0.18517964892E+03  0.55032356289E+02 -0.20395275352E+03  0.28095241711E+03  0.41800000000E+01 0.  1.
         -5    1    4    4    0  501  0.11039970854E+03  0.78707414096E+02 -0.32351847822E+02  0.13945274159E+03  0.41800000000E+01 0.  1.
</event>
<event>
11    1  0.7577197E-009  0.6086897E+03  0.7561462E-02  0.9178867E-01
         22   -1    0    0    0    0  0.00000000000E+00  0.00000000000E+00  0.62658299621E+03  0.62658299621E+03  0.00000000000E+00 0.  1.
         22   -1    0    0    0    0 -0.00000000000E+00 -0.00000000000E+00 -0.10076523765E+04  0.10076523765E+04  0.00000000000E+00 0.  1.
         24    2    1    2    0    0  0.31291945402E+02  0.35135216518E+02 -0.24641917945E+02  0.96333021814E+02  0.80368885055E+02 0.  0.
         25    2    1    2    0    0  0.51334331865E+03  0.22728477820E+03 -0.64398845321E+03  0.86345093022E+03  0.12508656134E+03 0.  0.
        -24    2    1    2    0    0 -0.54463526406E+03 -0.26241999472E+03  0.28756099081E+03  0.67445142071E+03  0.81863123475E+02 0.  0.
        -11    1    3    3    0    0  0.37287478371E+02  0.56148019027E+02 -0.61036061150E+01  0.67677249439E+02  0.00000000000E+00 0.  1.
         12    1    3    3    0    0 -0.59955329693E+01 -0.21012802510E+02 -0.18538311830E+02  0.28655772375E+02  0.00000000000E+00 0. -1.
         13    1    5    5    0    0 -0.29187970654E+03 -0.95289472567E+02  0.14754449884E+03  0.34065117908E+03  0.00000000000E+00 0. -1.
        -14    1    5    5    0    0 -0.25275555752E+03 -0.16713052215E+03  0.14001649198E+03  0.33380024164E+03  0.00000000000E+00 0.  1.
          5    1    4    4  501    0  0.25559218014E+03  0.68132368226E+02 -0.23067505886E+03  0.35099549474E+03  0.41800000000E+01 0.  1.
         -5    1    4    4    0  501  0.25775113851E+03  0.15915240997E+03 -0.41331339435E+03  0.51245543548E+03  0.41800000000E+01 0.  1.
</event>
<event>
11    1  0.7577197E-009  0.1908612E+03  0.7561462E-02  0.1061181E+00
         22   -1    0    0    0    0  0.00000000000E+00  0.00000000000E+00  0.14255277619E+04  0.14255277619E+04  0.00000000000E+00 0. -1.
         22   -1    0    0    0    0 -0.00000000000E+00 -0.00000000000E+00 -0.73290560102E+03  0.73290560102E+03  0.00000000000E+00 0. -1.
         24    2    1    2    0    0 -0.31345692402E+02 -0.48840163736E+02 -0.61966678953E+03  0.62738712970E+03  0.79118685772E+02 0.  0.
         25    2    1    2    0    0 -0.21414514959E+02  0.18126475935E+03  0.13175747215E+02  0.22167126946E+03  0.12509619082E+03 0.  0.
        -24    2    1    2    0    0  0.52760207361E+02 -0.13242459561E+03  0.12991132032E+04  0.13093749637E+04  0.80297994761E+02 0.  0.
        -13    1    3    3    0    0 -0.36740207101E+02 -0.34813673659E+00 -0.12411437203E+03  0.12943856211E+03  0.00000000000E+00 0.  1.
         14    1    3    3    0    0  0.53945146989E+01 -0.48492027000E+02 -0.49555241751E+03  0.49794856759E+03  0.00000000000E+00 0. -1.
         11    1    5    5    0    0  0.87549677910E+01 -0.99297528818E+02  0.10213665993E+04  0.10262194594E+04  0.00000000000E+00 0. -1.
        -12    1    5    5    0    0  0.44005239570E+02 -0.33127066796E+02  0.27774660386E+03  0.28315550431E+03  0.00000000000E+00 0.  1.
          5    1    4    4  501    0  0.37481928592E+02  0.36942324318E+02 -0.28866578150E+02  0.60169610528E+02  0.41800000000E+01 0. -1.
         -5    1    4    4    0  501 -0.58896443551E+02  0.14432243503E+03  0.42042325365E+02  0.16150165893E+03  0.41800000000E+01 0. -1.
</event>
<event>
11    1  0.7577197E-009  0.1991907E+03  0.7561462E-02  0.1055097E+00
         22   -1    0    0    0    0  0.00000000000E+00  0.00000000000E+00  0.47598297389E+03  0.47598297389E+03  0.00000000000E+00 0. -1.
         22   -1    0    0    0    0 -0.00000000000E+00 -0.00000000000E+00 -0.42951199033E+03  0.42951199033E+03  0.00000000000E+00 0.  1.
         24    2    1    2    0    0 -0.12339585937E+03  0.95502356428E+02 -0.27048338136E+03  0.32217871824E+03  0.79313483747E+02 0.  0.
         25    2    1    2    0    0  0.11656103307E+03 -0.97774629146E+02 -0.53438385442E+02  0.20407934125E+03  0.12508542662E+03 0.  0.
        -24    2    1    2    0    0  0.68348263047E+01  0.22722727179E+01  0.37039275035E+03  0.37923690472E+03  0.81104638066E+02 0.  0.
        -11    1    3    3    0    0 -0.92376369887E+02  0.41316575410E+02 -0.21901473793E+03  0.24126315207E+03  0.00000000000E+00 0.  1.
         12    1    3    3    0    0 -0.31019489488E+02  0.54185781019E+02 -0.51468643430E+02  0.80915566174E+02  0.00000000000E+00 0. -1.
         13    1    5    5    0    0  0.24035631498E+02  0.17839661117E+02  0.33838235318E+03  0.33970366797E+03  0.00000000000E+00 0. -1.
        -14    1    5    5    0    0 -0.17200805193E+02 -0.15567388400E+02  0.32010397178E+02  0.39533236755E+02  0.00000000000E+00 0.  1.
          5    1    4    4  501    0  0.92358381976E+02 -0.12248817482E+03 -0.18224586694E+02  0.15454135903E+03  0.41800000000E+01 0. -1.
         -5    1    4    4    0  501  0.24202651094E+02  0.24713545675E+02 -0.35213798748E+02  0.49537982216E+02  0.41800000000E+01 0. -1.
</event>
<event>
11    1  0.7577197E-009  0.1440996E+03  0.7561462E-02  0.1103065E+00
         22   -1    0    0    0    0  0.00000000000E+00  0.00000000000E+00  0.37971598424E+03  0.37971598424E+03  0.00000000000E+00 0. -1.
         22   -1    0    0    0    0 -0.00000000000E+00 -0.00000000000E+00 -0.57971379757E+03  0.57971379757E+03  0.00000000000E+00 0. -1.
        -24    2    1    2    0    0  0.76520278726E+01  0.25409877140E+02 -0.40262006627E+03  0.41153354738E+03  0.80948918885E+02 0.  0.
         25    2    1    2    0    0 -0.74802543571E+02 -0.54926284647E+00 -0.13168710098E+03  0.19642971441E+03  0.12508963956E+03 0.  0.
         24    2    1    2    0    0  0.67150515698E+02 -0.24860614293E+02  0.33430935392E+03  0.35146652003E+03  0.81478393992E+02 0.  0.
        -11    1    5    5    0    0  0.46534337318E+02  0.14564227441E+02  0.26251361940E+03  0.26700367346E+03  0.00000000000E+00 0.  1.
         12    1    5    5    0    0  0.20616178380E+02 -0.39424841734E+02  0.71795734518E+02  0.84462846576E+02  0.00000000000E+00 0. -1.
         13    1    3    3    0    0  0.10709501459E+02  0.39207638806E+02 -0.91832213098E+02  0.10042453746E+03  0.00000000000E+00 0. -1.
        -14    1    3    3    0    0 -0.30574735862E+01 -0.13797761666E+02 -0.31078785317E+03  0.31110900991E+03  0.00000000000E+00 0.  1.
          5    1    4    4  501    0 -0.22085290884E+02  0.34347763985E+01  0.23338562534E+02  0.32584024666E+02  0.41800000000E+01 0.  1.
         -5    1    4    4    0  501 -0.52717252687E+02 -0.39840392450E+01 -0.15502566351E+03  0.16384568974E+03  0.41800000000E+01 0.  1.
</event>
<event>
11    1  0.7577197E-009  0.1701883E+03  0.7561462E-02  0.1077868E+00
         22   -1    0    0    0    0  0.00000000000E+00  0.00000000000E+00  0.40918601654E+03  0.40918601654E+03  0.00000000000E+00 0. -1.
         22   -1    0    0    0    0 -0.00000000000E+00 -0.00000000000E+00 -0.54287466668E+03  0.54287466668E+03  0.00000000000E+00 0.  1.
        -24    2    1    2    0    0 -0.16933041482E+02  0.34755732088E+02 -0.42528153416E+03  0.43523485917E+03  0.84085138639E+02 0.  0.
         25    2    1    2    0    0  0.11555747495E+03 -0.84607481182E+02  0.26744866322E+00  0.19015620031E+03  0.12508938045E+03 0.  0.
         24    2    1    2    0    0 -0.98624433464E+02  0.49851749094E+02  0.29132543536E+03  0.32666962374E+03  0.98135406560E+02 0.  0.
        -11    1    5    5    0    0 -0.11142389577E+02  0.11985889731E+02 -0.35699768895E+01  0.16749899495E+02  0.00000000000E+00 0.  1.
         12    1    5    5    0    0 -0.87482043888E+02  0.37865859363E+02  0.29489541225E+03  0.30991972424E+03  0.00000000000E+00 0. -1.
         13    1    3    3    0    0  0.22743579485E+02  0.29292642405E+02 -0.86779275794E+02  0.94371457625E+02  0.00000000000E+00 0. -1.
        -14    1    3    3    0    0 -0.39676620967E+02  0.54630896838E+01 -0.33850225836E+03  0.34086340155E+03  0.00000000000E+00 0.  1.
          5    1    4    4  501    0  0.48916699949E+02 -0.90145390577E+02  0.42344412965E+02  0.11103853694E+03  0.41800000000E+01 0. -1.
         -5    1    4    4    0  501  0.66640774998E+02  0.55379093944E+01 -0.42076964302E+02  0.79117663373E+02  0.41800000000E+01 0. -1.
</event>
<event>
11    1  0.7577197E-009  0.1605846E+03  0.7561462E-02  0.1086529E+00
         22   -1    0    0    0    0  0.00000000000E+00  0.00000000000E+00  0.14265160952E+03  0.14265160952E+03  0.00000000000E+00 0. -1.
         22   -1    0    0    0    0 -0.00000000000E+00 -0.00000000000E+00 -0.98831481243E+03  0.98831481243E+03  0.00000000000E+00 0. -1.
        -24    2    1    2    0    0 -0.48507065024E+02 -0.90491084621E+02 -0.68386278431E+03  0.69621239532E+03  0.80633863135E+02 0.  0.
         25    2    1    2    0    0  0.65828466910E+02  0.70175386153E+02 -0.25979126291E+03  0.30396948232E+03  0.12509186233E+03 0.  0.
         24    2    1    2    0    0 -0.17321401886E+02  0.20315698467E+02  0.97990844315E+02  0.13078454431E+03  0.82399228718E+02 0.  0.
        -13    1    5    5    0    0  0.22102767126E+02  0.19707328634E+02  0.53365583748E+01  0.30089698766E+02  0.00000000000E+00 0.  1.
         14    1    5    5    0    0 -0.39424169012E+02  0.60836983334E+00  0.92654285940E+02  0.10069484554E+03  0.00000000000E+00 0. -1.
         11    1    3    3    0    0 -0.53966134561E+02 -0.73262834804E+02 -0.66018153784E+03  0.66642287592E+03  0.00000000000E+00 0. -1.
        -12    1    3    3    0    0  0.54590695373E+01 -0.17228249817E+02 -0.23681246470E+02  0.29789519404E+02  0.00000000000E+00 0.  1.
          5    1    4    4  501    0  0.13409998274E+02  0.46213289779E+01 -0.20067975970E+03  0.20122381342E+03  0.41800000000E+01 0.  1.
         -5    1    4    4    0  501  0.52418468635E+02  0.65554057176E+02 -0.59111503218E+02  0.10274566891E+03  0.41800000000E+01 0.  1.
</event>
<event>
11    1  0.7577197E-009  0.1409687E+03  0.7561462E-02  0.1106481E+00
         22   -1    0    0    0    0  0.00000000000E+00  0.00000000000E+00  0.14555592444E+04  0.14555592444E+04  0.00000000000E+00 0.  1.
         22   -1    0    0    0    0 -0.00000000000E+00 -0.00000000000E+00 -0.26891521625E+04  0.26891521625E+04  0.00000000000E+00 0.  1.
        -24    2    1    2    0    0 -0.49823222790E+02  0.41680224354E+02 -0.26731471632E+04  0.26752183691E+04  0.82812868849E+02 0.  0.
         25    2    1    2    0    0  0.33592738124E+02 -0.90978556579E+02  0.48908950359E+03  0.51406376945E+03  0.12508975471E+03 0.  0.
         24    2    1    2    0    0  0.16230484666E+02  0.49298332226E+02  0.95046474152E+03  0.95542926838E+03  0.82268510412E+02 0.  0.
        -13    1    5    5    0    0  0.42949974444E+02  0.88077433899E+01  0.60335607945E+03  0.60494696897E+03  0.00000000000E+00 0.  1.
         14    1    5    5    0    0 -0.26719489778E+02  0.40490588836E+02  0.34710866207E+03  0.35048229941E+03  0.00000000000E+00 0. -1.
         13    1    3    3    0    0 -0.14070771850E+02  0.61846103459E+02 -0.14602554236E+04  0.14616322483E+04  0.00000000000E+00 0. -1.
        -14    1    3    3    0    0 -0.35752450940E+02 -0.20165879105E+02 -0.12128917397E+04  0.12135861208E+04  0.00000000000E+00 0.  1.
          5    1    4    4  501    0  0.25157496269E+02 -0.11176102776E+03  0.26391076540E+03  0.28773215225E+03  0.41800000000E+01 0.  1.
         -5    1    4    4    0  501  0.84352418541E+01  0.20782471182E+02  0.22517873819E+03  0.22633161720E+03  0.41800000000E+01 0.  1.
</event>
<event>
11    1  0.7577197E-009  0.1962841E+03  0.7561462E-02  0.1057183E+00
         22   -1    0    0    0    0  0.00000000000E+00  0.00000000000E+00  0.30268319334E+02  0.30268319334E+02  0.00000000000E+00 0. -1.
         22   -1    0    0    0    0 -0.00000000000E+00 -0.00000000000E+00 -0.28369366557E+04  0.28369366557E+04  0.00000000000E+00 0.  1.
         24    2    1    2    0    0 -0.12959638531E+02 -0.14030062099E+02 -0.11808477799E+04  0.11838261887E+04  0.81720076552E+02 0.  0.
         25    2    1    2    0    0  0.15657658463E+03 -0.27310851104E+02 -0.13050585850E+04  0.13206391385E+04  0.12509082403E+03 0.  0.
        -24    2    1    2    0    0 -0.14361694610E+03  0.41340913203E+02 -0.32076197145E+03  0.36273964786E+03  0.79730242021E+02 0.  0.
        -11    1    3    3    0    0 -0.26493169218E+01 -0.47140341046E+02 -0.80441421928E+03  0.80579865153E+03  0.00000000000E+00 0.  1.
         12    1    3    3    0    0 -0.10310321609E+02  0.33110278946E+02 -0.37643356057E+03  0.37802753713E+03  0.00000000000E+00 0. -1.
         11    1    5    5    0    0 -0.15042900311E+03  0.28797929968E+02 -0.27465009160E+03  0.31446920129E+03  0.00000000000E+00 0. -1.
        -12    1    5    5    0    0  0.68120570032E+01  0.12542983236E+02 -0.46111879843E+02  0.48270446566E+02  0.00000000000E+00 0.  1.
          5    1    4    4  501    0  0.36671917600E+02 -0.59924505828E+02 -0.31270308093E+03  0.32052529567E+03  0.41800000000E+01 0. -1.
         -5    1    4    4    0  501  0.11990466703E+03  0.32613654724E+02 -0.99235550412E+03  0.10001138428E+04  0.41800000000E+01 0. -1.
</event>
<event>
11    1  0.7577197E-009  0.1293724E+03  0.7561462E-02  0.1120043E+00
         22   -1    0    0    0    0  0.00000000000E+00  0.00000000000E+00  0.24092780730E+04  0.24092780730E+04  0.00000000000E+00 0. -1.
         22   -1    0    0    0    0 -0.00000000000E+00 -0.00000000000E+00 -0.16258316896E+03  0.16258316896E+03  0.00000000000E+00 0. -1.
        -24    2    1    2    0    0  0.42830133334E+01  0.35685067429E+02 -0.12895959756E+03  0.16664494380E+03  0.99238053435E+02 0.  0.
         25    2    1    2    0    0  0.19135806463E+02  0.10455702669E+02  0.27908840763E+03  0.30661490425E+03  0.12508740715E+03 0.  0.
         24    2    1    2    0    0 -0.23418819796E+02 -0.46140770098E+02  0.20965660940E+04  0.20986013939E+04  0.76557248953E+02 0.  0.
        -11    1    5    5    0    0 -0.12288472456E+02 -0.53475834873E+02  0.76367074054E+03  0.76563938733E+03  0.00000000000E+00 0.  1.
         12    1    5    5    0    0 -0.11130347340E+02  0.73350647753E+01  0.13328953534E+04  0.13329620066E+04  0.00000000000E+00 0. -1.
         13    1    3    3    0    0 -0.23807607362E+02  0.43094881726E+02 -0.12847917354E+03  0.13758949463E+03  0.00000000000E+00 0. -1.
        -14    1    3    3    0    0  0.28090620695E+02 -0.74098142974E+01 -0.48042401971E+00  0.29055449165E+02  0.00000000000E+00 0.  1.
          5    1    4    4  501    0 -0.22910284717E+02  0.20650412009E+02  0.80991924253E+01  0.32161933709E+02  0.41800000000E+01 0. -1.
         -5    1    4    4    0  501  0.42046091180E+02 -0.10194709340E+02  0.27098921521E+03  0.27445297054E+03  0.41800000000E+01 0. -1.
</event>
<event>
11    1  0.7577197E-009  0.1312470E+03  0.7561462E-02  0.1117746E+00
         22   -1    0    0    0    0  0.00000000000E+00  0.00000000000E+00  0.27884533747E+03  0.27884533747E+03  0.00000000000E+00 0.  1.
         22   -1    0    0    0    0 -0.00000000000E+00 -0.00000000000E+00 -0.49782063862E+03  0.49782063862E+03  0.00000000000E+00 0. -1.
        -24    2    1    2    0    0 -0.13685351486E+02 -0.40486756795E+02 -0.34974917474E+03  0.36128771748E+03  0.79861525468E+02 0.  0.
         25    2    1    2    0    0 -0.18129493182E+02  0.29551576573E+02 -0.10300182508E+03  0.16569941802E+03  0.12507976240E+03 0.  0.
         24    2    1    2    0    0  0.31814844667E+02  0.10935180222E+02  0.23377569867E+03  0.24967884059E+03  0.80973351430E+02 0.  0.
        -13    1    5    5    0    0  0.52131207884E+01  0.43335043453E+02  0.14638133961E+03  0.15275012015E+03  0.00000000000E+00 0.  1.
         14    1    5    5    0    0  0.26601723879E+02 -0.32399863232E+02  0.87394359055E+02  0.96928720436E+02  0.00000000000E+00 0. -1.
         11    1    3    3    0    0 -0.16963696481E+01 -0.53372248599E+02 -0.33208864164E+03  0.33635448636E+03  0.00000000000E+00 0. -1.
        -12    1    3    3    0    0 -0.11988981837E+02  0.12885491804E+02 -0.17660533096E+02  0.24933231114E+02  0.00000000000E+00 0.  1.
          5    1    4    4  501    0 -0.57183882779E+02  0.26630220734E+02 -0.10885484628E+03  0.12588095592E+03  0.41800000000E+01 0. -1.
         -5    1    4    4    0  501  0.39054389598E+02  0.29213558390E+01  0.58530211938E+01  0.39818462098E+02  0.41800000000E+01 0. -1.
</event>
<event>
11    1  0.7577197E-009  0.3824291E+03  0.7561462E-02  0.9703073E-01
         22   -1    0    0    0    0  0.00000000000E+00  0.00000000000E+00  0.48292107106E+03  0.48292107106E+03  0.00000000000E+00 0.  1.
         22   -1    0    0    0    0 -0.00000000000E+00 -0.00000000000E+00 -0.13998552035E+04  0.13998552035E+04  0.00000000000E+00 0. -1.
         24    2    1    2    0    0 -0.34009667634E+02 -0.38632358734E+02 -0.43979779406E+03  0.45002239997E+03  0.80305318520E+02 0.  0.
         25    2    1    2    0    0  0.22523312618E+03 -0.26943852659E+03 -0.83671004558E+03  0.91600179731E+03  0.12509401094E+03 0.  0.
        -24    2    1    2    0    0 -0.19122345854E+03  0.30807088532E+03  0.35957370716E+03  0.51675207732E+03  0.79154134779E+02 0.  0.
        -13    1    3    3    0    0 -0.19472184149E+02 -0.60052233985E+02 -0.22561864852E+03  0.23428446667E+03  0.00000000000E+00 0.  1.
         14    1    3    3    0    0 -0.14537483485E+02  0.21419875251E+02 -0.21417914554E+03  0.21573793330E+03  0.00000000000E+00 0. -1.
         11    1    5    5    0    0 -0.78420340545E+02  0.15665762683E+03  0.12294635412E+03  0.21402609151E+03  0.00000000000E+00 0. -1.
        -12    1    5    5    0    0 -0.11280311800E+03  0.15141325849E+03  0.23662735304E+03  0.30272598581E+03  0.00000000000E+00 0.  1.
          5    1    4    4  501    0  0.64971230606E+02 -0.15495995086E+02 -0.98913711999E+02  0.11942688764E+03  0.41800000000E+01 0. -1.
         -5    1    4    4    0  501  0.16026189557E+03 -0.25394253150E+03 -0.73779633358E+03  0.79657490967E+03  0.41800000000E+01 0. -1.
</event>
<event>
11    1  0.7577197E-009  0.4752205E+03  0.7561462E-02  0.9450663E-01
         22   -1    0    0    0    0  0.00000000000E+00  0.00000000000E+00  0.72748824435E+03  0.72748824435E+03  0.00000000000E+00 0. -1.
         22   -1    0    0    0    0 -0.00000000000E+00 -0.00000000000E+00 -0.51069237896E+03  0.51069237896E+03  0.00000000000E+00 0.  1.
        -24    2    1    2    0    0  0.46912395626E+03 -0.12069967962E+03 -0.21541524567E+03  0.53586744440E+03  0.78131241541E+02 0.  0.
         25    2    1    2    0    0 -0.36935969026E+03  0.14535973856E+03  0.28405497882E+03  0.50387558231E+03  0.12508931640E+03 0.  0.
         24    2    1    2    0    0 -0.99764265998E+02 -0.24660058934E+02  0.14815613224E+03  0.19843759660E+03  0.82862614883E+02 0.  0.
        -11    1    5    5    0    0 -0.31769043917E+02  0.30490473293E+02  0.57286623969E+02  0.72254400550E+02  0.00000000000E+00 0.  1.
         12    1    5    5    0    0 -0.67995222081E+02 -0.55150532227E+02  0.90869508272E+02  0.12618319605E+03  0.00000000000E+00 0. -1.
         11    1    3    3    0    0  0.87177305936E+02  0.81728761150E+01 -0.37979543100E+02  0.95441732320E+02  0.00000000000E+00 0. -1.
        -12    1    3    3    0    0  0.38194665032E+03 -0.12887255574E+03 -0.17743570257E+03  0.44042571208E+03  0.00000000000E+00 0.  1.
          5    1    4    4  501    0 -0.26501784638E+03  0.14176784939E+03  0.15616652430E+03  0.33873003666E+03  0.41800000000E+01 0. -1.
         -5    1    4    4    0  501 -0.10434184388E+03  0.35918891697E+01  0.12788845451E+03  0.16514554565E+03  0.41800000000E+01 0. -1.
</event>
<event>
11    1  0.9439799E-009  0.1454794E+03  0.7561462E-02  0.1101590E+00
         22   -1    0    0    0    0  0.00000000000E+00  0.00000000000E+00  0.12221925759E+04  0.12221925759E+04  0.00000000000E+00 0.  1.
         22   -1    0    0    0    0 -0.00000000000E+00 -0.00000000000E+00 -0.15164582694E+04  0.15164582694E+04  0.00000000000E+00 0. -1.
        -24    2    1    2    0    0  0.46941331476E+02  0.31569820370E+02 -0.12411477015E+04  0.12450110203E+04  0.80029254291E+02 0.  0.
         25    2    1    2    0    0  0.13911761970E+02 -0.74466332623E+02 -0.25126120029E+03  0.29071981246E+03  0.12508815601E+03 0.  0.
         24    2    1    2    0    0 -0.60853093446E+02  0.42896512252E+02  0.11981432084E+04  0.12029200126E+04  0.76981810373E+02 0.  0.
        -13    1    5    5    0    0 -0.76866418131E+02  0.43318049505E+02  0.10939758302E+04  0.10975281394E+04  0.00000000000E+00 0.  1.
         14    1    5    5    0    0  0.16013324685E+02 -0.42153725291E+00  0.10416737813E+03  0.10539187316E+03  0.00000000000E+00 0. -1.
         13    1    3    3    0    0  0.25647620893E+02 -0.85733197992E+01 -0.94593707284E+03  0.94632354301E+03  0.00000000000E+00 0. -1.
        -14    1    3    3    0    0  0.21293710583E+02  0.40143140170E+02 -0.29521062867E+03  0.29868747729E+03  0.00000000000E+00 0.  1.
          5    1    4    4  501    0  0.37162725642E+02 -0.60381398232E+02 -0.48271883680E+02  0.85875657690E+02  0.41800000000E+01 0. -1.
         -5    1    4    4    0  501 -0.23250963672E+02 -0.14084934391E+02 -0.20298931661E+03  0.20484415478E+03  0.41800000000E+01 0. -1.
</event>
<event>
11    1  0.7577197E-009  0.1350339E+03  0.7561462E-02  0.1113234E+00
         22   -1    0    0    0    0  0.00000000000E+00  0.00000000000E+00  0.85482822262E+03  0.85482822262E+03  0.00000000000E+00 0.  1.
         22   -1    0    0    0    0 -0.00000000000E+00 -0.00000000000E+00 -0.13599350092E+03  0.13599350092E+03  0.00000000000E+00 0.  1.
         24    2    1    2    0    0 -0.42494841103E+01  0.56639733165E+01 -0.68394517319E+02  0.10010431008E+03  0.72752485787E+02 0.  0.
         25    2    1    2    0    0  0.34242924159E+02  0.35506610225E+02  0.40942298894E+02  0.14055936938E+03  0.12508943704E+03 0.  0.
        -24    2    1    2    0    0 -0.29993440048E+02 -0.41170583541E+02  0.74628694012E+03  0.75015804407E+03  0.56553255455E+02 0.  0.
        -11    1    3    3    0    0 -0.31488061327E+02 -0.17539023958E+02 -0.25022694785E+02  0.43877677945E+02  0.00000000000E+00 0.  1.
         12    1    3    3    0    0  0.27238577216E+02  0.23202997274E+02 -0.43371822533E+02  0.56226632134E+02  0.00000000000E+00 0. -1.
         13    1    5    5    0    0 -0.20566446505E+02 -0.44592885158E+02  0.31937272967E+03  0.32312605061E+03  0.00000000000E+00 0. -1.
        -14    1    5    5    0    0 -0.94269935432E+01  0.34223016164E+01  0.42691421045E+03  0.42703199346E+03  0.00000000000E+00 0.  1.
          5    1    4    4  501    0  0.16532638796E+02 -0.21461830095E+02  0.69188106312E+02  0.74420459227E+02  0.41800000000E+01 0. -1.
         -5    1    4    4    0  501  0.17710285363E+02  0.56968440320E+02 -0.28245807417E+02  0.66138910157E+02  0.41800000000E+01 0. -1.
</event>
<event>
11    1  0.7577197E-009  0.3549397E+03  0.7561462E-02  0.9792946E-01
         22   -1    0    0    0    0  0.00000000000E+00  0.00000000000E+00  0.14840650224E+04  0.14840650224E+04  0.00000000000E+00 0.  1.
         22   -1    0    0    0    0 -0.00000000000E+00 -0.00000000000E+00 -0.51030648902E+03  0.51030648902E+03  0.00000000000E+00 0.  1.
         24    2    1    2    0    0 -0.15454891270E+02 -0.42838886173E+02 -0.47908837624E+02  0.10609966019E+03  0.82993116207E+02 0.  0.
         25    2    1    2    0    0 -0.29597444625E+03  0.15828205591E+03 -0.33429695335E+03  0.48995663731E+03  0.12509584874E+03 0.  0.
        -24    2    1    2    0    0  0.31142933752E+03 -0.11544316974E+03  0.13559643243E+04  0.13983152139E+04  0.79566518310E+02 0.  0.
        -11    1    3    3    0    0 -0.14283831005E+02 -0.63367151447E+02 -0.54197510001E+02  0.84597835675E+02  0.00000000000E+00 0.  1.
         12    1    3    3    0    0 -0.11710602650E+01  0.20528265274E+02  0.62886723762E+01  0.21501824517E+02  0.00000000000E+00 0. -1.
         13    1    5    5    0    0  0.18423080551E+03 -0.10739137338E+03  0.80055673672E+03  0.82847147536E+03  0.00000000000E+00 0. -1.
        -14    1    5    5    0    0  0.12719853201E+03 -0.80517963610E+01  0.55540758762E+03  0.56984373854E+03  0.00000000000E+00 0.  1.
          5    1    4    4  501    0 -0.11772346194E+03  0.11533195915E+03 -0.10150831263E+03  0.19360187040E+03  0.41800000000E+01 0. -1.
         -5    1    4    4    0  501 -0.17825098431E+03  0.42950096761E+02 -0.23278864072E+03  0.29635476691E+03  0.41800000000E+01 0. -1.
</event>
<event>
11    1  0.7577197E-009  0.2401166E+03  0.7561462E-02  0.1029300E+00
         22   -1    0    0    0    0  0.00000000000E+00  0.00000000000E+00  0.12871728563E+04  0.12871728563E+04  0.00000000000E+00 0. -1.
         22   -1    0    0    0    0 -0.00000000000E+00 -0.00000000000E+00 -0.30007267226E+03  0.30007267226E+03  0.00000000000E+00 0.  1.
         24    2    1    2    0    0  0.90853334577E+02  0.20513639113E+02 -0.81652105485E+02  0.14781255205E+03  0.80661926707E+02 0.  0.
         25    2    1    2    0    0 -0.16560974034E+03  0.16939907537E+03 -0.72306859229E+02  0.27748432481E+03  0.12508651322E+03 0.  0.
        -24    2    1    2    0    0  0.74756405765E+02 -0.18991271449E+03  0.11410591488E+04  0.11619486517E+04  0.80332614101E+02 0.  0.
        -11    1    3    3    0    0  0.90345498638E+02 -0.11342914907E+02 -0.64896172823E+02  0.11181450751E+03  0.00000000000E+00 0.  1.
         12    1    3    3    0    0  0.50783593886E+00  0.31856554019E+02 -0.16755932663E+02  0.35998044540E+02  0.00000000000E+00 0. -1.
         13    1    5    5    0    0  0.45898397105E+02 -0.15954777879E+03  0.72399023458E+03  0.74278127086E+03  0.00000000000E+00 0. -1.
        -14    1    5    5    0    0  0.28858008660E+02 -0.30364935702E+02  0.41706891421E+03  0.41916738087E+03  0.00000000000E+00 0.  1.
          5    1    4    4  501    0 -0.36776990694E+02  0.66831823878E+02 -0.82501240202E+02  0.11244094789E+03  0.41800000000E+01 0.  1.
         -5    1    4    4    0  501 -0.12883274965E+03  0.10256725150E+03  0.10194380973E+02  0.16504337692E+03  0.41800000000E+01 0.  1.
</event>
<event>
11    1  0.7577197E-009  0.3730511E+03  0.7561462E-02  0.9732799E-01
         22   -1    0    0    0    0  0.00000000000E+00  0.00000000000E+00  0.76383462436E+03  0.76383462436E+03  0.00000000000E+00 0.  1.
         22   -1    0    0    0    0 -0.00000000000E+00 -0.00000000000E+00 -0.78780883541E+03  0.78780883541E+03  0.00000000000E+00 0. -1.
        -24    2    1    2    0    0  0.33073573150E+02  0.10893259044E+02 -0.33610824993E+03  0.35028898707E+03  0.92309774460E+02 0.  0.
         25    2    1    2    0    0  0.26886218431E+03 -0.19547185738E+03 -0.31686004241E+03  0.47596633193E+03  0.12509013340E+03 0.  0.
         24    2    1    2    0    0 -0.30193575746E+03  0.18457859833E+03  0.62899408128E+03  0.72538814077E+03  0.72937918013E+02 0.  0.
        -13    1    5    5    0    0 -0.22844651346E+03  0.11263600445E+03  0.49275504032E+03  0.55469109310E+03  0.00000000000E+00 0.  1.
         14    1    5    5    0    0 -0.73489244004E+02  0.71942593886E+02  0.13623904097E+03  0.17069704767E+03  0.00000000000E+00 0. -1.
         13    1    3    3    0    0 -0.17178671466E+02 -0.20895151796E+02 -0.19915952209E+03  0.20098813239E+03  0.00000000000E+00 0. -1.
        -14    1    3    3    0    0  0.50252244616E+02  0.31788410840E+02 -0.13694872783E+03  0.14930085468E+03  0.00000000000E+00 0.  1.
          5    1    4    4  501    0  0.91036639345E+02 -0.23810820192E+02 -0.15206281363E+03  0.17887201165E+03  0.41800000000E+01 0.  1.
         -5    1    4    4    0  501  0.17782554497E+03 -0.17166103718E+03 -0.16479722878E+03  0.29709432028E+03  0.41800000000E+01 0.  1.
</event>
<event>
11    1  0.7577197E-009  0.1355512E+03  0.7561462E-02  0.1112630E+00
         22   -1    0    0    0    0  0.00000000000E+00  0.00000000000E+00  0.40866050282E+03  0.40866050282E+03  0.00000000000E+00 0.  1.
         22   -1    0    0    0    0 -0.00000000000E+00 -0.00000000000E+00 -0.37835858420E+03  0.37835858420E+03  0.00000000000E+00 0.  1.
         24    2    1    2    0    0 -0.39393338274E+02  0.30433364219E+02 -0.26780355963E+03  0.28466779012E+03  0.82698122239E+02 0.  0.
         25    2    1    2    0    0  0.42691197692E+02 -0.54450026430E+02 -0.44403436594E+02  0.14968705257E+03  0.12508878762E+03 0.  0.
        -24    2    1    2    0    0 -0.32978594184E+01  0.24016662211E+02  0.34250891485E+03  0.35266424433E+03  0.80448968492E+02 0.  0.
        -11    1    3    3    0    0 -0.30349734802E+02  0.48288683483E+02 -0.25407300905E+03  0.26039584728E+03  0.00000000000E+00 0.  1.
         12    1    3    3    0    0 -0.90436034720E+01 -0.17855319264E+02 -0.13730550585E+02  0.24271942838E+02  0.00000000000E+00 0. -1.
         11    1    5    5    0    0 -0.12386432705E+02 -0.27090938451E+02  0.16714980208E+03  0.16978338846E+03  0.00000000000E+00 0. -1.
        -12    1    5    5    0    0  0.90885732868E+01  0.51107600662E+02  0.17535911277E+03  0.18288085586E+03  0.00000000000E+00 0.  1.
          5    1    4    4  501    0  0.39231974315E+02 -0.87535070368E+02 -0.59458458630E+02  0.11293501253E+03  0.41800000000E+01 0. -1.
         -5    1    4    4    0  501  0.34592233773E+01  0.33085043937E+02  0.15055022036E+02  0.36752040042E+02  0.41800000000E+01 0. -1.
</event>
<event>
11    1  0.7577197E-009  0.3373879E+03  0.7561462E-02  0.9855022E-01
         22   -1    0    0    0    0  0.00000000000E+00  0.00000000000E+00  0.15930183987E+04  0.15930183987E+04  0.00000000000E+00 0. -1.
         22   -1    0    0    0    0 -0.00000000000E+00 -0.00000000000E+00 -0.41811470854E+03  0.41811470854E+03  0.00000000000E+00 0.  1.
         24    2    1    2    0    0 -0.11399800268E+03  0.26659686827E+03 -0.21388439214E+03  0.36929112326E+03  0.80993615371E+02 0.  0.
         25    2    1    2    0    0  0.10731732359E+03 -0.48345678831E+03  0.46881357185E+03  0.69331149453E+03  0.12508872525E+03 0.  0.
        -24    2    1    2    0    0  0.66806790924E+01  0.21685992004E+03  0.91997451045E+03  0.94853048945E+03  0.79272524502E+02 0.  0.
        -13    1    3    3    0    0 -0.19887566678E+02  0.14751298755E+03 -0.11562434478E+03  0.18847966975E+03  0.00000000000E+00 0.  1.
         14    1    3    3    0    0 -0.94110436006E+02  0.11908388072E+03 -0.98260047366E+02  0.18081145351E+03  0.00000000000E+00 0. -1.
         11    1    5    5    0    0 -0.33714424711E+02  0.13660594516E+03  0.53254305562E+03  0.55081753129E+03  0.00000000000E+00 0. -1.
        -12    1    5    5    0    0  0.40395103803E+02  0.80253974886E+02  0.38743145483E+03  0.39771295816E+03  0.00000000000E+00 0.  1.
          5    1    4    4  501    0  0.68056154579E+02 -0.18461154577E+03  0.11285349505E+03  0.22686217568E+03  0.41800000000E+01 0.  1.
         -5    1    4    4    0  501  0.39261169013E+02 -0.29884524254E+03  0.35596007679E+03  0.46644931884E+03  0.41800000000E+01 0.  1.
</event>
<event>
11    1  0.7577197E-009  0.3188925E+03  0.7561462E-02  0.9924980E-01
         22   -1    0    0    0    0  0.00000000000E+00  0.00000000000E+00  0.59628592993E+03  0.59628592993E+03  0.00000000000E+00 0. -1.
         22   -1    0    0    0    0 -0.00000000000E+00 -0.00000000000E+00 -0.95099353201E+03  0.95099353201E+03  0.00000000000E+00 0.  1.
        -24    2    1    2    0    0  0.18791907783E+03 -0.23123147146E+03 -0.52528334543E+03  0.60918261508E+03  0.79995576891E+02 0.  0.
         25    2    1    2    0    0 -0.15800207902E+03  0.23968995731E+03 -0.31499802410E+03  0.44417090786E+03  0.12509239622E+03 0.  0.
         24    2    1    2    0    0 -0.29916998805E+02 -0.84584858504E+01  0.48557376745E+03  0.49392593900E+03  0.84937487502E+02 0.  0.
        -11    1    5    5    0    0 -0.17685516031E+02 -0.13360340190E+02  0.26008906560E+02  0.34172201973E+02  0.00000000000E+00 0.  1.
         12    1    5    5    0    0 -0.12231482775E+02  0.49018543400E+01  0.45956486089E+03  0.45975373703E+03  0.00000000000E+00 0. -1.
         11    1    3    3    0    0  0.64849241448E+02 -0.40919949291E+02 -0.88483181111E+02  0.11708603549E+03  0.00000000000E+00 0. -1.
        -12    1    3    3    0    0  0.12306983638E+03 -0.19031152217E+03 -0.43680016432E+03  0.49209657960E+03  0.00000000000E+00 0.  1.
          5    1    4    4  501    0 -0.15917629855E+03  0.23345406571E+03 -0.24572137140E+03  0.37447878389E+03  0.41800000000E+01 0.  1.
         -5    1    4    4    0  501  0.11742195248E+01  0.62358916020E+01 -0.69276652695E+02  0.69692123975E+02  0.41800000000E+01 0.  1.
</event>
<event>
11    1  0.7577197E-009  0.2241133E+03  0.7561462E-02  0.1038671E+00
         22   -1    0    0    0    0  0.00000000000E+00  0.00000000000E+00  0.59554847824E+03  0.59554847824E+03  0.00000000000E+00 0. -1.
         22   -1    0    0    0    0 -0.00000000000E+00 -0.00000000000E+00 -0.11234682314E+04  0.11234682314E+04  0.00000000000E+00 0.  1.
        -24    2    1    2    0    0  0.15539064331E+03 -0.73975846272E+02 -0.72869515533E+03  0.75302357816E+03  0.80182304775E+02 0.  0.
         25    2    1    2    0    0 -0.22172591777E+03  0.97188543812E+02 -0.32804879194E+03  0.42646356790E+03  0.12508864532E+03 0.  0.
         24    2    1    2    0    0  0.66335274460E+02 -0.23212697539E+02  0.52882419411E+03  0.53952956359E+03  0.80609700075E+02 0.  0.
        -11    1    5    5    0    0  0.77716027726E+02 -0.34469296267E+01  0.31378641658E+03  0.32328559745E+03  0.00000000000E+00 0.  1.
         12    1    5    5    0    0 -0.11380753266E+02 -0.19765767913E+02  0.21503777753E+03  0.21624396614E+03  0.00000000000E+00 0. -1.
         11    1    3    3    0    0  0.81532080557E+01 -0.20956104153E+02 -0.21093872080E+03  0.21213386583E+03  0.00000000000E+00 0. -1.
        -12    1    3    3    0    0  0.14723743526E+03 -0.53019742120E+02 -0.51775643453E+03  0.54088971232E+03  0.00000000000E+00 0.  1.
          5    1    4    4  501    0 -0.20586294488E+03  0.12441929594E+03 -0.28539064815E+03  0.37326265247E+03  0.41800000000E+01 0. -1.
         -5    1    4    4    0  501 -0.15862972893E+02 -0.27230752131E+02 -0.42658143789E+02  0.53200915426E+02  0.41800000000E+01 0. -1.
</event>
<event>
11    1  0.7577197E-009  0.1311017E+03  0.7561462E-02  0.1117923E+00
         22   -1    0    0    0    0  0.00000000000E+00  0.00000000000E+00  0.23247915149E+04  0.23247915149E+04  0.00000000000E+00 0. -1.
         22   -1    0    0    0    0 -0.00000000000E+00 -0.00000000000E+00 -0.57114612147E+03  0.57114612147E+03  0.00000000000E+00 0.  1.
        -24    2    1    2    0    0 -0.30101637658E+02  0.16258987462E+02 -0.45586841173E+03  0.46392857926E+03  0.79014268139E+02 0.  0.
         25    2    1    2    0    0  0.13733695996E+02  0.19640998014E+02 -0.73620663493E+02  0.14711315505E+03  0.12509154682E+03 0.  0.
         24    2    1    2    0    0  0.16367941663E+02 -0.35899985476E+02  0.22831344686E+04  0.22848959020E+04  0.80557823112E+02 0.  0.
        -11    1    5    5    0    0  0.64145044401E+01 -0.26906279539E+02  0.22183922219E+03  0.22355700447E+03  0.00000000000E+00 0.  1.
         12    1    5    5    0    0  0.99534372225E+01 -0.89937059372E+01  0.20612952464E+04  0.20613388976E+04  0.00000000000E+00 0. -1.
         11    1    3    3    0    0 -0.30013353747E+02  0.40490173988E+01 -0.54300525801E+02  0.62175099898E+02  0.00000000000E+00 0. -1.
        -12    1    3    3    0    0 -0.88283911419E-01  0.12209970064E+02 -0.40156788593E+03  0.40175347936E+03  0.00000000000E+00 0.  1.
          5    1    4    4  501    0 -0.11488596314E+02 -0.59739704168E+00  0.33222269898E+02  0.35405315217E+02  0.41800000000E+01 0.  1.
         -5    1    4    4    0  501  0.25222292310E+02  0.20238395055E+02 -0.10684293339E+03  0.11170783983E+03  0.41800000000E+01 0.  1.
</event>
<event>
11    1  0.7577197E-009  0.1655736E+03  0.7561462E-02  0.1081949E+00
         22   -1    0    0    0    0  0.00000000000E+00  0.00000000000E+00  0.27775452544E+04  0.27775452544E+04  0.00000000000E+00 0.  1.
         22   -1    0    0    0    0 -0.00000000000E+00 -0.00000000000E+00 -0.78916498696E+02  0.78916498696E+02  0.00000000000E+00 0.  1.
         24    2    1    2    0    0 -0.98118139327E+02  0.33363566384E+02  0.60526545469E+01  0.13265877962E+03  0.82591890373E+02 0.  0.
         25    2    1    2    0    0  0.17590683562E+03  0.47123691126E+00  0.83340606250E+03  0.86090527821E+03  0.12509514840E+03 0.  0.
        -24    2    1    2    0    0 -0.77788696296E+02 -0.33834803296E+02  0.18591700387E+04  0.18628976953E+04  0.81723406805E+02 0.  0.
        -11    1    3    3    0    0 -0.91098631633E+02  0.74176736343E+01 -0.21787197457E+02  0.93960973497E+02  0.00000000000E+00 0.  1.
         12    1    3    3    0    0 -0.70195076939E+01  0.25945892750E+02  0.27839852004E+02  0.38697806119E+02  0.00000000000E+00 0. -1.
         13    1    5    5    0    0 -0.26105491009E+02 -0.19751837448E+02  0.18520918440E+03  0.18807996632E+03  0.00000000000E+00 0. -1.
        -14    1    5    5    0    0 -0.51683205287E+02 -0.14082965848E+02  0.16739608543E+04  0.16748177290E+04  0.00000000000E+00 0.  1.
          5    1    4    4  501    0 -0.55499594058E+01 -0.30358243459E+02  0.99522368590E+02  0.10428134658E+03  0.41800000000E+01 0.  1.
         -5    1    4    4    0  501  0.18145679503E+03  0.30829480371E+02  0.73388369391E+03  0.75662393163E+03  0.41800000000E+01 0.  1.
</event>
<event>
11    1  0.7577197E-009  0.1941275E+03  0.7561462E-02  0.1058756E+00
         22   -1    0    0    0    0  0.00000000000E+00  0.00000000000E+00  0.16666684850E+04  0.16666684850E+04  0.00000000000E+00 0. -1.
         22   -1    0    0    0    0 -0.00000000000E+00 -0.00000000000E+00 -0.29673553920E+03  0.29673553920E+03  0.00000000000E+00 0.  1.
        -24    2    1    2    0    0  0.32108612111E+02  0.13976271325E+03 -0.21895001246E+03  0.27291314241E+03  0.77316856848E+02 0.  0.
         25    2    1    2    0    0  0.40483949562E+02 -0.23365093197E+03  0.33827860974E+03  0.43163755999E+03  0.12508739824E+03 0.  0.
         24    2    1    2    0    0 -0.72592561672E+02  0.93888218716E+02  0.12506043485E+04  0.12588533218E+04  0.81337394065E+02 0.  0.
        -11    1    5    5    0    0 -0.35307453677E+02 -0.72854107959E+01  0.31323483441E+03  0.31530264031E+03  0.00000000000E+00 0.  1.
         12    1    5    5    0    0 -0.37285107995E+02  0.10117362951E+03  0.93736951410E+03  0.94355068150E+03  0.00000000000E+00 0. -1.
         11    1    3    3    0    0 -0.20652159163E+02  0.41282226466E+02 -0.35963297826E+02  0.58515747373E+02  0.00000000000E+00 0. -1.
        -12    1    3    3    0    0  0.52760771274E+02  0.98480486788E+02 -0.18298671464E+03  0.21439739503E+03  0.00000000000E+00 0.  1.
          5    1    4    4  501    0  0.81039391718E+01 -0.16057850907E+03  0.12457694221E+03  0.20344045403E+03  0.41800000000E+01 0. -1.
         -5    1    4    4    0  501  0.32380010390E+02 -0.73072422903E+02  0.21370166753E+03  0.22819710596E+03  0.41800000000E+01 0. -1.
</event>
<event>
11    1  0.7577197E-009  0.1582403E+03  0.7561462E-02  0.1088744E+00
         22   -1    0    0    0    0  0.00000000000E+00  0.00000000000E+00  0.76297066379E+03  0.76297066379E+03  0.00000000000E+00 0. -1.
         22   -1    0    0    0    0 -0.00000000000E+00 -0.00000000000E+00 -0.36462659808E+03  0.36462659808E+03  0.00000000000E+00 0.  1.
         24    2    1    2    0    0 -0.16945378688E+02 -0.93389897991E+02 -0.27632646054E+03  0.30264469980E+03  0.78922003393E+02 0.  0.
         25    2    1    2    0    0 -0.39536511193E+01  0.11422756780E+03  0.27108397198E+02  0.17159643656E+03  0.12508758228E+03 0.  0.
        -24    2    1    2    0    0  0.20899029807E+02 -0.20837669811E+02  0.64756212905E+03  0.65335612550E+03  0.81648869091E+02 0.  0.
        -13    1    3    3    0    0 -0.99885398785E+01 -0.10035749589E+03 -0.27474706229E+03  0.29267276290E+03  0.00000000000E+00 0.  1.
         14    1    3    3    0    0 -0.69568388094E+01  0.69675978986E+01 -0.15793982513E+01  0.99719368998E+01  0.00000000000E+00 0. -1.
         11    1    5    5    0    0  0.39774457631E+02  0.17172861068E+02  0.27623646555E+03  0.27961312476E+03  0.00000000000E+00 0. -1.
        -12    1    5    5    0    0 -0.18875427824E+02 -0.38010530879E+02  0.37132566350E+03  0.37374300074E+03  0.00000000000E+00 0.  1.
          5    1    4    4  501    0 -0.32677129596E+02 -0.15204170078E+02  0.11353713286E+02  0.38017637904E+02  0.41800000000E+01 0. -1.
         -5    1    4    4    0  501  0.28723478477E+02  0.12943173788E+03  0.15754683912E+02  0.13357879866E+03  0.41800000000E+01 0. -1.
</event>
<event>
11    1  0.7577197E-009  0.1445078E+03  0.7561462E-02  0.1102627E+00
         22   -1    0    0    0    0  0.00000000000E+00  0.00000000000E+00  0.58817845150E+03  0.58817845150E+03  0.00000000000E+00 0.  1.
         22   -1    0    0    0    0 -0.00000000000E+00 -0.00000000000E+00 -0.12526733331E+03  0.12526733331E+03  0.00000000000E+00 0.  1.
         24    2    1    2    0    0 -0.11872578293E+02  0.15379269776E+02 -0.69423518535E+02  0.10852919263E+03  0.81126325405E+02 0.  0.
         25    2    1    2    0    0  0.42525231692E+01 -0.84366795376E+02  0.16912987215E+03  0.22668924372E+03  0.12508900611E+03 0.  0.
        -24    2    1    2    0    0  0.76200551238E+01  0.68987525600E+02  0.36320476457E+03  0.37822734846E+03  0.79503975934E+02 0.  0.
        -13    1    3    3    0    0 -0.33722286695E+02  0.36747159255E+02 -0.28468558217E+02  0.57428260815E+02  0.00000000000E+00 0.  1.
         14    1    3    3    0    0  0.21849708402E+02 -0.21367889479E+02 -0.40954960318E+02  0.51100931819E+02  0.00000000000E+00 0. -1.
         13    1    5    5    0    0  0.34058172920E+02  0.22525204812E+02  0.77854147698E+02  0.87912526458E+02  0.00000000000E+00 0. -1.
        -14    1    5    5    0    0 -0.26438117796E+02  0.46462320788E+02  0.28535061688E+03  0.29031482201E+03  0.00000000000E+00 0.  1.
          5    1    4    4  501    0 -0.46280902934E+02 -0.11139514553E+02  0.17606493463E+02  0.50926140369E+02  0.41800000000E+01 0. -1.
         -5    1    4    4    0  501  0.50533426103E+02 -0.73227280823E+02  0.15152337868E+03  0.17576310335E+03  0.41800000000E+01 0. -1.
</event>
<event>
11    1  0.7577197E-009  0.2599653E+03  0.7561462E-02  0.1018721E+00
         22   -1    0    0    0    0  0.00000000000E+00  0.00000000000E+00  0.11484835143E+04  0.11484835143E+04  0.00000000000E+00 0. -1.
         22   -1    0    0    0    0 -0.00000000000E+00 -0.00000000000E+00 -0.13887397806E+03  0.13887397806E+03  0.00000000000E+00 0.  1.
        -24    2    1    2    0    0 -0.44466607405E+02 -0.31097320496E+01 -0.49725800312E+02  0.10548767883E+03  0.81658101624E+02 0.  0.
         25    2    1    2    0    0 -0.17776826219E+03  0.97503105940E+02  0.31294788658E+03  0.39331031162E+03  0.12509280876E+03 0.  0.
         24    2    1    2    0    0  0.22223486959E+03 -0.94393373890E+02  0.74638744992E+03  0.78855950186E+03  0.80208579797E+02 0.  0.
        -13    1    5    5    0    0  0.14650571179E+03 -0.24718017005E+02  0.49823175446E+03  0.51991324767E+03  0.00000000000E+00 0.  1.
         14    1    5    5    0    0  0.75729157806E+02 -0.69675356885E+02  0.24815569546E+03  0.26864625419E+03  0.00000000000E+00 0. -1.
         11    1    3    3    0    0 -0.11787099980E+02  0.61407055023E+01  0.22240762895E+02  0.25909371357E+02  0.00000000000E+00 0. -1.
        -12    1    3    3    0    0 -0.32679507425E+02 -0.92504375518E+01 -0.71966563207E+02  0.79578307473E+02  0.00000000000E+00 0.  1.
          5    1    4    4  501    0 -0.17120023853E+03  0.11878364123E+03  0.24484401380E+03  0.32153559460E+03  0.41800000000E+01 0. -1.
         -5    1    4    4    0  501 -0.65680236549E+01 -0.21280535288E+02  0.68103872775E+02  0.71774717024E+02  0.41800000000E+01 0. -1.
</event>
<event>
11    1  0.7577197E-009  0.1640784E+03  0.7561462E-02  0.1083303E+00
         22   -1    0    0    0    0  0.00000000000E+00  0.00000000000E+00  0.12302458272E+04  0.12302458272E+04  0.00000000000E+00 0. -1.
         22   -1    0    0    0    0 -0.00000000000E+00 -0.00000000000E+00 -0.12701892382E+04  0.12701892382E+04  0.00000000000E+00 0.  1.
        -24    2    1    2    0    0  0.97475999304E+02  0.44032027681E+02 -0.11526340935E+04  0.11602763092E+04  0.78964359972E+02 0.  0.
         25    2    1    2    0    0 -0.69925978702E+02 -0.73280362709E+02 -0.54069256915E+02  0.16979819065E+03  0.12509311311E+03 0.  0.
         24    2    1    2    0    0 -0.27550020602E+02  0.29248335028E+02  0.11667599395E+04  0.11703605656E+04  0.82465922218E+02 0.  0.
        -11    1    5    5    0    0 -0.37051331245E+01  0.63688564074E+01  0.71080056875E+01  0.10237875183E+02  0.00000000000E+00 0.  1.
         12    1    5    5    0    0 -0.23844887478E+02  0.22879478620E+02  0.11596519338E+04  0.11601226904E+04  0.00000000000E+00 0. -1.
         13    1    3    3    0    0  0.39653652253E+02 -0.12954191217E+02 -0.20686774473E+03  0.21103195733E+03  0.00000000000E+00 0. -1.
        -14    1    3    3    0    0  0.57822347052E+02  0.56986218898E+02 -0.94576634882E+03  0.94924435185E+03  0.00000000000E+00 0.  1.
          5    1    4    4  501    0 -0.61844331608E+02 -0.14190148906E+02 -0.82034797008E+02  0.10379432546E+03  0.41800000000E+01 0. -1.
         -5    1    4    4    0  501 -0.80816470946E+01 -0.59090213802E+02  0.27965540093E+02  0.66003865187E+02  0.41800000000E+01 0. -1.
</event>
<event>
11    1  0.7577197E-009  0.1384732E+03  0.7561462E-02  0.1109275E+00
         22   -1    0    0    0    0  0.00000000000E+00  0.00000000000E+00  0.19382657467E+03  0.19382657467E+03  0.00000000000E+00 0.  1.
         22   -1    0    0    0    0 -0.00000000000E+00 -0.00000000000E+00 -0.74222020615E+03  0.74222020615E+03  0.00000000000E+00 0. -1.
        -24    2    1    2    0    0  0.43235049172E+02  0.30453980623E+02 -0.60280357361E+03  0.61014849002E+03  0.78181309128E+02 0.  0.
         25    2    1    2    0    0 -0.59334082385E+02  0.28763901055E+02 -0.75944757149E+02  0.16051052709E+03  0.12509247712E+03 0.  0.
         24    2    1    2    0    0  0.16099033213E+02 -0.59217881677E+02  0.13035469927E+03  0.16538776371E+03  0.81208548708E+02 0.  0.
        -13    1    5    5    0    0  0.37293940930E+02 -0.64385175189E+02  0.12010273201E+03  0.14128324405E+03  0.00000000000E+00 0.  1.
         14    1    5    5    0    0 -0.21194907717E+02  0.51672935119E+01  0.10251967267E+02  0.24104519663E+02  0.00000000000E+00 0. -1.
         13    1    3    3    0    0  0.28418692933E+02  0.33947016611E+01 -0.53375213612E+03  0.53451893224E+03  0.00000000000E+00 0. -1.
        -14    1    3    3    0    0  0.14816356239E+02  0.27059278962E+02 -0.69051437491E+02  0.75629557778E+02  0.00000000000E+00 0.  1.
          5    1    4    4  501    0 -0.36038991189E+02  0.76029318410E+02 -0.26980088328E+02  0.88457129221E+02  0.41800000000E+01 0.  1.
         -5    1    4    4    0  501 -0.23295091196E+02 -0.47265417355E+02 -0.48964668821E+02  0.72053397868E+02  0.41800000000E+01 0.  1.
</event>
<event>
11    1  0.8788018E-009  0.1541425E+03  0.7561462E-02  0.1092720E+00
         22   -1    0    0    0    0  0.00000000000E+00  0.00000000000E+00  0.22092268134E+04  0.22092268134E+04  0.00000000000E+00 0. -1.
         22   -1    0    0    0    0 -0.00000000000E+00 -0.00000000000E+00 -0.14526487349E+04  0.14526487349E+04  0.00000000000E+00 0.  1.
         24    2    1    2    0    0 -0.67562470307E+02  0.44796588966E+01 -0.11219331582E+04  0.11268868049E+04  0.80963602532E+02 0.  0.
         25    2    1    2    0    0 -0.81437572533E+01  0.44913987958E+02 -0.31284899769E+03  0.34000813635E+03  0.12508976910E+03 0.  0.
        -24    2    1    2    0    0  0.75706227560E+02 -0.49393646855E+02  0.21913602344E+04  0.21949806070E+04  0.87801040485E+02 0.  0.
        -13    1    3    3    0    0 -0.60058368756E+02 -0.28802489605E+02 -0.88591841487E+03  0.88841883640E+03  0.00000000000E+00 0.  1.
         14    1    3    3    0    0 -0.75041015510E+01  0.33282148501E+02 -0.23601474333E+03  0.23846796854E+03  0.00000000000E+00 0. -1.
         13    1    5    5    0    0  0.62593395431E+02 -0.49581007452E+02  0.89526274054E+03  0.89881676889E+03  0.00000000000E+00 0. -1.
        -14    1    5    5    0    0  0.13112832129E+02  0.18736059734E+00  0.12960974939E+04  0.12961638381E+04  0.00000000000E+00 0.  1.
          5    1    4    4  501    0 -0.62454011655E+02  0.42920848843E+01 -0.11786962515E+03  0.13352769936E+03  0.41800000000E+01 0.  1.
         -5    1    4    4    0  501  0.54310254402E+02  0.40621903074E+02 -0.19497937254E+03  0.20648043699E+03  0.41800000000E+01 0.  1.
</event>
<event>
11    1  0.7577197E-009  0.8971106E+03  0.7561462E-02  0.8783549E-01
         22   -1    0    0    0    0  0.00000000000E+00  0.00000000000E+00  0.74217306995E+03  0.74217306995E+03  0.00000000000E+00 0. -1.
         22   -1    0    0    0    0 -0.00000000000E+00 -0.00000000000E+00 -0.34949635424E+04  0.34949635424E+04  0.00000000000E+00 0. -1.
        -24    2    1    2    0    0 -0.14483212862E+02 -0.64076117152E+03 -0.20599937444E+04  0.21589253858E+04  0.81240088367E+02 0.  0.
         25    2    1    2    0    0 -0.14724171201E+03  0.12782336534E+04 -0.39447430686E+03  0.13515989819E+04  0.12509370356E+03 0.  0.
         24    2    1    2    0    0  0.16172492487E+03 -0.63747248186E+03 -0.29832242117E+03  0.72661224469E+03  0.80268117656E+02 0.  0.
        -11    1    5    5    0    0  0.27539793687E+02 -0.31761780117E+02 -0.15705563550E+02  0.44876671433E+02  0.00000000000E+00 0.  1.
         12    1    5    5    0    0  0.13418513118E+03 -0.60571070174E+03 -0.28261685762E+03  0.68173557326E+03  0.00000000000E+00 0. -1.
         13    1    3    3    0    0 -0.45407315838E+02 -0.31313991482E+03 -0.10547791909E+04  0.11012164056E+04  0.00000000000E+00 0. -1.
        -14    1    3    3    0    0  0.30924102976E+02 -0.32762125670E+03 -0.10052145536E+04  0.10577089801E+04  0.00000000000E+00 0.  1.
          5    1    4    4  501    0 -0.39460401185E+02  0.69173798792E+03 -0.16204623191E+03  0.71157221761E+03  0.41800000000E+01 0.  1.
         -5    1    4    4    0  501 -0.10778131082E+03  0.58649566545E+03 -0.23242807495E+03  0.64002676427E+03  0.41800000000E+01 0.  1.
</event>
<event>
11    1  0.8756300E-009  0.2330278E+03  0.7561462E-02  0.1033350E+00
         22   -1    0    0    0    0  0.00000000000E+00  0.00000000000E+00  0.11218098318E+04  0.11218098318E+04  0.00000000000E+00 0.  1.
         22   -1    0    0    0    0 -0.00000000000E+00 -0.00000000000E+00 -0.64071713324E+03  0.64071713324E+03  0.00000000000E+00 0. -1.
        -24    2    1    2    0    0  0.42872048931E+02  0.33995651955E+02 -0.31089992439E+03  0.32708027165E+03  0.85609720182E+02 0.  0.
         25    2    1    2    0    0  0.98667479537E+02 -0.17078694048E+03 -0.26705432954E+03  0.35478162417E+03  0.12509410603E+03 0.  0.
         24    2    1    2    0    0 -0.14153952847E+03  0.13679128852E+03  0.10590469525E+04  0.10806650693E+04  0.86667465119E+02 0.  0.
        -11    1    5    5    0    0 -0.89261882213E+02  0.12631061328E+03  0.64948833459E+03  0.66765047099E+03  0.00000000000E+00 0.  1.
         12    1    5    5    0    0 -0.52277646256E+02  0.10480675239E+02  0.40955861794E+03  0.41301459826E+03  0.00000000000E+00 0. -1.
         13    1    3    3    0    0 -0.11922479177E+02  0.42344014479E+02 -0.17183717255E+03  0.17737862031E+03  0.00000000000E+00 0. -1.
        -14    1    3    3    0    0  0.54794528108E+02 -0.83483625243E+01 -0.13906275183E+03  0.14970165134E+03  0.00000000000E+00 0.  1.
          5    1    4    4  501    0  0.31824489233E+02 -0.27768559843E+01  0.31081394767E-01  0.32217734404E+02  0.41800000000E+01 0.  1.
         -5    1    4    4    0  501  0.66842990304E+02 -0.16801008449E+03 -0.26708541094E+03  0.32256388976E+03  0.41800000000E+01 0.  1.
</event>
<event>
11    1  0.7577197E-009  0.1380628E+03  0.7561462E-02  0.1109741E+00
         22   -1    0    0    0    0  0.00000000000E+00  0.00000000000E+00  0.15633166665E+03  0.15633166665E+03  0.00000000000E+00 0.  1.
         22   -1    0    0    0    0 -0.00000000000E+00 -0.00000000000E+00 -0.76921078606E+03  0.76921078606E+03  0.00000000000E+00 0.  1.
        -24    2    1    2    0    0  0.19892014104E+02 -0.30230940434E+02 -0.67220249863E+03  0.67782701571E+03  0.79269553331E+02 0.  0.
         25    2    1    2    0    0  0.22798890093E+02  0.65418587920E+02  0.29621990336E+02  0.14602145189E+03  0.12508165759E+03 0.  0.
         24    2    1    2    0    0 -0.42690904197E+02 -0.35187647487E+02  0.29701388879E+02  0.10169398511E+03  0.79992563833E+02 0.  0.
        -11    1    5    5    0    0 -0.36923374470E+02 -0.59685268175E+02  0.30476632588E+02  0.76514651887E+02  0.00000000000E+00 0.  1.
         12    1    5    5    0    0 -0.57675297262E+01  0.24497620689E+02 -0.77524370915E+00  0.25179333219E+02  0.00000000000E+00 0. -1.
         13    1    3    3    0    0 -0.58631329144E+00  0.25448687641E+02 -0.28114368450E+03  0.28229373143E+03  0.00000000000E+00 0. -1.
        -14    1    3    3    0    0  0.20478327395E+02 -0.55679628075E+02 -0.39105881412E+03  0.39553328429E+03  0.00000000000E+00 0.  1.
          5    1    4    4  501    0  0.31678720811E+02  0.97590290504E+02  0.23436752277E+01  0.10271500069E+03  0.41800000000E+01 0.  1.
         -5    1    4    4    0  501 -0.88798307185E+01 -0.32171702584E+02  0.27278315108E+02  0.43306451204E+02  0.41800000000E+01 0.  1.
</event>
<event>
11    1  0.7577197E-009  0.1419779E+03  0.7561462E-02  0.1105370E+00
         22   -1    0    0    0    0  0.00000000000E+00  0.00000000000E+00  0.66771768757E+03  0.66771768757E+03  0.00000000000E+00 0.  1.
         22   -1    0    0    0    0 -0.00000000000E+00 -0.00000000000E+00 -0.26540943695E+03  0.26540943695E+03  0.00000000000E+00 0. -1.
        -24    2    1    2    0    0 -0.12495762744E+02 -0.32456261124E+02 -0.23100223450E+03  0.24693693608E+03  0.80039147193E+02 0.  0.
         25    2    1    2    0    0 -0.14888230291E+02 -0.38526161703E+02  0.20100642612E+03  0.24032561433E+03  0.12508754144E+03 0.  0.
         24    2    1    2    0    0  0.27383993035E+02  0.70982422827E+02  0.43230405900E+03  0.44586457411E+03  0.78230630828E+02 0.  0.
        -13    1    5    5    0    0 -0.71779819236E+00  0.77400790928E+02  0.35550623602E+03  0.36383523952E+03  0.00000000000E+00 0.  1.
         14    1    5    5    0    0  0.28101791227E+02 -0.64183681012E+01  0.76797822975E+02  0.82029334588E+02  0.00000000000E+00 0. -1.
         11    1    3    3    0    0  0.13845095257E+02 -0.52065145962E+02 -0.12966217345E+03  0.14040920664E+03  0.00000000000E+00 0. -1.
        -12    1    3    3    0    0 -0.26340858001E+02  0.19608884839E+02 -0.10134006105E+03  0.10652772943E+03  0.00000000000E+00 0.  1.
          5    1    4    4  501    0  0.93182859819E+01 -0.80672319352E+02  0.14328633073E+03  0.16475223379E+03  0.41800000000E+01 0.  1.
         -5    1    4    4    0  501 -0.24206516273E+02  0.42146157649E+02  0.57720095385E+02  0.75573380538E+02  0.41800000000E+01 0.  1.
</event>
<event>
11    1  0.7577197E-009  0.1989398E+03  0.7561462E-02  0.1055276E+00
         22   -1    0    0    0    0  0.00000000000E+00  0.00000000000E+00  0.18079934744E+04  0.18079934744E+04  0.00000000000E+00 0.  1.
         22   -1    0    0    0    0 -0.00000000000E+00 -0.00000000000E+00 -0.25225458168E+03  0.25225458168E+03  0.00000000000E+00 0. -1.
        -24    2    1    2    0    0  0.18157282610E+03 -0.21005484911E+02 -0.18773172531E+03  0.27432473032E+03  0.81246140851E+02 0.  0.
         25    2    1    2    0    0 -0.38491489569E+02  0.10445019699E+03  0.46664148576E+03  0.49577559519E+03  0.12509087149E+03 0.  0.
         24    2    1    2    0    0 -0.14308133653E+03 -0.83444712083E+02  0.12768291323E+04  0.12901477306E+04  0.82178128610E+02 0.  0.
        -13    1    5    5    0    0 -0.75484573591E+02 -0.89086955687E+02  0.77149003247E+03  0.78027641046E+03  0.00000000000E+00 0.  1.
         14    1    5    5    0    0 -0.67596762937E+02  0.56422436049E+01  0.50533909981E+03  0.50987132011E+03  0.00000000000E+00 0. -1.
         13    1    3    3    0    0  0.95890184853E+02 -0.39429491726E+02 -0.14096097743E+03  0.17498459797E+03  0.00000000000E+00 0. -1.
        -14    1    3    3    0    0  0.85682641244E+02  0.18424006814E+02 -0.46770747881E+02  0.99340132349E+02  0.00000000000E+00 0.  1.
          5    1    4    4  501    0 -0.32145487910E+02  0.50150118756E+02  0.57236717392E+02  0.82715663704E+02  0.41800000000E+01 0. -1.
         -5    1    4    4    0  501 -0.63460016589E+01  0.54300078237E+02  0.40940476837E+03  0.41305993149E+03  0.41800000000E+01 0. -1.
</event>
<event>
11    1  0.7577197E-009  0.1714224E+03  0.7561462E-02  0.1076800E+00
         22   -1    0    0    0    0  0.00000000000E+00  0.00000000000E+00  0.66552613502E+03  0.66552613502E+03  0.00000000000E+00 0. -1.
         22   -1    0    0    0    0 -0.00000000000E+00 -0.00000000000E+00 -0.53274009982E+03  0.53274009982E+03  0.00000000000E+00 0. -1.
         24    2    1    2    0    0  0.32475986460E+02  0.24486415477E+02 -0.48991033696E+03  0.49809412727E+03  0.80195680193E+02 0.  0.
         25    2    1    2    0    0 -0.12291232498E+03 -0.74572127629E+02  0.33128600816E+03  0.38218621547E+03  0.12508973675E+03 0.  0.
        -24    2    1    2    0    0  0.90436338519E+02  0.50085712152E+02  0.29141036400E+03  0.31798589210E+03  0.74213997596E+02 0.  0.
        -13    1    3    3    0    0  0.90408329847E+00 -0.20518156514E+01  0.28412910027E+01  0.36194265623E+01  0.00000000000E+00 0.  1.
         14    1    3    3    0    0  0.31571903162E+02  0.26538231129E+02 -0.49275162796E+03  0.49447470071E+03  0.00000000000E+00 0. -1.
         11    1    5    5    0    0  0.86003313145E+02  0.65537698456E+02  0.22465609710E+03  0.24932332774E+03  0.00000000000E+00 0. -1.
        -12    1    5    5    0    0  0.44330253742E+01 -0.15451986304E+02  0.66754266905E+02  0.68662564362E+02  0.00000000000E+00 0.  1.
          5    1    4    4  501    0 -0.25008864149E+02 -0.62743270638E+02  0.50159163121E+02  0.84235238121E+02  0.41800000000E+01 0. -1.
         -5    1    4    4    0  501 -0.97903460831E+02 -0.11828856991E+02  0.28112684504E+03  0.29795097735E+03  0.41800000000E+01 0. -1.
</event>
<event>
11    1  0.7577197E-009  0.1284104E+03  0.7561462E-02  0.1121238E+00
         22   -1    0    0    0    0  0.00000000000E+00  0.00000000000E+00  0.76405983553E+02  0.76405983553E+02  0.00000000000E+00 0.  1.
         22   -1    0    0    0    0 -0.00000000000E+00 -0.00000000000E+00 -0.12065937764E+04  0.12065937764E+04  0.00000000000E+00 0. -1.
         24    2    1    2    0    0 -0.23687498809E+02 -0.14820843261E+02 -0.95727799240E+03  0.96104453622E+03  0.80278832021E+02 0.  0.
         25    2    1    2    0    0  0.14636737561E+02  0.49866604101E+02 -0.20215877774E+03  0.24334596772E+03  0.12509267083E+03 0.  0.
        -24    2    1    2    0    0  0.90507612489E+01 -0.35045760840E+02  0.29248977334E+02  0.78609255977E+02  0.63354485382E+02 0.  0.
        -13    1    3    3    0    0 -0.48202586661E+02 -0.89341967592E+01 -0.37103250661E+03  0.37425717120E+03  0.00000000000E+00 0.  1.
         14    1    3    3    0    0  0.24515087852E+02 -0.58866465017E+01 -0.58624548579E+03  0.58678736502E+03  0.00000000000E+00 0. -1.
         13    1    5    5    0    0  0.14679282927E+02  0.14028968435E+02  0.19714312901E+02  0.28301014748E+02  0.00000000000E+00 0. -1.
        -14    1    5    5    0    0 -0.56285216782E+01 -0.49074729275E+02  0.95346644336E+01  0.50308241229E+02  0.00000000000E+00 0.  1.
          5    1    4    4  501    0 -0.19238577838E+02 -0.17483029120E+02  0.12665809651E+01  0.26360117825E+02  0.41800000000E+01 0.  1.
         -5    1    4    4    0  501  0.33875315398E+02  0.67349633220E+02 -0.20342535871E+03  0.21698584989E+03  0.41800000000E+01 0.  1.
</event>
<event>
11    1  0.7577197E-009  0.1397625E+03  0.7561462E-02  0.1107824E+00
         22   -1    0    0    0    0  0.00000000000E+00  0.00000000000E+00  0.91819019812E+03  0.91819019812E+03  0.00000000000E+00 0.  1.
         22   -1    0    0    0    0 -0.00000000000E+00 -0.00000000000E+00 -0.82718831642E+02  0.82718831642E+02  0.00000000000E+00 0. -1.
        -24    2    1    2    0    0  0.13932375441E+02  0.31406348344E+01 -0.23869193394E+00  0.81969068378E+02  0.80714908935E+02 0.  0.
         25    2    1    2    0    0  0.34009525758E+02  0.38256067983E+02  0.80974466864E+02  0.15755830592E+03  0.12509029099E+03 0.  0.
         24    2    1    2    0    0 -0.47941901199E+02 -0.41396702818E+02  0.75473559155E+03  0.76138165547E+03  0.77872326509E+02 0.  0.
        -13    1    5    5    0    0 -0.61846322390E+02 -0.43569042560E+02  0.44949617690E+03  0.45581799231E+03  0.00000000000E+00 0.  1.
         14    1    5    5    0    0  0.13904421191E+02  0.21723397425E+01  0.30523941465E+03  0.30556366316E+03  0.00000000000E+00 0. -1.
         13    1    3    3    0    0  0.70724171966E+01 -0.11273903787E+02 -0.38379904597E+02  0.40621879185E+02  0.00000000000E+00 0. -1.
        -14    1    3    3    0    0  0.68599582447E+01  0.14414538622E+02  0.38141212663E+02  0.41347189194E+02  0.00000000000E+00 0.  1.
          5    1    4    4  501    0  0.36953429137E+02  0.30381277200E+02 -0.22940874344E+02  0.53219677235E+02  0.41800000000E+01 0.  1.
         -5    1    4    4    0  501 -0.29439033794E+01  0.78747907836E+01  0.10391534121E+03  0.10433862868E+03  0.41800000000E+01 0.  1.
</event>
<event>
11    1  0.1005322E-008  0.1796192E+03  0.7561462E-02  0.1069951E+00
         22   -1    0    0    0    0  0.00000000000E+00  0.00000000000E+00  0.59031013572E+03  0.59031013572E+03  0.00000000000E+00 0. -1.
         22   -1    0    0    0    0 -0.00000000000E+00 -0.00000000000E+00 -0.59052415261E+03  0.59052415261E+03  0.00000000000E+00 0. -1.
         24    2    1    2    0    0  0.82304066144E+02 -0.11629202644E+03 -0.48053551748E+03  0.50776040103E+03  0.81292352551E+02 0.  0.
         25    2    1    2    0    0 -0.86196325536E+02  0.13093742048E+02 -0.22017288273E+02  0.15405556306E+03  0.12508838039E+03 0.  0.
        -24    2    1    2    0    0  0.38922593926E+01  0.10319828439E+03  0.50233878886E+03  0.51901832424E+03  0.79816831028E+02 0.  0.
        -11    1    3    3    0    0 -0.90703878208E+01  0.61167678855E+00 -0.68586727353E+01  0.11388040894E+02  0.00000000000E+00 0.  1.
         12    1    3    3    0    0  0.91374453964E+02 -0.11690370323E+03 -0.47367684474E+03  0.49637236014E+03  0.00000000000E+00 0. -1.
         11    1    5    5    0    0 -0.65196716346E+01  0.99732494251E+02  0.49674777195E+03  0.50670250193E+03  0.00000000000E+00 0. -1.
        -12    1    5    5    0    0  0.10411931027E+02  0.34657901388E+01  0.55910169165E+01  0.12315822310E+02  0.00000000000E+00 0.  1.
          5    1    4    4  501    0 -0.82206468473E+01 -0.21982345002E+02 -0.56842697308E+02  0.61639006835E+02  0.41800000000E+01 0. -1.
         -5    1    4    4    0  501 -0.77975678689E+02  0.35076087050E+02  0.34825409035E+02  0.92416556223E+02  0.41800000000E+01 0. -1.
</event>
<event>
11    1  0.7577197E-009  0.1682204E+03  0.7561462E-02  0.1079591E+00
         22   -1    0    0    0    0  0.00000000000E+00  0.00000000000E+00  0.15301463801E+04  0.15301463801E+04  0.00000000000E+00 0. -1.
         22   -1    0    0    0    0 -0.00000000000E+00 -0.00000000000E+00 -0.62398648411E+03  0.62398648411E+03  0.00000000000E+00 0.  1.
         24    2    1    2    0    0 -0.72434914281E+02  0.81279469919E+02 -0.50557468816E+03  0.52348880011E+03  0.81126996095E+02 0.  0.
         25    2    1    2    0    0  0.52415833781E+02 -0.15531923750E+03 -0.82551550223E+01  0.20636498600E+03  0.12508746818E+03 0.  0.
        -24    2    1    2    0    0  0.20019080500E+02  0.74039767580E+02  0.14199897392E+04  0.14242790781E+04  0.79481961165E+02 0.  0.
        -11    1    3    3    0    0  0.22260908364E+01  0.56605823669E+02 -0.19002406525E+03  0.19828847704E+03  0.00000000000E+00 0.  1.
         12    1    3    3    0    0 -0.74661005118E+02  0.24673646250E+02 -0.31555062291E+03  0.32520032307E+03  0.00000000000E+00 0. -1.
         13    1    5    5    0    0  0.64963670267E+01  0.53487798774E+02  0.13268942658E+04  0.13279877786E+04  0.00000000000E+00 0. -1.
        -14    1    5    5    0    0  0.13522713473E+02  0.20551968807E+02  0.93095473429E+02  0.96291299578E+02  0.00000000000E+00 0.  1.
          5    1    4    4  501    0  0.80590979856E+02 -0.15817579198E+03 -0.68876963257E+01  0.17770593677E+03  0.41800000000E+01 0.  1.
         -5    1    4    4    0  501 -0.28175146074E+02  0.28565544771E+01 -0.13674586966E+01  0.28659049235E+02  0.41800000000E+01 0.  1.
</event>
<event>
11    1  0.7577197E-009  0.1310611E+03  0.7561462E-02  0.1117972E+00
         22   -1    0    0    0    0  0.00000000000E+00  0.00000000000E+00  0.49480765638E+03  0.49480765638E+03  0.00000000000E+00 0.  1.
         22   -1    0    0    0    0 -0.00000000000E+00 -0.00000000000E+00 -0.21022377014E+03  0.21022377014E+03  0.00000000000E+00 0. -1.
        -24    2    1    2    0    0  0.38020392820E+02  0.29624695409E+01 -0.16408941668E+03  0.18719258346E+03  0.81617400966E+02 0.  0.
         25    2    1    2    0    0 -0.67015643159E+02 -0.16316976788E+02  0.15632208010E+03  0.21175735072E+03  0.12508893915E+03 0.  0.
         24    2    1    2    0    0  0.28995250339E+02  0.13354507247E+02  0.29235122282E+03  0.30608149234E+03  0.84838523452E+02 0.  0.
        -11    1    5    5    0    0  0.21261317026E+02  0.39440570251E+02  0.25989641914E+03  0.26373045115E+03  0.00000000000E+00 0.  1.
         12    1    5    5    0    0  0.77339333135E+01 -0.26086063004E+02  0.32454803678E+02  0.42351041183E+02  0.00000000000E+00 0. -1.
         13    1    3    3    0    0  0.12132897308E+02 -0.25393174219E+02 -0.13783599221E+03  0.14067971155E+03  0.00000000000E+00 0. -1.
        -14    1    3    3    0    0  0.25887495512E+02  0.28355643760E+02 -0.26253424474E+02  0.46512871912E+02  0.00000000000E+00 0.  1.
          5    1    4    4  501    0 -0.19436128239E+02 -0.66701241001E+02  0.10257189846E+03  0.12395678838E+03  0.41800000000E+01 0. -1.
         -5    1    4    4    0  501 -0.47579514921E+02  0.50384264213E+02  0.53750181643E+02  0.87800562339E+02  0.41800000000E+01 0. -1.
</event>
<event>
11    1  0.7577197E-009  0.1504143E+03  0.7561462E-02  0.1096456E+00
         22   -1    0    0    0    0  0.00000000000E+00  0.00000000000E+00  0.21980032984E+04  0.21980032984E+04  0.00000000000E+00 0.  1.
         22   -1    0    0    0    0 -0.00000000000E+00 -0.00000000000E+00 -0.69276380600E+02  0.69276380600E+02  0.00000000000E+00 0.  1.
        -24    2    1    2    0    0 -0.82692048712E+02  0.41898271159E+02  0.16525229892E+02  0.12813324222E+03  0.86899968309E+02 0.  0.
         25    2    1    2    0    0  0.48707320133E+02  0.39780800248E+02  0.42229508166E+03  0.44490577189E+03  0.12511232857E+03 0.  0.
         24    2    1    2    0    0  0.33984728579E+02 -0.81679071406E+02  0.16899066062E+04  0.16942406649E+04  0.82708284123E+02 0.  0.
        -13    1    5    5    0    0  0.13274160413E+02 -0.11048659213E+02  0.10457368609E+04  0.10458794665E+04  0.00000000000E+00 0.  1.
         14    1    5    5    0    0  0.20710568166E+02 -0.70630412193E+02  0.64416974527E+03  0.64836119832E+03  0.00000000000E+00 0. -1.
         13    1    3    3    0    0 -0.76122812977E+02  0.49237869389E+02  0.42666912721E+02  0.10019738459E+03  0.00000000000E+00 0. -1.
        -14    1    3    3    0    0 -0.65692357343E+01 -0.73395982304E+01 -0.26141682829E+02  0.27935857628E+02  0.00000000000E+00 0.  1.
          5    1    4    4  501    0 -0.23124002653E+02 -0.11593139405E+02  0.24886561814E+03  0.25024126093E+03  0.41800000000E+01 0. -1.
         -5    1    4    4    0  501  0.71831322786E+02  0.51373939653E+02  0.17342946352E+03  0.19466451096E+03  0.41800000000E+01 0. -1.
</event>
<event>
11    1  0.7577197E-009  0.1919372E+03  0.7561462E-02  0.1060376E+00
         22   -1    0    0    0    0  0.00000000000E+00  0.00000000000E+00  0.11980064376E+03  0.11980064376E+03  0.00000000000E+00 0.  1.
         22   -1    0    0    0    0 -0.00000000000E+00 -0.00000000000E+00 -0.81951820694E+03  0.81951820694E+03  0.00000000000E+00 0.  1.
        -24    2    1    2    0    0 -0.38266688295E+01  0.12773400258E+02 -0.50533812356E+03  0.51189293246E+03  0.80560238526E+02 0.  0.
         25    2    1    2    0    0 -0.14227980098E+03 -0.22347601844E+02 -0.17463100382E+03  0.25862833833E+03  0.12509865235E+03 0.  0.
         24    2    1    2    0    0  0.14610646981E+03  0.95742015860E+01 -0.19748435804E+02  0.16879757991E+03  0.81632447040E+02 0.  0.
        -13    1    5    5    0    0  0.10709460133E+03  0.36866490773E+02 -0.35423472460E+02  0.11867271876E+03  0.00000000000E+00 0.  1.
         14    1    5    5    0    0  0.39011868481E+02 -0.27292289187E+02  0.15675036655E+02  0.50124861153E+02  0.00000000000E+00 0. -1.
         13    1    3    3    0    0 -0.29210829086E+02  0.36524565146E+02 -0.30373423715E+03  0.30731385132E+03  0.00000000000E+00 0. -1.
        -14    1    3    3    0    0  0.25384160256E+02 -0.23751164888E+02 -0.20160388641E+03  0.20457908114E+03  0.00000000000E+00 0.  1.
          5    1    4    4  501    0 -0.60435690753E+02  0.22565178869E+02 -0.14792852094E+03  0.16143723153E+03  0.41800000000E+01 0. -1.
         -5    1    4    4    0  501 -0.81844110232E+02 -0.44912780713E+02 -0.26702482875E+02  0.97191106808E+02  0.41800000000E+01 0. -1.
</event>
<event>
11    1  0.7577197E-009  0.1720256E+03  0.7561462E-02  0.1076282E+00
         22   -1    0    0    0    0  0.00000000000E+00  0.00000000000E+00  0.13434241990E+04  0.13434241990E+04  0.00000000000E+00 0. -1.
         22   -1    0    0    0    0 -0.00000000000E+00 -0.00000000000E+00 -0.56765307796E+02  0.56765307796E+02  0.00000000000E+00 0. -1.
        -24    2    1    2    0    0  0.17706850517E+01 -0.25905681887E+02  0.20858269039E+02  0.86667994567E+02  0.80012712836E+02 0.  0.
         25    2    1    2    0    0 -0.39492072734E+02 -0.92288066366E+02  0.34084889121E+03  0.37670020413E+03  0.12509342969E+03 0.  0.
         24    2    1    2    0    0  0.37721387682E+02  0.11819374825E+03  0.92495173092E+03  0.93682130807E+03  0.81888909474E+02 0.  0.
        -11    1    5    5    0    0 -0.12788650991E+02  0.13768147192E+02  0.33770336266E+03  0.33822577167E+03  0.00000000000E+00 0.  1.
         12    1    5    5    0    0  0.50510038673E+02  0.10442560106E+03  0.58724836826E+03  0.59859553639E+03  0.00000000000E+00 0. -1.
         13    1    3    3    0    0  0.10026115706E+01 -0.24206651777E+02 -0.28425264456E+02  0.37349201860E+02  0.00000000000E+00 0. -1.
        -14    1    3    3    0    0  0.76807348111E+00 -0.16990301099E+01  0.49283533496E+02  0.49318792706E+02  0.00000000000E+00 0.  1.
          5    1    4    4  501    0  0.80604589689E+00  0.30540307898E+02  0.73634973577E+02  0.79830707438E+02  0.41800000000E+01 0.  1.
         -5    1    4    4    0  501 -0.40298118631E+02 -0.12282837426E+03  0.26721391763E+03  0.29686949669E+03  0.41800000000E+01 0.  1.
</event>
<event>
11    1  0.7577197E-009  0.1346990E+03  0.7561462E-02  0.1113627E+00
         22   -1    0    0    0    0  0.00000000000E+00  0.00000000000E+00  0.22096324448E+03  0.22096324448E+03  0.00000000000E+00 0. -1.
         22   -1    0    0    0    0 -0.00000000000E+00 -0.00000000000E+00 -0.14623387703E+04  0.14623387703E+04  0.00000000000E+00 0. -1.
        -24    2    1    2    0    0 -0.44905383197E+02 -0.18700239129E+02 -0.13291922256E+04  0.13327138902E+04  0.83714681965E+02 0.  0.
         25    2    1    2    0    0  0.83905912598E+02  0.22022775106E+02 -0.70582233725E+02  0.16779756620E+03  0.12509583011E+03 0.  0.
         24    2    1    2    0    0 -0.39000529401E+02 -0.33225359764E+01  0.15839893354E+03  0.18279055842E+03  0.82401975477E+02 0.  0.
        -11    1    5    5    0    0  0.21188296826E+02 -0.14258295295E+02  0.75926362708E+02  0.80106525709E+02  0.00000000000E+00 0.  1.
         12    1    5    5    0    0 -0.60188826227E+02  0.10935759319E+02  0.82472570831E+02  0.10268403271E+03  0.00000000000E+00 0. -1.
         11    1    3    3    0    0 -0.29536105567E+02 -0.21534470000E+02 -0.12900392435E+04  0.12905569979E+04  0.00000000000E+00 0. -1.
        -12    1    3    3    0    0 -0.15369277630E+02  0.28342308712E+01 -0.39152982072E+02  0.42156892255E+02  0.00000000000E+00 0.  1.
          5    1    4    4  501    0  0.65861277447E+02  0.72300492550E+02 -0.37506023288E+02  0.10482959159E+03  0.41800000000E+01 0. -1.
         -5    1    4    4    0  501  0.18044635151E+02 -0.50277717444E+02 -0.33076210436E+02  0.62967974606E+02  0.41800000000E+01 0. -1.
</event>
<event>
11    1  0.7577197E-009  0.1281834E+03  0.7561462E-02  0.1121521E+00
         22   -1    0    0    0    0  0.00000000000E+00  0.00000000000E+00  0.12940079122E+04  0.12940079122E+04  0.00000000000E+00 0. -1.
         22   -1    0    0    0    0 -0.00000000000E+00 -0.00000000000E+00 -0.38395787623E+02  0.38395787623E+02  0.00000000000E+00 0.  1.
        -24    2    1    2    0    0 -0.28196768568E+02  0.28519007515E+02  0.95283520083E+02  0.13058150639E+03  0.79775867677E+02 0.  0.
         25    2    1    2    0    0  0.11381231283E+02  0.47835566663E+01  0.19238704129E+03  0.22980695057E+03  0.12508415580E+03 0.  0.
         24    2    1    2    0    0  0.16815537284E+02 -0.33302564181E+02  0.96794156320E+03  0.97201524287E+03  0.80690392972E+02 0.  0.
        -11    1    5    5    0    0 -0.47077207720E+01 -0.46368778248E+02  0.29995678181E+03  0.30355608573E+03  0.00000000000E+00 0.  1.
         12    1    5    5    0    0  0.21523258056E+02  0.13066214067E+02  0.66798478139E+03  0.66845915713E+03  0.00000000000E+00 0. -1.
         13    1    3    3    0    0  0.23795643077E+02 -0.78632744458E+01  0.35057985300E+02  0.43094385339E+02  0.00000000000E+00 0. -1.
        -14    1    3    3    0    0 -0.51992411645E+02  0.36382281960E+02  0.60225534783E+02  0.87487121048E+02  0.00000000000E+00 0.  1.
          5    1    4    4  501    0  0.54356185607E+01 -0.51684926146E+02  0.35947191646E+02  0.63328907515E+02  0.41800000000E+01 0.  1.
         -5    1    4    4    0  501  0.59456127227E+01  0.56468482812E+02  0.15643984965E+03  0.16647804306E+03  0.41800000000E+01 0.  1.
</event>
<event>
11    1  0.7577197E-009  0.1439525E+03  0.7561462E-02  0.1103223E+00
         22   -1    0    0    0    0  0.00000000000E+00  0.00000000000E+00  0.10349547537E+04  0.10349547537E+04  0.00000000000E+00 0.  1.
         22   -1    0    0    0    0 -0.00000000000E+00 -0.00000000000E+00 -0.14758961367E+03  0.14758961367E+03  0.00000000000E+00 0.  1.
         24    2    1    2    0    0  0.23654133941E+02  0.11199106409E+02 -0.11817397679E+03  0.14496818651E+03  0.79785639515E+02 0.  0.
         25    2    1    2    0    0 -0.87166368795E+02 -0.72566398678E+01  0.52842712120E+03  0.55003337299E+03  0.12510337448E+03 0.  0.
        -24    2    1    2    0    0  0.63512234854E+02 -0.39424665411E+01  0.47711199560E+03  0.48754280785E+03  0.77542157077E+02 0.  0.
        -13    1    3    3    0    0  0.51095245092E+02  0.19458989286E+02 -0.85722060771E+02  0.10167422504E+03  0.00000000000E+00 0.  1.
         14    1    3    3    0    0 -0.27441111151E+02 -0.82598828775E+01 -0.32451916022E+02  0.43293961471E+02  0.00000000000E+00 0. -1.
         11    1    5    5    0    0 -0.13993032739E+02 -0.14466664295E+02  0.63954968529E+02  0.67047202332E+02  0.00000000000E+00 0. -1.
        -12    1    5    5    0    0  0.77505267593E+02  0.10524197754E+02  0.41315702707E+03  0.42049560552E+03  0.00000000000E+00 0.  1.
          5    1    4    4  501    0 -0.61041808431E+02  0.56145337771E+02  0.31867857843E+03  0.32932037605E+03  0.41800000000E+01 0. -1.
         -5    1    4    4    0  501 -0.26124560363E+02 -0.63401977638E+02  0.20974854277E+03  0.22071299694E+03  0.41800000000E+01 0. -1.
</event>
<event>
11    1  0.7577197E-009  0.1565447E+03  0.7561462E-02  0.1090373E+00
         22   -1    0    0    0    0  0.00000000000E+00  0.00000000000E+00  0.15804712785E+04  0.15804712785E+04  0.00000000000E+00 0.  1.
         22   -1    0    0    0    0 -0.00000000000E+00 -0.00000000000E+00 -0.36602083294E+04  0.36602083294E+04  0.00000000000E+00 0. -1.
         24    2    1    2    0    0  0.13117979152E+02  0.39961976466E+02 -0.33109564984E+04  0.33122221883E+04  0.81325578451E+02 0.  0.
         25    2    1    2    0    0  0.48185967754E+02 -0.11118302066E+03 -0.32430624526E+03  0.36811057425E+03  0.12508917854E+03 0.  0.
        -24    2    1    2    0    0 -0.61303946906E+02  0.71221044199E+02  0.15555256927E+04  0.15603468454E+04  0.78685996093E+02 0.  0.
        -11    1    3    3    0    0  0.19443683814E+02 -0.91785583130E+01 -0.22563872390E+04  0.22564896798E+04  0.00000000000E+00 0.  1.
         12    1    3    3    0    0 -0.63257046616E+01  0.49140534779E+02 -0.10545692594E+04  0.10557325085E+04  0.00000000000E+00 0. -1.
         11    1    5    5    0    0 -0.81586047754E+01 -0.15929470580E+02  0.13889871845E+03  0.14004700943E+03  0.00000000000E+00 0. -1.
        -12    1    5    5    0    0 -0.53145342130E+02  0.87150514779E+02  0.14166269743E+04  0.14202998359E+04  0.00000000000E+00 0.  1.
          5    1    4    4  501    0  0.72201912361E+02 -0.11382181066E+03 -0.31357947923E+03  0.34134745191E+03  0.41800000000E+01 0. -1.
         -5    1    4    4    0  501 -0.24015944607E+02  0.26387899942E+01 -0.10726766032E+02  0.26763122342E+02  0.41800000000E+01 0. -1.
</event>
<event>
11    1  0.7577197E-009  0.1417554E+03  0.7561462E-02  0.1105614E+00
         22   -1    0    0    0    0  0.00000000000E+00  0.00000000000E+00  0.65230154910E+03  0.65230154910E+03  0.00000000000E+00 0.  1.
         22   -1    0    0    0    0 -0.00000000000E+00 -0.00000000000E+00 -0.17982247817E+04  0.17982247817E+04  0.00000000000E+00 0.  1.
        -24    2    1    2    0    0  0.32958625791E+02 -0.12554451483E+02 -0.14444068589E+04  0.14470692480E+04  0.80338963672E+02 0.  0.
         25    2    1    2    0    0  0.26652280979E+02 -0.18274812819E+02 -0.33621525674E+03  0.36018427168E+03  0.12509075841E+03 0.  0.
         24    2    1    2    0    0 -0.59610906770E+02  0.30829264302E+02  0.63469888306E+03  0.64327281113E+03  0.80332643709E+02 0.  0.
        -11    1    5    5    0    0 -0.73106298476E+01 -0.15074688106E+02  0.34220693849E+03  0.34261681260E+03  0.00000000000E+00 0.  1.
         12    1    5    5    0    0 -0.52300276923E+02  0.45903952408E+02  0.29249194457E+03  0.30065599853E+03  0.00000000000E+00 0. -1.
         11    1    3    3    0    0  0.30907041106E+02  0.31058739969E+02 -0.66764525162E+03  0.66908151412E+03  0.00000000000E+00 0. -1.
        -12    1    3    3    0    0  0.20515846851E+01 -0.43613191452E+02 -0.77676160733E+03  0.77798773389E+03  0.00000000000E+00 0.  1.
          5    1    4    4  501    0  0.54080982133E+02  0.27650811078E+02 -0.93256978999E+02  0.11137170428E+03  0.41800000000E+01 0.  1.
         -5    1    4    4    0  501 -0.27428701154E+02 -0.45925623896E+02 -0.24295827774E+03  0.24881256740E+03  0.41800000000E+01 0.  1.
</event>
<event>
11    1  0.7577197E-009  0.1631806E+03  0.7561462E-02  0.1084123E+00
         22   -1    0    0    0    0  0.00000000000E+00  0.00000000000E+00  0.70144594055E+03  0.70144594055E+03  0.00000000000E+00 0. -1.
         22   -1    0    0    0    0 -0.00000000000E+00 -0.00000000000E+00 -0.11738575367E+03  0.11738575367E+03  0.00000000000E+00 0.  1.
         24    2    1    2    0    0 -0.83211076342E+02  0.55362143787E+02 -0.32202939199E+02  0.13280434579E+03  0.81307532108E+02 0.  0.
         25    2    1    2    0    0  0.95272354622E+02 -0.99204369782E+02  0.28494576221E+03  0.34023588021E+03  0.12509211902E+03 0.  0.
        -24    2    1    2    0    0 -0.12061278280E+02  0.43842225995E+02  0.33131736387E+03  0.34579146821E+03  0.87937072228E+02 0.  0.
        -11    1    3    3    0    0 -0.52444553686E+02  0.66296681805E+02 -0.47261982022E+02  0.96847179486E+02  0.00000000000E+00 0.  1.
         12    1    3    3    0    0 -0.30766522656E+02 -0.10934538018E+02  0.15059042823E+02  0.35957166306E+02  0.00000000000E+00 0. -1.
         13    1    5    5    0    0 -0.27490169857E+02  0.14917642277E+00  0.25522042144E+03  0.25669669887E+03  0.00000000000E+00 0. -1.
        -14    1    5    5    0    0  0.15428891577E+02  0.43693049573E+02  0.76096942431E+02  0.89094769339E+02  0.00000000000E+00 0.  1.
          5    1    4    4  501    0  0.41275049181E+02 -0.11211989825E+03  0.24200520374E+03  0.26992312296E+03  0.41800000000E+01 0. -1.
         -5    1    4    4    0  501  0.53997305441E+02  0.12915528468E+02  0.42940558463E+02  0.70312757247E+02  0.41800000000E+01 0. -1.
</event>
<event>
11    1  0.7577197E-009  0.1437328E+03  0.7561462E-02  0.1103460E+00
         22   -1    0    0    0    0  0.00000000000E+00  0.00000000000E+00  0.14532489332E+04  0.14532489332E+04  0.00000000000E+00 0. -1.
         22   -1    0    0    0    0 -0.00000000000E+00 -0.00000000000E+00 -0.13703110482E+03  0.13703110482E+03  0.00000000000E+00 0.  1.
        -24    2    1    2    0    0  0.26681629442E+02 -0.14952338581E+02 -0.46889440863E+02  0.98608745234E+02  0.81176247717E+02 0.  0.
         25    2    1    2    0    0 -0.73968340752E+02 -0.37404211202E+02  0.28549781830E+02  0.15275411514E+03  0.12509332197E+03 0.  0.
         24    2    1    2    0    0  0.47286711310E+02  0.52356549783E+02  0.13345574874E+04  0.13389171776E+04  0.81720743887E+02 0.  0.
        -11    1    5    5    0    0  0.20065795968E+02  0.39754608517E+02  0.24935378370E+03  0.25329898245E+03  0.00000000000E+00 0.  1.
         12    1    5    5    0    0  0.27220915342E+02  0.12601941267E+02  0.10852037037E+04  0.10856181952E+04  0.00000000000E+00 0. -1.
         13    1    3    3    0    0 -0.12716923678E+01 -0.54537571603E+01  0.22507081832E+02  0.23193305095E+02  0.00000000000E+00 0. -1.
        -14    1    3    3    0    0  0.27953321810E+02 -0.94985814211E+01 -0.69396522695E+02  0.75415440139E+02  0.00000000000E+00 0.  1.
          5    1    4    4  501    0 -0.88597164452E+02 -0.55393122144E+02 -0.12608657730E+02  0.10532951239E+03  0.41800000000E+01 0. -1.
         -5    1    4    4    0  501  0.14628823700E+02  0.17988910942E+02  0.41158439560E+02  0.47424602758E+02  0.41800000000E+01 0. -1.
</event>
<event>
11    1  0.7577197E-009  0.1372525E+03  0.7561462E-02  0.1110666E+00
         22   -1    0    0    0    0  0.00000000000E+00  0.00000000000E+00  0.11354565833E+03  0.11354565833E+03  0.00000000000E+00 0.  1.
         22   -1    0    0    0    0 -0.00000000000E+00 -0.00000000000E+00 -0.44963539963E+03  0.44963539963E+03  0.00000000000E+00 0.  1.
        -24    2    1    2    0    0  0.22934005900E+02  0.38883500849E+01 -0.12573376332E+03  0.15108979308E+03  0.80486386685E+02 0.  0.
         25    2    1    2    0    0 -0.40682373585E+02  0.49226321687E+02 -0.26483537557E+03  0.29979363378E+03  0.12514056269E+03 0.  0.
         24    2    1    2    0    0  0.17748367685E+02 -0.53114671772E+02  0.54479397594E+02  0.11229763110E+03  0.80663376292E+02 0.  0.
        -11    1    5    5    0    0 -0.25015935162E+01 -0.69410538793E+02  0.50789325862E+02  0.86044386726E+02  0.00000000000E+00 0.  1.
         12    1    5    5    0    0  0.20249961201E+02  0.16295867021E+02  0.36900717324E+01  0.26253244370E+02  0.00000000000E+00 0. -1.
         11    1    3    3    0    0  0.71194606577E+01  0.23586336697E+01  0.11067292379E+02  0.13369174748E+02  0.00000000000E+00 0. -1.
        -12    1    3    3    0    0  0.15814545243E+02  0.15297164152E+01 -0.13680105570E+03  0.13772061833E+03  0.00000000000E+00 0.  1.
          5    1    4    4  501    0 -0.79952458771E+02  0.71293179631E+01 -0.18059972352E+03  0.19767891990E+03  0.41800000000E+01 0. -1.
         -5    1    4    4    0  501  0.39270085186E+02  0.42097003724E+02 -0.84235652051E+02  0.10211471387E+03  0.41800000000E+01 0. -1.
</event>
<event>
11    1  0.7577197E-009  0.1947005E+03  0.7561462E-02  0.1058336E+00
         22   -1    0    0    0    0  0.00000000000E+00  0.00000000000E+00  0.64473408326E+03  0.64473408326E+03  0.00000000000E+00 0. -1.
         22   -1    0    0    0    0 -0.00000000000E+00 -0.00000000000E+00 -0.12095409202E+04  0.12095409202E+04  0.00000000000E+00 0.  1.
         24    2    1    2    0    0  0.18017138275E+02 -0.21668153387E+01 -0.11454644545E+04  0.11483763278E+04  0.79687271537E+02 0.  0.
         25    2    1    2    0    0 -0.16040863974E+03  0.26148635797E+02  0.18233793050E+03  0.27442830047E+03  0.12509631626E+03 0.  0.
        -24    2    1    2    0    0  0.14239150147E+03 -0.23981820458E+02  0.39831968710E+03  0.43147037520E+03  0.81594387945E+02 0.  0.
        -11    1    3    3    0    0 -0.22566088705E+02 -0.23535404372E+02 -0.64185544082E+03  0.64268308717E+03  0.00000000000E+00 0.  1.
         12    1    3    3    0    0  0.40583226980E+02  0.21368589034E+02 -0.50360901369E+03  0.50569324059E+03  0.00000000000E+00 0. -1.
         13    1    5    5    0    0  0.14990905187E+03 -0.32191610070E+02  0.38285447086E+03  0.41241553007E+03  0.00000000000E+00 0. -1.
        -14    1    5    5    0    0 -0.75175503997E+01  0.82097896118E+01  0.15465216242E+02  0.19054845129E+02  0.00000000000E+00 0.  1.
          5    1    4    4  501    0 -0.14311773252E+03  0.60697540551E+02  0.17632519902E+03  0.23510619940E+03  0.41800000000E+01 0.  1.
         -5    1    4    4    0  501 -0.17290907224E+02 -0.34548904755E+02  0.60127314817E+01  0.39322101066E+02  0.41800000000E+01 0.  1.
</event>
<event>
11    1  0.7577197E-009  0.1316687E+03  0.7561462E-02  0.1117235E+00
         22   -1    0    0    0    0  0.00000000000E+00  0.00000000000E+00  0.33950730446E+03  0.33950730446E+03  0.00000000000E+00 0. -1.
         22   -1    0    0    0    0 -0.00000000000E+00 -0.00000000000E+00 -0.70484319500E+03  0.70484319500E+03  0.00000000000E+00 0.  1.
        -24    2    1    2    0    0 -0.33621273838E+02  0.22398127319E+02 -0.52276375192E+03  0.53030129449E+03  0.79406904336E+02 0.  0.
         25    2    1    2    0    0  0.55913730703E+02  0.39555290967E+01 -0.14479465157E+03  0.19938881758E+03  0.12509363677E+03 0.  0.
         24    2    1    2    0    0 -0.22292456865E+02 -0.26353656416E+02  0.30222251295E+03  0.31466038739E+03  0.80506168854E+02 0.  0.
        -13    1    5    5    0    0 -0.14026671077E+02  0.24598171299E+02  0.17645076667E+03  0.17870839541E+03  0.00000000000E+00 0.  1.
         14    1    5    5    0    0 -0.82657857876E+01 -0.50951827715E+02  0.12577174628E+03  0.13595199199E+03  0.00000000000E+00 0. -1.
         13    1    3    3    0    0 -0.55048309739E+02 -0.29163981578E+01 -0.29082963102E+03  0.29600793243E+03  0.00000000000E+00 0. -1.
        -14    1    3    3    0    0  0.21427035901E+02  0.25314525477E+02 -0.23193412090E+03  0.23429336206E+03  0.00000000000E+00 0.  1.
          5    1    4    4  501    0  0.39937789286E+02  0.42864756781E+02 -0.14571794825E+03  0.15711017545E+03  0.41800000000E+01 0. -1.
         -5    1    4    4    0  501  0.15975941417E+02 -0.38909227684E+02  0.92329668719E+00  0.42278642125E+02  0.41800000000E+01 0. -1.
</event>
<event>
11    1  0.7577197E-009  0.1524807E+03  0.7561462E-02  0.1094371E+00
         22   -1    0    0    0    0  0.00000000000E+00  0.00000000000E+00  0.35162401788E+03  0.35162401788E+03  0.00000000000E+00 0.  1.
         22   -1    0    0    0    0 -0.00000000000E+00 -0.00000000000E+00 -0.22813971672E+04  0.22813971672E+04  0.00000000000E+00 0. -1.
         24    2    1    2    0    0  0.41713472217E+02  0.76324950279E+02 -0.21842054314E+04  0.21873655629E+04  0.79052056321E+02 0.  0.
         25    2    1    2    0    0 -0.74337445741E+02 -0.69993620682E+02 -0.15439106371E+02  0.16220635614E+03  0.12508946075E+03 0.  0.
        -24    2    1    2    0    0  0.32623973525E+02 -0.63313295973E+01  0.26987138844E+03  0.28344926600E+03  0.80053174274E+02 0.  0.
        -13    1    3    3    0    0  0.52068620701E+01 -0.14106000934E+02 -0.13379286286E+03  0.13463513965E+03  0.00000000000E+00 0.  1.
         14    1    3    3    0    0  0.36506610146E+02  0.90430951213E+02 -0.20504125685E+04  0.20527304233E+04  0.00000000000E+00 0. -1.
         13    1    5    5    0    0  0.53467334009E+02 -0.22445380873E+02  0.15238723000E+03  0.16304729006E+03  0.00000000000E+00 0. -1.
        -14    1    5    5    0    0 -0.20843360484E+02  0.16114051276E+02  0.11748415844E+03  0.12040197594E+03  0.00000000000E+00 0.  1.
          5    1    4    4  501    0 -0.12103749659E+02 -0.55727357907E+02  0.46086421670E+02  0.73440246714E+02  0.41800000000E+01 0. -1.
         -5    1    4    4    0  501 -0.62233696082E+02 -0.14266262775E+02 -0.61525528041E+02  0.88766109424E+02  0.41800000000E+01 0. -1.
</event>
<event>
11    1  0.7577197E-009  0.1518851E+03  0.7561462E-02  0.1094968E+00
         22   -1    0    0    0    0  0.00000000000E+00  0.00000000000E+00  0.28657356659E+03  0.28657356659E+03  0.00000000000E+00 0. -1.
         22   -1    0    0    0    0 -0.00000000000E+00 -0.00000000000E+00 -0.93642407207E+03  0.93642407207E+03  0.00000000000E+00 0.  1.
        -24    2    1    2    0    0  0.24714319524E+02  0.10354740029E+02 -0.85092334874E+03  0.85419423877E+03  0.69708205263E+02 0.  0.
         25    2    1    2    0    0  0.39875570978E+02  0.54202163125E+02  0.98311363084E+01  0.14238208729E+03  0.12509225352E+03 0.  0.
         24    2    1    2    0    0 -0.64589890502E+02 -0.64556903155E+02  0.19124170696E+03  0.22642131260E+03  0.79710555242E+02 0.  0.
        -11    1    5    5    0    0  0.75877071944E+01  0.10092953705E+02  0.58183869249E+01  0.13903044320E+02  0.00000000000E+00 0.  1.
         12    1    5    5    0    0 -0.72177597696E+02 -0.74649856860E+02  0.18542332003E+03  0.21251826828E+03  0.00000000000E+00 0. -1.
         13    1    3    3    0    0 -0.63642670457E+01  0.30122230242E+02 -0.21358758875E+03  0.21579506648E+03  0.00000000000E+00 0. -1.
        -14    1    3    3    0    0  0.31078586570E+02 -0.19767490212E+02 -0.63733575999E+03  0.63839917229E+03  0.00000000000E+00 0.  1.
          5    1    4    4  501    0 -0.55794902011E+00 -0.17644074160E+02 -0.41419495296E+02  0.45218045631E+02  0.41800000000E+01 0. -1.
         -5    1    4    4    0  501  0.40433519998E+02  0.71846237285E+02  0.51250631605E+02  0.97164041658E+02  0.41800000000E+01 0. -1.
</event>
<event>
11    1  0.7577197E-009  0.1292305E+03  0.7561462E-02  0.1120218E+00
         22   -1    0    0    0    0  0.00000000000E+00  0.00000000000E+00  0.27442895482E+03  0.27442895482E+03  0.00000000000E+00 0. -1.
         22   -1    0    0    0    0 -0.00000000000E+00 -0.00000000000E+00 -0.41630719959E+03  0.41630719959E+03  0.00000000000E+00 0. -1.
         24    2    1    2    0    0  0.34209521605E+01  0.31923141043E+02 -0.32765842615E+03  0.33907044672E+03  0.81104462039E+02 0.  0.
         25    2    1    2    0    0 -0.11674958227E+02 -0.34085185266E+02 -0.19068033167E+02  0.13157844998E+03  0.12510473255E+03 0.  0.
        -24    2    1    2    0    0  0.82540060667E+01  0.21620442230E+01  0.20484821455E+03  0.22008725771E+03  0.80017541524E+02 0.  0.
        -11    1    3    3    0    0 -0.11511398453E+02 -0.12603643379E+01 -0.27395695319E+03  0.27420159192E+03  0.00000000000E+00 0.  1.
         12    1    3    3    0    0  0.14932350613E+02  0.33183505381E+02 -0.53701472961E+02  0.64868854794E+02  0.00000000000E+00 0. -1.
         11    1    5    5    0    0 -0.77010117025E+01  0.70300136027E+01  0.20304095459E+03  0.20330852395E+03  0.00000000000E+00 0. -1.
        -12    1    5    5    0    0  0.15955017769E+02 -0.48679693796E+01  0.18072599603E+01  0.16778733756E+02  0.00000000000E+00 0.  1.
          5    1    4    4  501    0  0.42047673858E+02  0.19825953938E+02  0.13649843886E+02  0.48629887564E+02  0.41800000000E+01 0. -1.
         -5    1    4    4    0  501 -0.53722632085E+02 -0.53911139204E+02 -0.32717877053E+02  0.82948562418E+02  0.41800000000E+01 0. -1.
</event>
<event>
11    1  0.7577197E-009  0.1336685E+03  0.7561462E-02  0.1114842E+00
         22   -1    0    0    0    0  0.00000000000E+00  0.00000000000E+00  0.12532711184E+04  0.12532711184E+04  0.00000000000E+00 0. -1.
         22   -1    0    0    0    0 -0.00000000000E+00 -0.00000000000E+00 -0.28475560706E+03  0.28475560706E+03  0.00000000000E+00 0.  1.
         24    2    1    2    0    0  0.30402221810E+02  0.35604923879E+02 -0.26312162413E+03  0.27950635550E+03  0.81846246023E+02 0.  0.
         25    2    1    2    0    0 -0.15014777577E+02 -0.72324790646E+02  0.47781816774E+03  0.49941331671E+03  0.12508853105E+03 0.  0.
        -24    2    1    2    0    0 -0.15387444233E+02  0.36719866767E+02  0.75381896777E+03  0.75910705329E+03  0.80095943243E+02 0.  0.
        -11    1    3    3    0    0 -0.28199913144E+02  0.94299110290E+01 -0.72109755412E+02  0.77999840698E+02  0.00000000000E+00 0.  1.
         12    1    3    3    0    0  0.58602134954E+02  0.26175012850E+02 -0.19101186871E+03  0.20150651480E+03  0.00000000000E+00 0. -1.
         11    1    5    5    0    0 -0.28396365874E+02  0.57736146038E+02  0.57479043018E+03  0.57838037206E+03  0.00000000000E+00 0. -1.
        -12    1    5    5    0    0  0.13008921641E+02 -0.21016279270E+02  0.17902853759E+03  0.18072668123E+03  0.00000000000E+00 0.  1.
          5    1    4    4  501    0 -0.12965263327E+02 -0.88364214410E+02  0.17859832555E+03  0.19972773150E+03  0.41800000000E+01 0.  1.
         -5    1    4    4    0  501 -0.20495142495E+01  0.16039423764E+02  0.29921984219E+03  0.29968558521E+03  0.41800000000E+01 0.  1.
</event>
<event>
11    1  0.7577197E-009  0.1679447E+03  0.7561462E-02  0.1079834E+00
         22   -1    0    0    0    0  0.00000000000E+00  0.00000000000E+00  0.10342307239E+03  0.10342307239E+03  0.00000000000E+00 0. -1.
         22   -1    0    0    0    0 -0.00000000000E+00 -0.00000000000E+00 -0.13794324912E+04  0.13794324912E+04  0.00000000000E+00 0. -1.
        -24    2    1    2    0    0  0.15718493190E+02 -0.74338474340E+02 -0.95469066773E+03  0.96108802805E+03  0.80514885654E+02 0.  0.
         25    2    1    2    0    0  0.61820988393E+02  0.14658178293E+03 -0.33198024892E+03  0.38880183458E+03  0.12509167521E+03 0.  0.
         24    2    1    2    0    0 -0.77539481583E+02 -0.72243308591E+02  0.10661497817E+02  0.13296570099E+03  0.79591100408E+02 0.  0.
        -11    1    5    5    0    0  0.38097660549E+01  0.12554445777E+02  0.81199216710E+01  0.15429243471E+02  0.00000000000E+00 0.  1.
         12    1    5    5    0    0 -0.81349247638E+02 -0.84797754368E+02  0.25415761458E+01  0.11753645752E+03  0.00000000000E+00 0. -1.
         13    1    3    3    0    0 -0.98024797552E+01 -0.83134278760E+02 -0.71934521323E+03  0.72419951167E+03  0.00000000000E+00 0. -1.
        -14    1    3    3    0    0  0.25520972945E+02  0.87958044203E+01 -0.23534545450E+03  0.23688851638E+03  0.00000000000E+00 0.  1.
          5    1    4    4  501    0 -0.29243418213E+02  0.77438701120E+00 -0.62447979235E+02  0.69086899587E+02  0.41800000000E+01 0. -1.
         -5    1    4    4    0  501  0.91064406606E+02  0.14580739592E+03 -0.26953226969E+03  0.31971493499E+03  0.41800000000E+01 0. -1.
</event>
<event>
11    1  0.8381486E-009  0.2046574E+03  0.7561462E-02  0.1051278E+00
         22   -1    0    0    0    0  0.00000000000E+00  0.00000000000E+00  0.91118510627E+03  0.91118510627E+03  0.00000000000E+00 0. -1.
         22   -1    0    0    0    0 -0.00000000000E+00 -0.00000000000E+00 -0.43926795266E+03  0.43926795266E+03  0.00000000000E+00 0.  1.
        -24    2    1    2    0    0  0.95183283056E+02 -0.40938060351E+02 -0.34868520548E+03  0.37239014162E+03  0.79732445686E+02 0.  0.
         25    2    1    2    0    0 -0.85037418089E+02 -0.12700187316E+03  0.77962238396E+02  0.21233347215E+03  0.12508618836E+03 0.  0.
         24    2    1    2    0    0 -0.10145864967E+02  0.16793993351E+03  0.74264012069E+03  0.76572944516E+03  0.80749455019E+02 0.  0.
        -11    1    5    5    0    0  0.70918707392E+01  0.48764551309E+02  0.95314935745E+02  0.10729964152E+03  0.00000000000E+00 0.  1.
         12    1    5    5    0    0 -0.17237735706E+02  0.11917538220E+03  0.64732518495E+03  0.65842980364E+03  0.00000000000E+00 0. -1.
         11    1    3    3    0    0  0.60788618565E+02 -0.51540890699E+02 -0.14417164762E+03  0.16473367457E+03  0.00000000000E+00 0. -1.
        -12    1    3    3    0    0  0.34394664491E+02  0.10602830348E+02 -0.20451355786E+03  0.20765646704E+03  0.00000000000E+00 0.  1.
          5    1    4    4  501    0 -0.67859674746E+02 -0.62581057620E+02 -0.19241735532E+02  0.94387716445E+02  0.41800000000E+01 0. -1.
         -5    1    4    4    0  501 -0.17177743343E+02 -0.64420815536E+02  0.97203973928E+02  0.11794575570E+03  0.41800000000E+01 0. -1.
</event>
<event>
11    1  0.7577197E-009  0.1430772E+03  0.7561462E-02  0.1104170E+00
         22   -1    0    0    0    0  0.00000000000E+00  0.00000000000E+00  0.55643966796E+03  0.55643966796E+03  0.00000000000E+00 0.  1.
         22   -1    0    0    0    0 -0.00000000000E+00 -0.00000000000E+00 -0.47567625411E+03  0.47567625411E+03  0.00000000000E+00 0. -1.
         24    2    1    2    0    0 -0.50094474232E+02  0.15117268343E+01 -0.40982583134E+03  0.42132047067E+03  0.83916537719E+02 0.  0.
         25    2    1    2    0    0  0.58029637583E+01 -0.58901053589E+02  0.35711664860E+02  0.14291911599E+03  0.12509013633E+03 0.  0.
        -24    2    1    2    0    0  0.44291510474E+02  0.57389326755E+02  0.45487758033E+03  0.46787633541E+03  0.82093723436E+02 0.  0.
        -13    1    3    3    0    0 -0.59636841251E+02 -0.39762674662E+01 -0.15301788595E+03  0.16427670851E+03  0.00000000000E+00 0.  1.
         14    1    3    3    0    0  0.95423670196E+01  0.54879943005E+01 -0.25680794539E+03  0.25704376216E+03  0.00000000000E+00 0. -1.
         11    1    5    5    0    0  0.16654746752E+02 -0.38368967211E+01  0.14524552347E+02  0.22429110253E+02  0.00000000000E+00 0. -1.
        -12    1    5    5    0    0  0.27636763721E+02  0.61226223476E+02  0.44035302798E+03  0.44544722516E+03  0.00000000000E+00 0.  1.
          5    1    4    4  501    0 -0.52390308772E+02  0.24149640181E+01  0.48707418026E+01  0.52837231477E+02  0.41800000000E+01 0.  1.
         -5    1    4    4    0  501  0.58193272531E+02 -0.61316017607E+02  0.30840923058E+02  0.90081884517E+02  0.41800000000E+01 0.  1.
</event>
<event>
11    1  0.7577197E-009  0.1422223E+03  0.7561462E-02  0.1105102E+00
         22   -1    0    0    0    0  0.00000000000E+00  0.00000000000E+00  0.10284972315E+04  0.10284972315E+04  0.00000000000E+00 0.  1.
         22   -1    0    0    0    0 -0.00000000000E+00 -0.00000000000E+00 -0.49610803980E+03  0.49610803980E+03  0.00000000000E+00 0.  1.
         24    2    1    2    0    0 -0.15661104950E+02 -0.30547879854E+02 -0.45358688619E+03  0.46193290163E+03  0.80389670452E+02 0.  0.
         25    2    1    2    0    0 -0.24247686697E+02  0.83484213328E+02  0.12998439778E+03  0.20027958395E+03  0.12513354424E+03 0.  0.
        -24    2    1    2    0    0  0.39908791647E+02 -0.52936333473E+02  0.85599168013E+03  0.86239278575E+03  0.81268649530E+02 0.  0.
        -11    1    3    3    0    0  0.86141652986E+01 -0.17891437050E+02 -0.40987510379E+03  0.41035583104E+03  0.00000000000E+00 0.  1.
         12    1    3    3    0    0 -0.24275270249E+02 -0.12656442805E+02 -0.43711782401E+02  0.51577070592E+02  0.00000000000E+00 0. -1.
         13    1    5    5    0    0  0.60626676407E+01 -0.18419071692E+02  0.35274277961E+02  0.40252861098E+02  0.00000000000E+00 0. -1.
        -14    1    5    5    0    0  0.33846124006E+02 -0.34517261782E+02  0.82071740217E+03  0.82213992465E+03  0.00000000000E+00 0.  1.
          5    1    4    4  501    0  0.34910769845E+02  0.54964613535E+02  0.13707835997E+02  0.66672691260E+02  0.41800000000E+01 0. -1.
         -5    1    4    4    0  501 -0.59158456541E+02  0.28519599793E+02  0.11627656179E+03  0.13360689269E+03  0.41800000000E+01 0. -1.
</event>
<event>
11    1  0.7577197E-009  0.1447382E+03  0.7561462E-02  0.1102380E+00
         22   -1    0    0    0    0  0.00000000000E+00  0.00000000000E+00  0.15380759530E+04  0.15380759530E+04  0.00000000000E+00 0. -1.
         22   -1    0    0    0    0 -0.00000000000E+00 -0.00000000000E+00 -0.48865872620E+03  0.48865872620E+03  0.00000000000E+00 0.  1.
         24    2    1    2    0    0 -0.28787121335E+02  0.19292685158E+02 -0.47351946553E+03  0.48157417794E+03  0.80573559992E+02 0.  0.
         25    2    1    2    0    0  0.85306519417E+02  0.17812203816E+02  0.77172036534E+03  0.78663558809E+03  0.12509496117E+03 0.  0.
        -24    2    1    2    0    0 -0.56519398082E+02 -0.37104888974E+02  0.75121632699E+03  0.75852491318E+03  0.80391907676E+02 0.  0.
        -11    1    3    3    0    0 -0.54074709534E+02  0.19762966744E+02 -0.24570485766E+03  0.25235991390E+03  0.00000000000E+00 0.  1.
         12    1    3    3    0    0  0.25287588199E+02 -0.47028158624E+00 -0.22781460787E+03  0.22921426404E+03  0.00000000000E+00 0. -1.
         11    1    5    5    0    0 -0.31851694888E+02 -0.41100805829E+01  0.62354604840E+03  0.62437256322E+03  0.00000000000E+00 0. -1.
        -12    1    5    5    0    0 -0.24667703194E+02 -0.32994808391E+02  0.12767027860E+03  0.13415234995E+03  0.00000000000E+00 0.  1.
          5    1    4    4  501    0  0.98866014670E+01 -0.35016538217E+02  0.46304629771E+03  0.46449246394E+03  0.41800000000E+01 0. -1.
         -5    1    4    4    0  501  0.75419917950E+02  0.52828742034E+02  0.30867406763E+03  0.32214312415E+03  0.41800000000E+01 0. -1.
</event>
<event>
11    1  0.7577197E-009  0.1481609E+03  0.7561462E-02  0.1098773E+00
         22   -1    0    0    0    0  0.00000000000E+00  0.00000000000E+00  0.29968772425E+03  0.29968772425E+03  0.00000000000E+00 0. -1.
         22   -1    0    0    0    0 -0.00000000000E+00 -0.00000000000E+00 -0.14003185853E+04  0.14003185853E+04  0.00000000000E+00 0.  1.
         24    2    1    2    0    0 -0.12301367777E+02  0.32166845208E+02 -0.12746264396E+04  0.12774930380E+04  0.78293498463E+02 0.  0.
         25    2    1    2    0    0  0.56083605614E+02 -0.94133666046E+02 -0.49064909880E+02  0.17339177381E+03  0.12510325312E+03 0.  0.
        -24    2    1    2    0    0 -0.43782237837E+02  0.61966820838E+02  0.22306048842E+03  0.24912149780E+03  0.80924458211E+02 0.  0.
        -13    1    3    3    0    0 -0.41971706344E+02  0.35087507914E+02 -0.91437244181E+03  0.91600748889E+03  0.00000000000E+00 0.  1.
         14    1    3    3    0    0  0.29670338567E+02 -0.29206627060E+01 -0.36025399780E+03  0.36148554908E+03  0.00000000000E+00 0. -1.
         11    1    5    5    0    0 -0.43385742364E+02  0.53401743388E+02  0.22872192664E+03  0.23884678889E+03  0.00000000000E+00 0. -1.
        -12    1    5    5    0    0 -0.39649547296E+00  0.85650774504E+01 -0.56614382217E+01  0.10274708907E+02  0.00000000000E+00 0.  1.
          5    1    4    4  501    0  0.29511041793E+02 -0.11597121760E+03 -0.63874751486E+02  0.13571175769E+03  0.41800000000E+01 0.  1.
         -5    1    4    4    0  501  0.26572563821E+02  0.21837551553E+02  0.14809841606E+02  0.37680016113E+02  0.41800000000E+01 0.  1.
</event>
<event>
11    1  0.7577197E-009  0.1265372E+03  0.7561462E-02  0.1123598E+00
         22   -1    0    0    0    0  0.00000000000E+00  0.00000000000E+00  0.26565434615E+04  0.26565434615E+04  0.00000000000E+00 0.  1.
         22   -1    0    0    0    0 -0.00000000000E+00 -0.00000000000E+00 -0.30366015869E+03  0.30366015869E+03  0.00000000000E+00 0.  1.
        -24    2    1    2    0    0 -0.10025426853E+02  0.52213042616E+01 -0.28568442453E+03  0.29705447566E+03  0.80610172351E+02 0.  0.
         25    2    1    2    0    0 -0.60080084032E+01 -0.16350267157E+02  0.33415245478E+03  0.35721729273E+03  0.12507159466E+03 0.  0.
         24    2    1    2    0    0  0.16033435257E+02  0.11128962895E+02  0.23044152726E+04  0.23059318518E+04  0.81308251907E+02 0.  0.
        -13    1    5    5    0    0 -0.12462104360E+02 -0.30500467943E+02  0.82966484741E+03  0.83031881926E+03  0.00000000000E+00 0.  1.
         14    1    5    5    0    0  0.28495539617E+02  0.41629430838E+02  0.14747504252E+04  0.14756130326E+04  0.00000000000E+00 0. -1.
         11    1    3    3    0    0  0.14404291836E+02 -0.26225986686E+02 -0.51938193888E+02  0.59940487029E+02  0.00000000000E+00 0. -1.
        -12    1    3    3    0    0 -0.24429718690E+02  0.31447290947E+02 -0.23374623065E+03  0.23711398863E+03  0.00000000000E+00 0.  1.
          5    1    4    4  501    0 -0.48423926155E+02 -0.28879669851E+02  0.28667481663E+03  0.29219656885E+03  0.41800000000E+01 0. -1.
         -5    1    4    4    0  501  0.42415917752E+02  0.12529402694E+02  0.47477638151E+02  0.65020723888E+02  0.41800000000E+01 0. -1.
</event>
<event>
11    1  0.7577197E-009  0.1265619E+03  0.7561462E-02  0.1123567E+00
         22   -1    0    0    0    0  0.00000000000E+00  0.00000000000E+00  0.26319846679E+03  0.26319846679E+03  0.00000000000E+00 0.  1.
         22   -1    0    0    0    0 -0.00000000000E+00 -0.00000000000E+00 -0.29928163763E+03  0.29928163763E+03  0.00000000000E+00 0.  1.
        -24    2    1    2    0    0  0.90619718586E+01  0.20840308048E+02 -0.24296832064E+03  0.25575710459E+03  0.76561438976E+02 0.  0.
         25    2    1    2    0    0 -0.19959068332E+02 -0.30197725536E+02  0.72133845999E+02  0.14886758503E+03  0.12509196256E+03 0.  0.
         24    2    1    2    0    0  0.10897096474E+02  0.93574174880E+01  0.13475130381E+03  0.15785541481E+03  0.80957458782E+02 0.  0.
        -13    1    5    5    0    0  0.22793180974E+02  0.34403855896E+02  0.11902850765E+03  0.12597991917E+03  0.00000000000E+00 0.  1.
         14    1    5    5    0    0 -0.11896084501E+02 -0.25046438408E+02  0.15722796158E+02  0.31875495642E+02  0.00000000000E+00 0. -1.
         13    1    3    3    0    0 -0.16935398369E+02 -0.19011814024E+00 -0.85618489426E+01  0.18977595215E+02  0.00000000000E+00 0. -1.
        -14    1    3    3    0    0  0.25997370227E+02  0.21030426188E+02 -0.23440647170E+03  0.23677950937E+03  0.00000000000E+00 0.  1.
          5    1    4    4  501    0 -0.37531771192E+01 -0.38709574925E+02  0.10442712070E+03  0.11151239154E+03  0.41800000000E+01 0. -1.
         -5    1    4    4    0  501 -0.16205891213E+02  0.85118493890E+01 -0.32293274697E+02  0.37355193490E+02  0.41800000000E+01 0. -1.
</event>
<event>
11    1  0.7577197E-009  0.1727506E+03  0.7561462E-02  0.1075662E+00
         22   -1    0    0    0    0  0.00000000000E+00  0.00000000000E+00  0.44946261062E+03  0.44946261062E+03  0.00000000000E+00 0.  1.
         22   -1    0    0    0    0 -0.00000000000E+00 -0.00000000000E+00 -0.42754477577E+03  0.42754477577E+03  0.00000000000E+00 0. -1.
        -24    2    1    2    0    0 -0.57381418289E+01 -0.13005032426E+02 -0.27758229145E+03  0.28947268698E+03  0.80873053841E+02 0.  0.
         25    2    1    2    0    0  0.84988865746E+02 -0.76694052146E+02 -0.75422030093E+02  0.18558430945E+03  0.12509183968E+03 0.  0.
         24    2    1    2    0    0 -0.79250723918E+02  0.89699084572E+02  0.37492215639E+03  0.40195038997E+03  0.81675514258E+02 0.  0.
        -13    1    5    5    0    0 -0.88666723595E+02  0.84104558253E+02  0.26895379711E+03  0.29541751738E+03  0.00000000000E+00 0.  1.
         14    1    5    5    0    0  0.94159996771E+01  0.55945263197E+01  0.10596835928E+03  0.10653287260E+03  0.00000000000E+00 0. -1.
         13    1    3    3    0    0 -0.34488475536E+02  0.34376023160E+01 -0.22262575823E+03  0.22530756819E+03  0.00000000000E+00 0. -1.
        -14    1    3    3    0    0  0.28750333708E+02 -0.16442634742E+02 -0.54956533220E+02  0.64165118789E+02  0.00000000000E+00 0.  1.
          5    1    4    4  501    0 -0.28845504689E+02 -0.35044414920E+02 -0.63858595160E+01  0.46026359400E+02  0.41800000000E+01 0. -1.
         -5    1    4    4    0  501  0.11383437044E+03 -0.41649637226E+02 -0.69036170577E+02  0.13955795005E+03  0.41800000000E+01 0. -1.
</event>
<event>
11    1  0.7577197E-009  0.1263928E+03  0.7561462E-02  0.1123782E+00
         22   -1    0    0    0    0  0.00000000000E+00  0.00000000000E+00  0.24787622362E+03  0.24787622362E+03  0.00000000000E+00 0.  1.
         22   -1    0    0    0    0 -0.00000000000E+00 -0.00000000000E+00 -0.42516311536E+03  0.42516311536E+03  0.00000000000E+00 0.  1.
         24    2    1    2    0    0 -0.16201487141E+02 -0.89267541382E+01 -0.31654287423E+03  0.32650813301E+03  0.77884495069E+02 0.  0.
         25    2    1    2    0    0  0.79792614615E+01  0.13281083290E+02 -0.54369145271E+02  0.13728902972E+03  0.12510882437E+03 0.  0.
        -24    2    1    2    0    0  0.82222256793E+01 -0.43543291516E+01  0.19362512776E+03  0.20924217626E+03  0.78772032152E+02 0.  0.
        -11    1    3    3    0    0  0.12780255153E+01  0.24982896719E+02 -0.23671128203E+03  0.23802942994E+03  0.00000000000E+00 0.  1.
         12    1    3    3    0    0 -0.17479512656E+02 -0.33909650857E+02 -0.79831592197E+02  0.88478703068E+02  0.00000000000E+00 0. -1.
         13    1    5    5    0    0 -0.22725783748E+02 -0.47614061944E+01  0.14308160137E+02  0.27273717795E+02  0.00000000000E+00 0. -1.
        -14    1    5    5    0    0  0.30948009427E+02  0.40707704280E+00  0.17931696762E+03  0.18196845846E+03  0.00000000000E+00 0.  1.
          5    1    4    4  501    0 -0.54237038897E+02  0.27311686082E+02 -0.36287990481E+02  0.70865190595E+02  0.41800000000E+01 0.  1.
         -5    1    4    4    0  501  0.62216300358E+02 -0.14030602792E+02 -0.18081154791E+02  0.66423839121E+02  0.41800000000E+01 0.  1.
</event>
<event>
11    1  0.7577197E-009  0.1485816E+03  0.7561462E-02  0.1098337E+00
         22   -1    0    0    0    0  0.00000000000E+00  0.00000000000E+00  0.69963086417E+03  0.69963086417E+03  0.00000000000E+00 0. -1.
         22   -1    0    0    0    0 -0.00000000000E+00 -0.00000000000E+00 -0.66641853419E+02  0.66641853419E+02  0.00000000000E+00 0. -1.
        -24    2    1    2    0    0 -0.93603974953E+02 -0.31906512154E+01  0.44209345865E+02  0.13047970852E+03  0.79363742923E+02 0.  0.
         25    2    1    2    0    0  0.41337652066E+02 -0.64463443277E+01  0.23545404170E+03  0.26988243464E+03  0.12509023120E+03 0.  0.
         24    2    1    2    0    0  0.52266322888E+02  0.96369955430E+01  0.35332562318E+03  0.36591057443E+03  0.78910786900E+02 0.  0.
        -11    1    5    5    0    0  0.60037555485E+01 -0.30953216187E+00  0.27014759502E+03  0.27021447775E+03  0.00000000000E+00 0.  1.
         12    1    5    5    0    0  0.46262567339E+02  0.99465277049E+01  0.83178028162E+02  0.95696096677E+02  0.00000000000E+00 0. -1.
         13    1    3    3    0    0 -0.55224524822E+02 -0.30166098140E+02  0.53573607043E+02  0.82643045627E+02  0.00000000000E+00 0. -1.
        -14    1    3    3    0    0 -0.38379450131E+02  0.26975446924E+02 -0.93642611785E+01  0.47836662891E+02  0.00000000000E+00 0.  1.
          5    1    4    4  501    0  0.65806077824E+02  0.38202044892E+02  0.17408368384E+03  0.19003272742E+03  0.41800000000E+01 0. -1.
         -5    1    4    4    0  501 -0.24468425758E+02 -0.44648389219E+02  0.61370357862E+02  0.79849707220E+02  0.41800000000E+01 0. -1.
</event>
<event>
11    1  0.7577197E-009  0.1372198E+03  0.7561462E-02  0.1110703E+00
         22   -1    0    0    0    0  0.00000000000E+00  0.00000000000E+00  0.11331660919E+03  0.11331660919E+03  0.00000000000E+00 0.  1.
         22   -1    0    0    0    0 -0.00000000000E+00 -0.00000000000E+00 -0.60658377077E+03  0.60658377077E+03  0.00000000000E+00 0.  1.
         24    2    1    2    0    0  0.13640264366E+02 -0.28052871440E+02 -0.45190387190E+03  0.46005461618E+03  0.80374871819E+02 0.  0.
         25    2    1    2    0    0 -0.49090467948E+02  0.62135253335E+02 -0.65596735114E+02  0.16193203435E+03  0.12509351838E+03 0.  0.
        -24    2    1    2    0    0  0.35450203582E+02 -0.34082381895E+02  0.24233445434E+02  0.97913729434E+02  0.81126523680E+02 0.  0.
        -11    1    3    3    0    0  0.33502342679E+02 -0.45138481734E+02 -0.36448023957E+03  0.36878955318E+03  0.00000000000E+00 0.  1.
         12    1    3    3    0    0 -0.19862078313E+02  0.17085610294E+02 -0.87423632327E+02  0.91265062994E+02  0.00000000000E+00 0. -1.
         13    1    5    5    0    0  0.25433162717E+02 -0.35159321894E+02 -0.23348747787E+02  0.49276644620E+02  0.00000000000E+00 0. -1.
        -14    1    5    5    0    0  0.10017040865E+02  0.10769399991E+01  0.47582193221E+02  0.48637084813E+02  0.00000000000E+00 0.  1.
          5    1    4    4  501    0 -0.50947299651E+01 -0.16743372161E+02  0.27043512190E+02  0.32482622066E+02  0.41800000000E+01 0.  1.
         -5    1    4    4    0  501 -0.43995737983E+02  0.78878625496E+02 -0.92640247304E+02  0.12944941229E+03  0.41800000000E+01 0.  1.
</event>
<event>
11    1  0.7577197E-009  0.1396705E+03  0.7561462E-02  0.1107927E+00
         22   -1    0    0    0    0  0.00000000000E+00  0.00000000000E+00  0.15035424877E+03  0.15035424877E+03  0.00000000000E+00 0. -1.
         22   -1    0    0    0    0 -0.00000000000E+00 -0.00000000000E+00 -0.88107402335E+03  0.88107402335E+03  0.00000000000E+00 0. -1.
         24    2    1    2    0    0  0.46126047505E+02 -0.14413255317E+02 -0.53611349510E+03  0.54406896492E+03  0.79107551925E+02 0.  0.
         25    2    1    2    0    0 -0.56100572349E+02  0.74300074412E+02 -0.30164060601E+03  0.33957366685E+03  0.12512171971E+03 0.  0.
        -24    2    1    2    0    0  0.99745248437E+01 -0.59886819095E+02  0.10703432653E+03  0.14778564035E+03  0.81843302658E+02 0.  0.
        -13    1    3    3    0    0  0.20160071425E+01  0.12098376189E+02 -0.11109546760E+02  0.16548625937E+02  0.00000000000E+00 0.  1.
         14    1    3    3    0    0  0.44110040362E+02 -0.26511631506E+02 -0.52500394834E+03  0.52752033898E+03  0.00000000000E+00 0. -1.
         13    1    5    5    0    0 -0.21098840932E+02  0.30817087690E+01  0.58933562679E+02  0.62672344999E+02  0.00000000000E+00 0. -1.
        -14    1    5    5    0    0  0.31073365776E+02 -0.62968527864E+02  0.48100763852E+02  0.85113295349E+02  0.00000000000E+00 0.  1.
          5    1    4    4  501    0  0.38409085383E+01  0.38555480001E+02 -0.10789124224E+02  0.40437052539E+02  0.41800000000E+01 0. -1.
         -5    1    4    4    0  501 -0.59941480887E+02  0.35744594411E+02 -0.29085148179E+03  0.29913661431E+03  0.41800000000E+01 0. -1.
</event>
<event>
11    1  0.7577197E-009  0.1583372E+03  0.7561462E-02  0.1088652E+00
         22   -1    0    0    0    0  0.00000000000E+00  0.00000000000E+00  0.70398777485E+03  0.70398777485E+03  0.00000000000E+00 0.  1.
         22   -1    0    0    0    0 -0.00000000000E+00 -0.00000000000E+00 -0.21565430660E+03  0.21565430660E+03  0.00000000000E+00 0.  1.
         24    2    1    2    0    0  0.44382535989E+02  0.16870762980E+01 -0.11048995794E+03  0.13689855631E+03  0.67531682845E+02 0.  0.
         25    2    1    2    0    0 -0.13645426774E+03  0.17355228442E+02  0.15686006712E+02  0.18658484670E+03  0.12508750168E+03 0.  0.
        -24    2    1    2    0    0  0.92071731748E+02 -0.19042304740E+02  0.58313741948E+03  0.59615867843E+03  0.80722405264E+02 0.  0.
        -11    1    3    3    0    0  0.47307338898E+02 -0.13383465499E+02 -0.11114466608E+03  0.12153286906E+03  0.00000000000E+00 0.  1.
         12    1    3    3    0    0 -0.29248029098E+01  0.15070541797E+02  0.65470814346E+00  0.15365687256E+02  0.00000000000E+00 0. -1.
         13    1    5    5    0    0  0.78372216233E+02 -0.39864453316E+02  0.32054558952E+03  0.33238660303E+03  0.00000000000E+00 0. -1.
        -14    1    5    5    0    0  0.13699515515E+02  0.20822148576E+02  0.26259182996E+03  0.26377207540E+03  0.00000000000E+00 0.  1.
          5    1    4    4  501    0 -0.41296331047E+02 -0.42958118381E+02  0.39161033963E+02  0.71427206818E+02  0.41800000000E+01 0. -1.
         -5    1    4    4    0  501 -0.95157936689E+02  0.60313346823E+02 -0.23475027251E+02  0.11515763989E+03  0.41800000000E+01 0. -1.
</event>
<event>
11    1  0.7577197E-009  0.2154443E+03  0.7561462E-02  0.1044109E+00
         22   -1    0    0    0    0  0.00000000000E+00  0.00000000000E+00  0.50716743420E+03  0.50716743420E+03  0.00000000000E+00 0.  1.
         22   -1    0    0    0    0 -0.00000000000E+00 -0.00000000000E+00 -0.39047032744E+03  0.39047032744E+03  0.00000000000E+00 0. -1.
        -24    2    1    2    0    0 -0.74158682432E+02 -0.48721922385E+02 -0.20693494599E+03  0.23979851652E+03  0.82510125173E+02 0.  0.
         25    2    1    2    0    0  0.21222086466E+03  0.13556345500E+03 -0.65795346946E+01  0.28125639150E+03  0.12508685683E+03 0.  0.
         24    2    1    2    0    0 -0.13806218223E+03 -0.86841532613E+02  0.33021158744E+03  0.37658285362E+03  0.78564210780E+02 0.  0.
        -13    1    5    5    0    0 -0.60892634241E+02 -0.45897936140E+02  0.23640523802E+03  0.24839881241E+03  0.00000000000E+00 0.  1.
         14    1    5    5    0    0 -0.77169547988E+02 -0.40943596473E+02  0.93806349421E+02  0.12818404121E+03  0.00000000000E+00 0. -1.
         13    1    3    3    0    0 -0.49712086973E+02 -0.38285459416E+02 -0.20355140585E+03  0.21300291740E+03  0.00000000000E+00 0. -1.
        -14    1    3    3    0    0 -0.24446595458E+02 -0.10436462969E+02 -0.33835401317E+01  0.26795599128E+02  0.00000000000E+00 0.  1.
          5    1    4    4  501    0  0.82837365261E+02  0.11748090216E+03  0.26957547368E+02  0.14631463774E+03  0.41800000000E+01 0.  1.
         -5    1    4    4    0  501  0.12938349940E+03  0.18082552835E+02 -0.33537082062E+02  0.13494175376E+03  0.41800000000E+01 0.  1.
</event>
<event>
11    1  0.7577197E-009  0.1526454E+03  0.7561462E-02  0.1094206E+00
         22   -1    0    0    0    0  0.00000000000E+00  0.00000000000E+00  0.11064066207E+04  0.11064066207E+04  0.00000000000E+00 0. -1.
         22   -1    0    0    0    0 -0.00000000000E+00 -0.00000000000E+00 -0.53659199829E+03  0.53659199829E+03  0.00000000000E+00 0. -1.
         24    2    1    2    0    0  0.67630226435E+02 -0.32592255680E+02 -0.35698999683E+03  0.37403439297E+03  0.82606093188E+02 0.  0.
         25    2    1    2    0    0 -0.14611770898E+03  0.67811253387E+02 -0.10573845078E+03  0.22972713846E+03  0.12508072277E+03 0.  0.
        -24    2    1    2    0    0  0.78487482541E+02 -0.35218997707E+02  0.10325430700E+04  0.10392370876E+04  0.80423068814E+02 0.  0.
        -13    1    3    3    0    0  0.19978940566E+02 -0.71804739467E+01 -0.11105330602E+02  0.23959249572E+02  0.00000000000E+00 0.  1.
         14    1    3    3    0    0  0.47651285869E+02 -0.25411781734E+02 -0.34588466623E+03  0.35007514340E+03  0.00000000000E+00 0. -1.
         11    1    5    5    0    0  0.88695914438E+02 -0.18452381938E+02  0.66146488459E+03  0.66764005960E+03  0.00000000000E+00 0. -1.
        -12    1    5    5    0    0 -0.10208431896E+02 -0.16766615769E+02  0.37107818546E+03  0.37159702799E+03  0.00000000000E+00 0.  1.
          5    1    4    4  501    0 -0.99807908503E+02  0.75627351238E+02 -0.12664431423E+03  0.17814985148E+03  0.41800000000E+01 0.  1.
         -5    1    4    4    0  501 -0.46309800473E+02 -0.78160978504E+01  0.20905863451E+02  0.51577286979E+02  0.41800000000E+01 0.  1.
</event>
<event>
11    1  0.7577197E-009  0.1453338E+03  0.7561462E-02  0.1101744E+00
         22   -1    0    0    0    0  0.00000000000E+00  0.00000000000E+00  0.41306380377E+03  0.41306380377E+03  0.00000000000E+00 0. -1.
         22   -1    0    0    0    0 -0.00000000000E+00 -0.00000000000E+00 -0.37872624039E+03  0.37872624039E+03  0.00000000000E+00 0. -1.
        -24    2    1    2    0    0 -0.41509522115E+02  0.16608169757E+01 -0.33100260723E+03  0.34291514535E+03  0.79386851435E+02 0.  0.
         25    2    1    2    0    0  0.86437459031E+01 -0.72885432601E+02  0.17051876882E+03  0.22384787938E+03  0.12507686418E+03 0.  0.
         24    2    1    2    0    0  0.32865776212E+02  0.71224615626E+02  0.19482140179E+03  0.22502701942E+03  0.80800221285E+02 0.  0.
        -11    1    5    5    0    0  0.22394532822E+02 -0.44417594217E+01  0.97774298890E+01  0.24836313380E+02  0.00000000000E+00 0.  1.
         12    1    5    5    0    0  0.10471243391E+02  0.75666375047E+02  0.18504397190E+03  0.20019070604E+03  0.00000000000E+00 0. -1.
         13    1    3    3    0    0  0.42467177198E+01  0.17435662787E+02 -0.23222601468E+03  0.23291835231E+03  0.00000000000E+00 0. -1.
        -14    1    3    3    0    0 -0.45756239835E+02 -0.15774845812E+02 -0.98776592545E+02  0.10999679304E+03  0.00000000000E+00 0.  1.
          5    1    4    4  501    0 -0.66998517008E+01  0.29705810059E+02  0.81458661144E+02  0.87064970220E+02  0.41800000000E+01 0. -1.
         -5    1    4    4    0  501  0.15343597604E+02 -0.10259124266E+03  0.89060107678E+02  0.13678290916E+03  0.41800000000E+01 0. -1.
</event>
<event>
11    1  0.7577197E-009  0.2095482E+03  0.7561462E-02  0.1047970E+00
         22   -1    0    0    0    0  0.00000000000E+00  0.00000000000E+00  0.22587092726E+03  0.22587092726E+03  0.00000000000E+00 0.  1.
         22   -1    0    0    0    0 -0.00000000000E+00 -0.00000000000E+00 -0.99777179804E+03  0.99777179804E+03  0.00000000000E+00 0. -1.
        -24    2    1    2    0    0 -0.14428607106E+03  0.45931669952E+02 -0.61905369921E+03  0.64242559809E+03  0.80962818496E+02 0.  0.
         25    2    1    2    0    0  0.26341728764E+03 -0.26641324889E+02 -0.26707860647E+03  0.39632945812E+03  0.12509048613E+03 0.  0.
         24    2    1    2    0    0 -0.11913121658E+03 -0.19290345063E+02  0.11423143490E+03  0.18488766908E+03  0.81057172934E+02 0.  0.
        -13    1    5    5    0    0 -0.69424983923E+02  0.25859586385E+02  0.37877558484E+02  0.83206105770E+02  0.00000000000E+00 0.  1.
         14    1    5    5    0    0 -0.49706232657E+02 -0.45149931447E+02  0.76353876411E+02  0.10168156331E+03  0.00000000000E+00 0. -1.
         11    1    3    3    0    0 -0.55351254365E+02  0.55100120604E+02 -0.36009770599E+03  0.36847000218E+03  0.00000000000E+00 0. -1.
        -12    1    3    3    0    0 -0.88934816690E+02 -0.91684506517E+01 -0.25895599322E+03  0.27395559591E+03  0.00000000000E+00 0.  1.
          5    1    4    4  501    0  0.86752700849E+02  0.48791567780E+02 -0.10751196680E+03  0.14657060959E+03  0.41800000000E+01 0.  1.
         -5    1    4    4    0  501  0.17666458679E+03 -0.75432892669E+02 -0.15956663967E+03  0.24975884853E+03  0.41800000000E+01 0.  1.
</event>
<event>
11    1  0.7577197E-009  0.1277513E+03  0.7561462E-02  0.1122063E+00
         22   -1    0    0    0    0  0.00000000000E+00  0.00000000000E+00  0.72669874070E+03  0.72669874070E+03  0.00000000000E+00 0.  1.
         22   -1    0    0    0    0 -0.00000000000E+00 -0.00000000000E+00 -0.13814662222E+04  0.13814662222E+04  0.00000000000E+00 0. -1.
        -24    2    1    2    0    0 -0.24234924684E+02  0.20399610590E+02 -0.91747918897E+03  0.92167510916E+03  0.81935761231E+02 0.  0.
         25    2    1    2    0    0  0.25948870356E+02 -0.46105121003E+02 -0.44823430590E+03  0.46835973560E+03  0.12509125822E+03 0.  0.
         24    2    1    2    0    0 -0.17139456718E+01  0.25705510412E+02  0.71094601342E+03  0.71813011810E+03  0.97994498050E+02 0.  0.
        -13    1    5    5    0    0 -0.42679023594E+02  0.38038603943E+02  0.46357869845E+03  0.46709061658E+03  0.00000000000E+00 0.  1.
         14    1    5    5    0    0  0.40965077922E+02 -0.12333093531E+02  0.24736731498E+03  0.25103950152E+03  0.00000000000E+00 0. -1.
         13    1    3    3    0    0 -0.24409861756E+02  0.39777186906E+02 -0.85469830191E+03  0.85597152595E+03  0.00000000000E+00 0. -1.
        -14    1    3    3    0    0  0.17493707172E+00 -0.19377576315E+02 -0.62780887058E+02  0.65703583210E+02  0.00000000000E+00 0.  1.
          5    1    4    4  501    0  0.45767219362E+02 -0.75441244047E+02 -0.39159783248E+03  0.40143785880E+03  0.41800000000E+01 0.  1.
         -5    1    4    4    0  501 -0.19818349007E+02  0.29336123045E+02 -0.56636473420E+02  0.66921876797E+02  0.41800000000E+01 0.  1.
</event>
<event>
11    1  0.7577197E-009  0.1381367E+03  0.7561462E-02  0.1109657E+00
         22   -1    0    0    0    0  0.00000000000E+00  0.00000000000E+00  0.13694751117E+04  0.13694751117E+04  0.00000000000E+00 0.  1.
         22   -1    0    0    0    0 -0.00000000000E+00 -0.00000000000E+00 -0.81730999845E+03  0.81730999845E+03  0.00000000000E+00 0.  1.
        -24    2    1    2    0    0 -0.90774311193E+01  0.57235171365E+02 -0.78304234432E+03  0.78944040790E+03  0.81869286309E+02 0.  0.
         25    2    1    2    0    0 -0.90209067048E+01 -0.11088022230E+03  0.21331343557E+03  0.27115606221E+03  0.12508871981E+03 0.  0.
         24    2    1    2    0    0  0.18098337824E+02  0.53645050932E+02  0.11218940220E+04  0.11261886400E+04  0.80307627501E+02 0.  0.
        -13    1    5    5    0    0  0.26776945159E+02  0.72481159667E+02  0.91566409221E+03  0.91891852362E+03  0.00000000000E+00 0.  1.
         14    1    5    5    0    0 -0.86786073347E+01 -0.18836108735E+02  0.20622992977E+03  0.20727011640E+03  0.00000000000E+00 0. -1.
         11    1    3    3    0    0  0.26641182989E+02  0.30988312883E+02 -0.17182001386E+03  0.17661298177E+03  0.00000000000E+00 0. -1.
        -12    1    3    3    0    0 -0.35718614108E+02  0.26246858482E+02 -0.61122233045E+03  0.61282742613E+03  0.00000000000E+00 0.  1.
          5    1    4    4  501    0 -0.43298888438E+02 -0.12161667798E+03  0.18287387700E+03  0.22388777857E+03  0.41800000000E+01 0.  1.
         -5    1    4    4    0  501  0.34277981734E+02  0.10736455688E+02  0.30439558572E+02  0.47268283643E+02  0.41800000000E+01 0.  1.
</event>
<event>
11    1  0.7577197E-009  0.1805852E+03  0.7561462E-02  0.1069170E+00
         22   -1    0    0    0    0  0.00000000000E+00  0.00000000000E+00  0.25535697119E+03  0.25535697119E+03  0.00000000000E+00 0.  1.
         22   -1    0    0    0    0 -0.00000000000E+00 -0.00000000000E+00 -0.23270260296E+04  0.23270260296E+04  0.00000000000E+00 0. -1.
         24    2    1    2    0    0  0.15814519977E+02 -0.27416399728E+02 -0.20329804071E+04  0.20350976649E+04  0.87243406895E+02 0.  0.
         25    2    1    2    0    0 -0.20851516147E+02  0.15503351330E+03 -0.22901415961E+03  0.30424537508E+03  0.12509031531E+03 0.  0.
        -24    2    1    2    0    0  0.50369961696E+01 -0.12761711357E+03  0.19032550831E+03  0.24303996078E+03  0.80827745338E+02 0.  0.
        -13    1    3    3    0    0  0.18632943647E+02  0.12772395272E+02 -0.15047870828E+03  0.15216491815E+03  0.00000000000E+00 0.  1.
         14    1    3    3    0    0 -0.28184236699E+01 -0.40188795000E+02 -0.18825016988E+04  0.18829327468E+04  0.00000000000E+00 0. -1.
         11    1    5    5    0    0  0.12972683237E+02  0.60877022343E+01  0.68674439391E+01  0.15890639229E+02  0.00000000000E+00 0. -1.
        -12    1    5    5    0    0 -0.79356870671E+01 -0.13370481581E+03  0.18345806437E+03  0.22714932155E+03  0.00000000000E+00 0.  1.
          5    1    4    4  501    0 -0.11792470091E+02  0.16033533662E+03 -0.13620329018E+03  0.21074935629E+03  0.41800000000E+01 0.  1.
         -5    1    4    4    0  501 -0.90590460555E+01 -0.53018233191E+01 -0.92810869427E+02  0.93496018790E+02  0.41800000000E+01 0.  1.
</event>
<event>
11    1  0.7577197E-009  0.1813898E+03  0.7561462E-02  0.1068524E+00
         22   -1    0    0    0    0  0.00000000000E+00  0.00000000000E+00  0.23729129805E+03  0.23729129805E+03  0.00000000000E+00 0. -1.
         22   -1    0    0    0    0 -0.00000000000E+00 -0.00000000000E+00 -0.20595927803E+04  0.20595927803E+04  0.00000000000E+00 0. -1.
        -24    2    1    2    0    0  0.34013439692E+02 -0.12660416066E+03 -0.19424426136E+04  0.19485566292E+04  0.81265629787E+02 0.  0.
         25    2    1    2    0    0 -0.42055014370E+02  0.13231149119E+03 -0.18868150143E+02  0.18782441410E+03  0.12508816293E+03 0.  0.
         24    2    1    2    0    0  0.80415746787E+01 -0.57073305295E+01  0.13900928150E+03  0.16050303502E+03  0.79626649824E+02 0.  0.
        -13    1    5    5    0    0  0.22654409582E+02 -0.33956511767E+02  0.42675438012E+02  0.59054720171E+02  0.00000000000E+00 0.  1.
         14    1    5    5    0    0 -0.14612834903E+02  0.28249181238E+02  0.96333843490E+02  0.10144831485E+03  0.00000000000E+00 0. -1.
         13    1    3    3    0    0  0.30837635865E+02 -0.13538944675E+03 -0.16082131631E+04  0.16141966547E+04  0.00000000000E+00 0. -1.
        -14    1    3    3    0    0  0.31758038261E+01  0.87852860893E+01 -0.33422945049E+03  0.33435997451E+03  0.00000000000E+00 0.  1.
          5    1    4    4  501    0  0.22815434188E+01  0.54201961692E+02  0.50521810103E+02  0.74249469949E+02  0.41800000000E+01 0.  1.
         -5    1    4    4    0  501 -0.44336557789E+02  0.78109529499E+02 -0.69389960246E+02  0.11357494415E+03  0.41800000000E+01 0.  1.
</event>
<event>
11    1  0.7577197E-009  0.1508335E+03  0.7561462E-02  0.1096030E+00
         22   -1    0    0    0    0  0.00000000000E+00  0.00000000000E+00  0.17754575980E+04  0.17754575980E+04  0.00000000000E+00 0. -1.
         22   -1    0    0    0    0 -0.00000000000E+00 -0.00000000000E+00 -0.15112964428E+03  0.15112964428E+03  0.00000000000E+00 0. -1.
         24    2    1    2    0    0  0.24671646519E+02 -0.32200424568E+02 -0.11602473380E+03  0.14673924033E+03  0.80156773361E+02 0.  0.
         25    2    1    2    0    0  0.57134091076E+02 -0.13047094187E+01  0.25422869479E+03  0.28904216163E+03  0.12508850992E+03 0.  0.
        -24    2    1    2    0    0 -0.81805737594E+02  0.33505133986E+02  0.14861239928E+04  0.14908058403E+04  0.78248060899E+02 0.  0.
        -13    1    3    3    0    0 -0.95285322692E+01 -0.43886099481E+02 -0.31624172662E+02  0.54926049843E+02  0.00000000000E+00 0.  1.
         14    1    3    3    0    0  0.34200178788E+02  0.11685674914E+02 -0.84400561138E+02  0.91813190489E+02  0.00000000000E+00 0. -1.
         11    1    5    5    0    0 -0.15590674307E+02 -0.24977407926E+02  0.32955458010E+03  0.33086728653E+03  0.00000000000E+00 0. -1.
        -12    1    5    5    0    0 -0.66215063288E+02  0.58482541912E+02  0.11565694127E+04  0.11599385538E+04  0.00000000000E+00 0.  1.
          5    1    4    4  501    0 -0.39886411389E+02 -0.36372496410E+01  0.69165947755E+02  0.80034718262E+02  0.41800000000E+01 0. -1.
         -5    1    4    4    0  501  0.97020502465E+02  0.23325402223E+01  0.18506274704E+03  0.20900744337E+03  0.41800000000E+01 0. -1.
</event>
<event>
11    1  0.7577197E-009  0.1527440E+03  0.7561462E-02  0.1094108E+00
         22   -1    0    0    0    0  0.00000000000E+00  0.00000000000E+00  0.12906284497E+04  0.12906284497E+04  0.00000000000E+00 0.  1.
         22   -1    0    0    0    0 -0.00000000000E+00 -0.00000000000E+00 -0.80719112289E+03  0.80719112289E+03  0.00000000000E+00 0.  1.
        -24    2    1    2    0    0  0.46814329129E+02 -0.73933995961E+02 -0.78622828831E+03  0.79884395636E+03  0.11108072789E+03 0.  0.
         25    2    1    2    0    0 -0.68745318822E+02  0.74412820249E+02  0.51077030443E+03  0.53553433142E+03  0.12509008581E+03 0.  0.
         24    2    1    2    0    0  0.21930989693E+02 -0.47882428790E+00  0.75889531065E+03  0.76344128477E+03  0.80245281424E+02 0.  0.
        -13    1    5    5    0    0 -0.19196355513E+02 -0.95068208050E+01  0.54610562251E+03  0.54652559926E+03  0.00000000000E+00 0.  1.
         14    1    5    5    0    0  0.41127345206E+02  0.90279965171E+01  0.21278968813E+03  0.21691568551E+03  0.00000000000E+00 0. -1.
         13    1    3    3    0    0  0.16280093839E+02  0.18569640963E+02 -0.45787096501E+02  0.52022410814E+02  0.00000000000E+00 0. -1.
        -14    1    3    3    0    0  0.30534235291E+02 -0.92503636924E+02 -0.74044119180E+03  0.74682154554E+03  0.00000000000E+00 0.  1.
          5    1    4    4  501    0 -0.47898703390E+01 -0.26644533421E+02  0.21084739082E+03  0.21261930448E+03  0.41800000000E+01 0.  1.
         -5    1    4    4    0  501 -0.63955448483E+02  0.10105735367E+03  0.29992291360E+03  0.32291502694E+03  0.41800000000E+01 0.  1.
</event>
<event>
11    1  0.7577197E-009  0.3107633E+03  0.7561462E-02  0.9957361E-01
         22   -1    0    0    0    0  0.00000000000E+00  0.00000000000E+00  0.60931390652E+03  0.60931390652E+03  0.00000000000E+00 0.  1.
         22   -1    0    0    0    0 -0.00000000000E+00 -0.00000000000E+00 -0.74722100290E+03  0.74722100290E+03  0.00000000000E+00 0.  1.
         24    2    1    2    0    0 -0.17114084075E+03  0.17470509788E+03 -0.50681866557E+03  0.56787680756E+03  0.76209252688E+02 0.  0.
         25    2    1    2    0    0  0.28456927425E+03  0.10986411410E+03  0.40334223488E+02  0.33214602872E+03  0.12507733367E+03 0.  0.
        -24    2    1    2    0    0 -0.11342843350E+03 -0.28456921197E+03  0.32857734571E+03  0.45651207314E+03  0.81206864735E+02 0.  0.
        -13    1    3    3    0    0 -0.90307060718E+02  0.13186510929E+03 -0.26671794704E+03  0.31093767146E+03  0.00000000000E+00 0.  1.
         14    1    3    3    0    0 -0.80833780037E+02  0.42839988583E+02 -0.24010071853E+03  0.25693913609E+03  0.00000000000E+00 0. -1.
         13    1    5    5    0    0 -0.93805947066E+02 -0.12909366045E+03  0.15130390893E+03  0.21990361919E+03  0.00000000000E+00 0. -1.
        -14    1    5    5    0    0 -0.19622486433E+02 -0.15547555152E+03  0.17727343678E+03  0.23660845395E+03  0.00000000000E+00 0.  1.
          5    1    4    4  501    0  0.18278020211E+03  0.12494075667E+03 -0.28221872761E+00  0.22144152052E+03  0.41800000000E+01 0.  1.
         -5    1    4    4    0  501  0.10178907214E+03 -0.15076642577E+02  0.40616442216E+02  0.11070450821E+03  0.41800000000E+01 0.  1.
</event>
<event>
11    1  0.1091693E-008  0.2372386E+03  0.7561462E-02  0.1030926E+00
         22   -1    0    0    0    0  0.00000000000E+00  0.00000000000E+00  0.79484129760E+03  0.79484129760E+03  0.00000000000E+00 0. -1.
         22   -1    0    0    0    0 -0.00000000000E+00 -0.00000000000E+00 -0.65963192284E+03  0.65963192284E+03  0.00000000000E+00 0. -1.
        -24    2    1    2    0    0  0.90797945864E+02  0.41859586159E+01 -0.41358800296E+03  0.43098151863E+03  0.80176330572E+02 0.  0.
         25    2    1    2    0    0 -0.24113598209E+03 -0.13076010539E+03 -0.11795768615E+03  0.32373920523E+03  0.12509312636E+03 0.  0.
         24    2    1    2    0    0  0.15033803623E+03  0.12657414677E+03  0.66675506386E+03  0.69975249658E+03  0.80428238315E+02 0.  0.
        -13    1    5    5    0    0  0.18226467836E+02  0.26047105179E+02  0.23571527126E+03  0.23784941649E+03  0.00000000000E+00 0.  1.
         14    1    5    5    0    0  0.13211156839E+03  0.10052704159E+03  0.43103979260E+03  0.46190308009E+03  0.00000000000E+00 0. -1.
         11    1    3    3    0    0  0.80118951935E+02  0.12888818265E+00 -0.41167492795E+03  0.41939874746E+03  0.00000000000E+00 0. -1.
        -12    1    3    3    0    0  0.10678993929E+02  0.40570704333E+01 -0.19130750087E+01  0.11582771164E+02  0.00000000000E+00 0.  1.
          5    1    4    4  501    0 -0.13560374116E+03 -0.29744951107E+01 -0.52514924328E+02  0.14550777269E+03  0.41800000000E+01 0. -1.
         -5    1    4    4    0  501 -0.10553224093E+03 -0.12778561028E+03 -0.65442761818E+02  0.17823143254E+03  0.41800000000E+01 0. -1.
</event>
<event>
11    1  0.7577197E-009  0.1808857E+03  0.7561462E-02  0.1068929E+00
         22   -1    0    0    0    0  0.00000000000E+00  0.00000000000E+00  0.31623158677E+03  0.31623158677E+03  0.00000000000E+00 0.  1.
         22   -1    0    0    0    0 -0.00000000000E+00 -0.00000000000E+00 -0.11582420921E+04  0.11582420921E+04  0.00000000000E+00 0.  1.
        -24    2    1    2    0    0 -0.53665269208E+02 -0.18379091148E+02 -0.10547934915E+04  0.10594010923E+04  0.80768882922E+02 0.  0.
         25    2    1    2    0    0  0.16646169641E+02  0.14198961121E+03  0.52243209873E+02  0.19701477931E+03  0.12508927067E+03 0.  0.
         24    2    1    2    0    0  0.37019099567E+02 -0.12361052006E+03  0.16053977633E+03  0.21805780726E+03  0.71597577606E+02 0.  0.
        -13    1    5    5    0    0 -0.23459772912E+01 -0.85149999631E+02  0.62587018403E+02  0.10570317365E+03  0.00000000000E+00 0.  1.
         14    1    5    5    0    0  0.39365076858E+02 -0.38460520429E+02  0.97952757930E+02  0.11235463361E+03  0.00000000000E+00 0. -1.
         13    1    3    3    0    0 -0.19873212246E+02 -0.47308883009E+02 -0.43564609718E+03  0.43865772188E+03  0.00000000000E+00 0. -1.
        -14    1    3    3    0    0 -0.33792056961E+02  0.28929791861E+02 -0.61914739433E+03  0.62074337038E+03  0.00000000000E+00 0.  1.
          5    1    4    4  501    0  0.14028715209E+02  0.16535182059E+03  0.43687533743E+02  0.17165110669E+03  0.41800000000E+01 0. -1.
         -5    1    4    4    0  501  0.26174544327E+01 -0.23362209383E+02  0.85556761301E+01  0.25363672625E+02  0.41800000000E+01 0. -1.
</event>
<event>
11    1  0.7577197E-009  0.1721611E+03  0.7561462E-02  0.1076166E+00
         22   -1    0    0    0    0  0.00000000000E+00  0.00000000000E+00  0.10759256809E+04  0.10759256809E+04  0.00000000000E+00 0. -1.
         22   -1    0    0    0    0 -0.00000000000E+00 -0.00000000000E+00 -0.32622926634E+03  0.32622926634E+03  0.00000000000E+00 0. -1.
        -24    2    1    2    0    0 -0.68706598046E+01 -0.74551082026E+02 -0.27864771795E+03  0.29955520799E+03  0.80521438879E+02 0.  0.
         25    2    1    2    0    0  0.11577034872E+03  0.10490728940E+03  0.29550653027E+03  0.35690367917E+03  0.12509122177E+03 0.  0.
         24    2    1    2    0    0 -0.10889968891E+03 -0.30356207370E+02  0.73283760222E+03  0.74569606006E+03  0.78936817696E+02 0.  0.
        -11    1    5    5    0    0  0.40020990032E+01 -0.81116560430E+01  0.89689729942E+01  0.12738062520E+02  0.00000000000E+00 0.  1.
         12    1    5    5    0    0 -0.11290178791E+03 -0.22244551327E+02  0.72386862922E+03  0.73295799754E+03  0.00000000000E+00 0. -1.
         13    1    3    3    0    0  0.11645268970E+02 -0.33589000391E+02 -0.23224126137E+03  0.23494645501E+03  0.00000000000E+00 0. -1.
        -14    1    3    3    0    0 -0.18515928775E+02 -0.40962081635E+02 -0.46406456581E+02  0.64608752988E+02  0.00000000000E+00 0.  1.
          5    1    4    4  501    0  0.29159845813E+01 -0.25542129465E+02  0.25324921880E+02  0.36328052686E+02  0.41800000000E+01 0.  1.
         -5    1    4    4    0  501  0.11285436413E+03  0.13044941886E+03  0.27018160839E+03  0.32057562649E+03  0.41800000000E+01 0.  1.
</event>
<event>
11    1  0.7577197E-009  0.1487859E+03  0.7561462E-02  0.1098126E+00
         22   -1    0    0    0    0  0.00000000000E+00  0.00000000000E+00  0.10248080717E+04  0.10248080717E+04  0.00000000000E+00 0.  1.
         22   -1    0    0    0    0 -0.00000000000E+00 -0.00000000000E+00 -0.56707581057E+03  0.56707581057E+03  0.00000000000E+00 0. -1.
         24    2    1    2    0    0 -0.65008608617E+02  0.24941727129E+02 -0.50090841016E+03  0.51166673739E+03  0.77752207974E+02 0.  0.
         25    2    1    2    0    0  0.14167384592E+03 -0.23238825308E+02  0.10143508358E+03  0.21575499674E+03  0.12509844450E+03 0.  0.
        -24    2    1    2    0    0 -0.76665237307E+02 -0.17029018205E+01  0.85720558766E+03  0.86446214808E+03  0.81319908208E+02 0.  0.
        -13    1    3    3    0    0  0.10746301677E+02  0.78122533906E+01 -0.21459859480E+03  0.21500946768E+03  0.00000000000E+00 0.  1.
         14    1    3    3    0    0 -0.75754910294E+02  0.17129473738E+02 -0.28630981535E+03  0.29665726971E+03  0.00000000000E+00 0. -1.
         13    1    5    5    0    0  0.10417722681E+02  0.30293742291E+01  0.20233552511E+02  0.22958717327E+02  0.00000000000E+00 0. -1.
        -14    1    5    5    0    0 -0.87082959988E+02 -0.47322760496E+01  0.83697203515E+03  0.84150343076E+03  0.00000000000E+00 0.  1.
          5    1    4    4  501    0  0.11655292165E+03 -0.11589585809E+01  0.85534351017E+01  0.11694682716E+03  0.41800000000E+01 0.  1.
         -5    1    4    4    0  501  0.25120924270E+02 -0.22079866727E+02  0.92881648482E+02  0.98808169580E+02  0.41800000000E+01 0.  1.
</event>
<event>
11    1  0.7577197E-009  0.1543735E+03  0.7561462E-02  0.1092492E+00
         22   -1    0    0    0    0  0.00000000000E+00  0.00000000000E+00  0.18855829028E+03  0.18855829028E+03  0.00000000000E+00 0.  1.
         22   -1    0    0    0    0 -0.00000000000E+00 -0.00000000000E+00 -0.26002253306E+03  0.26002253306E+03  0.00000000000E+00 0. -1.
        -24    2    1    2    0    0 -0.92190135262E+02  0.18089230044E+02 -0.92532685017E+02  0.15436054367E+03  0.80241126377E+02 0.  0.
         25    2    1    2    0    0 -0.14023965990E+02 -0.64880674395E+02 -0.30231677782E+02  0.14480358289E+03  0.12509176529E+03 0.  0.
         24    2    1    2    0    0  0.10621410125E+03  0.46791444352E+02  0.51300120019E+02  0.14941669679E+03  0.78884551053E+02 0.  0.
        -13    1    5    5    0    0  0.89919155777E+02  0.33384540225E+02  0.71941616084E+02  0.11989819943E+03  0.00000000000E+00 0.  1.
         14    1    5    5    0    0  0.16294945476E+02  0.13406904127E+02 -0.20641496066E+02  0.29518497356E+02  0.00000000000E+00 0. -1.
         11    1    3    3    0    0 -0.35769766994E+02 -0.14366805617E+02 -0.78966027756E+02  0.87872150730E+02  0.00000000000E+00 0. -1.
        -12    1    3    3    0    0 -0.56420368269E+02  0.32456035661E+02 -0.13566657261E+02  0.66488392939E+02  0.00000000000E+00 0.  1.
          5    1    4    4  501    0 -0.60741865088E+02 -0.47517495813E+02  0.13453849505E+02  0.78396205579E+02  0.41800000000E+01 0. -1.
         -5    1    4    4    0  501  0.46717899098E+02 -0.17363178582E+02 -0.43685527287E+02  0.66407377308E+02  0.41800000000E+01 0. -1.
</event>
<event>
11    1  0.7577197E-009  0.1491430E+03  0.7561462E-02  0.1097758E+00
         22   -1    0    0    0    0  0.00000000000E+00  0.00000000000E+00  0.26701342131E+04  0.26701342131E+04  0.00000000000E+00 0.  1.
         22   -1    0    0    0    0 -0.00000000000E+00 -0.00000000000E+00 -0.71473415978E+03  0.71473415978E+03  0.00000000000E+00 0. -1.
        -24    2    1    2    0    0  0.13885434218E+02 -0.23647326314E+02 -0.61745276112E+03  0.62372707379E+03  0.83878179741E+02 0.  0.
         25    2    1    2    0    0  0.65812015424E+02  0.39878819101E+02 -0.34847655356E+02  0.15094187916E+03  0.12509016833E+03 0.  0.
         24    2    1    2    0    0 -0.79697449642E+02 -0.16231492786E+02  0.26077004698E+04  0.26101994199E+04  0.80150650694E+02 0.  0.
        -11    1    5    5    0    0 -0.45847849993E+02 -0.19502962677E+00  0.22639677691E+04  0.22644319647E+04  0.00000000000E+00 0.  1.
         12    1    5    5    0    0 -0.33849599649E+02 -0.16036463160E+02  0.34373270070E+03  0.34576745520E+03  0.00000000000E+00 0. -1.
         11    1    3    3    0    0 -0.83356129304E+01  0.74095845253E+00 -0.53289140714E+03  0.53295711203E+03  0.00000000000E+00 0. -1.
        -12    1    3    3    0    0  0.22221047148E+02 -0.24388284767E+02 -0.84561353979E+02  0.90769961755E+02  0.00000000000E+00 0.  1.
          5    1    4    4  501    0  0.54349310792E+02  0.50076729576E+02 -0.76444938520E+02  0.10640877527E+03  0.41800000000E+01 0.  1.
         -5    1    4    4    0  501  0.11462704632E+02 -0.10197910476E+02  0.41597283164E+02  0.44533103891E+02  0.41800000000E+01 0.  1.
</event>
<event>
11    1  0.7577197E-009  0.3260742E+03  0.7561462E-02  0.9897225E-01
         22   -1    0    0    0    0  0.00000000000E+00  0.00000000000E+00  0.61406564457E+03  0.61406564457E+03  0.00000000000E+00 0. -1.
         22   -1    0    0    0    0 -0.00000000000E+00 -0.00000000000E+00 -0.42136233538E+03  0.42136233538E+03  0.00000000000E+00 0.  1.
        -24    2    1    2    0    0 -0.57540680026E+02 -0.54667076288E+02 -0.65171481653E+02  0.13067782054E+03  0.80808116378E+02 0.  0.
         25    2    1    2    0    0  0.34763410792E+03  0.81243772668E+02 -0.14191526690E+03  0.40402734398E+03  0.12509247827E+03 0.  0.
         24    2    1    2    0    0 -0.29009342790E+03 -0.26576696380E+02  0.39979005775E+03  0.50072281543E+03  0.77657774352E+02 0.  0.
        -11    1    5    5    0    0 -0.20481810910E+03 -0.51140506187E+02  0.30437031731E+03  0.37041476651E+03  0.00000000000E+00 0.  1.
         12    1    5    5    0    0 -0.85275318792E+02  0.24563809808E+02  0.95419740439E+02  0.13030804892E+03  0.00000000000E+00 0. -1.
         11    1    3    3    0    0 -0.32554969907E+02 -0.61036349691E+02 -0.75949893181E+02  0.10273095115E+03  0.00000000000E+00 0. -1.
        -12    1    3    3    0    0 -0.24985710119E+02  0.63692734031E+01  0.10778411528E+02  0.27946869393E+02  0.00000000000E+00 0.  1.
          5    1    4    4  501    0  0.24267951358E+03  0.55125339710E+01 -0.57640338069E+02  0.24952678276E+03  0.41800000000E+01 0.  1.
         -5    1    4    4    0  501  0.10495459434E+03  0.75731238697E+02 -0.84274928834E+02  0.15450056122E+03  0.41800000000E+01 0.  1.
</event>
<event>
11    1  0.7577197E-009  0.1413203E+03  0.7561462E-02  0.1106093E+00
         22   -1    0    0    0    0  0.00000000000E+00  0.00000000000E+00  0.26882202540E+03  0.26882202540E+03  0.00000000000E+00 0. -1.
         22   -1    0    0    0    0 -0.00000000000E+00 -0.00000000000E+00 -0.40220035699E+03  0.40220035699E+03  0.00000000000E+00 0. -1.
        -24    2    1    2    0    0  0.78369825484E+01  0.62302558124E+02 -0.30286618185E+03  0.31967588654E+03  0.80757174794E+02 0.  0.
         25    2    1    2    0    0 -0.26291542016E+02 -0.90031858412E+02 -0.50886989658E+01  0.15641553737E+03  0.12507175845E+03 0.  0.
         24    2    1    2    0    0  0.18454559467E+02  0.27729300288E+02  0.17457654923E+03  0.19493095849E+03  0.80072605655E+02 0.  0.
        -13    1    5    5    0    0  0.42561015958E+02 -0.32475612983E+01  0.58641054541E+02  0.72531096858E+02  0.00000000000E+00 0.  1.
         14    1    5    5    0    0 -0.24106456490E+02  0.30976861586E+02  0.11593549469E+03  0.12239986163E+03  0.00000000000E+00 0. -1.
         13    1    3    3    0    0 -0.47895389233E+00  0.59988211660E+02 -0.30495106414E+03  0.31079569890E+03  0.00000000000E+00 0. -1.
        -14    1    3    3    0    0  0.83159364408E+01  0.23143464643E+01  0.20848822833E+01  0.88801876432E+01  0.00000000000E+00 0.  1.
          5    1    4    4  501    0 -0.61692917586E+02 -0.39534448055E+02 -0.41862067599E+02  0.84491974571E+02  0.41800000000E+01 0. -1.
         -5    1    4    4    0  501  0.35401375570E+02 -0.50497410356E+02  0.36773368633E+02  0.71923562798E+02  0.41800000000E+01 0. -1.
</event>
<event>
11    1  0.7577197E-009  0.2784091E+03  0.7561462E-02  0.1009767E+00
         22   -1    0    0    0    0  0.00000000000E+00  0.00000000000E+00  0.43107042380E+03  0.43107042380E+03  0.00000000000E+00 0. -1.
         22   -1    0    0    0    0 -0.00000000000E+00 -0.00000000000E+00 -0.76118184369E+03  0.76118184369E+03  0.00000000000E+00 0.  1.
         24    2    1    2    0    0  0.46571504683E+01  0.35734320460E+02 -0.47442481376E+03  0.48248503829E+03  0.80089185013E+02 0.  0.
         25    2    1    2    0    0  0.15783859785E+03 -0.21838080168E+03 -0.13731017656E+03  0.32726792148E+03  0.12508801032E+03 0.  0.
        -24    2    1    2    0    0 -0.16249574832E+03  0.18264648122E+03  0.28162357043E+03  0.38249930772E+03  0.85025170757E+02 0.  0.
        -11    1    3    3    0    0  0.19705482843E+02  0.74580690176E+01 -0.40995868193E+03  0.41049975607E+03  0.00000000000E+00 0.  1.
         12    1    3    3    0    0 -0.15048332375E+02  0.28276251443E+02 -0.64466131829E+02  0.71985282217E+02  0.00000000000E+00 0. -1.
         11    1    5    5    0    0 -0.67315219607E+02  0.13587770439E+03  0.14782639522E+03  0.21177047118E+03  0.00000000000E+00 0. -1.
        -12    1    5    5    0    0 -0.95180528714E+02  0.46768776833E+02  0.13379717521E+03  0.17072883654E+03  0.00000000000E+00 0.  1.
          5    1    4    4  501    0  0.67860452522E+02 -0.18663910573E+03 -0.70762520762E+02  0.21086489406E+03  0.41800000000E+01 0.  1.
         -5    1    4    4    0  501  0.89978145331E+02 -0.31741695958E+02 -0.66547655801E+02  0.11640302742E+03  0.41800000000E+01 0.  1.
</event>
<event>
11    1  0.7577197E-009  0.1978027E+03  0.7561462E-02  0.1056088E+00
         22   -1    0    0    0    0  0.00000000000E+00  0.00000000000E+00  0.30643772048E+03  0.30643772048E+03  0.00000000000E+00 0. -1.
         22   -1    0    0    0    0 -0.00000000000E+00 -0.00000000000E+00 -0.34687836583E+04  0.34687836583E+04  0.00000000000E+00 0. -1.
         24    2    1    2    0    0  0.11505945157E+03  0.82538176506E+02 -0.25278724738E+04  0.25331568348E+04  0.81811233042E+02 0.  0.
         25    2    1    2    0    0 -0.23858688392E+03 -0.96279434945E+02 -0.89596180057E+03  0.94052547306E+03  0.12508871498E+03 0.  0.
        -24    2    1    2    0    0  0.12352743235E+03  0.13741258439E+02  0.26148833649E+03  0.30153907099E+03  0.84272252193E+02 0.  0.
        -13    1    3    3    0    0  0.61261004751E+01 -0.56615401660E+01 -0.24842799023E+02  0.26205854449E+02  0.00000000000E+00 0.  1.
         14    1    3    3    0    0  0.10893335109E+03  0.88199716672E+02 -0.25030296748E+04  0.25069509803E+04  0.00000000000E+00 0. -1.
         11    1    5    5    0    0  0.11234595805E+03 -0.20429620344E+02  0.19658314112E+03  0.22734096650E+03  0.00000000000E+00 0. -1.
        -12    1    5    5    0    0  0.11181474300E+02  0.34170878782E+02  0.64905195367E+02  0.74198104490E+02  0.00000000000E+00 0.  1.
          5    1    4    4  501    0 -0.24598539115E+03 -0.10397152406E+03 -0.88585657265E+03  0.92524495685E+03  0.41800000000E+01 0. -1.
         -5    1    4    4    0  501  0.73985072309E+01  0.76920891128E+01 -0.10105227925E+02  0.15280516208E+02  0.41800000000E+01 0. -1.
</event>
<event>
11    1  0.7577197E-009  0.1618592E+03  0.7561462E-02  0.1085342E+00
         22   -1    0    0    0    0  0.00000000000E+00  0.00000000000E+00  0.24033496487E+04  0.24033496487E+04  0.00000000000E+00 0.  1.
         22   -1    0    0    0    0 -0.00000000000E+00 -0.00000000000E+00 -0.11076045366E+03  0.11076045366E+03  0.00000000000E+00 0. -1.
         24    2    1    2    0    0  0.13130647244E+02 -0.62228359811E+02 -0.74193823195E+02  0.12858143367E+03  0.83568409245E+02 0.  0.
         25    2    1    2    0    0 -0.11029363540E+03  0.32977424583E+02  0.13218075453E+04  0.13326946897E+04  0.12509097744E+03 0.  0.
        -24    2    1    2    0    0  0.97162988155E+02  0.29250935229E+02  0.10449754730E+04  0.10528339790E+04  0.78672643180E+02 0.  0.
        -13    1    3    3    0    0  0.48755184004E+02 -0.33465756518E+02 -0.39104605449E+02  0.70895662730E+02  0.00000000000E+00 0.  1.
         14    1    3    3    0    0 -0.35624536759E+02 -0.28762603294E+02 -0.35089217746E+02  0.57685770945E+02  0.00000000000E+00 0. -1.
         11    1    5    5    0    0 -0.27697257418E+01  0.19437746481E+02  0.70003162855E+02  0.72704471517E+02  0.00000000000E+00 0. -1.
        -12    1    5    5    0    0  0.99932713897E+02  0.98131887477E+01  0.97497231011E+03  0.98012950749E+03  0.00000000000E+00 0.  1.
          5    1    4    4  501    0  0.34525503478E+01  0.25631752555E+02  0.70142591905E+03  0.70191502274E+03  0.41800000000E+01 0.  1.
         -5    1    4    4    0  501 -0.11374618575E+03  0.73456720275E+01  0.62038162626E+03  0.63077966697E+03  0.41800000000E+01 0.  1.
</event>
<event>
11    1  0.7577197E-009  0.1688931E+03  0.7561462E-02  0.1078999E+00
         22   -1    0    0    0    0  0.00000000000E+00  0.00000000000E+00  0.72267152956E+02  0.72267152956E+02  0.00000000000E+00 0.  1.
         22   -1    0    0    0    0 -0.00000000000E+00 -0.00000000000E+00 -0.25785255739E+04  0.25785255739E+04  0.00000000000E+00 0. -1.
         24    2    1    2    0    0 -0.55928121171E+02  0.18967407023E+02 -0.20431164971E+04  0.20455528899E+04  0.80460470482E+02 0.  0.
         25    2    1    2    0    0 -0.54274542241E+02 -0.67848165406E+02 -0.43164473950E+03  0.45772699858E+03  0.12509086540E+03 0.  0.
        -24    2    1    2    0    0  0.11020266341E+03  0.48880758384E+02 -0.31497184353E+02  0.14751283840E+03  0.78955742721E+02 0.  0.
        -13    1    3    3    0    0  0.86289236064E+00 -0.12544814475E+02 -0.56816209449E+02  0.58191052659E+02  0.00000000000E+00 0.  1.
         14    1    3    3    0    0 -0.56791013532E+02  0.31512221498E+02 -0.19863002876E+04  0.19873618372E+04  0.00000000000E+00 0. -1.
         11    1    5    5    0    0  0.77984685185E+01 -0.10422586261E+00 -0.33077645417E+02  0.33984667140E+02  0.00000000000E+00 0. -1.
        -12    1    5    5    0    0  0.10240419489E+03  0.48984984246E+02  0.15804610640E+01  0.11352817126E+03  0.00000000000E+00 0.  1.
          5    1    4    4  501    0 -0.44757612905E+02 -0.40152072322E+02 -0.42247949519E+03  0.42675734215E+03  0.41800000000E+01 0.  1.
         -5    1    4    4    0  501 -0.95169293355E+01 -0.27696093084E+02 -0.91652443113E+01  0.30969656430E+02  0.41800000000E+01 0.  1.
</event>
<event>
11    1  0.7577197E-009  0.1545757E+03  0.7561462E-02  0.1092293E+00
         22   -1    0    0    0    0  0.00000000000E+00  0.00000000000E+00  0.19239132715E+03  0.19239132715E+03  0.00000000000E+00 0. -1.
         22   -1    0    0    0    0 -0.00000000000E+00 -0.00000000000E+00 -0.23843510435E+04  0.23843510435E+04  0.00000000000E+00 0.  1.
         24    2    1    2    0    0  0.10730954339E+03  0.74831432668E+02 -0.21557795216E+04  0.21613325132E+04  0.82811867932E+02 0.  0.
         25    2    1    2    0    0 -0.25445182464E+02  0.36426963217E+01 -0.17820310078E+03  0.21923725007E+03  0.12509156704E+03 0.  0.
        -24    2    1    2    0    0 -0.81864360921E+02 -0.78474128990E+02  0.14202290600E+03  0.19617260740E+03  0.73845944736E+02 0.  0.
        -13    1    3    3    0    0  0.92768741469E+02  0.19821990256E+02 -0.11293399476E+04  0.11333171083E+04  0.00000000000E+00 0.  1.
         14    1    3    3    0    0  0.14540801917E+02  0.55009442412E+02 -0.10264395740E+04  0.10280154049E+04  0.00000000000E+00 0. -1.
         13    1    5    5    0    0 -0.71557490852E+02 -0.84117576515E+02  0.14661680699E+03  0.18355579334E+03  0.00000000000E+00 0. -1.
        -14    1    5    5    0    0 -0.10306870070E+02  0.56434475255E+01 -0.45939009922E+01  0.12616814056E+02  0.00000000000E+00 0.  1.
          5    1    4    4  501    0  0.30853078069E+02 -0.34696704093E+02 -0.28309279839E+02  0.54540456784E+02  0.41800000000E+01 0. -1.
         -5    1    4    4    0  501 -0.56298260533E+02  0.38339400415E+02 -0.14989382094E+03  0.16469679329E+03  0.41800000000E+01 0. -1.
</event>
<event>
11    1  0.7577197E-009  0.2030046E+03  0.7561462E-02  0.1052419E+00
         22   -1    0    0    0    0  0.00000000000E+00  0.00000000000E+00  0.28109986334E+03  0.28109986334E+03  0.00000000000E+00 0.  1.
         22   -1    0    0    0    0 -0.00000000000E+00 -0.00000000000E+00 -0.52139439074E+03  0.52139439074E+03  0.00000000000E+00 0. -1.
        -24    2    1    2    0    0  0.11105818825E+03  0.31592664501E+01 -0.24661914132E+03  0.28180195497E+03  0.79040741500E+02 0.  0.
         25    2    1    2    0    0 -0.13903243010E+03  0.15076722008E+03 -0.15172360479E+03  0.28412696219E+03  0.12508919668E+03 0.  0.
         24    2    1    2    0    0  0.27974241848E+02 -0.15392648653E+03  0.15804821872E+03  0.23656533692E+03  0.80672162041E+02 0.  0.
        -13    1    5    5    0    0  0.10321249395E+02 -0.12099727903E+03  0.15790747676E+03  0.19920251238E+03  0.00000000000E+00 0.  1.
         14    1    5    5    0    0  0.17652992453E+02 -0.32929207499E+02  0.14074195832E+00  0.37362824537E+02  0.00000000000E+00 0. -1.
         13    1    3    3    0    0  0.12248799517E+03 -0.36157407904E+01 -0.22910507164E+03  0.25981823722E+03  0.00000000000E+00 0. -1.
        -14    1    3    3    0    0 -0.11429806916E+02  0.67750072405E+01 -0.17514069679E+02  0.21983717746E+02  0.00000000000E+00 0.  1.
          5    1    4    4  501    0 -0.10443561389E+03  0.10605997553E+03 -0.32932116695E+02  0.15250413951E+03  0.41800000000E+01 0. -1.
         -5    1    4    4    0  501 -0.34596816208E+02  0.44707244547E+02 -0.11879148810E+03  0.13162282268E+03  0.41800000000E+01 0. -1.
</event>
<event>
11    1  0.7577197E-009  0.1385123E+03  0.7561462E-02  0.1109231E+00
         22   -1    0    0    0    0  0.00000000000E+00  0.00000000000E+00  0.13786227698E+04  0.13786227698E+04  0.00000000000E+00 0.  1.
         22   -1    0    0    0    0 -0.00000000000E+00 -0.00000000000E+00 -0.12443861426E+04  0.12443861426E+04  0.00000000000E+00 0. -1.
        -24    2    1    2    0    0  0.39147864880E+02  0.14258842005E+02 -0.12297424645E+04  0.12330749537E+04  0.80445276050E+02 0.  0.
         25    2    1    2    0    0  0.20366715887E+02  0.18814006879E+02  0.38926937272E+03  0.40980829963E+03  0.12507369003E+03 0.  0.
         24    2    1    2    0    0 -0.59514580767E+02 -0.33072848885E+02  0.97470971901E+03  0.98012565914E+03  0.77145788692E+02 0.  0.
        -13    1    5    5    0    0 -0.65318825915E+02  0.12163338709E+01  0.51996466767E+03  0.52405274936E+03  0.00000000000E+00 0.  1.
         14    1    5    5    0    0  0.58042451473E+01 -0.34289182755E+02  0.45474505134E+03  0.45607290978E+03  0.00000000000E+00 0. -1.
         11    1    3    3    0    0  0.40185654359E+02  0.43532577874E+02 -0.93683938618E+03  0.93871082216E+03  0.00000000000E+00 0. -1.
        -12    1    3    3    0    0 -0.10377894784E+01 -0.29273735869E+02 -0.29290307833E+03  0.29436413150E+03  0.00000000000E+00 0.  1.
          5    1    4    4  501    0  0.68902454793E+02 -0.12270424814E+02  0.20162415214E+03  0.21346635034E+03  0.41800000000E+01 0.  1.
         -5    1    4    4    0  501 -0.48535738906E+02  0.31084431694E+02  0.18764522057E+03  0.19634194928E+03  0.41800000000E+01 0.  1.
</event>
<event>
11    1  0.7577197E-009  0.1791308E+03  0.7561462E-02  0.1070348E+00
         22   -1    0    0    0    0  0.00000000000E+00  0.00000000000E+00  0.18570810173E+03  0.18570810173E+03  0.00000000000E+00 0. -1.
         22   -1    0    0    0    0 -0.00000000000E+00 -0.00000000000E+00 -0.11714005538E+04  0.11714005538E+04  0.00000000000E+00 0.  1.
         24    2    1    2    0    0  0.11802821728E+03 -0.43785382207E+02 -0.58126479228E+03  0.60012436542E+03  0.80203961622E+02 0.  0.
         25    2    1    2    0    0 -0.13596256762E+03  0.49288621433E+01 -0.55384626273E+03  0.58386868125E+03  0.12508733238E+03 0.  0.
        -24    2    1    2    0    0  0.17934350346E+02  0.38856520063E+02  0.14941860298E+03  0.17311560882E+03  0.76234014889E+02 0.  0.
        -13    1    3    3    0    0  0.49503359789E+02  0.18140340121E+02 -0.28362849606E+03  0.28848705057E+03  0.00000000000E+00 0.  1.
         14    1    3    3    0    0  0.68524857489E+02 -0.61925722328E+02 -0.29763629622E+03  0.31163731485E+03  0.00000000000E+00 0. -1.
         13    1    5    5    0    0  0.71143039993E+01  0.91421870523E+01  0.13949058215E+03  0.13997076628E+03  0.00000000000E+00 0. -1.
        -14    1    5    5    0    0  0.10820046346E+02  0.29714333011E+02  0.99280208358E+01  0.33144842539E+02  0.00000000000E+00 0.  1.
          5    1    4    4  501    0 -0.54718367700E+02  0.44069799505E+02 -0.39446890161E+03  0.40069868196E+03  0.41800000000E+01 0. -1.
         -5    1    4    4    0  501 -0.81244199923E+02 -0.39140937362E+02 -0.15937736113E+03  0.18316999928E+03  0.41800000000E+01 0. -1.
</event>
<event>
11    1  0.7577197E-009  0.1585511E+03  0.7561462E-02  0.1088448E+00
         22   -1    0    0    0    0  0.00000000000E+00  0.00000000000E+00  0.44485286787E+03  0.44485286787E+03  0.00000000000E+00 0.  1.
         22   -1    0    0    0    0 -0.00000000000E+00 -0.00000000000E+00 -0.17975697294E+04  0.17975697294E+04  0.00000000000E+00 0. -1.
         24    2    1    2    0    0  0.54990572293E+02 -0.33361730368E+02 -0.16878062713E+04  0.16908077798E+04  0.77485293222E+02 0.  0.
         25    2    1    2    0    0 -0.11590212372E+01  0.11463021415E+03 -0.23328819148E+02  0.17125911061E+03  0.12507605622E+03 0.  0.
        -24    2    1    2    0    0 -0.53831551056E+02 -0.81268483778E+02  0.35841822890E+03  0.38035570689E+03  0.81880611958E+02 0.  0.
        -13    1    3    3    0    0  0.13545202557E+02  0.12072669132E+02 -0.89598618982E+02  0.91417363645E+02  0.00000000000E+00 0.  1.
         14    1    3    3    0    0  0.41445369736E+02 -0.45434399500E+02 -0.15982076523E+04  0.15993904161E+04  0.00000000000E+00 0. -1.
         13    1    5    5    0    0 -0.20505186774E+02  0.11079854717E+02  0.32653691167E+02  0.40118442293E+02  0.00000000000E+00 0. -1.
        -14    1    5    5    0    0 -0.33326364281E+02 -0.92348338494E+02  0.32576453773E+03  0.34023726460E+03  0.00000000000E+00 0.  1.
          5    1    4    4  501    0  0.35691974685E+02 -0.99771214543E+01  0.65360019138E+01  0.37863593734E+02  0.41800000000E+01 0.  1.
         -5    1    4    4    0  501 -0.36850995922E+02  0.12460733560E+03 -0.29864821062E+02  0.13339551688E+03  0.41800000000E+01 0.  1.
</event>
<event>
11    1  0.7577197E-009  0.1646140E+03  0.7561462E-02  0.1082816E+00
         22   -1    0    0    0    0  0.00000000000E+00  0.00000000000E+00  0.11677485692E+03  0.11677485692E+03  0.00000000000E+00 0.  1.
         22   -1    0    0    0    0 -0.00000000000E+00 -0.00000000000E+00 -0.53370936605E+03  0.53370936605E+03  0.00000000000E+00 0.  1.
         24    2    1    2    0    0  0.59823453916E+02  0.98035015865E+02 -0.35848093785E+03  0.38516965702E+03  0.81592719731E+02 0.  0.
         25    2    1    2    0    0 -0.39310712595E+02 -0.72076915643E+02 -0.89195844299E+02  0.17419678242E+03  0.12509279145E+03 0.  0.
        -24    2    1    2    0    0 -0.20512741321E+02 -0.25958100223E+02  0.30742273016E+02  0.91117783527E+02  0.79137649706E+02 0.  0.
        -13    1    3    3    0    0  0.38315954042E+01  0.81058800394E+02 -0.23277335351E+03  0.24651296994E+03  0.00000000000E+00 0.  1.
         14    1    3    3    0    0  0.55991858512E+02  0.16976215471E+02 -0.12570758435E+03  0.13865668709E+03  0.00000000000E+00 0. -1.
         13    1    5    5    0    0 -0.38941000985E+02 -0.44792547874E+02  0.23001004949E+02  0.63653909003E+02  0.00000000000E+00 0. -1.
        -14    1    5    5    0    0  0.18428259664E+02  0.18834447651E+02  0.77412680672E+01  0.27463874524E+02  0.00000000000E+00 0.  1.
          5    1    4    4  501    0 -0.60371343822E+02  0.37921109871E+01 -0.70827539940E+02  0.93236752810E+02  0.41800000000E+01 0. -1.
         -5    1    4    4    0  501  0.21060631227E+02 -0.75869026630E+02 -0.18368304359E+02  0.80960029610E+02  0.41800000000E+01 0. -1.
</event>
<event>
11    1  0.7577197E-009  0.2369452E+03  0.7561462E-02  0.1031093E+00
         22   -1    0    0    0    0  0.00000000000E+00  0.00000000000E+00  0.38802140908E+04  0.38802140908E+04  0.00000000000E+00 0. -1.
         22   -1    0    0    0    0 -0.00000000000E+00 -0.00000000000E+00 -0.12845825867E+03  0.12845825867E+03  0.00000000000E+00 0. -1.
        -24    2    1    2    0    0  0.14399068108E+03  0.16677809310E+03  0.17588585366E+02  0.24059505400E+03  0.95017751505E+02 0.  0.
         25    2    1    2    0    0 -0.12312420663E+03 -0.68476905134E+01  0.52009181605E+03  0.54895266619E+03  0.12508825473E+03 0.  0.
         24    2    1    2    0    0 -0.20866474442E+02 -0.15993040259E+03  0.32140754307E+04  0.32191246292E+04  0.80432338530E+02 0.  0.
        -13    1    5    5    0    0 -0.35747750357E+02 -0.11390575363E+03  0.16555959012E+04  0.16598946383E+04  0.00000000000E+00 0.  1.
         14    1    5    5    0    0  0.14881275915E+02 -0.46024648953E+02  0.15584795295E+04  0.15592299909E+04  0.00000000000E+00 0. -1.
         13    1    3    3    0    0  0.13169407215E+03  0.16730879283E+03  0.38457783768E+02  0.21636673018E+03  0.00000000000E+00 0. -1.
        -14    1    3    3    0    0  0.12296608930E+02 -0.53069972925E+00 -0.20869198402E+02  0.24228323824E+02  0.00000000000E+00 0.  1.
          5    1    4    4  501    0 -0.96550795978E+02  0.46031351639E+02  0.24223238468E+03  0.26483002497E+03  0.41800000000E+01 0. -1.
         -5    1    4    4    0  501 -0.26573410656E+02 -0.52879042152E+02  0.27785943137E+03  0.28412264122E+03  0.41800000000E+01 0. -1.
</event>
<event>
11    1  0.7577197E-009  0.4111865E+03  0.7561462E-02  0.9617316E-01
         22   -1    0    0    0    0  0.00000000000E+00  0.00000000000E+00  0.13911412127E+04  0.13911412127E+04  0.00000000000E+00 0.  1.
         22   -1    0    0    0    0 -0.00000000000E+00 -0.00000000000E+00 -0.22261305814E+03  0.22261305814E+03  0.00000000000E+00 0.  1.
        -24    2    1    2    0    0  0.22904102782E+03 -0.27857280298E+03  0.24615815943E+03  0.44417609841E+03  0.81461450770E+02 0.  0.
         25    2    1    2    0    0 -0.20528562741E+03  0.38447401116E+03  0.32569748625E+03  0.55828973113E+03  0.12508444052E+03 0.  0.
         24    2    1    2    0    0 -0.23755400419E+02 -0.10590120818E+03  0.59667250892E+03  0.61128844132E+03  0.76655662914E+02 0.  0.
        -13    1    5    5    0    0  0.27704602243E+02 -0.47065359745E+02  0.25685234397E+03  0.26259440145E+03  0.00000000000E+00 0.  1.
         14    1    5    5    0    0 -0.51460002662E+02 -0.58835848434E+02  0.33982016495E+03  0.34869403987E+03  0.00000000000E+00 0. -1.
         13    1    3    3    0    0  0.73001449168E+02 -0.75876822669E+02  0.11773009159E+03  0.15794580800E+03  0.00000000000E+00 0. -1.
        -14    1    3    3    0    0  0.15603957866E+03 -0.20269598031E+03  0.12842806784E+03  0.28623029041E+03  0.00000000000E+00 0.  1.
          5    1    4    4  501    0 -0.10870998684E+03  0.31659507790E+03  0.22840344372E+03  0.40526029918E+03  0.41800000000E+01 0. -1.
         -5    1    4    4    0  501 -0.96575640565E+02  0.67878933260E+02  0.97294042528E+02  0.15302943195E+03  0.41800000000E+01 0. -1.
</event>
<event>
11    1  0.7577197E-009  0.2144625E+03  0.7561462E-02  0.1044743E+00
         22   -1    0    0    0    0  0.00000000000E+00  0.00000000000E+00  0.42341572112E+03  0.42341572112E+03  0.00000000000E+00 0. -1.
         22   -1    0    0    0    0 -0.00000000000E+00 -0.00000000000E+00 -0.63063602530E+03  0.63063602530E+03  0.00000000000E+00 0.  1.
        -24    2    1    2    0    0  0.14192126189E+03  0.10024527201E+03 -0.51597068436E+03  0.54992742383E+03  0.77483322239E+02 0.  0.
         25    2    1    2    0    0 -0.17910324761E+03 -0.53035939229E+02  0.55559428596E+02  0.23157179330E+03  0.12509141134E+03 0.  0.
         24    2    1    2    0    0  0.37181985721E+02 -0.47209332783E+02  0.25319095158E+03  0.27255252929E+03  0.81043211299E+02 0.  0.
        -11    1    5    5    0    0  0.47200970717E+02  0.44422697003E+01  0.10230473145E+03  0.11275603520E+03  0.00000000000E+00 0.  1.
         12    1    5    5    0    0 -0.10018984995E+02 -0.51651602484E+02  0.15088622013E+03  0.15979649409E+03  0.00000000000E+00 0. -1.
         13    1    3    3    0    0  0.78635137884E+02  0.84576736542E+02 -0.40578249216E+03  0.42189588789E+03  0.00000000000E+00 0. -1.
        -14    1    3    3    0    0  0.63286124004E+02  0.15668535470E+02 -0.11018819220E+03  0.12803153594E+03  0.00000000000E+00 0.  1.
          5    1    4    4  501    0 -0.35161676228E+02  0.36313345594E+02 -0.64194964063E+01  0.51124210288E+02  0.41800000000E+01 0. -1.
         -5    1    4    4    0  501 -0.14394157138E+03 -0.89349284823E+02  0.61978925002E+02  0.18044758301E+03  0.41800000000E+01 0. -1.
</event>
<event>
11    1  0.7577197E-009  0.1600976E+03  0.7561462E-02  0.1086986E+00
         22   -1    0    0    0    0  0.00000000000E+00  0.00000000000E+00  0.98466249045E+03  0.98466249045E+03  0.00000000000E+00 0. -1.
         22   -1    0    0    0    0 -0.00000000000E+00 -0.00000000000E+00 -0.70079368366E+03  0.70079368366E+03  0.00000000000E+00 0.  1.
        -24    2    1    2    0    0 -0.67885047880E+02 -0.72939014272E+02 -0.64286120880E+03  0.65566730217E+03  0.81857179464E+02 0.  0.
         25    2    1    2    0    0  0.49252978079E+02  0.97950996021E+02  0.91001784079E+02  0.18961446988E+03  0.12510822918E+03 0.  0.
         24    2    1    2    0    0  0.18632069801E+02 -0.25011981749E+02  0.83572823151E+03  0.84017440206E+03  0.80489724073E+02 0.  0.
        -11    1    5    5    0    0 -0.24457491684E+02  0.79060936238E+01  0.14027987651E+03  0.14261528309E+03  0.00000000000E+00 0.  1.
         12    1    5    5    0    0  0.43089561486E+02 -0.32918075373E+02  0.69544835499E+03  0.69755911897E+03  0.00000000000E+00 0. -1.
         11    1    3    3    0    0 -0.30616468957E+02 -0.26614335858E+02 -0.80225842922E+02  0.89899259825E+02  0.00000000000E+00 0. -1.
        -12    1    3    3    0    0 -0.37268578923E+02 -0.46324678414E+02 -0.56263536588E+03  0.56576804235E+03  0.00000000000E+00 0.  1.
          5    1    4    4  501    0  0.29393080997E+02  0.11196517626E+03  0.10902098573E+03  0.15906980114E+03  0.41800000000E+01 0.  1.
         -5    1    4    4    0  501  0.19859897082E+02 -0.14014180242E+02 -0.18019201650E+02  0.30544668734E+02  0.41800000000E+01 0.  1.
</event>
<event>
11    1  0.7577197E-009  0.1809544E+03  0.7561462E-02  0.1068873E+00
         22   -1    0    0    0    0  0.00000000000E+00  0.00000000000E+00  0.14488144578E+04  0.14488144578E+04  0.00000000000E+00 0. -1.
         22   -1    0    0    0    0 -0.00000000000E+00 -0.00000000000E+00 -0.11764298828E+03  0.11764298828E+03  0.00000000000E+00 0. -1.
         24    2    1    2    0    0  0.10103287977E+02  0.35203093919E+02 -0.52250235804E+02  0.12645466372E+03  0.10917582418E+03 0.  0.
         25    2    1    2    0    0  0.96823724143E+02 -0.10589874050E+03  0.38543496314E+03  0.42988003410E+03  0.12508939248E+03 0.  0.
        -24    2    1    2    0    0 -0.10692701212E+03  0.70695646584E+02  0.99798674220E+03  0.10101227483E+04  0.89102012382E+02 0.  0.
        -13    1    3    3    0    0 -0.26322647021E+02  0.26870386740E+02  0.21824992928E+02  0.43488271362E+02  0.00000000000E+00 0.  1.
         14    1    3    3    0    0  0.36425934998E+02  0.83327071791E+01 -0.74075228732E+02  0.82966392359E+02  0.00000000000E+00 0. -1.
         11    1    5    5    0    0 -0.89678428955E+02  0.35893763936E+02  0.89250312097E+03  0.89771510172E+03  0.00000000000E+00 0. -1.
        -12    1    5    5    0    0 -0.17248583165E+02  0.34801882648E+02  0.10548362122E+03  0.11240764655E+03  0.00000000000E+00 0.  1.
          5    1    4    4  501    0  0.14871345586E+02  0.28020420546E+02  0.48046926562E+02  0.57725907867E+02  0.41800000000E+01 0.  1.
         -5    1    4    4    0  501  0.81952378557E+02 -0.13391916105E+03  0.33738803658E+03  0.37215412623E+03  0.41800000000E+01 0.  1.
</event>
<event>
11    1  0.7577197E-009  0.3062546E+03  0.7561462E-02  0.9975784E-01
         22   -1    0    0    0    0  0.00000000000E+00  0.00000000000E+00  0.91956127360E+03  0.91956127360E+03  0.00000000000E+00 0. -1.
         22   -1    0    0    0    0 -0.00000000000E+00 -0.00000000000E+00 -0.56109109749E+03  0.56109109749E+03  0.00000000000E+00 0.  1.
        -24    2    1    2    0    0 -0.16075273763E+02  0.44844413476E+02 -0.35283468330E+03  0.36430320351E+03  0.77169129201E+02 0.  0.
         25    2    1    2    0    0 -0.16930706181E+03  0.17232089788E+03 -0.69694211911E+02  0.28082758617E+03  0.12508987552E+03 0.  0.
         24    2    1    2    0    0  0.18538233558E+03 -0.21716531135E+03  0.78099907131E+03  0.83552158141E+03  0.81298098411E+02 0.  0.
        -11    1    5    5    0    0  0.13470639116E+03 -0.14333128082E+03  0.42306609203E+03  0.46655609106E+03  0.00000000000E+00 0.  1.
         12    1    5    5    0    0  0.50675944418E+02 -0.73834030531E+02  0.35793297928E+03  0.36896549034E+03  0.00000000000E+00 0. -1.
         11    1    3    3    0    0 -0.21155798179E+02  0.57944431868E+02 -0.16854261744E+03  0.17947629056E+03  0.00000000000E+00 0. -1.
        -12    1    3    3    0    0  0.50805244156E+01 -0.13100018392E+02 -0.18429206586E+03  0.18482691295E+03  0.00000000000E+00 0.  1.
          5    1    4    4  501    0 -0.11153720275E+03  0.18156937262E+03 -0.49614114128E+02  0.21883102475E+03  0.41800000000E+01 0. -1.
         -5    1    4    4    0  501 -0.57769859062E+02 -0.92484747481E+01 -0.20080097783E+02  0.61996561422E+02  0.41800000000E+01 0. -1.
</event>
<event>
11    1  0.7577197E-009  0.2343949E+03  0.7561462E-02  0.1032557E+00
         22   -1    0    0    0    0  0.00000000000E+00  0.00000000000E+00  0.10401415961E+04  0.10401415961E+04  0.00000000000E+00 0.  1.
         22   -1    0    0    0    0 -0.00000000000E+00 -0.00000000000E+00 -0.46851018220E+03  0.46851018220E+03  0.00000000000E+00 0.  1.
         24    2    1    2    0    0  0.16740847089E+03  0.78111748465E+02 -0.32062125903E+03  0.37876859645E+03  0.80874078304E+02 0.  0.
         25    2    1    2    0    0 -0.31543451795E+03 -0.17451260196E+03  0.24355851944E+03  0.45268299219E+03  0.12509019015E+03 0.  0.
        -24    2    1    2    0    0  0.14802604706E+03  0.96400853495E+02  0.64869415353E+03  0.67720018970E+03  0.81185940577E+02 0.  0.
        -11    1    3    3    0    0  0.17570646683E+03  0.79067885055E+02 -0.31245747303E+03  0.36708877044E+03  0.00000000000E+00 0.  1.
         12    1    3    3    0    0 -0.82979959375E+01 -0.95613659034E+00 -0.81637860005E+01  0.11679826010E+02  0.00000000000E+00 0. -1.
         11    1    5    5    0    0  0.17889906710E+02  0.12816395700E+02  0.19922466563E+02  0.29685239342E+02  0.00000000000E+00 0. -1.
        -12    1    5    5    0    0  0.13013614035E+03  0.83584457795E+02  0.62877168697E+03  0.64751495036E+03  0.00000000000E+00 0.  1.
          5    1    4    4  501    0 -0.25291865964E+03 -0.74818240141E+02  0.17151228572E+03  0.31464194572E+03  0.41800000000E+01 0.  1.
         -5    1    4    4    0  501 -0.62515858308E+02 -0.99694361819E+02  0.72046233719E+02  0.13804104647E+03  0.41800000000E+01 0.  1.
</event>
<event>
11    1  0.7577197E-009  0.5910469E+03  0.7561462E-02  0.9210328E-01
         22   -1    0    0    0    0  0.00000000000E+00  0.00000000000E+00  0.14511619965E+04  0.14511619965E+04  0.00000000000E+00 0.  1.
         22   -1    0    0    0    0 -0.00000000000E+00 -0.00000000000E+00 -0.34233131466E+03  0.34233131466E+03  0.00000000000E+00 0.  1.
        -24    2    1    2    0    0  0.13752133695E+01 -0.73980807478E+02 -0.26069851850E+02  0.11352552556E+03  0.82057033159E+02 0.  0.
         25    2    1    2    0    0  0.22643185984E+03  0.57980903813E+03  0.38129994615E+03  0.74059942484E+03  0.12509177145E+03 0.  0.
         24    2    1    2    0    0 -0.22780707321E+03 -0.50582823065E+03  0.75360058750E+03  0.93936836072E+03  0.82102436714E+02 0.  0.
        -11    1    5    5    0    0 -0.16634362256E+03 -0.27055944004E+03  0.43184765139E+03  0.53606436682E+03  0.00000000000E+00 0.  1.
         12    1    5    5    0    0 -0.61463450649E+02 -0.23526879062E+03  0.32175293611E+03  0.40330399390E+03  0.00000000000E+00 0. -1.
         11    1    3    3    0    0 -0.10423861967E+02  0.15874573238E+02  0.77386068402E+00  0.19006783898E+02  0.00000000000E+00 0. -1.
        -12    1    3    3    0    0  0.11799075336E+02 -0.89855380716E+02 -0.26843712534E+02  0.94518741660E+02  0.00000000000E+00 0.  1.
          5    1    4    4  501    0  0.10807585646E+03  0.27047946645E+03  0.10629308067E+03  0.31008905804E+03  0.41800000000E+01 0. -1.
         -5    1    4    4    0  501  0.11835600338E+03  0.30932957168E+03  0.27500686549E+03  0.43051036680E+03  0.41800000000E+01 0. -1.
</event>
<event>
11    1  0.7577197E-009  0.1282394E+03  0.7561462E-02  0.1121451E+00
         22   -1    0    0    0    0  0.00000000000E+00  0.00000000000E+00  0.41840466101E+03  0.41840466101E+03  0.00000000000E+00 0.  1.
         22   -1    0    0    0    0 -0.00000000000E+00 -0.00000000000E+00 -0.98945865522E+02  0.98945865522E+02  0.00000000000E+00 0. -1.
         24    2    1    2    0    0 -0.48152563332E+01 -0.29634739377E+02  0.32563603169E+01  0.84543659544E+02  0.78965954785E+02 0.  0.
         25    2    1    2    0    0 -0.10245452586E+02  0.50643765478E+02  0.36190359925E+02  0.14009320484E+03  0.12508638460E+03 0.  0.
        -24    2    1    2    0    0  0.15060708919E+02 -0.21009026101E+02  0.28001207524E+03  0.29271366214E+03  0.81279281436E+02 0.  0.
        -13    1    3    3    0    0 -0.51937988952E+00 -0.17965182296E+02  0.41020400420E+02  0.44784939220E+02  0.00000000000E+00 0.  1.
         14    1    3    3    0    0 -0.42958764436E+01 -0.11669557081E+02 -0.37764040103E+02  0.39758720324E+02  0.00000000000E+00 0. -1.
         13    1    5    5    0    0 -0.22837502153E+02  0.16235125723E+02  0.14379904886E+03  0.14650357424E+03  0.00000000000E+00 0. -1.
        -14    1    5    5    0    0  0.37898211072E+02 -0.37244151824E+02  0.13621302638E+03  0.14621008790E+03  0.00000000000E+00 0.  1.
          5    1    4    4  501    0  0.96184560181E+01 -0.39585553659E+02  0.48048469078E+00  0.40954047665E+02  0.41800000000E+01 0.  1.
         -5    1    4    4    0  501 -0.19863908604E+02  0.90229319137E+02  0.35709875234E+02  0.99139157179E+02  0.41800000000E+01 0.  1.
</event>
<event>
11    1  0.7577197E-009  0.1547282E+03  0.7561462E-02  0.1092143E+00
         22   -1    0    0    0    0  0.00000000000E+00  0.00000000000E+00  0.10449050655E+03  0.10449050655E+03  0.00000000000E+00 0.  1.
         22   -1    0    0    0    0 -0.00000000000E+00 -0.00000000000E+00 -0.46545786989E+03  0.46545786989E+03  0.00000000000E+00 0.  1.
        -24    2    1    2    0    0  0.65272350380E+02  0.12509647275E+02 -0.23513001479E+03  0.25780644570E+03  0.82225717346E+02 0.  0.
         25    2    1    2    0    0 -0.37523349333E+02  0.83391094967E+02 -0.88964256875E+02  0.17867430721E+03  0.12509113713E+03 0.  0.
         24    2    1    2    0    0 -0.27749001047E+02 -0.95900742242E+02 -0.36873091682E+02  0.13346762353E+03  0.80542052487E+02 0.  0.
        -11    1    5    5    0    0 -0.17685905191E+02 -0.10940426938E+03 -0.27464924630E+02  0.11417708827E+03  0.00000000000E+00 0.  1.
         12    1    5    5    0    0 -0.10063095856E+02  0.13503527137E+02 -0.94081670519E+01  0.19290535260E+02  0.00000000000E+00 0. -1.
         13    1    3    3    0    0 -0.66586767507E+01 -0.46554024310E+00  0.39820186092E+01  0.77724626723E+01  0.00000000000E+00 0. -1.
        -14    1    3    3    0    0  0.71931027130E+02  0.12975187518E+02 -0.23911203340E+03  0.25003398303E+03  0.00000000000E+00 0.  1.
          5    1    4    4  501    0  0.40241361319E+02  0.55412272055E+02 -0.21476233895E+02  0.71892893094E+02  0.41800000000E+01 0.  1.
         -5    1    4    4    0  501 -0.77764710651E+02  0.27978822912E+02 -0.67488022980E+02  0.10678141411E+03  0.41800000000E+01 0.  1.
</event>
<event>
11    1  0.7577197E-009  0.4747546E+03  0.7561462E-02  0.9451772E-01
         22   -1    0    0    0    0  0.00000000000E+00  0.00000000000E+00  0.14814597374E+04  0.14814597374E+04  0.00000000000E+00 0.  1.
         22   -1    0    0    0    0 -0.00000000000E+00 -0.00000000000E+00 -0.28339952149E+03  0.28339952149E+03  0.00000000000E+00 0. -1.
        -24    2    1    2    0    0 -0.38108592382E+03 -0.25890306200E+03  0.75910040116E+02  0.47354239091E+03  0.78884630595E+02 0.  0.
         25    2    1    2    0    0  0.36415524600E+03  0.26698643055E+03  0.58599544711E+03  0.75028434992E+03  0.12508055170E+03 0.  0.
         24    2    1    2    0    0  0.16930677822E+02 -0.80833685455E+01  0.53615472872E+03  0.54103251809E+03  0.70016453805E+02 0.  0.
        -13    1    5    5    0    0 -0.33612284238E+01 -0.91397112307E+00  0.49099027859E+03  0.49100263428E+03  0.00000000000E+00 0.  1.
         14    1    5    5    0    0  0.20291906246E+02 -0.71693974224E+01  0.45164450127E+02  0.50029883808E+02  0.00000000000E+00 0. -1.
         11    1    3    3    0    0 -0.10625607916E+03 -0.35975748630E+02  0.29285294850E+01  0.11221936166E+03  0.00000000000E+00 0. -1.
        -12    1    3    3    0    0 -0.27482984467E+03 -0.22292731337E+03  0.72981510631E+02  0.36132302924E+03  0.00000000000E+00 0.  1.
          5    1    4    4  501    0  0.43620880660E+02  0.68626666163E+02  0.17245789660E+03  0.19071339501E+03  0.41800000000E+01 0. -1.
         -5    1    4    4    0  501  0.32053436534E+03  0.19835976439E+03  0.41353755051E+03  0.55957095490E+03  0.41800000000E+01 0. -1.
</event>
<event>
11    1  0.7577197E-009  0.1556777E+03  0.7561462E-02  0.1091214E+00
         22   -1    0    0    0    0  0.00000000000E+00  0.00000000000E+00  0.86869674203E+03  0.86869674203E+03  0.00000000000E+00 0. -1.
         22   -1    0    0    0    0 -0.00000000000E+00 -0.00000000000E+00 -0.12184488442E+03  0.12184488442E+03  0.00000000000E+00 0.  1.
        -24    2    1    2    0    0  0.24138006652E+02 -0.44853778653E+02 -0.64232499946E+02  0.11769376309E+03  0.84448226719E+02 0.  0.
         25    2    1    2    0    0  0.56631769366E+00  0.12593207821E+03  0.29923940096E+03  0.34792383582E+03  0.12509023705E+03 0.  0.
         24    2    1    2    0    0 -0.24704324346E+02 -0.81078299557E+02  0.51184495659E+03  0.52492402754E+03  0.79849738897E+02 0.  0.
        -13    1    5    5    0    0  0.29392276804E+02 -0.29808750439E+02  0.17656374074E+03  0.18145859606E+03  0.00000000000E+00 0.  1.
         14    1    5    5    0    0 -0.54096601150E+02 -0.51269549118E+02  0.33528121585E+03  0.34346543148E+03  0.00000000000E+00 0. -1.
         13    1    3    3    0    0  0.19654662313E+01  0.43451765380E+01  0.18396052364E+02  0.19004166892E+02  0.00000000000E+00 0. -1.
        -14    1    3    3    0    0  0.22172540421E+02 -0.49198955191E+02 -0.82628552311E+02  0.98689596197E+02  0.00000000000E+00 0.  1.
          5    1    4    4  501    0  0.57124954867E+02  0.36956182508E+02  0.15392248977E+03  0.16834080062E+03  0.41800000000E+01 0. -1.
         -5    1    4    4    0  501 -0.56558637173E+02  0.88975895701E+02  0.14531691119E+03  0.17958303520E+03  0.41800000000E+01 0. -1.
</event>
<event>
11    1  0.7577197E-009  0.1301642E+03  0.7561462E-02  0.1119067E+00
         22   -1    0    0    0    0  0.00000000000E+00  0.00000000000E+00  0.30777599681E+03  0.30777599681E+03  0.00000000000E+00 0.  1.
         22   -1    0    0    0    0 -0.00000000000E+00 -0.00000000000E+00 -0.29047322784E+03  0.29047322784E+03  0.00000000000E+00 0. -1.
         24    2    1    2    0    0 -0.19412187176E+02 -0.29213814719E+02 -0.20522976493E+03  0.22278761561E+03  0.79276637631E+02 0.  0.
         25    2    1    2    0    0  0.98297076218E+01  0.44076063739E+02 -0.53367087084E+01  0.13310038140E+03  0.12509160053E+03 0.  0.
        -24    2    1    2    0    0  0.95824795544E+01 -0.14862249020E+02  0.22786924261E+03  0.24236122765E+03  0.80634127885E+02 0.  0.
        -13    1    3    3    0    0 -0.26764895714E+02 -0.13046703355E+02 -0.18159447332E+02  0.34876089781E+02  0.00000000000E+00 0.  1.
         14    1    3    3    0    0  0.73527085378E+01 -0.16167111364E+02 -0.18707031760E+03  0.18791152583E+03  0.00000000000E+00 0. -1.
         11    1    5    5    0    0  0.52315920254E+01  0.27061934127E+01 -0.56380404856E+01  0.81535598621E+01  0.00000000000E+00 0. -1.
        -12    1    5    5    0    0  0.43508875289E+01 -0.17568442433E+02  0.23350728309E+03  0.23420766779E+03  0.00000000000E+00 0.  1.
          5    1    4    4  501    0 -0.45250718953E+02  0.24739038689E+01  0.30918986945E+02  0.55020031987E+02  0.41800000000E+01 0. -1.
         -5    1    4    4    0  501  0.55080426574E+02  0.41602159870E+02 -0.36255695654E+02  0.78080349415E+02  0.41800000000E+01 0. -1.
</event>
<event>
11    1  0.7577197E-009  0.4588432E+03  0.7561462E-02  0.9490503E-01
         22   -1    0    0    0    0  0.00000000000E+00  0.00000000000E+00  0.23386267015E+04  0.23386267015E+04  0.00000000000E+00 0. -1.
         22   -1    0    0    0    0 -0.00000000000E+00 -0.00000000000E+00 -0.89066876950E+03  0.89066876950E+03  0.00000000000E+00 0.  1.
         24    2    1    2    0    0  0.16605346790E+01 -0.38120440195E+02 -0.78162184589E+03  0.78688959547E+03  0.82502122099E+02 0.  0.
         25    2    1    2    0    0  0.31356040641E+03 -0.28246598353E+03  0.56478537750E+03  0.71605660069E+03  0.12508945774E+03 0.  0.
        -24    2    1    2    0    0 -0.31522094109E+03  0.32058642372E+03  0.16647944004E+04  0.17263492748E+04  0.81249777694E+02 0.  0.
        -11    1    3    3    0    0  0.33264391500E+02 -0.43137073188E+02 -0.60023732099E+03  0.60270404705E+03  0.00000000000E+00 0.  1.
         12    1    3    3    0    0 -0.31603856821E+02  0.50166329926E+01 -0.18138452491E+03  0.18418554842E+03  0.00000000000E+00 0. -1.
         13    1    5    5    0    0 -0.27314445797E+03  0.27821711608E+03  0.15304527745E+04  0.15793347820E+04  0.00000000000E+00 0. -1.
        -14    1    5    5    0    0 -0.42076483119E+02  0.42369307643E+02  0.13434162586E+03  0.14701449283E+03  0.00000000000E+00 0.  1.
          5    1    4    4  501    0  0.11832758107E+03 -0.32369182230E+02  0.16527668451E+03  0.20587140463E+03  0.41800000000E+01 0. -1.
         -5    1    4    4    0  501  0.19523282534E+03 -0.25009680130E+03  0.39950869298E+03  0.51018519606E+03  0.41800000000E+01 0. -1.
</event>
<event>
11    1  0.7577197E-009  0.1671092E+03  0.7561462E-02  0.1080575E+00
         22   -1    0    0    0    0  0.00000000000E+00  0.00000000000E+00  0.12681458086E+04  0.12681458086E+04  0.00000000000E+00 0. -1.
         22   -1    0    0    0    0 -0.00000000000E+00 -0.00000000000E+00 -0.18175948831E+03  0.18175948831E+03  0.00000000000E+00 0. -1.
        -24    2    1    2    0    0  0.32162855770E+02  0.59234003064E+02 -0.60429102068E+02  0.12072750228E+03  0.79877011838E+02 0.  0.
         25    2    1    2    0    0  0.77597667016E+02 -0.79764881411E+02 -0.66879671693E+01  0.16757604849E+03  0.12511262482E+03 0.  0.
         24    2    1    2    0    0 -0.10976052279E+03  0.20530878347E+02  0.11535033895E+04  0.11616017461E+04  0.79244291015E+02 0.  0.
        -13    1    5    5    0    0  0.44435281357E+01  0.21223028576E+02  0.13741181179E+03  0.13911206959E+03  0.00000000000E+00 0.  1.
         14    1    5    5    0    0 -0.11420405092E+03 -0.69215022907E+00  0.10160915777E+04  0.10224896765E+04  0.00000000000E+00 0. -1.
         11    1    3    3    0    0 -0.49445044457E+01  0.20093673363E+02 -0.63419648932E+02  0.66710236876E+02  0.00000000000E+00 0. -1.
        -12    1    3    3    0    0  0.37107360216E+02  0.39140329702E+02  0.29905468642E+01  0.54017265406E+02  0.00000000000E+00 0.  1.
          5    1    4    4  501    0 -0.32800076337E+02 -0.32205913178E+02 -0.10095925688E+02  0.47248978474E+02  0.41800000000E+01 0.  1.
         -5    1    4    4    0  501  0.11039774335E+03 -0.47558968234E+02  0.34079585185E+01  0.12032707001E+03  0.41800000000E+01 0.  1.
</event>
<event>
11    1  0.7577197E-009  0.2086971E+03  0.7561462E-02  0.1048538E+00
         22   -1    0    0    0    0  0.00000000000E+00  0.00000000000E+00  0.11744100335E+04  0.11744100335E+04  0.00000000000E+00 0. -1.
         22   -1    0    0    0    0 -0.00000000000E+00 -0.00000000000E+00 -0.15795687733E+03  0.15795687733E+03  0.00000000000E+00 0. -1.
        -24    2    1    2    0    0 -0.67502383865E+02 -0.14519084124E+03 -0.20207783344E+02  0.18084866868E+03  0.81614546798E+02 0.  0.
         25    2    1    2    0    0  0.46469182587E+02  0.18387586785E+03  0.17924919049E+03  0.28939321828E+03  0.12509373600E+03 0.  0.
         24    2    1    2    0    0  0.21033201278E+02 -0.38685026614E+02  0.85741174905E+03  0.86212502391E+03  0.78522115319E+02 0.  0.
        -13    1    5    5    0    0  0.32211961912E+02  0.29550947366E+01  0.15234401780E+03  0.15574030575E+03  0.00000000000E+00 0.  1.
         14    1    5    5    0    0 -0.11178760634E+02 -0.41640121350E+02  0.70506773125E+03  0.70638471816E+03  0.00000000000E+00 0. -1.
         13    1    3    3    0    0  0.83859869869E+00 -0.94734533349E+02 -0.12273460043E+02  0.95529958014E+02  0.00000000000E+00 0. -1.
        -14    1    3    3    0    0 -0.68340982564E+02 -0.50456307886E+02 -0.79343233009E+01  0.85318710665E+02  0.00000000000E+00 0.  1.
          5    1    4    4  501    0  0.40152916200E+02  0.17404613977E+03  0.91430449798E+02  0.20070205529E+03  0.41800000000E+01 0.  1.
         -5    1    4    4    0  501  0.63162663873E+01  0.98297280830E+01  0.87818740694E+02  0.88691162989E+02  0.41800000000E+01 0.  1.
</event>
<event>
11    1  0.7577197E-009  0.1372972E+03  0.7561462E-02  0.1110615E+00
         22   -1    0    0    0    0  0.00000000000E+00  0.00000000000E+00  0.10605465988E+03  0.10605465988E+03  0.00000000000E+00 0.  1.
         22   -1    0    0    0    0 -0.00000000000E+00 -0.00000000000E+00 -0.69938091811E+03  0.69938091811E+03  0.00000000000E+00 0. -1.
        -24    2    1    2    0    0 -0.17071460647E+02 -0.26270257243E+02 -0.48001826518E+03  0.48757007098E+03  0.79532873804E+02 0.  0.
         25    2    1    2    0    0  0.34552080308E+02  0.75320227161E+02 -0.15292935834E+03  0.21424445353E+03  0.12508522836E+03 0.  0.
         24    2    1    2    0    0 -0.17480619661E+02 -0.49049969918E+02  0.39621365296E+02  0.10362105349E+03  0.80349228535E+02 0.  0.
        -11    1    5    5    0    0 -0.41827652004E+02 -0.14789495563E+02  0.42572159523E+02  0.61487156526E+02  0.00000000000E+00 0.  1.
         12    1    5    5    0    0  0.24347032343E+02 -0.34260474355E+02 -0.29507942273E+01  0.42133896966E+02  0.00000000000E+00 0. -1.
         13    1    3    3    0    0 -0.39092251369E+02 -0.13493565020E+02 -0.12548866461E+03  0.13212753445E+03  0.00000000000E+00 0. -1.
        -14    1    3    3    0    0  0.22020790722E+02 -0.12776692222E+02 -0.35452960057E+03  0.35544253653E+03  0.00000000000E+00 0.  1.
          5    1    4    4  501    0  0.41102290463E+02  0.65058383011E+02 -0.17357490573E+03  0.18991501199E+03  0.41800000000E+01 0.  1.
         -5    1    4    4    0  501 -0.65502101551E+01  0.10261844150E+02  0.20645547391E+02  0.24329441537E+02  0.41800000000E+01 0.  1.
</event>
<event>
11    1  0.7577197E-009  0.1744141E+03  0.7561462E-02  0.1074253E+00
         22   -1    0    0    0    0  0.00000000000E+00  0.00000000000E+00  0.34472393141E+04  0.34472393141E+04  0.00000000000E+00 0.  1.
         22   -1    0    0    0    0 -0.00000000000E+00 -0.00000000000E+00 -0.13471112960E+03  0.13471112960E+03  0.00000000000E+00 0. -1.
         24    2    1    2    0    0 -0.39209677195E+02  0.37257105157E+02 -0.10739282076E+03  0.14406094645E+03  0.79340076071E+02 0.  0.
         25    2    1    2    0    0  0.13826822598E+03  0.25152520830E+02  0.13466216825E+04  0.13597016885E+04  0.12509186404E+03 0.  0.
        -24    2    1    2    0    0 -0.99058548782E+02 -0.62409625986E+02  0.20732993228E+04  0.20781878087E+04  0.81159897506E+02 0.  0.
        -13    1    3    3    0    0 -0.20140816964E+02  0.24478720973E+02  0.24984729861E+01  0.31797840426E+02  0.00000000000E+00 0.  1.
         14    1    3    3    0    0 -0.19068860231E+02  0.12778384183E+02 -0.10989129375E+03  0.11226310603E+03  0.00000000000E+00 0. -1.
         11    1    5    5    0    0 -0.38915398845E+02 -0.17016745954E+02  0.27047701039E+03  0.27379151020E+03  0.00000000000E+00 0. -1.
        -12    1    5    5    0    0 -0.60143149937E+02 -0.45392880033E+02  0.18028223124E+04  0.18043962985E+04  0.00000000000E+00 0.  1.
          5    1    4    4  501    0  0.92538226829E+02 -0.37804429422E+02  0.52923830440E+03  0.53861224786E+03  0.41800000000E+01 0.  1.
         -5    1    4    4    0  501  0.45729999148E+02  0.62956950252E+02  0.81738337807E+03  0.82108944065E+03  0.41800000000E+01 0.  1.
</event>
<event>
11    1  0.7577197E-009  0.1539315E+03  0.7561462E-02  0.1092928E+00
         22   -1    0    0    0    0  0.00000000000E+00  0.00000000000E+00  0.13309873301E+04  0.13309873301E+04  0.00000000000E+00 0.  1.
         22   -1    0    0    0    0 -0.00000000000E+00 -0.00000000000E+00 -0.15321198526E+04  0.15321198526E+04  0.00000000000E+00 0. -1.
        -24    2    1    2    0    0 -0.15353150590E+01 -0.90138848973E+02 -0.14635494111E+04  0.14681008367E+04  0.72220625196E+02 0.  0.
         25    2    1    2    0    0 -0.54056565801E+02  0.72035010386E+02  0.28138921841E+02  0.15668778393E+03  0.12509239659E+03 0.  0.
         24    2    1    2    0    0  0.55591880860E+02  0.18103838587E+02  0.12342779667E+04  0.12383185621E+04  0.81071301802E+02 0.  0.
        -13    1    5    5    0    0  0.51007278789E+02  0.12743663350E+02  0.12272017149E+04  0.12283273963E+04  0.00000000000E+00 0.  1.
         14    1    5    5    0    0  0.45846020708E+01  0.53601752373E+01  0.70762518272E+01  0.99911658300E+01  0.00000000000E+00 0. -1.
         11    1    3    3    0    0 -0.65533932358E+01 -0.85936971003E+02 -0.81976974499E+03  0.82428790162E+03  0.00000000000E+00 0. -1.
        -12    1    3    3    0    0  0.50180781768E+01 -0.42018779706E+01 -0.64377966608E+03  0.64381293505E+03  0.00000000000E+00 0.  1.
          5    1    4    4  501    0 -0.85694263713E+02  0.12666649709E+02  0.14849612418E+02  0.87988261928E+02  0.41800000000E+01 0.  1.
         -5    1    4    4    0  501  0.31637697912E+02  0.59368360677E+02  0.13289309422E+02  0.68699522004E+02  0.41800000000E+01 0.  1.
</event>
<event>
11    1  0.7577197E-009  0.1270554E+03  0.7561462E-02  0.1122941E+00
         22   -1    0    0    0    0  0.00000000000E+00  0.00000000000E+00  0.30313591167E+03  0.30313591167E+03  0.00000000000E+00 0.  1.
         22   -1    0    0    0    0 -0.00000000000E+00 -0.00000000000E+00 -0.17831159289E+03  0.17831159289E+03  0.00000000000E+00 0. -1.
         24    2    1    2    0    0  0.36342102324E+01 -0.80018839569E+01 -0.10869848901E+03  0.13562473166E+03  0.80631685425E+02 0.  0.
         25    2    1    2    0    0  0.30661739032E+01 -0.14635928571E+02  0.36379483325E+02  0.13113017373E+03  0.12509214135E+03 0.  0.
        -24    2    1    2    0    0 -0.67003841356E+01  0.22637812528E+02  0.19714332447E+03  0.21469259917E+03  0.81670411111E+02 0.  0.
        -13    1    3    3    0    0  0.18073659873E+02  0.25610453131E+02 -0.14431627583E+02  0.34508323133E+02  0.00000000000E+00 0.  1.
         14    1    3    3    0    0 -0.14439449640E+02 -0.33612337088E+02 -0.94266861426E+02  0.10111640853E+03  0.00000000000E+00 0. -1.
         13    1    5    5    0    0 -0.18666456632E+02 -0.22898927145E+02  0.34746631250E+02  0.45608396714E+02  0.00000000000E+00 0. -1.
        -14    1    5    5    0    0  0.11966072496E+02  0.45536739673E+02  0.16239669322E+03  0.16908420245E+03  0.00000000000E+00 0.  1.
          5    1    4    4  501    0  0.32837738425E+02  0.46903740614E+02  0.14211474089E+02  0.59141494268E+02  0.41800000000E+01 0.  1.
         -5    1    4    4    0  501 -0.29771564522E+02 -0.61539669186E+02  0.22168009236E+02  0.71988679464E+02  0.41800000000E+01 0.  1.
</event>
<event>
11    1  0.7577197E-009  0.1383392E+03  0.7561462E-02  0.1109427E+00
         22   -1    0    0    0    0  0.00000000000E+00  0.00000000000E+00  0.10205561594E+03  0.10205561594E+03  0.00000000000E+00 0.  1.
         22   -1    0    0    0    0 -0.00000000000E+00 -0.00000000000E+00 -0.13348772377E+04  0.13348772377E+04  0.00000000000E+00 0. -1.
        -24    2    1    2    0    0 -0.42463522167E+02  0.22594449777E+02 -0.83029466470E+03  0.83561338444E+03  0.80912533936E+02 0.  0.
         25    2    1    2    0    0  0.83488827943E+02 -0.61102065483E+02 -0.45763392443E+03  0.48557229106E+03  0.12509114379E+03 0.  0.
         24    2    1    2    0    0 -0.41025305776E+02  0.38507615706E+02  0.55106967346E+02  0.11574717816E+03  0.84821690748E+02 0.  0.
        -11    1    5    5    0    0 -0.33471228092E+02  0.57411102163E+02  0.65135820001E+02  0.93053924199E+02  0.00000000000E+00 0.  1.
         12    1    5    5    0    0 -0.75540776842E+01 -0.18903486458E+02 -0.10028852655E+02  0.22693253964E+02  0.00000000000E+00 0. -1.
         11    1    3    3    0    0 -0.40304018861E+02  0.33931369561E+02 -0.81367944101E+03  0.81538333593E+03  0.00000000000E+00 0. -1.
        -12    1    3    3    0    0 -0.21595033065E+01 -0.11336919783E+02 -0.16615223688E+02  0.20230048515E+02  0.00000000000E+00 0.  1.
          5    1    4    4  501    0  0.25679711430E+02 -0.67903309326E+02 -0.10249320490E+03  0.12566875685E+03  0.41800000000E+01 0. -1.
         -5    1    4    4    0  501  0.57809116514E+02  0.68012438428E+01 -0.35514071953E+03  0.35990353421E+03  0.41800000000E+01 0. -1.
</event>
<event>
11    1  0.7577197E-009  0.1289004E+03  0.7561462E-02  0.1120627E+00
         22   -1    0    0    0    0  0.00000000000E+00  0.00000000000E+00  0.18310620570E+04  0.18310620570E+04  0.00000000000E+00 0. -1.
         22   -1    0    0    0    0 -0.00000000000E+00 -0.00000000000E+00 -0.10252143336E+03  0.10252143336E+03  0.00000000000E+00 0. -1.
        -24    2    1    2    0    0  0.15492595245E+02 -0.32558473668E+00 -0.52191157647E+02  0.98564093156E+02  0.82163477350E+02 0.  0.
         25    2    1    2    0    0  0.52852121001E+01  0.24024225865E+02  0.13019664076E+03  0.18221973985E+03  0.12509105255E+03 0.  0.
         24    2    1    2    0    0 -0.20777807345E+02 -0.23698641129E+02  0.16505351405E+04  0.16527996574E+04  0.80542624678E+02 0.  0.
        -13    1    5    5    0    0 -0.10879381743E+02  0.14510295990E+02  0.92308965234E+02  0.94073666344E+02  0.00000000000E+00 0.  1.
         14    1    5    5    0    0 -0.98984256021E+01 -0.38208937119E+02  0.15582261753E+04  0.15587259910E+04  0.00000000000E+00 0. -1.
         13    1    3    3    0    0 -0.29511229750E+02 -0.14360371608E+02 -0.76301828813E+01  0.33694994359E+02  0.00000000000E+00 0. -1.
        -14    1    3    3    0    0  0.45003824994E+02  0.14034786872E+02 -0.44560974765E+02  0.64869098797E+02  0.00000000000E+00 0.  1.
          5    1    4    4  501    0 -0.47914615267E+02  0.45100373132E+02  0.92405555916E+02  0.11351701713E+03  0.41800000000E+01 0. -1.
         -5    1    4    4    0  501  0.53199827367E+02 -0.21076147266E+02  0.37791084844E+02  0.68702722721E+02  0.41800000000E+01 0. -1.
</event>
<event>
11    1  0.7577197E-009  0.1510075E+03  0.7561462E-02  0.1095854E+00
         22   -1    0    0    0    0  0.00000000000E+00  0.00000000000E+00  0.54626920723E+03  0.54626920723E+03  0.00000000000E+00 0. -1.
         22   -1    0    0    0    0 -0.00000000000E+00 -0.00000000000E+00 -0.52135460829E+03  0.52135460829E+03  0.00000000000E+00 0.  1.
        -24    2    1    2    0    0  0.62898126903E+02 -0.33645180542E+02 -0.46621389744E+03  0.47690601623E+03  0.70680815033E+02 0.  0.
         25    2    1    2    0    0  0.31227927092E+01  0.92380749498E+02  0.11051107234E+03  0.19079785167E+03  0.12508864208E+03 0.  0.
         24    2    1    2    0    0 -0.66020919613E+02 -0.58735568956E+02  0.38061742403E+03  0.39991994762E+03  0.85192207055E+02 0.  0.
        -13    1    5    5    0    0 -0.54244970012E+02  0.41951859699E+01  0.22831494672E+03  0.23470797015E+03  0.00000000000E+00 0.  1.
         14    1    5    5    0    0 -0.11775949601E+02 -0.62930754926E+02  0.15230247730E+03  0.16521197746E+03  0.00000000000E+00 0. -1.
         13    1    3    3    0    0  0.45263799818E+02 -0.28730701128E+02 -0.13600943836E+03  0.14619450086E+03  0.00000000000E+00 0. -1.
        -14    1    3    3    0    0  0.17634327086E+02 -0.49144794138E+01 -0.33020445908E+03  0.33071151537E+03  0.00000000000E+00 0.  1.
          5    1    4    4  501    0 -0.48336686423E+02  0.71599196019E+02  0.10322405025E+03  0.13466832246E+03  0.41800000000E+01 0.  1.
         -5    1    4    4    0  501  0.51459479132E+02  0.20781553479E+02  0.72870220933E+01  0.56129529203E+02  0.41800000000E+01 0.  1.
</event>
<event>
11    1  0.7577197E-009  0.1516927E+03  0.7561462E-02  0.1095162E+00
         22   -1    0    0    0    0  0.00000000000E+00  0.00000000000E+00  0.52951145478E+03  0.52951145478E+03  0.00000000000E+00 0.  1.
         22   -1    0    0    0    0 -0.00000000000E+00 -0.00000000000E+00 -0.85084496909E+02  0.85084496909E+02  0.00000000000E+00 0.  1.
        -24    2    1    2    0    0  0.63588284633E+02 -0.67010465086E+02  0.21547517707E+02  0.12303173320E+03  0.78349470210E+02 0.  0.
         25    2    1    2    0    0 -0.27161569291E+02  0.66673339823E+02  0.16746279700E+03  0.22107615625E+03  0.12509114035E+03 0.  0.
         24    2    1    2    0    0 -0.36426715343E+02  0.33712526263E+00  0.25541664316E+03  0.27048806223E+03  0.81234912211E+02 0.  0.
        -11    1    5    5    0    0 -0.57083627721E+02 -0.18972509605E+02  0.15851373515E+03  0.16954380233E+03  0.00000000000E+00 0.  1.
         12    1    5    5    0    0  0.20656912378E+02  0.19309634868E+02  0.96902908004E+02  0.10094425990E+03  0.00000000000E+00 0. -1.
         13    1    3    3    0    0  0.10470375070E+02  0.11529580794E+02  0.23503954017E+02  0.28195670621E+02  0.00000000000E+00 0. -1.
        -14    1    3    3    0    0  0.53117909563E+02 -0.78540045880E+02 -0.19564363096E+01  0.94836062583E+02  0.00000000000E+00 0.  1.
          5    1    4    4  501    0 -0.52849069200E+02 -0.57660908177E+01  0.11824396570E+03  0.12971268150E+03  0.41800000000E+01 0. -1.
         -5    1    4    4    0  501  0.25687499909E+02  0.72439430641E+02  0.49218831303E+02  0.91363474748E+02  0.41800000000E+01 0. -1.
</event>
<event>
11    1  0.7577197E-009  0.1735659E+03  0.7561462E-02  0.1074969E+00
         22   -1    0    0    0    0  0.00000000000E+00  0.00000000000E+00  0.40036775245E+03  0.40036775245E+03  0.00000000000E+00 0. -1.
         22   -1    0    0    0    0 -0.00000000000E+00 -0.00000000000E+00 -0.76284536759E+03  0.76284536759E+03  0.00000000000E+00 0. -1.
         24    2    1    2    0    0  0.10374506267E+03 -0.60291782118E+02 -0.70735349096E+03  0.72193075145E+03  0.80230366416E+02 0.  0.
         25    2    1    2    0    0 -0.94906476049E+02  0.99921855687E+02  0.25098459694E+03  0.31246849418E+03  0.12510665655E+03 0.  0.
        -24    2    1    2    0    0 -0.88385866219E+01 -0.39630073568E+02  0.93891278872E+02  0.12881387441E+03  0.78286516386E+02 0.  0.
        -11    1    3    3    0    0  0.63754468408E+02  0.44279401410E+01 -0.41246482656E+03  0.41738647804E+03  0.00000000000E+00 0.  1.
         12    1    3    3    0    0  0.39990594263E+02 -0.64719722259E+02 -0.29488866439E+03  0.30454427341E+03  0.00000000000E+00 0. -1.
         11    1    5    5    0    0 -0.80005264715E+01 -0.58509653408E+02  0.92656441768E+02  0.10987540292E+03  0.00000000000E+00 0. -1.
        -12    1    5    5    0    0 -0.83806015041E+00  0.18879579840E+02  0.12348371046E+01  0.18938471491E+02  0.00000000000E+00 0.  1.
          5    1    4    4  501    0  0.72583187796E+01  0.49201734977E+02  0.18050956954E+02  0.53073565578E+02  0.41800000000E+01 0.  1.
         -5    1    4    4    0  501 -0.10216479483E+03  0.50720120710E+02  0.23293363999E+03  0.25939492860E+03  0.41800000000E+01 0.  1.
</event>
<event>
11    1  0.7577197E-009  0.1277515E+03  0.7561462E-02  0.1122063E+00
         22   -1    0    0    0    0  0.00000000000E+00  0.00000000000E+00  0.86327206754E+03  0.86327206754E+03  0.00000000000E+00 0.  1.
         22   -1    0    0    0    0 -0.00000000000E+00 -0.00000000000E+00 -0.10305633107E+04  0.10305633107E+04  0.00000000000E+00 0. -1.
        -24    2    1    2    0    0 -0.22168181876E+02 -0.27009150208E+01 -0.88935210396E+03  0.89659448053E+03  0.11151580370E+03 0.  0.
         25    2    1    2    0    0  0.69879169786E+02 -0.47605684738E+02 -0.91541552762E+02  0.17656913591E+03  0.12508958504E+03 0.  0.
         24    2    1    2    0    0 -0.47710987911E+02  0.50306599759E+02  0.81360241354E+03  0.82067176183E+03  0.82135016921E+02 0.  0.
        -11    1    5    5    0    0 -0.45095811474E+02 -0.10373598260E+02  0.31408370902E+03  0.31747412497E+03  0.00000000000E+00 0.  1.
         12    1    5    5    0    0 -0.26151764368E+01  0.60680198019E+02  0.49951870452E+03  0.50319763686E+03  0.00000000000E+00 0. -1.
         11    1    3    3    0    0 -0.37763438131E+02  0.47493605743E+02 -0.43475090732E+03  0.43896477223E+03  0.00000000000E+00 0. -1.
        -12    1    3    3    0    0  0.15595256256E+02 -0.50194520764E+02 -0.45460119664E+03  0.45762970830E+03  0.00000000000E+00 0.  1.
          5    1    4    4  501    0  0.67332909686E+02 -0.68928754967E+01  0.86003085051E+01  0.68356932097E+02  0.41800000000E+01 0.  1.
         -5    1    4    4    0  501  0.25462601008E+01 -0.40712809241E+02 -0.10014186127E+03  0.10821220382E+03  0.41800000000E+01 0.  1.
</event>
<event>
11    1  0.7577197E-009  0.1403450E+03  0.7561462E-02  0.1107174E+00
         22   -1    0    0    0    0  0.00000000000E+00  0.00000000000E+00  0.93598120016E+02  0.93598120016E+02  0.00000000000E+00 0. -1.
         22   -1    0    0    0    0 -0.00000000000E+00 -0.00000000000E+00 -0.85371373585E+03  0.85371373585E+03  0.00000000000E+00 0. -1.
         24    2    1    2    0    0  0.67776433644E+01 -0.17122712765E+02 -0.63302125376E+03  0.63749594907E+03  0.73116712362E+02 0.  0.
         25    2    1    2    0    0  0.58130007229E+02  0.13665790857E+02 -0.15045187005E+03  0.20456920254E+03  0.12508773660E+03 0.  0.
        -24    2    1    2    0    0 -0.64907650593E+02  0.34569219078E+01  0.23357507978E+02  0.10524670425E+03  0.79412481147E+02 0.  0.
        -13    1    3    3    0    0 -0.92025588688E+01 -0.40871311606E+02 -0.25754888572E+03  0.26093405247E+03  0.00000000000E+00 0.  1.
         14    1    3    3    0    0  0.15980202233E+02  0.23748598841E+02 -0.37547236804E+03  0.37656189660E+03  0.00000000000E+00 0. -1.
         13    1    5    5    0    0 -0.79702089776E+02 -0.94961214147E+01  0.28059020409E+02  0.85028866057E+02  0.00000000000E+00 0. -1.
        -14    1    5    5    0    0  0.14794439183E+02  0.12953043322E+02 -0.47015124308E+01  0.20217838193E+02  0.00000000000E+00 0.  1.
          5    1    4    4  501    0  0.56174627061E+01 -0.51423419218E+01  0.21797685320E+02  0.23465102877E+02  0.41800000000E+01 0.  1.
         -5    1    4    4    0  501  0.52512544523E+02  0.18808132779E+02 -0.17224955537E+03  0.18110409967E+03  0.41800000000E+01 0.  1.
</event>
<event>
11    1  0.7577197E-009  0.1457138E+03  0.7561462E-02  0.1101341E+00
         22   -1    0    0    0    0  0.00000000000E+00  0.00000000000E+00  0.13590064000E+04  0.13590064000E+04  0.00000000000E+00 0.  1.
         22   -1    0    0    0    0 -0.00000000000E+00 -0.00000000000E+00 -0.51024416944E+03  0.51024416944E+03  0.00000000000E+00 0.  1.
         24    2    1    2    0    0 -0.91941951098E+01 -0.29086076874E+02 -0.33764693058E+03  0.34861574078E+03  0.81221622105E+02 0.  0.
         25    2    1    2    0    0  0.47685843322E+02 -0.35308522560E+02 -0.13563630688E+03  0.19381759730E+03  0.12508965528E+03 0.  0.
        -24    2    1    2    0    0 -0.38491648212E+02  0.64394599434E+02  0.13220454680E+04  0.13268172313E+04  0.83734547955E+02 0.  0.
        -13    1    3    3    0    0  0.22777730000E+02 -0.44875225849E+01 -0.26073770167E+03  0.26176919588E+03  0.00000000000E+00 0.  1.
         14    1    3    3    0    0 -0.31971925109E+02 -0.24598554289E+02 -0.76909228912E+02  0.86846544895E+02  0.00000000000E+00 0. -1.
         11    1    5    5    0    0 -0.52387383095E+02  0.33012461842E+02  0.46751999822E+03  0.47160280881E+03  0.00000000000E+00 0. -1.
        -12    1    5    5    0    0  0.13895734883E+02  0.31382137593E+02  0.85452546975E+03  0.85521442251E+03  0.00000000000E+00 0.  1.
          5    1    4    4  501    0 -0.16887996155E+02 -0.37614478838E+02  0.22301657385E+01  0.41503005573E+02  0.41800000000E+01 0.  1.
         -5    1    4    4    0  501  0.64573839477E+02  0.23059562781E+01 -0.13786647262E+03  0.15231459172E+03  0.41800000000E+01 0.  1.
</event>
<event>
11    1  0.7577197E-009  0.1293592E+03  0.7561462E-02  0.1120059E+00
         22   -1    0    0    0    0  0.00000000000E+00  0.00000000000E+00  0.32205650584E+03  0.32205650584E+03  0.00000000000E+00 0. -1.
         22   -1    0    0    0    0 -0.00000000000E+00 -0.00000000000E+00 -0.44552649926E+03  0.44552649926E+03  0.00000000000E+00 0.  1.
         24    2    1    2    0    0 -0.44286150086E+01 -0.10639861200E+02 -0.27307174752E+03  0.28506784877E+03  0.81010368643E+02 0.  0.
         25    2    1    2    0    0 -0.28663372950E+02  0.84681089678E+01 -0.13403015249E+03  0.18575404669E+03  0.12508871358E+03 0.  0.
        -24    2    1    2    0    0  0.33091987958E+02  0.21717522326E+01  0.28363190659E+03  0.29676110965E+03  0.80748384433E+02 0.  0.
        -11    1    3    3    0    0 -0.29373976781E+02 -0.15027403822E+02 -0.24518729581E+03  0.24739737954E+03  0.00000000000E+00 0.  1.
         12    1    3    3    0    0  0.24945361772E+02  0.43875426220E+01 -0.27884451711E+02  0.37670469222E+02  0.00000000000E+00 0. -1.
         13    1    5    5    0    0  0.60094234615E+02 -0.14894208695E+00  0.20182917343E+03  0.21058574137E+03  0.00000000000E+00 0. -1.
        -14    1    5    5    0    0 -0.27002246657E+02  0.23206943196E+01  0.81802733159E+02  0.86175368284E+02  0.00000000000E+00 0.  1.
          5    1    4    4  501    0 -0.66299881695E+02 -0.24379803310E+02 -0.45845391522E+02  0.84316792195E+02  0.41800000000E+01 0. -1.
         -5    1    4    4    0  501  0.37636508746E+02  0.32847912278E+02 -0.88184760967E+02  0.10143725449E+03  0.41800000000E+01 0. -1.
</event>
<event>
11    1  0.7577197E-009  0.1440321E+03  0.7561462E-02  0.1103138E+00
         22   -1    0    0    0    0  0.00000000000E+00  0.00000000000E+00  0.11745635370E+03  0.11745635370E+03  0.00000000000E+00 0.  1.
         22   -1    0    0    0    0 -0.00000000000E+00 -0.00000000000E+00 -0.10387026958E+04  0.10387026958E+04  0.00000000000E+00 0. -1.
        -24    2    1    2    0    0  0.45078135308E+02 -0.55141458066E+02 -0.87735978130E+03  0.88347938955E+03  0.75518390048E+02 0.  0.
         25    2    1    2    0    0 -0.58613563391E+02  0.47165390337E+02 -0.99228112485E+02  0.17650110219E+03  0.12508515862E+03 0.  0.
         24    2    1    2    0    0  0.13535428084E+02  0.79760677295E+01  0.55341551702E+02  0.96178557747E+02  0.77076599274E+02 0.  0.
        -11    1    5    5    0    0  0.42075417559E+02 -0.84841211159E+00  0.50791578344E+02  0.65960935383E+02  0.00000000000E+00 0.  1.
         12    1    5    5    0    0 -0.28539989476E+02  0.88244798411E+01  0.45499733581E+01  0.30217622364E+02  0.00000000000E+00 0. -1.
         13    1    3    3    0    0  0.10133014920E+02 -0.66060957798E+02 -0.53075013209E+03  0.53494152096E+03  0.00000000000E+00 0. -1.
        -14    1    3    3    0    0  0.34945120388E+02  0.10919499732E+02 -0.34660964921E+03  0.34853786858E+03  0.00000000000E+00 0.  1.
          5    1    4    4  501    0 -0.63737900691E+02 -0.86205777866E+01 -0.23295131522E+01  0.64495995049E+02  0.41800000000E+01 0. -1.
         -5    1    4    4    0  501  0.51243372992E+01  0.55785968123E+02 -0.96898599333E+02  0.11200510714E+03  0.41800000000E+01 0. -1.
</event>
<event>
11    1  0.7577197E-009  0.1976877E+03  0.7561462E-02  0.1056171E+00
         22   -1    0    0    0    0  0.00000000000E+00  0.00000000000E+00  0.17351975791E+04  0.17351975791E+04  0.00000000000E+00 0. -1.
         22   -1    0    0    0    0 -0.00000000000E+00 -0.00000000000E+00 -0.15765756892E+03  0.15765756892E+03  0.00000000000E+00 0.  1.
         24    2    1    2    0    0  0.62083044887E+02 -0.56751712032E+02 -0.97018109055E+02  0.15200039173E+03  0.81342143574E+02 0.  0.
         25    2    1    2    0    0 -0.18558370325E+03  0.11836397084E+03  0.56652182068E+03  0.62051972328E+03  0.12508562337E+03 0.  0.
        -24    2    1    2    0    0  0.12350065836E+03 -0.61612258806E+02  0.11080362986E+04  0.11203350330E+04  0.91420261483E+02 0.  0.
        -11    1    3    3    0    0  0.59124295186E+02 -0.14359035651E+02 -0.90436000870E+02  0.10899786438E+03  0.00000000000E+00 0.  1.
         12    1    3    3    0    0  0.29587497014E+01 -0.42392676381E+02 -0.65821081843E+01  0.43002527352E+02  0.00000000000E+00 0. -1.
         11    1    5    5    0    0  0.57082654714E+02 -0.74833544491E+02  0.75675985034E+03  0.76259029625E+03  0.00000000000E+00 0. -1.
        -12    1    5    5    0    0  0.66418003647E+02  0.13221285684E+02  0.35127644823E+03  0.35774473677E+03  0.00000000000E+00 0.  1.
          5    1    4    4  501    0 -0.20152920532E+03  0.10673490510E+03  0.47665335972E+03  0.52841485435E+03  0.41800000000E+01 0. -1.
         -5    1    4    4    0  501  0.15945502072E+02  0.11629065740E+02  0.89868460959E+02  0.92104868934E+02  0.41800000000E+01 0. -1.
</event>
<event>
11    1  0.7577197E-009  0.1344565E+03  0.7561462E-02  0.1113911E+00
         22   -1    0    0    0    0  0.00000000000E+00  0.00000000000E+00  0.71193040292E+03  0.71193040292E+03  0.00000000000E+00 0.  1.
         22   -1    0    0    0    0 -0.00000000000E+00 -0.00000000000E+00 -0.24128971589E+03  0.24128971589E+03  0.00000000000E+00 0.  1.
        -24    2    1    2    0    0  0.45363999236E+02  0.15654185652E+02 -0.18304184665E+03  0.20648022081E+03  0.82624560533E+02 0.  0.
         25    2    1    2    0    0 -0.49503402165E+02 -0.46036328867E+02  0.73814310639E+02  0.16020461053E+03  0.12508810646E+03 0.  0.
         24    2    1    2    0    0  0.41394029294E+01  0.30382143215E+02  0.57986822303E+03  0.58653528747E+03  0.82681788106E+02 0.  0.
        -13    1    5    5    0    0  0.14257134035E+02  0.31541662833E+02  0.88018120497E+02  0.94579764754E+02  0.00000000000E+00 0.  1.
         14    1    5    5    0    0 -0.10117731106E+02 -0.11595196179E+01  0.49185010254E+03  0.49195552272E+03  0.00000000000E+00 0. -1.
         13    1    3    3    0    0  0.46426854194E+02  0.11059918014E+02 -0.37067977206E+02  0.60430203631E+02  0.00000000000E+00 0. -1.
        -14    1    3    3    0    0 -0.10628549577E+01  0.45942676387E+01 -0.14597386945E+03  0.14605001717E+03  0.00000000000E+00 0.  1.
          5    1    4    4  501    0  0.23382996784E+02 -0.60157356395E+02  0.51177847312E+02  0.82476157297E+02  0.41800000000E+01 0.  1.
         -5    1    4    4    0  501 -0.72886398949E+02  0.14121027527E+02  0.22636463327E+02  0.77728453234E+02  0.41800000000E+01 0.  1.
</event>
<event>
11    1  0.7577197E-009  0.2020539E+03  0.7561462E-02  0.1053081E+00
         22   -1    0    0    0    0  0.00000000000E+00  0.00000000000E+00  0.75529879143E+03  0.75529879143E+03  0.00000000000E+00 0. -1.
         22   -1    0    0    0    0 -0.00000000000E+00 -0.00000000000E+00 -0.21015261167E+03  0.21015261167E+03  0.00000000000E+00 0. -1.
        -24    2    1    2    0    0 -0.16754750441E+03 -0.29748706287E+02 -0.10790445772E+03  0.22160776806E+03  0.92246837945E+02 0.  0.
         25    2    1    2    0    0  0.12039837759E+03  0.15507754785E+02  0.14408837363E+03  0.22614960041E+03  0.12508366226E+03 0.  0.
         24    2    1    2    0    0  0.47149126814E+02  0.14240951502E+02  0.50896226384E+03  0.51769403462E+03  0.80862120991E+02 0.  0.
        -13    1    5    5    0    0  0.64811654180E+02  0.13030866675E+02  0.26615871116E+03  0.27424589975E+03  0.00000000000E+00 0.  1.
         14    1    5    5    0    0 -0.17662527366E+02  0.12100848273E+01  0.24280355268E+03  0.24344813488E+03  0.00000000000E+00 0. -1.
         11    1    3    3    0    0 -0.96361163707E+02  0.26147769767E+02 -0.76577722853E+02  0.12583055023E+03  0.00000000000E+00 0. -1.
        -12    1    3    3    0    0 -0.71186340699E+02 -0.55896476054E+02 -0.31326734867E+02  0.95777217828E+02  0.00000000000E+00 0.  1.
          5    1    4    4  501    0  0.12687015198E+03 -0.28088381908E+02  0.10585267328E+03  0.16765218013E+03  0.41800000000E+01 0. -1.
         -5    1    4    4    0  501 -0.64717743872E+01  0.43596136693E+02  0.38235700357E+02  0.58497420285E+02  0.41800000000E+01 0. -1.
</event>
<event>
11    1  0.7577197E-009  0.2061152E+03  0.7561462E-02  0.1050282E+00
         22   -1    0    0    0    0  0.00000000000E+00  0.00000000000E+00  0.17813949632E+03  0.17813949632E+03  0.00000000000E+00 0.  1.
         22   -1    0    0    0    0 -0.00000000000E+00 -0.00000000000E+00 -0.89936021278E+03  0.89936021278E+03  0.00000000000E+00 0.  1.
         24    2    1    2    0    0  0.38671915108E+02 -0.87764078156E+01 -0.45528212540E+03  0.46406538130E+03  0.80636976989E+02 0.  0.
         25    2    1    2    0    0  0.35826966163E+02 -0.14077060801E+03 -0.35768596582E+03  0.40581535718E+03  0.12508764288E+03 0.  0.
        -24    2    1    2    0    0 -0.74498881270E+02  0.14954701582E+03  0.91747374748E+02  0.20761897062E+03  0.82302265675E+02 0.  0.
        -11    1    3    3    0    0  0.25158397465E+01 -0.26516176210E+02 -0.35500903689E+03  0.35600681640E+03  0.00000000000E+00 0.  1.
         12    1    3    3    0    0  0.36156075361E+02  0.17739768394E+02 -0.10027308851E+03  0.10805856490E+03  0.00000000000E+00 0. -1.
         11    1    5    5    0    0 -0.75684927533E+01  0.47556786655E+02 -0.95030805391E+01  0.49083995144E+02  0.00000000000E+00 0. -1.
        -12    1    5    5    0    0 -0.66930388517E+02  0.10199022917E+03  0.10125045529E+03  0.15853497547E+03  0.00000000000E+00 0.  1.
          5    1    4    4  501    0  0.51959831324E+02 -0.13630470642E+03 -0.35995616237E+03  0.38841306401E+03  0.41800000000E+01 0.  1.
         -5    1    4    4    0  501 -0.16132865161E+02 -0.44659015838E+01  0.22701965574E+01  0.17402293173E+02  0.41800000000E+01 0.  1.
</event>
<event>
11    1  0.7577197E-009  0.1712727E+03  0.7561462E-02  0.1076929E+00
         22   -1    0    0    0    0  0.00000000000E+00  0.00000000000E+00  0.10117590956E+04  0.10117590956E+04  0.00000000000E+00 0. -1.
         22   -1    0    0    0    0 -0.00000000000E+00 -0.00000000000E+00 -0.34218170743E+03  0.34218170743E+03  0.00000000000E+00 0.  1.
         24    2    1    2    0    0  0.22297930922E+02 -0.78080608957E-01 -0.31073696237E+03  0.32204430099E+03  0.81595760889E+02 0.  0.
         25    2    1    2    0    0 -0.13104984949E+03 -0.92241408612E+01  0.47642856856E+03  0.50979396148E+03  0.12508618788E+03 0.  0.
        -24    2    1    2    0    0  0.10875191857E+03  0.93022214701E+01  0.50388578197E+03  0.52210254056E+03  0.82320534892E+02 0.  0.
        -11    1    3    3    0    0  0.33901800207E+02  0.35267213783E+01 -0.30761654757E+03  0.30949912788E+03  0.00000000000E+00 0.  1.
         12    1    3    3    0    0 -0.11603869285E+02 -0.36048019872E+01 -0.31204148025E+01  0.12545173107E+02  0.00000000000E+00 0. -1.
         11    1    5    5    0    0  0.10476753682E+03  0.30037398783E+02  0.34462780775E+03  0.36145097589E+03  0.00000000000E+00 0. -1.
        -12    1    5    5    0    0  0.39843817455E+01 -0.20735177313E+02  0.15925797423E+03  0.16065156467E+03  0.00000000000E+00 0.  1.
          5    1    4    4  501    0 -0.72300706215E+02 -0.42284692152E+02  0.39592649667E+03  0.40471057619E+03  0.41800000000E+01 0. -1.
         -5    1    4    4    0  501 -0.58749143277E+02  0.33060551291E+02  0.80502071884E+02  0.10508338530E+03  0.41800000000E+01 0. -1.
</event>
<event>
11    1  0.7577197E-009  0.2429868E+03  0.7561462E-02  0.1027703E+00
         22   -1    0    0    0    0  0.00000000000E+00  0.00000000000E+00  0.19996065718E+04  0.19996065718E+04  0.00000000000E+00 0.  1.
         22   -1    0    0    0    0 -0.00000000000E+00 -0.00000000000E+00 -0.12129491112E+03  0.12129491112E+03  0.00000000000E+00 0.  1.
         24    2    1    2    0    0 -0.12270461849E+03 -0.17856383818E+03  0.18830394805E+02  0.22966261295E+03  0.73816423062E+02 0.  0.
         25    2    1    2    0    0  0.12162220315E+03  0.10338004688E+03  0.78724272580E+03  0.81294174697E+03  0.12507509842E+03 0.  0.
        -24    2    1    2    0    0  0.10824153468E+01  0.75183791298E+02  0.10722385401E+04  0.10782971230E+04  0.85880292068E+02 0.  0.
        -11    1    3    3    0    0 -0.59783017574E+02 -0.45665955614E+02 -0.19485927704E+02  0.77711582604E+02  0.00000000000E+00 0.  1.
         12    1    3    3    0    0 -0.62921600919E+02 -0.13289788256E+03  0.38316322509E+02  0.15195103034E+03  0.00000000000E+00 0. -1.
         11    1    5    5    0    0  0.34648944083E+02  0.58444147719E+02  0.46927128623E+03  0.47416432574E+03  0.00000000000E+00 0. -1.
        -12    1    5    5    0    0 -0.33566528737E+02  0.16739643579E+02  0.60296725387E+03  0.60413279728E+03  0.00000000000E+00 0.  1.
          5    1    4    4  501    0  0.79217290202E+02  0.13016953048E+03  0.59667562946E+03  0.61583988579E+03  0.41800000000E+01 0.  1.
         -5    1    4    4    0  501  0.42404912945E+02 -0.26789483604E+02  0.19056709634E+03  0.19710186118E+03  0.41800000000E+01 0.  1.
</event>
<event>
11    1  0.7577197E-009  0.1466465E+03  0.7561462E-02  0.1100355E+00
         22   -1    0    0    0    0  0.00000000000E+00  0.00000000000E+00  0.95106369864E+02  0.95106369864E+02  0.00000000000E+00 0.  1.
         22   -1    0    0    0    0 -0.00000000000E+00 -0.00000000000E+00 -0.16503638793E+04  0.16503638793E+04  0.00000000000E+00 0.  1.
        -24    2    1    2    0    0  0.43729825766E+02  0.62677287188E+02 -0.14047933481E+04  0.14092142321E+04  0.81238299279E+02 0.  0.
         25    2    1    2    0    0 -0.79221376927E+01 -0.88321776204E+02 -0.18333168194E+03  0.23900178690E+03  0.12509137510E+03 0.  0.
         24    2    1    2    0    0 -0.35807688073E+02  0.25644489017E+02  0.32867520534E+02  0.97254230164E+02  0.80238899773E+02 0.  0.
        -13    1    5    5    0    0  0.53388418457E+01 -0.25402434944E+02  0.87020221420E+01  0.27377219046E+02  0.00000000000E+00 0.  1.
         14    1    5    5    0    0 -0.41146529919E+02  0.51046923961E+02  0.24165498392E+02  0.69877011118E+02  0.00000000000E+00 0. -1.
         13    1    3    3    0    0 -0.21447001632E+02  0.14454741867E+01 -0.33545517246E+03  0.33614317783E+03  0.00000000000E+00 0. -1.
        -14    1    3    3    0    0  0.65176827397E+02  0.61231813001E+02 -0.10693381756E+04  0.10730710543E+04  0.00000000000E+00 0.  1.
          5    1    4    4  501    0 -0.16860718721E+02 -0.10823551649E+03 -0.18672019166E+03  0.21652046841E+03  0.41800000000E+01 0.  1.
         -5    1    4    4    0  501  0.89385810281E+01  0.19913740286E+02  0.33885097297E+01  0.22481318492E+02  0.41800000000E+01 0.  1.
</event>
<event>
11    1  0.7577197E-009  0.1368377E+03  0.7561462E-02  0.1111142E+00
         22   -1    0    0    0    0  0.00000000000E+00  0.00000000000E+00  0.10722922219E+04  0.10722922219E+04  0.00000000000E+00 0. -1.
         22   -1    0    0    0    0 -0.00000000000E+00 -0.00000000000E+00 -0.37103449938E+03  0.37103449938E+03  0.00000000000E+00 0.  1.
         24    2    1    2    0    0  0.50594987482E+02  0.23210698891E+02 -0.35296072764E+03  0.36601756030E+03  0.79303151830E+02 0.  0.
         25    2    1    2    0    0 -0.19967760482E+02 -0.42986419970E+02  0.63773779345E+03  0.65161624455E+03  0.12509073988E+03 0.  0.
        -24    2    1    2    0    0 -0.30627227000E+02  0.19775721080E+02  0.41648065667E+03  0.42569291638E+03  0.80182388974E+02 0.  0.
        -13    1    3    3    0    0  0.35585668153E+02  0.35012221168E+02 -0.33825083551E+03  0.34191493552E+03  0.00000000000E+00 0.  1.
         14    1    3    3    0    0  0.15009319329E+02 -0.11801522278E+02 -0.14709892133E+02  0.24102624782E+02  0.00000000000E+00 0. -1.
         11    1    5    5    0    0  0.23048562392E+02  0.22366484440E+02  0.11231974447E+03  0.11682132020E+03  0.00000000000E+00 0. -1.
        -12    1    5    5    0    0 -0.53675789392E+02 -0.25907633601E+01  0.30416091219E+03  0.30887159618E+03  0.00000000000E+00 0.  1.
          5    1    4    4  501    0  0.48354344210E+01  0.38376824845E+02  0.33090048048E+03  0.33317977503E+03  0.41800000000E+01 0.  1.
         -5    1    4    4    0  501 -0.24803194903E+02 -0.81363244815E+02  0.30683731297E+03  0.31843646951E+03  0.41800000000E+01 0.  1.
</event>
<event>
11    1  0.7577197E-009  0.1597200E+03  0.7561462E-02  0.1087341E+00
         22   -1    0    0    0    0  0.00000000000E+00  0.00000000000E+00  0.58650056817E+03  0.58650056817E+03  0.00000000000E+00 0. -1.
         22   -1    0    0    0    0 -0.00000000000E+00 -0.00000000000E+00 -0.36932638784E+03  0.36932638784E+03  0.00000000000E+00 0. -1.
        -24    2    1    2    0    0  0.12790292104E+02  0.50872421140E+02 -0.27948296607E+03  0.29598523473E+03  0.82127559606E+02 0.  0.
         25    2    1    2    0    0 -0.20211013395E+02 -0.14472901717E+03  0.52492678494E+02  0.19939283829E+03  0.12508816568E+03 0.  0.
         24    2    1    2    0    0  0.74207212911E+01  0.93856596026E+02  0.44416446791E+03  0.46044888300E+03  0.76596159013E+02 0.  0.
        -13    1    5    5    0    0  0.34482444809E+02  0.54299427817E+02  0.16307070727E+03  0.17529838114E+03  0.00000000000E+00 0.  1.
         14    1    5    5    0    0 -0.27061723518E+02  0.39557168209E+02  0.28109376064E+03  0.28515050186E+03  0.00000000000E+00 0. -1.
         11    1    3    3    0    0 -0.22133017654E+02  0.51251559769E+02 -0.22031861429E+03  0.22728150970E+03  0.00000000000E+00 0. -1.
        -12    1    3    3    0    0  0.34923309759E+02 -0.37913862889E+00 -0.59164351782E+02  0.68703725026E+02  0.00000000000E+00 0.  1.
          5    1    4    4  501    0  0.47557978338E+02 -0.23702145909E+02  0.97328769835E+01  0.54182601624E+02  0.41800000000E+01 0. -1.
         -5    1    4    4    0  501 -0.67768991734E+02 -0.12102687126E+03  0.42759801511E+02  0.14521023666E+03  0.41800000000E+01 0. -1.
</event>
<event>
11    1  0.7577197E-009  0.1315370E+03  0.7561462E-02  0.1117395E+00
         22   -1    0    0    0    0  0.00000000000E+00  0.00000000000E+00  0.26511254791E+03  0.26511254791E+03  0.00000000000E+00 0. -1.
         22   -1    0    0    0    0 -0.00000000000E+00 -0.00000000000E+00 -0.17279447967E+03  0.17279447967E+03  0.00000000000E+00 0.  1.
         24    2    1    2    0    0  0.33042838437E+02  0.41829637373E+01 -0.10612488441E+03  0.13560715263E+03  0.77572433220E+02 0.  0.
         25    2    1    2    0    0  0.82412146386E+01 -0.31182814131E+02  0.95400180068E+02  0.16058658130E+03  0.12508625113E+03 0.  0.
        -24    2    1    2    0    0 -0.41284053075E+02  0.26999850394E+02  0.10304277258E+03  0.14171329365E+03  0.83853918556E+02 0.  0.
        -13    1    3    3    0    0  0.19695366879E+02  0.23568927761E+02 -0.10772309860E+03  0.11201637293E+03  0.00000000000E+00 0.  1.
         14    1    3    3    0    0  0.13347471558E+02 -0.19385964024E+02  0.15982141935E+01  0.23590779697E+02  0.00000000000E+00 0. -1.
         11    1    5    5    0    0 -0.57724731656E+02  0.41382171057E+02  0.94598679280E+02  0.11829428916E+03  0.00000000000E+00 0. -1.
        -12    1    5    5    0    0  0.16440678580E+02 -0.14382320663E+02  0.84440933021E+01  0.23419004495E+02  0.00000000000E+00 0.  1.
          5    1    4    4  501    0  0.34745811741E+02 -0.69899673204E+02  0.39816887669E+02  0.87727377091E+02  0.41800000000E+01 0.  1.
         -5    1    4    4    0  501 -0.26504597103E+02  0.38716859073E+02  0.55583292400E+02  0.72859204210E+02  0.41800000000E+01 0.  1.
</event>
<event>
11    1  0.7577197E-009  0.1913619E+03  0.7561462E-02  0.1060806E+00
         22   -1    0    0    0    0  0.00000000000E+00  0.00000000000E+00  0.17696911344E+03  0.17696911344E+03  0.00000000000E+00 0. -1.
         22   -1    0    0    0    0 -0.00000000000E+00 -0.00000000000E+00 -0.22001162986E+04  0.22001162986E+04  0.00000000000E+00 0.  1.
         24    2    1    2    0    0 -0.14823216094E+03 -0.45023693399E+02 -0.16164280342E+04  0.16257857120E+04  0.79622138756E+02 0.  0.
         25    2    1    2    0    0  0.49694280124E+02  0.15166258087E+03 -0.51492511646E+03  0.55341425961E+03  0.12509359403E+03 0.  0.
        -24    2    1    2    0    0  0.98537880818E+02 -0.10663888747E+03  0.10820596553E+03  0.19788544043E+03  0.79803197194E+02 0.  0.
        -11    1    3    3    0    0 -0.67435030091E+02 -0.45235756590E+02 -0.51128640161E+03  0.51769444794E+03  0.00000000000E+00 0.  1.
         12    1    3    3    0    0 -0.80797130851E+02  0.21206319073E+00 -0.11051416326E+04  0.11080912641E+04  0.00000000000E+00 0. -1.
         13    1    5    5    0    0  0.24236495236E+02 -0.62917848658E+02  0.85213130639E+02  0.10866158942E+03  0.00000000000E+00 0. -1.
        -14    1    5    5    0    0  0.74301385582E+02 -0.43721038809E+02  0.22992834893E+02  0.89223851017E+02  0.00000000000E+00 0.  1.
          5    1    4    4  501    0  0.23865559787E+02  0.16143474589E+03 -0.35070774363E+03  0.38683864332E+03  0.41800000000E+01 0.  1.
         -5    1    4    4    0  501  0.25828720338E+02 -0.97721650234E+01 -0.16421737283E+03  0.16657561629E+03  0.41800000000E+01 0.  1.
</event>
<event>
11    1  0.7577197E-009  0.1507553E+03  0.7561462E-02  0.1096110E+00
         22   -1    0    0    0    0  0.00000000000E+00  0.00000000000E+00  0.18714207331E+03  0.18714207331E+03  0.00000000000E+00 0. -1.
         22   -1    0    0    0    0 -0.00000000000E+00 -0.00000000000E+00 -0.36725999972E+03  0.36725999972E+03  0.00000000000E+00 0. -1.
        -24    2    1    2    0    0  0.39907205201E+02  0.71314377955E+02 -0.18075056589E+03  0.21566609976E+03  0.84633173085E+02 0.  0.
         25    2    1    2    0    0  0.26314046918E+01 -0.99390852651E+02 -0.10928764027E+03  0.19358928298E+03  0.12509019262E+03 0.  0.
         24    2    1    2    0    0 -0.42538609893E+02  0.28076474696E+02  0.10992027975E+03  0.14514669029E+03  0.79920410645E+02 0.  0.
        -13    1    5    5    0    0 -0.25311871293E+02 -0.26913336991E+02  0.47805049780E+02  0.60418054593E+02  0.00000000000E+00 0.  1.
         14    1    5    5    0    0 -0.17226738600E+02  0.54989811687E+02  0.62115229969E+02  0.84728635693E+02  0.00000000000E+00 0. -1.
         13    1    3    3    0    0  0.67924715562E+00  0.74472264184E+02 -0.14248451980E+03  0.16077443172E+03  0.00000000000E+00 0. -1.
        -14    1    3    3    0    0  0.39227958046E+02 -0.31578862293E+01 -0.38266046090E+02  0.54891668049E+02  0.00000000000E+00 0.  1.
          5    1    4    4  501    0  0.47807914117E+02 -0.57686313578E+02 -0.10854760385E+03  0.13195969888E+03  0.41800000000E+01 0. -1.
         -5    1    4    4    0  501 -0.45176509426E+02 -0.41704539073E+02 -0.74003641769E+00  0.61629584106E+02  0.41800000000E+01 0. -1.
</event>
<event>
11    1  0.7577197E-009  0.1598753E+03  0.7561462E-02  0.1087195E+00
         22   -1    0    0    0    0  0.00000000000E+00  0.00000000000E+00  0.86508376823E+03  0.86508376823E+03  0.00000000000E+00 0.  1.
         22   -1    0    0    0    0 -0.00000000000E+00 -0.00000000000E+00 -0.13473377271E+04  0.13473377271E+04  0.00000000000E+00 0.  1.
         24    2    1    2    0    0 -0.81493029423E+02 -0.12225005965E+02 -0.12632862709E+04  0.12684118684E+04  0.78650499088E+02 0.  0.
         25    2    1    2    0    0  0.16818943115E+03 -0.26641818927E+02  0.70311990179E+02  0.22268373071E+03  0.12508715640E+03 0.  0.
        -24    2    1    2    0    0 -0.86696401726E+02  0.38866824892E+02  0.71072032182E+03  0.72132589627E+03  0.78490614891E+02 0.  0.
        -11    1    3    3    0    0 -0.33918956567E+02  0.13646546032E+02 -0.93295404714E+03  0.93367016548E+03  0.00000000000E+00 0.  1.
         12    1    3    3    0    0 -0.47574072856E+02 -0.25871551997E+02 -0.33033222373E+03  0.33474170288E+03  0.00000000000E+00 0. -1.
         13    1    5    5    0    0  0.90865647987E+01  0.23547524348E+02  0.11287161279E+03  0.11565920861E+03  0.00000000000E+00 0. -1.
        -14    1    5    5    0    0 -0.95782966524E+02  0.15319300544E+02  0.59784870903E+03  0.60566668765E+03  0.00000000000E+00 0.  1.
          5    1    4    4  501    0  0.18220502177E+03 -0.34617927013E+02  0.81491254862E+02  0.20262124234E+03  0.41800000000E+01 0.  1.
         -5    1    4    4    0  501 -0.14015590624E+02  0.79761080862E+01 -0.11179264683E+02  0.20062488370E+02  0.41800000000E+01 0.  1.
</event>
<event>
11    1  0.7577197E-009  0.1561846E+03  0.7561462E-02  0.1090722E+00
         22   -1    0    0    0    0  0.00000000000E+00  0.00000000000E+00  0.88638358821E+03  0.88638358821E+03  0.00000000000E+00 0.  1.
         22   -1    0    0    0    0 -0.00000000000E+00 -0.00000000000E+00 -0.39293680179E+03  0.39293680179E+03  0.00000000000E+00 0. -1.
        -24    2    1    2    0    0  0.84135694376E+02  0.40835968667E+02 -0.32392716357E+03  0.34627994124E+03  0.78959476935E+02 0.  0.
         25    2    1    2    0    0 -0.67749956657E+02 -0.72826760591E+02  0.60429795972E+02  0.17086688804E+03  0.12509971823E+03 0.  0.
         24    2    1    2    0    0 -0.16385737719E+02  0.31990791924E+02  0.75694415402E+03  0.76217356073E+03  0.81560904792E+02 0.  0.
        -11    1    5    5    0    0 -0.18066472805E+02  0.33644713819E+01  0.67687454441E+03  0.67712396648E+03  0.00000000000E+00 0.  1.
         12    1    5    5    0    0  0.16807350854E+01  0.28626320542E+02  0.80069609612E+02  0.85049594248E+02  0.00000000000E+00 0. -1.
         11    1    3    3    0    0  0.93711188958E+02  0.20128366838E+02 -0.28971548513E+03  0.30515897564E+03  0.00000000000E+00 0. -1.
        -12    1    3    3    0    0 -0.95754945827E+01  0.20707601829E+02 -0.34211678439E+02  0.41120965597E+02  0.00000000000E+00 0.  1.
          5    1    4    4  501    0 -0.77376581059E+02 -0.10189881596E+03  0.41278120651E+02  0.13450598364E+03  0.41800000000E+01 0. -1.
         -5    1    4    4    0  501  0.96266244019E+01  0.29072055374E+02  0.19151675321E+02  0.36360904398E+02  0.41800000000E+01 0. -1.
</event>
<event>
11    1  0.7577197E-009  0.1281321E+03  0.7561462E-02  0.1121586E+00
         22   -1    0    0    0    0  0.00000000000E+00  0.00000000000E+00  0.20805143440E+03  0.20805143440E+03  0.00000000000E+00 0.  1.
         22   -1    0    0    0    0 -0.00000000000E+00 -0.00000000000E+00 -0.70623111218E+03  0.70623111218E+03  0.00000000000E+00 0. -1.
        -24    2    1    2    0    0  0.26593209451E+02 -0.50705146017E+01 -0.42578811789E+03  0.43404008210E+03  0.79764419563E+02 0.  0.
         25    2    1    2    0    0 -0.23056786924E+02  0.32521451322E+02 -0.25046531096E+03  0.28278939542E+03  0.12509080680E+03 0.  0.
         24    2    1    2    0    0 -0.35364225278E+01 -0.27450936720E+02  0.17807375107E+03  0.19745306906E+03  0.80693205717E+02 0.  0.
        -13    1    5    5    0    0 -0.11304013740E+02 -0.23623490452E+02  0.18470118175E+03  0.18654859037E+03  0.00000000000E+00 0.  1.
         14    1    5    5    0    0  0.77675912122E+01 -0.38274462687E+01 -0.66274306779E+01  0.10904478693E+02  0.00000000000E+00 0. -1.
         13    1    3    3    0    0  0.48938825432E+02  0.43771921775E+00 -0.37621762104E+03  0.37938753092E+03  0.00000000000E+00 0. -1.
        -14    1    3    3    0    0 -0.22345615980E+02 -0.55082338194E+01 -0.49570496846E+02  0.54652551183E+02  0.00000000000E+00 0.  1.
          5    1    4    4  501    0 -0.64284489304E+02  0.54427638551E+02 -0.16573230211E+03  0.18595572529E+03  0.41800000000E+01 0.  1.
         -5    1    4    4    0  501  0.41227702381E+02 -0.21906187229E+02 -0.84733008846E+02  0.96833670129E+02  0.41800000000E+01 0.  1.
</event>
<event>
11    1  0.7577197E-009  0.1431409E+03  0.7561462E-02  0.1104101E+00
         22   -1    0    0    0    0  0.00000000000E+00  0.00000000000E+00  0.93799377516E+03  0.93799377516E+03  0.00000000000E+00 0. -1.
         22   -1    0    0    0    0 -0.00000000000E+00 -0.00000000000E+00 -0.60160298614E+03  0.60160298614E+03  0.00000000000E+00 0. -1.
         24    2    1    2    0    0  0.48013141642E+02 -0.48676929227E+02 -0.52496807429E+03  0.53544906998E+03  0.80246634285E+02 0.  0.
         25    2    1    2    0    0 -0.42564119549E+02  0.84208849765E+02  0.19717843145E+02  0.15791981034E+03  0.12508812296E+03 0.  0.
        -24    2    1    2    0    0 -0.54490220929E+01 -0.35531920538E+02  0.84164102016E+03  0.84622788098E+03  0.80310712314E+02 0.  0.
        -11    1    3    3    0    0 -0.14337245470E+02  0.11791259254E+02 -0.90501274165E+02  0.92385448139E+02  0.00000000000E+00 0.  1.
         12    1    3    3    0    0  0.62350387112E+02 -0.60468188482E+02 -0.43446680013E+03  0.44306362185E+03  0.00000000000E+00 0. -1.
         13    1    5    5    0    0  0.15632047527E+02 -0.10773262713E+02  0.72191247016E+03  0.72216205845E+03  0.00000000000E+00 0. -1.
        -14    1    5    5    0    0 -0.21081069620E+02 -0.24758657825E+02  0.11972855000E+03  0.12406582252E+03  0.00000000000E+00 0.  1.
          5    1    4    4  501    0 -0.75347019827E+02  0.41444175578E+02  0.46229471852E+02  0.97721182729E+02  0.41800000000E+01 0.  1.
         -5    1    4    4    0  501  0.32782900279E+02  0.42764674187E+02 -0.26511628708E+02  0.60198627607E+02  0.41800000000E+01 0.  1.
</event>
<event>
11    1  0.7577197E-009  0.1294328E+03  0.7561462E-02  0.1119968E+00
         22   -1    0    0    0    0  0.00000000000E+00  0.00000000000E+00  0.25437875082E+03  0.25437875082E+03  0.00000000000E+00 0. -1.
         22   -1    0    0    0    0 -0.00000000000E+00 -0.00000000000E+00 -0.14053805791E+04  0.14053805791E+04  0.00000000000E+00 0.  1.
         24    2    1    2    0    0 -0.31996757284E+02 -0.76844966208E+01 -0.11292640739E+04  0.11325916863E+04  0.80272880638E+02 0.  0.
         25    2    1    2    0    0  0.40185985547E+02 -0.13691145680E+02 -0.25064218151E+03  0.28332194410E+03  0.12508980753E+03 0.  0.
        -24    2    1    2    0    0 -0.81892282624E+01  0.21375642301E+02  0.22890442714E+03  0.24384569949E+03  0.80867217436E+02 0.  0.
        -11    1    3    3    0    0 -0.54298074023E+02 -0.14190043284E+02 -0.97224474518E+03  0.97386317453E+03  0.00000000000E+00 0.  1.
         12    1    3    3    0    0  0.22301316739E+02  0.65055466631E+01 -0.15701932872E+03  0.15872851180E+03  0.00000000000E+00 0. -1.
         13    1    5    5    0    0 -0.16426594205E+02  0.43340771968E+02  0.20567084699E+03  0.21082872862E+03  0.00000000000E+00 0. -1.
        -14    1    5    5    0    0  0.82373659428E+01 -0.21965129667E+02  0.23233580146E+02  0.33016970869E+02  0.00000000000E+00 0.  1.
          5    1    4    4  501    0  0.19859330458E+02 -0.28695795862E+02 -0.25494359105E+03  0.25735490810E+03  0.41800000000E+01 0. -1.
         -5    1    4    4    0  501  0.20326655088E+02  0.15004650182E+02  0.43014095406E+01  0.25967035992E+02  0.41800000000E+01 0. -1.
</event>
<event>
11    1  0.7577197E-009  0.1444811E+03  0.7561462E-02  0.1102655E+00
         22   -1    0    0    0    0  0.00000000000E+00  0.00000000000E+00  0.29755061066E+03  0.29755061066E+03  0.00000000000E+00 0.  1.
         22   -1    0    0    0    0 -0.00000000000E+00 -0.00000000000E+00 -0.20388754557E+04  0.20388754557E+04  0.00000000000E+00 0.  1.
         24    2    1    2    0    0  0.12938235899E+02  0.18958526693E+02 -0.18867331478E+04  0.18885946782E+04  0.80629176234E+02 0.  0.
         25    2    1    2    0    0 -0.61380602087E+02 -0.70295830154E+02 -0.96221102451E+02  0.18334479564E+03  0.12509089287E+03 0.  0.
        -24    2    1    2    0    0  0.48442366188E+02  0.51337303461E+02  0.24162940517E+03  0.26448659251E+03  0.81155447154E+02 0.  0.
        -11    1    3    3    0    0  0.12281078066E+02  0.99192498963E+01 -0.18647464570E+04  0.18648132789E+04  0.00000000000E+00 0.  1.
         12    1    3    3    0    0  0.65715783300E+00  0.90392767967E+01 -0.21986690775E+02  0.23781399300E+02  0.00000000000E+00 0. -1.
         11    1    5    5    0    0 -0.31615717326E+01  0.10872213391E+02 -0.25908732793E+01  0.11615213480E+02  0.00000000000E+00 0. -1.
        -12    1    5    5    0    0  0.51603937921E+02  0.40465090070E+02  0.24422027845E+03  0.25287137903E+03  0.00000000000E+00 0.  1.
          5    1    4    4  501    0  0.22465144874E+02 -0.61164063605E+02 -0.16800911799E+02  0.67420089352E+02  0.41800000000E+01 0. -1.
         -5    1    4    4    0  501 -0.83845746962E+02 -0.91317665486E+01 -0.79420190651E+02  0.11592470628E+03  0.41800000000E+01 0. -1.
</event>
<event>
11    1  0.8212124E-009  0.1534473E+03  0.7561462E-02  0.1093408E+00
         22   -1    0    0    0    0  0.00000000000E+00  0.00000000000E+00  0.13828666849E+04  0.13828666849E+04  0.00000000000E+00 0.  1.
         22   -1    0    0    0    0 -0.00000000000E+00 -0.00000000000E+00 -0.61459689808E+03  0.61459689808E+03  0.00000000000E+00 0. -1.
        -24    2    1    2    0    0  0.13894853456E+02 -0.55383082080E+02 -0.48900566465E+03  0.49940600386E+03  0.83782240946E+02 0.  0.
         25    2    1    2    0    0 -0.28964081713E+01 -0.34100493727E+02 -0.81929217334E+02  0.15339878996E+03  0.12509020448E+03 0.  0.
         24    2    1    2    0    0 -0.10998445285E+02  0.89483575807E+02  0.13392046688E+04  0.13446587891E+04  0.80683568086E+02 0.  0.
        -13    1    5    5    0    0 -0.25790199720E+02  0.63906642013E+02  0.12163696574E+04  0.12183202931E+04  0.00000000000E+00 0.  1.
         14    1    5    5    0    0  0.14791754435E+02  0.25576933794E+02  0.12283501140E+03  0.12633849598E+03  0.00000000000E+00 0. -1.
         11    1    3    3    0    0  0.40391672146E+02 -0.59311711071E+02 -0.40254600548E+03  0.40889198179E+03  0.00000000000E+00 0. -1.
        -12    1    3    3    0    0 -0.26496818689E+02  0.39286289912E+01 -0.86459659176E+02  0.90514022070E+02  0.00000000000E+00 0.  1.
          5    1    4    4  501    0 -0.33446417145E+02  0.79965389041E+01  0.19195206578E+02  0.39604744790E+02  0.41800000000E+01 0.  1.
         -5    1    4    4    0  501  0.30550008974E+02 -0.42097032631E+02 -0.10112442391E+03  0.11379404517E+03  0.41800000000E+01 0.  1.
</event>
<event>
11    1  0.7577197E-009  0.1459564E+03  0.7561462E-02  0.1101084E+00
         22   -1    0    0    0    0  0.00000000000E+00  0.00000000000E+00  0.25793372142E+03  0.25793372142E+03  0.00000000000E+00 0. -1.
         22   -1    0    0    0    0 -0.00000000000E+00 -0.00000000000E+00 -0.46867301034E+03  0.46867301034E+03  0.00000000000E+00 0.  1.
         24    2    1    2    0    0  0.16407978193E+02  0.44613479706E+02 -0.37405803362E+03  0.38558194153E+03  0.80588068579E+02 0.  0.
         25    2    1    2    0    0 -0.53012232009E+02  0.28054519250E+02 -0.34893556606E+01  0.13876674282E+03  0.12508669201E+03 0.  0.
        -24    2    1    2    0    0  0.36604253816E+02 -0.72667998956E+02  0.16680810036E+03  0.20225804741E+03  0.80391951857E+02 0.  0.
        -11    1    3    3    0    0  0.18948308621E+02  0.58415063274E+02 -0.36171985461E+03  0.36689591335E+03  0.00000000000E+00 0.  1.
         12    1    3    3    0    0 -0.25403304277E+01 -0.13801583568E+02 -0.12338179013E+02  0.18686028177E+02  0.00000000000E+00 0. -1.
         13    1    5    5    0    0  0.49723764425E+02 -0.83280076714E+02  0.13473239634E+03  0.16601458536E+03  0.00000000000E+00 0. -1.
        -14    1    5    5    0    0 -0.13119510609E+02  0.10612077758E+02  0.32075704021E+02  0.36243462051E+02  0.00000000000E+00 0.  1.
          5    1    4    4  501    0 -0.43782944854E+01  0.14468836174E+02  0.57428157642E+02  0.59531356217E+02  0.41800000000E+01 0.  1.
         -5    1    4    4    0  501 -0.48633937524E+02  0.13585683076E+02 -0.60917513303E+02  0.79235386607E+02  0.41800000000E+01 0.  1.
</event>
<event>
11    1  0.7577197E-009  0.1349532E+03  0.7561462E-02  0.1113329E+00
         22   -1    0    0    0    0  0.00000000000E+00  0.00000000000E+00  0.98856692766E+03  0.98856692766E+03  0.00000000000E+00 0.  1.
         22   -1    0    0    0    0 -0.00000000000E+00 -0.00000000000E+00 -0.97088246579E+02  0.97088246579E+02  0.00000000000E+00 0. -1.
        -24    2    1    2    0    0 -0.34406678726E+02  0.42631716945E+02 -0.43298940200E+02  0.10874820159E+03  0.83367201559E+02 0.  0.
         25    2    1    2    0    0  0.69698454779E+01 -0.23353211005E+02  0.20224104563E+03  0.23904784588E+03  0.12509388823E+03 0.  0.
         24    2    1    2    0    0  0.27436833248E+02 -0.19278505940E+02  0.73253657565E+03  0.73785912676E+03  0.81864617982E+02 0.  0.
        -13    1    5    5    0    0  0.28950025515E+02 -0.30458108237E+02  0.71904709750E+03  0.72027392619E+03  0.00000000000E+00 0.  1.
         14    1    5    5    0    0 -0.15131922662E+01  0.11179602297E+02  0.13489478151E+02  0.17585200571E+02  0.00000000000E+00 0. -1.
         11    1    3    3    0    0  0.38262779317E+01  0.66877875897E+01 -0.54540168644E+02  0.55081729288E+02  0.00000000000E+00 0. -1.
        -12    1    3    3    0    0 -0.38232956658E+02  0.35943929356E+02  0.11241228444E+02  0.53666472301E+02  0.00000000000E+00 0.  1.
          5    1    4    4  501    0 -0.30381437256E+02  0.17957936984E+02  0.17180703139E+03  0.17544414400E+03  0.41800000000E+01 0.  1.
         -5    1    4    4    0  501  0.37351282734E+02 -0.41311147989E+02  0.30434014244E+02  0.63603701882E+02  0.41800000000E+01 0.  1.
</event>
<event>
11    1  0.7577197E-009  0.1277967E+03  0.7561462E-02  0.1122006E+00
         22   -1    0    0    0    0  0.00000000000E+00  0.00000000000E+00  0.20003751416E+04  0.20003751416E+04  0.00000000000E+00 0.  1.
         22   -1    0    0    0    0 -0.00000000000E+00 -0.00000000000E+00 -0.98691491881E+02  0.98691491881E+02  0.00000000000E+00 0. -1.
        -24    2    1    2    0    0 -0.16052019473E+02 -0.22700507623E+02 -0.53362522168E+02  0.99453758769E+02  0.79186558113E+02 0.  0.
         25    2    1    2    0    0 -0.45283028388E+01  0.18286487475E+02  0.16638174446E+03  0.20901118088E+03  0.12509151727E+03 0.  0.
         24    2    1    2    0    0  0.20580322312E+02  0.44140201482E+01  0.17886644274E+04  0.17906016939E+04  0.80566486686E+02 0.  0.
        -13    1    5    5    0    0  0.29208366945E+02  0.83394034601E+01  0.17626897823E+04  0.17629514863E+04  0.00000000000E+00 0.  1.
         14    1    5    5    0    0 -0.86280446328E+01 -0.39253833118E+01  0.25974645129E+02  0.27650207556E+02  0.00000000000E+00 0. -1.
         11    1    3    3    0    0  0.79009585015E+01 -0.42607789110E+02 -0.52796404608E+02  0.68303068581E+02  0.00000000000E+00 0. -1.
        -12    1    3    3    0    0 -0.23952977975E+02  0.19907281487E+02 -0.56611755969E+00  0.31150690188E+02  0.00000000000E+00 0.  1.
          5    1    4    4  501    0 -0.19004668072E+02  0.37520915685E+02  0.14626610790E+01  0.42291941311E+02  0.41800000000E+01 0.  1.
         -5    1    4    4    0  501  0.14476365234E+02 -0.19234428211E+02  0.16491908338E+03  0.16671923957E+03  0.41800000000E+01 0.  1.
</event>
<event>
11    1  0.7577197E-009  0.2014920E+03  0.7561462E-02  0.1053474E+00
         22   -1    0    0    0    0  0.00000000000E+00  0.00000000000E+00  0.71355850125E+03  0.71355850125E+03  0.00000000000E+00 0.  1.
         22   -1    0    0    0    0 -0.00000000000E+00 -0.00000000000E+00 -0.25084811782E+03  0.25084811782E+03  0.00000000000E+00 0. -1.
         24    2    1    2    0    0 -0.32923197645E+02  0.19492647121E+02 -0.16318041334E+03  0.18548583726E+03  0.79455951879E+02 0.  0.
         25    2    1    2    0    0  0.17677609961E+03  0.33263231797E+02  0.13225740328E+03  0.25591652999E+03  0.12508004483E+03 0.  0.
        -24    2    1    2    0    0 -0.14385290197E+03 -0.52755878917E+02  0.49363339350E+03  0.52300425183E+03  0.79891677210E+02 0.  0.
        -11    1    3    3    0    0  0.20535863440E+02  0.23182821733E+02 -0.36068905042E+02  0.47540833203E+02  0.00000000000E+00 0.  1.
         12    1    3    3    0    0 -0.53459061084E+02 -0.36901746126E+01 -0.12711150830E+03  0.13794500405E+03  0.00000000000E+00 0. -1.
         11    1    5    5    0    0 -0.23658665884E+02 -0.10978373203E+02  0.20835997967E+02  0.33382569717E+02  0.00000000000E+00 0. -1.
        -12    1    5    5    0    0 -0.12019423608E+03 -0.41777505715E+02  0.47279739553E+03  0.48962168211E+03  0.00000000000E+00 0.  1.
          5    1    4    4  501    0  0.92981391257E+02  0.59055476037E+02  0.17767754508E+02  0.11165237960E+03  0.41800000000E+01 0. -1.
         -5    1    4    4    0  501  0.83794708354E+02 -0.25792244241E+02  0.11448964877E+03  0.14426415039E+03  0.41800000000E+01 0. -1.
</event>
<event>
11    1  0.7577197E-009  0.3246072E+03  0.7561462E-02  0.9902832E-01
         22   -1    0    0    0    0  0.00000000000E+00  0.00000000000E+00  0.25052927311E+04  0.25052927311E+04  0.00000000000E+00 0. -1.
         22   -1    0    0    0    0 -0.00000000000E+00 -0.00000000000E+00 -0.22177503466E+03  0.22177503466E+03  0.00000000000E+00 0. -1.
        -24    2    1    2    0    0 -0.53051407613E+02  0.67111593784E+02 -0.15157198841E+03  0.19317643234E+03  0.83813175996E+02 0.  0.
         25    2    1    2    0    0 -0.20444333995E+03  0.12811615118E+03  0.48790480642E+03  0.55848530307E+03  0.12507560183E+03 0.  0.
         24    2    1    2    0    0  0.25749474757E+03 -0.19522774496E+03  0.19471848784E+04  0.19754060303E+04  0.79262958250E+02 0.  0.
        -13    1    5    5    0    0  0.37044812779E+02 -0.11576136039E+02  0.12871152530E+03  0.13443579072E+03  0.00000000000E+00 0.  1.
         14    1    5    5    0    0  0.22044993479E+03 -0.18365160892E+03  0.18184733531E+04  0.18409702396E+04  0.00000000000E+00 0. -1.
         11    1    3    3    0    0 -0.92073096825E+01  0.74487194332E+02 -0.10111602598E+03  0.12592683345E+03  0.00000000000E+00 0. -1.
        -12    1    3    3    0    0 -0.43844097931E+02 -0.73756005481E+01 -0.50455962425E+02  0.67249598891E+02  0.00000000000E+00 0.  1.
          5    1    4    4  501    0 -0.70879007562E+02 -0.18467484990E+02  0.13630404562E+03  0.15479388543E+03  0.41800000000E+01 0.  1.
         -5    1    4    4    0  501 -0.13356433239E+03  0.14658363617E+03  0.35160076079E+03  0.40369141763E+03  0.41800000000E+01 0.  1.
</event>
<event>
11    1  0.7577197E-009  0.1303919E+03  0.7561462E-02  0.1118788E+00
         22   -1    0    0    0    0  0.00000000000E+00  0.00000000000E+00  0.39852423520E+02  0.39852423520E+02  0.00000000000E+00 0.  1.
         22   -1    0    0    0    0 -0.00000000000E+00 -0.00000000000E+00 -0.13250766426E+04  0.13250766426E+04  0.00000000000E+00 0.  1.
        -24    2    1    2    0    0 -0.27991948333E+02  0.23280722497E+02 -0.86097563889E+03  0.86500468543E+03  0.75023421984E+02 0.  0.
         25    2    1    2    0    0  0.27849567388E+02 -0.27320648347E+02 -0.39101909536E+03  0.41238993976E+03  0.12509002059E+03 0.  0.
         24    2    1    2    0    0  0.14238094522E+00  0.40399258500E+01 -0.33229484857E+02  0.87534440953E+02  0.80881013940E+02 0.  0.
        -13    1    5    5    0    0  0.89154880315E+01  0.38829132752E+01  0.25947822387E+02  0.27710150288E+02  0.00000000000E+00 0.  1.
         14    1    5    5    0    0 -0.87731070863E+01  0.15701257484E+00 -0.59177307244E+02  0.59824290665E+02  0.00000000000E+00 0. -1.
         13    1    3    3    0    0 -0.13710735638E+01  0.46841949226E+02 -0.55366425401E+03  0.55564390955E+03  0.00000000000E+00 0. -1.
        -14    1    3    3    0    0 -0.26620874769E+02 -0.23561226729E+02 -0.30731138488E+03  0.30936077588E+03  0.00000000000E+00 0.  1.
          5    1    4    4  501    0  0.32218506847E+02 -0.34885406159E+02 -0.42887228813E+02  0.64123400889E+02  0.41800000000E+01 0.  1.
         -5    1    4    4    0  501 -0.43689394585E+01  0.75647578112E+01 -0.34813186654E+03  0.34826653887E+03  0.41800000000E+01 0.  1.
</event>
<event>
11    1  0.7577197E-009  0.4137020E+03  0.7561462E-02  0.9610173E-01
         22   -1    0    0    0    0  0.00000000000E+00  0.00000000000E+00  0.96869715896E+03  0.96869715896E+03  0.00000000000E+00 0.  1.
         22   -1    0    0    0    0 -0.00000000000E+00 -0.00000000000E+00 -0.15583014251E+04  0.15583014251E+04  0.00000000000E+00 0.  1.
        -24    2    1    2    0    0 -0.10059773385E+03  0.54146570793E+02 -0.65099406194E+03  0.66614148897E+03  0.83062984854E+02 0.  0.
         25    2    1    2    0    0 -0.27220719308E+03  0.90717011969E+02 -0.82646625914E+03  0.88375294270E+03  0.12508578657E+03 0.  0.
         24    2    1    2    0    0  0.37280492692E+03 -0.14486358276E+03  0.88785605494E+03  0.97710415240E+03  0.80468498209E+02 0.  0.
        -11    1    5    5    0    0  0.36942705263E+03 -0.13245232436E+03  0.83386871383E+03  0.92160566260E+03  0.00000000000E+00 0.  1.
         12    1    5    5    0    0  0.33778742947E+01 -0.12411258401E+02  0.53987341108E+02  0.55498489797E+02  0.00000000000E+00 0. -1.
         13    1    3    3    0    0  0.60139584883E+01  0.21174052642E+02 -0.21379266515E+03  0.21492280446E+03  0.00000000000E+00 0. -1.
        -14    1    3    3    0    0 -0.10661169233E+03  0.32972518150E+02 -0.43720139679E+03  0.45121868451E+03  0.00000000000E+00 0.  1.
          5    1    4    4  501    0 -0.91825881566E+02  0.30258322186E+02 -0.13190861261E+03  0.16359985657E+03  0.41800000000E+01 0.  1.
         -5    1    4    4    0  501 -0.18038131151E+03  0.60458689783E+02 -0.69455764653E+03  0.72015308613E+03  0.41800000000E+01 0.  1.
</event>
<event>
11    1  0.7577197E-009  0.1826589E+03  0.7561462E-02  0.1067512E+00
         22   -1    0    0    0    0  0.00000000000E+00  0.00000000000E+00  0.46169162502E+03  0.46169162502E+03  0.00000000000E+00 0. -1.
         22   -1    0    0    0    0 -0.00000000000E+00 -0.00000000000E+00 -0.44962210828E+03  0.44962210828E+03  0.00000000000E+00 0. -1.
         24    2    1    2    0    0 -0.29151931500E+02  0.12947153541E+03 -0.38694276528E+03  0.41598498300E+03  0.75538658202E+02 0.  0.
         25    2    1    2    0    0  0.81899999832E+02 -0.12642730143E+03  0.28933034057E+03  0.34935701442E+03  0.12508718973E+03 0.  0.
        -24    2    1    2    0    0 -0.52748068331E+02 -0.30442339805E+01  0.10968194146E+03  0.14597173588E+03  0.80535664890E+02 0.  0.
        -11    1    3    3    0    0 -0.27977511053E+02  0.27134283805E+02 -0.47467666336E+02  0.61418155538E+02  0.00000000000E+00 0.  1.
         12    1    3    3    0    0 -0.11744204472E+01  0.10233725161E+03 -0.33947509895E+03  0.35456682746E+03  0.00000000000E+00 0. -1.
         13    1    5    5    0    0 -0.17614083690E+02  0.69492279269E+00  0.10922300712E+03  0.11063635997E+03  0.00000000000E+00 0. -1.
        -14    1    5    5    0    0 -0.35133984641E+02 -0.37391567732E+01  0.45893434050E+00  0.35335375912E+02  0.00000000000E+00 0.  1.
          5    1    4    4  501    0  0.17534633464E+02 -0.30377143026E+02  0.20024282802E+03  0.20333444559E+03  0.41800000000E+01 0.  1.
         -5    1    4    4    0  501  0.64365366368E+02 -0.96050158408E+02  0.89087512545E+02  0.14602256884E+03  0.41800000000E+01 0.  1.
</event>
<event>
11    1  0.7577197E-009  0.2121697E+03  0.7561462E-02  0.1046237E+00
         22   -1    0    0    0    0  0.00000000000E+00  0.00000000000E+00  0.20585158075E+03  0.20585158075E+03  0.00000000000E+00 0.  1.
         22   -1    0    0    0    0 -0.00000000000E+00 -0.00000000000E+00 -0.10459491770E+04  0.10459491770E+04  0.00000000000E+00 0. -1.
        -24    2    1    2    0    0  0.48208665244E+02  0.16745839252E+03 -0.66658534024E+03  0.69380383697E+03  0.81617153503E+02 0.  0.
         25    2    1    2    0    0 -0.76355002009E+02 -0.14857898932E+03 -0.32315447433E+03  0.38468567238E+03  0.12509376429E+03 0.  0.
         24    2    1    2    0    0  0.28146336765E+02 -0.18879403206E+02  0.14964221836E+03  0.17331124836E+03  0.80593716589E+02 0.  0.
        -11    1    5    5    0    0  0.29153545908E+02 -0.21947459779E+01  0.15341486398E+03  0.15617575560E+03  0.00000000000E+00 0.  1.
         12    1    5    5    0    0 -0.10072091432E+01 -0.16684657228E+02 -0.37726456180E+01  0.17135492757E+02  0.00000000000E+00 0. -1.
         13    1    3    3    0    0  0.36385031734E+02  0.83368250373E+02 -0.48352693117E+03  0.49200856585E+03  0.00000000000E+00 0. -1.
        -14    1    3    3    0    0  0.11823633509E+02  0.84090142149E+02 -0.18305840907E+03  0.20179527112E+03  0.00000000000E+00 0.  1.
          5    1    4    4  501    0 -0.87589602012E+02 -0.16166357413E+03 -0.31585410642E+03  0.36549738511E+03  0.41800000000E+01 0.  1.
         -5    1    4    4    0  501  0.11234600003E+02  0.13084584812E+02 -0.73003679044E+01  0.19188287273E+02  0.41800000000E+01 0.  1.
</event>
<event>
11    1  0.7577197E-009  0.1414061E+03  0.7561462E-02  0.1105998E+00
         22   -1    0    0    0    0  0.00000000000E+00  0.00000000000E+00  0.48195833755E+02  0.48195833755E+02  0.00000000000E+00 0.  1.
         22   -1    0    0    0    0 -0.00000000000E+00 -0.00000000000E+00 -0.17976993338E+04  0.17976993338E+04  0.00000000000E+00 0. -1.
         24    2    1    2    0    0  0.31395971815E+02  0.59071484215E+02 -0.12558314215E+04  0.12601283866E+04  0.79598015569E+02 0.  0.
         25    2    1    2    0    0  0.17152346426E+02 -0.10493032162E+00 -0.44473648117E+03  0.46231130589E+03  0.12508793655E+03 0.  0.
        -24    2    1    2    0    0 -0.48548318241E+02 -0.58966553893E+02 -0.48935597289E+02  0.12345547503E+03  0.83741076835E+02 0.  0.
        -11    1    3    3    0    0 -0.59655723938E+01 -0.14593450506E+02 -0.89664931328E+02  0.91040412794E+02  0.00000000000E+00 0.  1.
         12    1    3    3    0    0  0.37361544209E+02  0.73664934721E+02 -0.11661664902E+04  0.11690879738E+04  0.00000000000E+00 0. -1.
         11    1    5    5    0    0 -0.21133921987E+02  0.11750309081E+01 -0.53166625999E+02  0.57225112287E+02  0.00000000000E+00 0. -1.
        -12    1    5    5    0    0 -0.27414396255E+02 -0.60141584801E+02  0.42310287102E+01  0.66230362738E+02  0.00000000000E+00 0.  1.
          5    1    4    4  501    0  0.57760792065E+02 -0.28740018838E+02 -0.14930902616E+03  0.16270511816E+03  0.41800000000E+01 0.  1.
         -5    1    4    4    0  501 -0.40608445639E+02  0.28635088516E+02 -0.29542745502E+03  0.29960618773E+03  0.41800000000E+01 0.  1.
</event>
<event>
11    1  0.7577197E-009  0.1332635E+03  0.7561462E-02  0.1115323E+00
         22   -1    0    0    0    0  0.00000000000E+00  0.00000000000E+00  0.20558755352E+04  0.20558755352E+04  0.00000000000E+00 0.  1.
         22   -1    0    0    0    0 -0.00000000000E+00 -0.00000000000E+00 -0.14924156179E+03  0.14924156179E+03  0.00000000000E+00 0.  1.
        -24    2    1    2    0    0  0.30587562353E+02  0.37114866202E+02 -0.12347414748E+03  0.15510689845E+03  0.80617445914E+02 0.  0.
         25    2    1    2    0    0 -0.26159602842E+02  0.14557605882E+02  0.48339748601E+03  0.50021904016E+03  0.12509880072E+03 0.  0.
         24    2    1    2    0    0 -0.44279595116E+01 -0.51672472084E+02  0.15467106349E+04  0.15497911584E+04  0.82759865567E+02 0.  0.
        -11    1    5    5    0    0 -0.31379267403E+02 -0.58449138809E+02  0.12574195416E+04  0.12591683223E+04  0.00000000000E+00 0.  1.
         12    1    5    5    0    0  0.26951307892E+02  0.67766667253E+01  0.28929109328E+03  0.29062283609E+03  0.00000000000E+00 0. -1.
         13    1    3    3    0    0  0.37345512905E+02  0.27754303163E+02 -0.19428650100E+02  0.50422823433E+02  0.00000000000E+00 0. -1.
        -14    1    3    3    0    0 -0.67579505521E+01  0.93605630392E+01 -0.10404549738E+03  0.10468407502E+03  0.00000000000E+00 0.  1.
          5    1    4    4  501    0  0.33126727370E+02  0.16580381930E+01  0.37683960145E+02  0.50375414729E+02  0.41800000000E+01 0. -1.
         -5    1    4    4    0  501 -0.59286330211E+02  0.12899567689E+02  0.44571352587E+03  0.44984362543E+03  0.41800000000E+01 0. -1.
</event>
<event>
11    1  0.7577197E-009  0.1558583E+03  0.7561462E-02  0.1091039E+00
         22   -1    0    0    0    0  0.00000000000E+00  0.00000000000E+00  0.59964743345E+03  0.59964743345E+03  0.00000000000E+00 0. -1.
         22   -1    0    0    0    0 -0.00000000000E+00 -0.00000000000E+00 -0.31937680423E+03  0.31937680423E+03  0.00000000000E+00 0. -1.
         24    2    1    2    0    0  0.46255481385E+02  0.78859304119E+02 -0.25929021324E+03  0.28697300777E+03  0.82241918165E+02 0.  0.
         25    2    1    2    0    0 -0.36732648160E+02 -0.10780708589E+03  0.12875792915E+03  0.21260786690E+03  0.12510733607E+03 0.  0.
        -24    2    1    2    0    0 -0.95228332256E+01  0.28947781775E+02  0.41080291331E+03  0.41944336301E+03  0.79025582995E+02 0.  0.
        -13    1    3    3    0    0  0.54314125061E+02  0.15673310017E+02 -0.15234731920E+03  0.16249733073E+03  0.00000000000E+00 0.  1.
         14    1    3    3    0    0 -0.80586436761E+01  0.63185994102E+02 -0.10694289404E+03  0.12447567704E+03  0.00000000000E+00 0. -1.
         13    1    5    5    0    0 -0.41735901320E+02  0.12046798221E+02  0.29145916315E+03  0.29467856147E+03  0.00000000000E+00 0. -1.
        -14    1    5    5    0    0  0.32213068095E+02  0.16900983554E+02  0.11934375017E+03  0.12476480155E+03  0.00000000000E+00 0.  1.
          5    1    4    4  501    0  0.39917964445E+02 -0.68277671412E+02  0.39807373116E+02  0.88641884305E+02  0.41800000000E+01 0. -1.
         -5    1    4    4    0  501 -0.76650612604E+02 -0.39529414483E+02  0.88950556030E+02  0.12396598259E+03  0.41800000000E+01 0. -1.
</event>
<event>
11    1  0.7577197E-009  0.1762457E+03  0.7561462E-02  0.1072721E+00
         22   -1    0    0    0    0  0.00000000000E+00  0.00000000000E+00  0.12887671551E+04  0.12887671551E+04  0.00000000000E+00 0.  1.
         22   -1    0    0    0    0 -0.00000000000E+00 -0.00000000000E+00 -0.68588493313E+03  0.68588493313E+03  0.00000000000E+00 0.  1.
         24    2    1    2    0    0  0.53141977779E+02 -0.26159532782E+02 -0.62710417472E+03  0.63483130961E+03  0.79011105291E+02 0.  0.
         25    2    1    2    0    0  0.49926870677E+02 -0.52065164130E+02  0.54344101196E+02  0.15428520649E+03  0.12508864807E+03 0.  0.
        -24    2    1    2    0    0 -0.10306884846E+03  0.78224696912E+02  0.11756422955E+04  0.11855355721E+04  0.81347987833E+02 0.  0.
        -13    1    3    3    0    0  0.31388911665E+02 -0.45639138770E+02 -0.54268765853E+03  0.54550718554E+03  0.00000000000E+00 0.  1.
         14    1    3    3    0    0  0.21753066114E+02  0.19479605989E+02 -0.84416516188E+02  0.89324124066E+02  0.00000000000E+00 0. -1.
         11    1    5    5    0    0 -0.65162481665E+02  0.60403473165E+02  0.45015577698E+03  0.45884087888E+03  0.00000000000E+00 0. -1.
        -12    1    5    5    0    0 -0.37906366791E+02  0.17821223747E+02  0.72548651852E+03  0.72669469326E+03  0.00000000000E+00 0.  1.
          5    1    4    4  501    0  0.73104254255E+02 -0.53887549687E+02 -0.43468028140E+01  0.91019047985E+02  0.41800000000E+01 0.  1.
         -5    1    4    4    0  501 -0.23177383578E+02  0.18223855564E+01  0.58690904010E+02  0.63266158507E+02  0.41800000000E+01 0.  1.
</event>
<event>
11    1  0.7577197E-009  0.1946585E+03  0.7561462E-02  0.1058366E+00
         22   -1    0    0    0    0  0.00000000000E+00  0.00000000000E+00  0.59547008963E+03  0.59547008963E+03  0.00000000000E+00 0.  1.
         22   -1    0    0    0    0 -0.00000000000E+00 -0.00000000000E+00 -0.93755770508E+03  0.93755770508E+03  0.00000000000E+00 0.  1.
         24    2    1    2    0    0  0.65924944297E+02 -0.13734030326E+03 -0.64984297164E+03  0.67283208915E+03  0.84845007094E+02 0.  0.
         25    2    1    2    0    0 -0.27940953607E+02  0.14056477199E+03 -0.23934775911E+03  0.30573551305E+03  0.12509077558E+03 0.  0.
        -24    2    1    2    0    0 -0.37983990689E+02 -0.32244687251E+01  0.54710311530E+03  0.55446019251E+03  0.81554310465E+02 0.  0.
        -13    1    3    3    0    0  0.39824160289E+02 -0.13029090912E+03 -0.60753183841E+03  0.62262076694E+03  0.00000000000E+00 0.  1.
         14    1    3    3    0    0  0.26100784008E+02 -0.70493941358E+01 -0.42311133228E+02  0.50211322215E+02  0.00000000000E+00 0. -1.
         13    1    5    5    0    0  0.24416578203E+02 -0.85023976249E+01  0.11704888127E+03  0.11987034939E+03  0.00000000000E+00 0. -1.
        -14    1    5    5    0    0 -0.62400568892E+02  0.52779288999E+01  0.43005423403E+03  0.43458984312E+03  0.00000000000E+00 0.  1.
          5    1    4    4  501    0 -0.35724666526E+02  0.57045634394E+02 -0.19209783543E+02  0.70120926873E+02  0.41800000000E+01 0.  1.
         -5    1    4    4    0  501  0.77837129185E+01  0.83519137592E+02 -0.22013797557E+03  0.23561458617E+03  0.41800000000E+01 0.  1.
</event>
<event>
11    1  0.1717090E-008  0.1588271E+03  0.7561462E-02  0.1088186E+00
         22   -1    0    0    0    0  0.00000000000E+00  0.00000000000E+00  0.10262466790E+04  0.10262466790E+04  0.00000000000E+00 0. -1.
         22   -1    0    0    0    0 -0.00000000000E+00 -0.00000000000E+00 -0.12166709671E+04  0.12166709671E+04  0.00000000000E+00 0. -1.
        -24    2    1    2    0    0  0.76564662639E+02  0.47773299924E+02 -0.82625071732E+03  0.83494222516E+03  0.79333698638E+02 0.  0.
         25    2    1    2    0    0 -0.80924472939E+02 -0.13638714873E+03 -0.35582589781E+03  0.40915681105E+03  0.12508797631E+03 0.  0.
         24    2    1    2    0    0  0.43598103005E+01  0.88613848811E+02  0.99165232707E+03  0.99881860989E+03  0.79955334683E+02 0.  0.
        -13    1    5    5    0    0  0.55154998690E+01  0.98135322250E+01  0.13860959208E+02  0.17856437039E+02  0.00000000000E+00 0.  1.
         14    1    5    5    0    0 -0.11556895685E+01  0.78800316586E+02  0.97779136786E+03  0.98096217286E+03  0.00000000000E+00 0. -1.
         11    1    3    3    0    0  0.31166406388E+02  0.60130263496E+02 -0.60273336344E+03  0.60652658712E+03  0.00000000000E+00 0. -1.
        -12    1    3    3    0    0  0.45398256250E+02 -0.12356963572E+02 -0.22351735388E+03  0.22841563805E+03  0.00000000000E+00 0.  1.
          5    1    4    4  501    0 -0.89643031624E+02 -0.77451100227E+02 -0.13161848219E+03  0.17713114717E+03  0.41800000000E+01 0. -1.
         -5    1    4    4    0  501  0.87185586852E+01 -0.58936048508E+02 -0.22420741562E+03  0.23202566388E+03  0.41800000000E+01 0. -1.
</event>
<event>
11    1  0.7577197E-009  0.1541913E+03  0.7561462E-02  0.1092671E+00
         22   -1    0    0    0    0  0.00000000000E+00  0.00000000000E+00  0.14874134984E+03  0.14874134984E+03  0.00000000000E+00 0.  1.
         22   -1    0    0    0    0 -0.00000000000E+00 -0.00000000000E+00 -0.34996465790E+04  0.34996465790E+04  0.00000000000E+00 0.  1.
         24    2    1    2    0    0 -0.26136444743E+02 -0.85519796760E+02 -0.33183775548E+04  0.33205092876E+04  0.78457527012E+02 0.  0.
         25    2    1    2    0    0  0.10786552410E+02  0.12617237857E+03 -0.10893210405E+03  0.20868807115E+03  0.12509471979E+03 0.  0.
        -24    2    1    2    0    0  0.15349892333E+02 -0.40652581815E+02  0.76404429735E+02  0.11919057003E+03  0.80501574503E+02 0.  0.
        -11    1    3    3    0    0 -0.35853063518E+02 -0.49288857958E+02 -0.28432785928E+04  0.28439317837E+04  0.00000000000E+00 0.  1.
         12    1    3    3    0    0  0.97166187747E+01 -0.36230938801E+02 -0.47509896201E+03  0.47657750399E+03  0.00000000000E+00 0. -1.
         11    1    5    5    0    0  0.67653532936E+01  0.18632560954E+02 -0.26549791265E+01  0.19999781175E+02  0.00000000000E+00 0. -1.
        -12    1    5    5    0    0  0.85845390394E+01 -0.59285142769E+02  0.79059408861E+02  0.99190788852E+02  0.00000000000E+00 0.  1.
          5    1    4    4  501    0 -0.38537997060E+02  0.65956599042E+02 -0.10594508944E+03  0.13068008476E+03  0.41800000000E+01 0. -1.
         -5    1    4    4    0  501  0.49324549471E+02  0.60215779532E+02 -0.29870146100E+01  0.78007986395E+02  0.41800000000E+01 0. -1.
</event>
<event>
11    1  0.7577197E-009  0.1334057E+03  0.7561462E-02  0.1115154E+00
         22   -1    0    0    0    0  0.00000000000E+00  0.00000000000E+00  0.68460424053E+03  0.68460424053E+03  0.00000000000E+00 0.  1.
         22   -1    0    0    0    0 -0.00000000000E+00 -0.00000000000E+00 -0.11616687614E+04  0.11616687614E+04  0.00000000000E+00 0. -1.
        -24    2    1    2    0    0  0.41024731910E+02 -0.53784089223E+01 -0.70603069976E+03  0.71184411900E+03  0.80813023889E+02 0.  0.
         25    2    1    2    0    0 -0.58255869856E+02  0.44363327900E+02 -0.43803028346E+03  0.46138926856E+03  0.12509067383E+03 0.  0.
         24    2    1    2    0    0  0.17231137946E+02 -0.38984918978E+02  0.66699646237E+03  0.67303961436E+03  0.79254688564E+02 0.  0.
        -11    1    5    5    0    0  0.61566465015E+01 -0.49515738250E+02  0.21223988462E+03  0.21802633157E+03  0.00000000000E+00 0.  1.
         12    1    5    5    0    0  0.11074491444E+02  0.10530819272E+02  0.45475657775E+03  0.45501328280E+03  0.00000000000E+00 0. -1.
         11    1    3    3    0    0  0.15061875668E+02 -0.20816057260E+02 -0.62232465286E+03  0.62285483212E+03  0.00000000000E+00 0. -1.
        -12    1    3    3    0    0  0.25962856242E+02  0.15437648338E+02 -0.83706046905E+02  0.88989286877E+02  0.00000000000E+00 0.  1.
          5    1    4    4  501    0 -0.77707485789E+02  0.11274623236E+01 -0.37163957901E+03  0.37970142692E+03  0.41800000000E+01 0. -1.
         -5    1    4    4    0  501  0.19451615933E+02  0.43235865577E+02 -0.66390704452E+02  0.81687841643E+02  0.41800000000E+01 0. -1.
</event>
<event>
11    1  0.7577197E-009  0.2271830E+03  0.7561462E-02  0.1036809E+00
         22   -1    0    0    0    0  0.00000000000E+00  0.00000000000E+00  0.85571651627E+03  0.85571651627E+03  0.00000000000E+00 0.  1.
         22   -1    0    0    0    0 -0.00000000000E+00 -0.00000000000E+00 -0.34875304589E+03  0.34875304589E+03  0.00000000000E+00 0.  1.
         24    2    1    2    0    0 -0.17729558309E+02  0.19229731381E+03 -0.25659975142E+03  0.33108071279E+03  0.80488581893E+02 0.  0.
         25    2    1    2    0    0 -0.13665731797E+03 -0.15931322738E+03  0.37814075975E+03  0.45021594361E+03  0.12509210494E+03 0.  0.
        -24    2    1    2    0    0  0.15438687628E+03 -0.32984086435E+02  0.38542246205E+03  0.42317290577E+03  0.74843679781E+02 0.  0.
        -13    1    3    3    0    0  0.18977753901E+01  0.18293358691E+03 -0.24684374693E+03  0.30724604826E+03  0.00000000000E+00 0.  1.
         14    1    3    3    0    0 -0.19627333699E+02  0.93637268985E+01 -0.97560044851E+01  0.23834664526E+02  0.00000000000E+00 0. -1.
         13    1    5    5    0    0  0.28660912845E+02 -0.32901350225E+02  0.59056594744E+02  0.73427706995E+02  0.00000000000E+00 0. -1.
        -14    1    5    5    0    0  0.12572596344E+03 -0.82736210374E-01  0.32636586730E+03  0.34974519878E+03  0.00000000000E+00 0.  1.
          5    1    4    4  501    0 -0.14926702148E+02 -0.93529654916E+02  0.22286743267E+03  0.24219407038E+03  0.41800000000E+01 0.  1.
         -5    1    4    4    0  501 -0.12173061582E+03 -0.65783572460E+02  0.15527332709E+03  0.20802187322E+03  0.41800000000E+01 0.  1.
</event>
<event>
11    1  0.7577197E-009  0.3595720E+03  0.7561462E-02  0.9777202E-01
         22   -1    0    0    0    0  0.00000000000E+00  0.00000000000E+00  0.87461086013E+02  0.87461086013E+02  0.00000000000E+00 0. -1.
         22   -1    0    0    0    0 -0.00000000000E+00 -0.00000000000E+00 -0.29285698383E+04  0.29285698383E+04  0.00000000000E+00 0.  1.
        -24    2    1    2    0    0  0.29302521295E+02 -0.11158727241E+03 -0.36547517393E+03  0.39182713081E+03  0.81523251660E+02 0.  0.
         25    2    1    2    0    0 -0.25428668919E+03  0.25300295043E+03 -0.21961689696E+04  0.22287833359E+04  0.12507918347E+03 0.  0.
         24    2    1    2    0    0  0.22498416789E+03 -0.14141567801E+03 -0.27946460876E+03  0.39542045760E+03  0.87410531125E+02 0.  0.
        -11    1    5    5    0    0  0.90330464808E+02 -0.58938255196E+02 -0.55257087823E+02  0.12118851659E+03  0.00000000000E+00 0.  1.
         12    1    5    5    0    0  0.13465370309E+03 -0.82477422815E+02 -0.22420752093E+03  0.27423194101E+03  0.00000000000E+00 0. -1.
         13    1    3    3    0    0 -0.23659984292E+02 -0.67812607504E+02 -0.16679733334E+03  0.18160312498E+03  0.00000000000E+00 0. -1.
        -14    1    3    3    0    0  0.52962505587E+02 -0.43774664910E+02 -0.19867784059E+03  0.21022400583E+03  0.00000000000E+00 0.  1.
          5    1    4    4  501    0 -0.44765014325E+02  0.63174929295E+02 -0.23820252373E+03  0.25050527521E+03  0.41800000000E+01 0.  1.
         -5    1    4    4    0  501 -0.20952167486E+03  0.18982802113E+03 -0.19579664459E+04  0.19782780607E+04  0.41800000000E+01 0.  1.
</event>
<event>
11    1  0.7577197E-009  0.1292921E+03  0.7561462E-02  0.1120142E+00
         22   -1    0    0    0    0  0.00000000000E+00  0.00000000000E+00  0.74960793182E+03  0.74960793182E+03  0.00000000000E+00 0. -1.
         22   -1    0    0    0    0 -0.00000000000E+00 -0.00000000000E+00 -0.88697114238E+03  0.88697114238E+03  0.00000000000E+00 0. -1.
        -24    2    1    2    0    0  0.31305685713E+02 -0.17794203884E+02 -0.86672022688E+03  0.87109610634E+03  0.79421628931E+02 0.  0.
         25    2    1    2    0    0 -0.28697854959E+02 -0.18901664463E+02  0.29614480840E+03  0.32331140778E+03  0.12509068334E+03 0.  0.
         24    2    1    2    0    0 -0.26078307539E+01  0.36695868348E+02  0.43321220791E+03  0.44217156008E+03  0.80557333164E+02 0.  0.
        -13    1    5    5    0    0  0.41680701673E+01 -0.25149301353E+02  0.99805752274E+02  0.10300994299E+03  0.00000000000E+00 0.  1.
         14    1    5    5    0    0 -0.67759009212E+01  0.61845169701E+02  0.33340645564E+03  0.33916161709E+03  0.00000000000E+00 0. -1.
         11    1    3    3    0    0  0.28002230713E+02 -0.48533166183E+02 -0.58972073875E+03  0.59237669000E+03  0.00000000000E+00 0. -1.
        -12    1    3    3    0    0  0.33034549994E+01  0.30738962299E+02 -0.27699948813E+03  0.27871941634E+03  0.00000000000E+00 0.  1.
          5    1    4    4  501    0 -0.55852277583E+02 -0.17734349647E+02  0.28898407565E+03  0.29489532456E+03  0.41800000000E+01 0.  1.
         -5    1    4    4    0  501  0.27154422625E+02 -0.11673148162E+01  0.71607327540E+01  0.28416083219E+02  0.41800000000E+01 0.  1.
</event>
<event>
11    1  0.7577197E-009  0.1382537E+03  0.7561462E-02  0.1109524E+00
         22   -1    0    0    0    0  0.00000000000E+00  0.00000000000E+00  0.13318047875E+04  0.13318047875E+04  0.00000000000E+00 0.  1.
         22   -1    0    0    0    0 -0.00000000000E+00 -0.00000000000E+00 -0.19486176385E+03  0.19486176385E+03  0.00000000000E+00 0.  1.
        -24    2    1    2    0    0 -0.45677515939E+02  0.30875670822E+02 -0.77696528088E+02  0.12459065066E+03  0.80289085460E+02 0.  0.
         25    2    1    2    0    0  0.10306180874E+03 -0.22490662482E+02 -0.18701608362E+02  0.16469652610E+03  0.12509048419E+03 0.  0.
         24    2    1    2    0    0 -0.57384292801E+02 -0.83850083403E+01  0.12333411601E+04  0.12373793746E+04  0.81326711589E+02 0.  0.
        -11    1    5    5    0    0 -0.50069498260E+02 -0.30682937090E+02  0.11247289537E+04  0.11262609008E+04  0.00000000000E+00 0.  1.
         12    1    5    5    0    0 -0.73147945406E+01  0.22297928750E+02  0.10861220637E+03  0.11111847379E+03  0.00000000000E+00 0. -1.
         11    1    3    3    0    0 -0.31111328992E+02 -0.23768097826E+02 -0.43407575440E+02  0.58455580328E+02  0.00000000000E+00 0. -1.
        -12    1    3    3    0    0 -0.14566186947E+02  0.54643768648E+02 -0.34288952648E+02  0.66135070333E+02  0.00000000000E+00 0.  1.
          5    1    4    4  501    0  0.18479253506E+02 -0.65818581090E+02 -0.88889741063E+01  0.69065582510E+02  0.41800000000E+01 0.  1.
         -5    1    4    4    0  501  0.84582555235E+02  0.43327918608E+02 -0.98126342561E+01  0.95630943590E+02  0.41800000000E+01 0.  1.
</event>
<event>
11    1  0.7577197E-009  0.1881999E+03  0.7561462E-02  0.1063197E+00
         22   -1    0    0    0    0  0.00000000000E+00  0.00000000000E+00  0.15339554044E+03  0.15339554044E+03  0.00000000000E+00 0.  1.
         22   -1    0    0    0    0 -0.00000000000E+00 -0.00000000000E+00 -0.86345310743E+03  0.86345310743E+03  0.00000000000E+00 0. -1.
         24    2    1    2    0    0 -0.16838099018E+02 -0.33204322010E+02 -0.55731501461E+03  0.56371112963E+03  0.76053688797E+02 0.  0.
         25    2    1    2    0    0  0.53229871509E+02  0.16162454344E+03 -0.19813559744E+03  0.28958918880E+03  0.12509304951E+03 0.  0.
        -24    2    1    2    0    0 -0.36391772491E+02 -0.12842022143E+03  0.45393045050E+02  0.16354832944E+03  0.82893987387E+02 0.  0.
        -11    1    3    3    0    0 -0.33057905642E+02 -0.36157415907E+02 -0.19634688160E+03  0.20236670123E+03  0.00000000000E+00 0.  1.
         12    1    3    3    0    0  0.16219806624E+02  0.29530938975E+01 -0.36096813301E+03  0.36134442840E+03  0.00000000000E+00 0. -1.
         11    1    5    5    0    0 -0.33453984977E+02 -0.60415981454E+02 -0.17098293166E+02  0.71145003726E+02  0.00000000000E+00 0. -1.
        -12    1    5    5    0    0 -0.29377875135E+01 -0.68004239979E+02  0.62491338216E+02  0.92403325712E+02  0.00000000000E+00 0.  1.
          5    1    4    4  501    0  0.45972798096E+02  0.18158784323E+03 -0.18887454468E+03  0.26604268267E+03  0.41800000000E+01 0.  1.
         -5    1    4    4    0  501  0.72570734126E+01 -0.19963299787E+02 -0.92610527547E+01  0.23546506132E+02  0.41800000000E+01 0.  1.
</event>
<event>
11    1  0.7577197E-009  0.1324326E+03  0.7561462E-02  0.1116316E+00
         22   -1    0    0    0    0  0.00000000000E+00  0.00000000000E+00  0.21968611326E+04  0.21968611326E+04  0.00000000000E+00 0. -1.
         22   -1    0    0    0    0 -0.00000000000E+00 -0.00000000000E+00 -0.25300681143E+03  0.25300681143E+03  0.00000000000E+00 0. -1.
         24    2    1    2    0    0  0.16544439131E+02 -0.40226936205E+02 -0.23845294340E+03  0.25474145060E+03  0.78367567093E+02 0.  0.
         25    2    1    2    0    0 -0.56689032106E+01  0.43483009633E+02  0.86820385566E+03  0.87826431680E+03  0.12508943436E+03 0.  0.
        -24    2    1    2    0    0 -0.10875535921E+02 -0.32560734276E+01  0.13141034089E+04  0.13168621767E+04  0.84435440587E+02 0.  0.
        -11    1    3    3    0    0 -0.22622210569E+01  0.72954041861E+01  0.27994242915E+01  0.81349457719E+01  0.00000000000E+00 0.  1.
         12    1    3    3    0    0  0.18806660188E+02 -0.47522340392E+02 -0.24125236770E+03  0.24660650483E+03  0.00000000000E+00 0. -1.
         11    1    5    5    0    0 -0.37260469624E+02 -0.25512510587E+02  0.96509730703E+03  0.96615321913E+03  0.00000000000E+00 0. -1.
        -12    1    5    5    0    0  0.26384933703E+02  0.22256437159E+02  0.34900610191E+03  0.35070895753E+03  0.00000000000E+00 0.  1.
          5    1    4    4  501    0  0.41428161690E+02 -0.60742389432E+01  0.12462154985E+03  0.13153399578E+03  0.41800000000E+01 0.  1.
         -5    1    4    4    0  501 -0.47097064901E+02  0.49557248576E+02  0.74358230582E+03  0.74673032102E+03  0.41800000000E+01 0.  1.
</event>
<event>
11    1  0.7577197E-009  0.2888048E+03  0.7561462E-02  0.1005044E+00
         22   -1    0    0    0    0  0.00000000000E+00  0.00000000000E+00  0.16817435122E+03  0.16817435122E+03  0.00000000000E+00 0.  1.
         22   -1    0    0    0    0 -0.00000000000E+00 -0.00000000000E+00 -0.20971341255E+04  0.20971341255E+04  0.00000000000E+00 0.  1.
         24    2    1    2    0    0  0.85990614207E+01 -0.12431322663E+03 -0.12334481810E+04  0.12423310797E+04  0.80401331512E+02 0.  0.
         25    2    1    2    0    0  0.23891871004E+03  0.18644671158E+02 -0.69007694341E+03  0.74113615477E+03  0.12508732272E+03 0.  0.
        -24    2    1    2    0    0 -0.24751777146E+03  0.10566855548E+03 -0.54346498588E+01  0.28184124228E+03  0.83510835356E+02 0.  0.
        -11    1    3    3    0    0 -0.11102817293E+02 -0.11680870723E+03 -0.82075118840E+03  0.82909592925E+03  0.00000000000E+00 0.  1.
         12    1    3    3    0    0  0.19701878714E+02 -0.75045194054E+01 -0.41269699261E+03  0.41323515042E+03  0.00000000000E+00 0. -1.
         11    1    5    5    0    0 -0.67058702092E+02  0.19214863372E+02 -0.37485787486E+02  0.79191317479E+02  0.00000000000E+00 0. -1.
        -12    1    5    5    0    0 -0.18045906937E+03  0.86453692104E+02  0.32051137627E+02  0.20264992480E+03  0.00000000000E+00 0.  1.
          5    1    4    4  501    0  0.81733164018E+02  0.62282100187E+02 -0.20508157657E+03  0.22942383388E+03  0.41800000000E+01 0. -1.
         -5    1    4    4    0  501  0.15718554603E+03 -0.43637429028E+02 -0.48499536684E+03  0.51171232089E+03  0.41800000000E+01 0. -1.
</event>
<event>
11    1  0.7577197E-009  0.1671522E+03  0.7561462E-02  0.1080537E+00
         22   -1    0    0    0    0  0.00000000000E+00  0.00000000000E+00  0.30032779670E+03  0.30032779670E+03  0.00000000000E+00 0.  1.
         22   -1    0    0    0    0 -0.00000000000E+00 -0.00000000000E+00 -0.12420793427E+04  0.12420793427E+04  0.00000000000E+00 0. -1.
        -24    2    1    2    0    0  0.27648417834E+02  0.10217171962E+03 -0.95574071002E+03  0.96493907239E+03  0.80396600359E+02 0.  0.
         25    2    1    2    0    0 -0.77957005988E+02 -0.13425121890E+03 -0.23556640377E+03  0.30860936100E+03  0.12509005775E+03 0.  0.
         24    2    1    2    0    0  0.50308588155E+02  0.32079499280E+02  0.24955556782E+03  0.26885870598E+03  0.80293050979E+02 0.  0.
        -11    1    5    5    0    0  0.62523083950E+02  0.96137154447E+01  0.22378588389E+03  0.23255468470E+03  0.00000000000E+00 0.  1.
         12    1    5    5    0    0 -0.12214495795E+02  0.22465783835E+02  0.25769683938E+02  0.36304021280E+02  0.00000000000E+00 0. -1.
         13    1    3    3    0    0  0.38351694348E+02  0.90118411447E+02 -0.92552366221E+03  0.93069126452E+03  0.00000000000E+00 0. -1.
        -14    1    3    3    0    0 -0.10703276514E+02  0.12053308175E+02 -0.30217047811E+02  0.34247807879E+02  0.00000000000E+00 0.  1.
          5    1    4    4  501    0 -0.54585858785E+02  0.12217373443E+01 -0.10767219769E+03  0.12079686742E+03  0.41800000000E+01 0. -1.
         -5    1    4    4    0  501 -0.23371147203E+02 -0.13547295625E+03 -0.12789420608E+03  0.18781249358E+03  0.41800000000E+01 0. -1.
</event>
<event>
11    1  0.7577197E-009  0.1819375E+03  0.7561462E-02  0.1068086E+00
         22   -1    0    0    0    0  0.00000000000E+00  0.00000000000E+00  0.46877561687E+03  0.46877561687E+03  0.00000000000E+00 0.  1.
         22   -1    0    0    0    0 -0.00000000000E+00 -0.00000000000E+00 -0.14997050903E+04  0.14997050903E+04  0.00000000000E+00 0.  1.
         24    2    1    2    0    0  0.30571784470E+02 -0.97724016444E+02 -0.12925520713E+04  0.12991299756E+04  0.81013696974E+02 0.  0.
         25    2    1    2    0    0 -0.15614922409E+03  0.57124485157E+02 -0.13197147119E+03  0.24639322906E+03  0.12508943653E+03 0.  0.
        -24    2    1    2    0    0  0.12557743962E+03  0.40599531286E+02  0.39359406905E+03  0.42295750252E+03  0.80986063424E+02 0.  0.
        -11    1    3    3    0    0  0.16278742184E+02 -0.10481487655E+03 -0.89594264433E+03  0.90219974380E+03  0.00000000000E+00 0.  1.
         12    1    3    3    0    0  0.14293042286E+02  0.70908601073E+01 -0.39660942697E+03  0.39693023180E+03  0.00000000000E+00 0. -1.
         13    1    5    5    0    0  0.39988164393E+02  0.31647324428E+02  0.61490690085E+02  0.79885614488E+02  0.00000000000E+00 0. -1.
        -14    1    5    5    0    0  0.85589275225E+02  0.89522068585E+01  0.33210337896E+03  0.34307188804E+03  0.00000000000E+00 0.  1.
          5    1    4    4  501    0 -0.11748960274E+03 -0.22092050677E+02 -0.81301576341E+02  0.14463500327E+03  0.41800000000E+01 0.  1.
         -5    1    4    4    0  501 -0.38659621350E+02  0.79216535834E+02 -0.50669894852E+02  0.10175822579E+03  0.41800000000E+01 0.  1.
</event>
<event>
11    1  0.7577197E-009  0.1813424E+03  0.7561462E-02  0.1068562E+00
         22   -1    0    0    0    0  0.00000000000E+00  0.00000000000E+00  0.10046503017E+04  0.10046503017E+04  0.00000000000E+00 0.  1.
         22   -1    0    0    0    0 -0.00000000000E+00 -0.00000000000E+00 -0.65439127801E+03  0.65439127801E+03  0.00000000000E+00 0.  1.
        -24    2    1    2    0    0  0.14760823550E+02 -0.65248413611E+02 -0.59600763257E+03  0.60504960823E+03  0.79904273653E+02 0.  0.
         25    2    1    2    0    0 -0.81531552617E+02  0.16810731560E+03  0.22537892438E+03  0.31837248302E+03  0.12513158977E+03 0.  0.
         24    2    1    2    0    0  0.66770729067E+02 -0.10285890199E+03  0.72088773192E+03  0.73561948850E+03  0.80116326981E+02 0.  0.
        -11    1    5    5    0    0  0.35983364633E+02 -0.10661684378E+03  0.49605870512E+03  0.50866117685E+03  0.00000000000E+00 0.  1.
         12    1    5    5    0    0  0.30787364434E+02  0.37579417917E+01  0.22482902679E+03  0.22695831164E+03  0.00000000000E+00 0. -1.
         13    1    3    3    0    0  0.47731138933E+02 -0.34297835238E+02 -0.35588281107E+03  0.36070372654E+03  0.00000000000E+00 0. -1.
        -14    1    3    3    0    0 -0.32970315384E+02 -0.30950578372E+02 -0.24012482151E+03  0.24434588170E+03  0.00000000000E+00 0.  1.
          5    1    4    4  501    0 -0.62541299315E+02  0.16493212083E+03  0.23702412915E+03  0.29548591980E+03  0.41800000000E+01 0. -1.
         -5    1    4    4    0  501 -0.18990253302E+02  0.31751947707E+01 -0.11645204762E+02  0.22886563225E+02  0.41800000000E+01 0. -1.
</event>
<event>
11    1  0.7577197E-009  0.1574150E+03  0.7561462E-02  0.1089534E+00
         22   -1    0    0    0    0  0.00000000000E+00  0.00000000000E+00  0.76430482309E+03  0.76430482309E+03  0.00000000000E+00 0.  1.
         22   -1    0    0    0    0 -0.00000000000E+00 -0.00000000000E+00 -0.70474338389E+03  0.70474338389E+03  0.00000000000E+00 0.  1.
        -24    2    1    2    0    0  0.44066935355E+01  0.98310564360E+02 -0.62930443145E+03  0.64186984385E+03  0.79299703610E+02 0.  0.
         25    2    1    2    0    0 -0.22858353721E+02 -0.60388893116E+02  0.91725461452E+01  0.14107040979E+03  0.12508957658E+03 0.  0.
         24    2    1    2    0    0  0.18451660186E+02 -0.37921671244E+02  0.67969332450E+03  0.68610795334E+03  0.83561901296E+02 0.  0.
        -13    1    5    5    0    0 -0.25412783824E+02  0.22580357655E+01  0.36170012275E+03  0.36259879633E+03  0.00000000000E+00 0.  1.
         14    1    5    5    0    0  0.43864444010E+02 -0.40179707010E+02  0.31799320175E+03  0.32350915700E+03  0.00000000000E+00 0. -1.
         11    1    3    3    0    0  0.37376093917E+02  0.68796702971E+02 -0.32122946071E+03  0.33063321848E+03  0.00000000000E+00 0. -1.
        -12    1    3    3    0    0 -0.32969400381E+02  0.29513861389E+02 -0.30807497074E+03  0.31123662537E+03  0.00000000000E+00 0.  1.
          5    1    4    4  501    0 -0.19097712706E+02 -0.31004077554E+01 -0.52859695958E+02  0.56444264683E+02  0.41800000000E+01 0. -1.
         -5    1    4    4    0  501 -0.37606410155E+01 -0.57288485361E+02  0.62032242104E+02  0.84626145110E+02  0.41800000000E+01 0. -1.
</event>
<event>
11    1  0.1347333E-008  0.1881760E+03  0.7561462E-02  0.1063215E+00
         22   -1    0    0    0    0  0.00000000000E+00  0.00000000000E+00  0.58757673682E+03  0.58757673682E+03  0.00000000000E+00 0. -1.
         22   -1    0    0    0    0 -0.00000000000E+00 -0.00000000000E+00 -0.73920146685E+03  0.73920146685E+03  0.00000000000E+00 0.  1.
         24    2    1    2    0    0  0.10495182569E+03 -0.75602901338E+02 -0.53297104121E+03  0.55438353615E+03  0.80946216599E+02 0.  0.
         25    2    1    2    0    0 -0.10448351303E+03  0.21105748893E+03 -0.85322150737E+02  0.27998131280E+03  0.12509035927E+03 0.  0.
        -24    2    1    2    0    0 -0.46831266239E+00 -0.13545458759E+03  0.46666846192E+03  0.49241335472E+03  0.79644798579E+02 0.  0.
        -11    1    3    3    0    0  0.10281243147E+03 -0.78167237856E+02 -0.53507169153E+03  0.55043821471E+03  0.00000000000E+00 0.  1.
         12    1    3    3    0    0  0.21393942218E+01  0.25643365182E+01  0.21006503272E+01  0.39453214333E+01  0.00000000000E+00 0. -1.
         11    1    5    5    0    0 -0.10462761690E+02 -0.13971900959E+03  0.45655027553E+03  0.47756572858E+03  0.00000000000E+00 0. -1.
        -12    1    5    5    0    0  0.99944490280E+01  0.42644219972E+01  0.10118186388E+02  0.14847626144E+02  0.00000000000E+00 0.  1.
          5    1    4    4  501    0 -0.12686155092E+03  0.15475964111E+03 -0.39766437035E+02  0.20406675754E+03  0.41800000000E+01 0.  1.
         -5    1    4    4    0  501  0.22378037896E+02  0.56297847820E+02 -0.45555713702E+02  0.75914555259E+02  0.41800000000E+01 0.  1.
</event>
<event>
11    1  0.7577197E-009  0.1459849E+03  0.7561462E-02  0.1101053E+00
         22   -1    0    0    0    0  0.00000000000E+00  0.00000000000E+00  0.44844754886E+02  0.44844754886E+02  0.00000000000E+00 0. -1.
         22   -1    0    0    0    0 -0.00000000000E+00 -0.00000000000E+00 -0.10102188161E+04  0.10102188161E+04  0.00000000000E+00 0. -1.
        -24    2    1    2    0    0  0.54640899378E+02  0.14388524724E+02 -0.34924322967E+03  0.36239598789E+03  0.78532547666E+02 0.  0.
         25    2    1    2    0    0 -0.12054578414E+03 -0.84264242456E+01 -0.52943828138E+03  0.55727446697E+03  0.12509055542E+03 0.  0.
         24    2    1    2    0    0  0.65904884762E+02 -0.59621004781E+01 -0.86692550211E+02  0.13539311616E+03  0.80229029435E+02 0.  0.
        -11    1    5    5    0    0  0.67905368048E+02 -0.30883681503E+02 -0.46022538942E+02  0.87652808760E+02  0.00000000000E+00 0.  1.
         12    1    5    5    0    0 -0.20004832851E+01  0.24921581025E+02 -0.40670011269E+02  0.47740307401E+02  0.00000000000E+00 0. -1.
         11    1    3    3    0    0  0.29206225887E+02  0.40517035398E+02 -0.27705445238E+03  0.28152052034E+03  0.00000000000E+00 0. -1.
        -12    1    3    3    0    0  0.25434673491E+02 -0.26128510675E+02 -0.72188777283E+02  0.80875467549E+02  0.00000000000E+00 0.  1.
          5    1    4    4  501    0 -0.33328407954E+02  0.50689547261E+02 -0.12068421707E+03  0.13513832035E+03  0.41800000000E+01 0. -1.
         -5    1    4    4    0  501 -0.87217376187E+02 -0.59115971507E+02 -0.40875406431E+03  0.42213614662E+03  0.41800000000E+01 0. -1.
</event>
<event>
11    1  0.7577197E-009  0.1488633E+03  0.7561462E-02  0.1098046E+00
         22   -1    0    0    0    0  0.00000000000E+00  0.00000000000E+00  0.10697944014E+04  0.10697944014E+04  0.00000000000E+00 0. -1.
         22   -1    0    0    0    0 -0.00000000000E+00 -0.00000000000E+00 -0.84644029079E+02  0.84644029079E+02  0.00000000000E+00 0.  1.
        -24    2    1    2    0    0  0.48210798403E+02  0.37018888165E+02  0.16920406628E+02  0.10411798330E+03  0.82822552017E+02 0.  0.
         25    2    1    2    0    0 -0.77301100204E+02 -0.10659324800E+03  0.18609275457E+03  0.26002826758E+03  0.12508639425E+03 0.  0.
         24    2    1    2    0    0  0.29090301801E+02  0.69574359830E+02  0.78213721114E+03  0.79029217962E+03  0.84476475451E+02 0.  0.
        -11    1    5    5    0    0 -0.13174577873E+02  0.33694647119E+02  0.10840488515E+03  0.11428262279E+03  0.00000000000E+00 0.  1.
         12    1    5    5    0    0  0.42264879674E+02  0.35879712711E+02  0.67373232599E+03  0.67600955683E+03  0.00000000000E+00 0. -1.
         13    1    3    3    0    0  0.43463533839E+02  0.22963906781E+02  0.48606888546E+02  0.69130669045E+02  0.00000000000E+00 0. -1.
        -14    1    3    3    0    0  0.47472645637E+01  0.14054981384E+02 -0.31686481918E+02  0.34987314257E+02  0.00000000000E+00 0.  1.
          5    1    4    4  501    0 -0.40840637671E+02 -0.10298551409E+03  0.19293709511E+03  0.22252228847E+03  0.41800000000E+01 0. -1.
         -5    1    4    4    0  501 -0.36460462533E+02 -0.36077339051E+01 -0.68443405311E+01  0.37505979115E+02  0.41800000000E+01 0. -1.
</event>
<event>
11    1  0.7577197E-009  0.1286401E+03  0.7561462E-02  0.1120951E+00
         22   -1    0    0    0    0  0.00000000000E+00  0.00000000000E+00  0.10851764233E+04  0.10851764233E+04  0.00000000000E+00 0. -1.
         22   -1    0    0    0    0 -0.00000000000E+00 -0.00000000000E+00 -0.31620981457E+03  0.31620981457E+03  0.00000000000E+00 0. -1.
         24    2    1    2    0    0 -0.28923428798E+02  0.11219292021E+02 -0.28229749736E+03  0.29501824494E+03  0.79883982043E+02 0.  0.
         25    2    1    2    0    0  0.10692155656E+02  0.12974385397E+02  0.12966861422E+03  0.18095270063E+03  0.12508906220E+03 0.  0.
        -24    2    1    2    0    0  0.18231273142E+02 -0.24193677418E+02  0.92159549192E+03  0.92541529234E+03  0.78342193133E+02 0.  0.
        -13    1    3    3    0    0 -0.56453586268E+02  0.10978499252E+02 -0.17311008098E+03  0.18241336296E+03  0.00000000000E+00 0.  1.
         14    1    3    3    0    0  0.27530157470E+02  0.24079276898E+00 -0.10918741638E+03  0.11260488199E+03  0.00000000000E+00 0. -1.
         13    1    5    5    0    0  0.26489767200E+02  0.20539576600E+02  0.55447947085E+03  0.55549173312E+03  0.00000000000E+00 0. -1.
        -14    1    5    5    0    0 -0.82584940576E+01 -0.44733254017E+02  0.36711602107E+03  0.36992355922E+03  0.00000000000E+00 0.  1.
          5    1    4    4  501    0  0.14295682891E+02  0.36830651421E+02  0.14613874642E+03  0.15144262622E+03  0.41800000000E+01 0.  1.
         -5    1    4    4    0  501 -0.36035272357E+01 -0.23856266024E+02 -0.16470132193E+02  0.29510074409E+02  0.41800000000E+01 0.  1.
</event>
<event>
11    1  0.7577197E-009  0.1588497E+03  0.7561462E-02  0.1088164E+00
         22   -1    0    0    0    0  0.00000000000E+00  0.00000000000E+00  0.70940642367E+03  0.70940642367E+03  0.00000000000E+00 0.  1.
         22   -1    0    0    0    0 -0.00000000000E+00 -0.00000000000E+00 -0.23708587959E+04  0.23708587959E+04  0.00000000000E+00 0. -1.
        -24    2    1    2    0    0  0.12241927662E+01 -0.37624259385E+02 -0.23309804686E+04  0.23339454097E+04  0.11141879055E+03 0.  0.
         25    2    1    2    0    0 -0.36449716636E+02 -0.61626311551E+02  0.14163611278E+03  0.20207982602E+03  0.12509629701E+03 0.  0.
         24    2    1    2    0    0  0.35225523870E+02  0.99250570936E+02  0.52789198366E+03  0.54423998379E+03  0.80222815844E+02 0.  0.
        -13    1    5    5    0    0  0.58403351860E+02  0.87165371197E+02  0.38853646469E+03  0.40245414377E+03  0.00000000000E+00 0.  1.
         14    1    5    5    0    0 -0.23177827990E+02  0.12085199740E+02  0.13935551896E+03  0.14178584002E+03  0.00000000000E+00 0. -1.
         11    1    3    3    0    0  0.40964088643E+02 -0.71456008876E+01 -0.18290387953E+04  0.18295114186E+04  0.00000000000E+00 0. -1.
        -12    1    3    3    0    0 -0.39739895876E+02 -0.30478658498E+02 -0.50194167333E+03  0.50443399109E+03  0.00000000000E+00 0.  1.
          5    1    4    4  501    0 -0.62480710304E+02 -0.84396918902E+02  0.12549332270E+03  0.16368483596E+03  0.41800000000E+01 0. -1.
         -5    1    4    4    0  501  0.26030993668E+02  0.22770607351E+02  0.16142790073E+02  0.38394990061E+02  0.41800000000E+01 0. -1.
</event>
<event>
11    1  0.7577197E-009  0.1510147E+03  0.7561462E-02  0.1095846E+00
         22   -1    0    0    0    0  0.00000000000E+00  0.00000000000E+00  0.72740389955E+03  0.72740389955E+03  0.00000000000E+00 0.  1.
         22   -1    0    0    0    0 -0.00000000000E+00 -0.00000000000E+00 -0.12560595744E+03  0.12560595744E+03  0.00000000000E+00 0.  1.
         24    2    1    2    0    0  0.83126828586E+02  0.24580640985E+02  0.28799635577E+02  0.12472892959E+03  0.84932969606E+02 0.  0.
         25    2    1    2    0    0 -0.63444296403E+02 -0.60018491741E+02  0.43399353578E+01  0.15261788672E+03  0.12508391667E+03 0.  0.
        -24    2    1    2    0    0 -0.19682532183E+02  0.35437850756E+02  0.56865837117E+03  0.57566304068E+03  0.79827000166E+02 0.  0.
        -13    1    3    3    0    0  0.28584159791E+02  0.51057581695E+02  0.22952926505E+01  0.58559364817E+02  0.00000000000E+00 0.  1.
         14    1    3    3    0    0  0.54542668795E+02 -0.26476940710E+02  0.26504342927E+02  0.66169564776E+02  0.00000000000E+00 0. -1.
         11    1    5    5    0    0 -0.33661704433E+02  0.25431534422E+02  0.13013341089E+03  0.13680123508E+03  0.00000000000E+00 0. -1.
        -12    1    5    5    0    0  0.13979172249E+02  0.10006316334E+02  0.43852496028E+03  0.43886180560E+03  0.00000000000E+00 0.  1.
          5    1    4    4  501    0  0.34650225551E+02 -0.62915481005E+01 -0.15925633928E+02  0.38875698376E+02  0.41800000000E+01 0. -1.
         -5    1    4    4    0  501 -0.98094521954E+02 -0.53726943640E+02  0.20265569286E+02  0.11374218834E+03  0.41800000000E+01 0. -1.
</event>
<event>
11    1  0.7577197E-009  0.1373750E+03  0.7561462E-02  0.1110525E+00
         22   -1    0    0    0    0  0.00000000000E+00  0.00000000000E+00  0.37623258704E+03  0.37623258704E+03  0.00000000000E+00 0.  1.
         22   -1    0    0    0    0 -0.00000000000E+00 -0.00000000000E+00 -0.22650107137E+03  0.22650107137E+03  0.00000000000E+00 0.  1.
         24    2    1    2    0    0 -0.27886226735E+02 -0.35445113750E+02 -0.17571179372E+03  0.19833799035E+03  0.80183079477E+02 0.  0.
         25    2    1    2    0    0  0.16921908296E+02 -0.34703649624E+02  0.14975526475E+03  0.19891193982E+03  0.12509446912E+03 0.  0.
        -24    2    1    2    0    0  0.10964318439E+02  0.70148763374E+02  0.17568804463E+03  0.20548372824E+03  0.79474576189E+02 0.  0.
        -11    1    3    3    0    0 -0.13288526939E+02 -0.20041978287E+02 -0.17547518377E+03  0.17711523357E+03  0.00000000000E+00 0.  1.
         12    1    3    3    0    0 -0.14597699796E+02 -0.15403135463E+02 -0.23660995224E+00  0.21222756789E+02  0.00000000000E+00 0. -1.
         11    1    5    5    0    0 -0.91815473719E+01 -0.80599583398E+00 -0.48819854949E+01  0.10429967584E+02  0.00000000000E+00 0. -1.
        -12    1    5    5    0    0  0.20145865811E+02  0.70954759208E+02  0.18057003013E+03  0.19505376065E+03  0.00000000000E+00 0.  1.
          5    1    4    4  501    0  0.28693863031E+01 -0.32254706695E+02 -0.13245282008E+02  0.35235058922E+02  0.41800000000E+01 0. -1.
         -5    1    4    4    0  501  0.14052521993E+02 -0.24489429292E+01  0.16300054676E+03  0.16367688090E+03  0.41800000000E+01 0. -1.
</event>
<event>
11    1  0.7577197E-009  0.1437724E+03  0.7561462E-02  0.1103418E+00
         22   -1    0    0    0    0  0.00000000000E+00  0.00000000000E+00  0.31635565588E+04  0.31635565588E+04  0.00000000000E+00 0.  1.
         22   -1    0    0    0    0 -0.00000000000E+00 -0.00000000000E+00 -0.46854702327E+03  0.46854702327E+03  0.00000000000E+00 0. -1.
        -24    2    1    2    0    0  0.85539892354E+01 -0.68189778130E+02 -0.39579459689E+03  0.40989482244E+03  0.81470153802E+02 0.  0.
         25    2    1    2    0    0 -0.45898657224E+02  0.97206447127E+02  0.39682582808E+02  0.16964378588E+03  0.12509407105E+03 0.  0.
         24    2    1    2    0    0  0.37344667988E+02 -0.29016668997E+02  0.30511215497E+04  0.30525649738E+04  0.81077846518E+02 0.  0.
        -13    1    5    5    0    0  0.63180914131E+01 -0.32582248097E+02  0.26572279401E+04  0.26574352009E+04  0.00000000000E+00 0.  1.
         14    1    5    5    0    0  0.31026576575E+02  0.35655790995E+01  0.39389360954E+03  0.39512977292E+03  0.00000000000E+00 0. -1.
         11    1    3    3    0    0  0.62829542765E+01 -0.84151862246E+02 -0.36980136786E+03  0.37930734650E+03  0.00000000000E+00 0. -1.
        -12    1    3    3    0    0  0.22710349589E+01  0.15962084116E+02 -0.25993229029E+02  0.30587475942E+02  0.00000000000E+00 0.  1.
          5    1    4    4  501    0  0.95882960190E+01 -0.20946403070E+02 -0.15271182730E+02  0.27952972008E+02  0.41800000000E+01 0.  1.
         -5    1    4    4    0  501 -0.55486953243E+02  0.11815285020E+03  0.54953765538E+02  0.14169081387E+03  0.41800000000E+01 0.  1.
</event>
<event>
11    1  0.7577197E-009  0.1668368E+03  0.7561462E-02  0.1080818E+00
         22   -1    0    0    0    0  0.00000000000E+00  0.00000000000E+00  0.56701415256E+03  0.56701415256E+03  0.00000000000E+00 0. -1.
         22   -1    0    0    0    0 -0.00000000000E+00 -0.00000000000E+00 -0.61612297559E+03  0.61612297559E+03  0.00000000000E+00 0. -1.
         24    2    1    2    0    0  0.61801852467E+02  0.38893888093E+02 -0.56170645880E+03  0.57377268438E+03  0.91480839398E+02 0.  0.
         25    2    1    2    0    0 -0.15217077780E+03 -0.68325144253E+01  0.24939799902E+03  0.31788541474E+03  0.12509654719E+03 0.  0.
        -24    2    1    2    0    0  0.90368925336E+02 -0.32061373667E+02  0.26319963675E+03  0.29147902903E+03  0.80569853135E+02 0.  0.
        -11    1    3    3    0    0  0.18441658903E+02 -0.30154379644E+02 -0.15596551274E+03  0.15992067583E+03  0.00000000000E+00 0.  1.
         12    1    3    3    0    0  0.43360193563E+02  0.69048267737E+02 -0.40574094607E+03  0.41385200855E+03  0.00000000000E+00 0. -1.
         11    1    5    5    0    0  0.10399391319E+03 -0.36515236465E+02  0.22196023817E+03  0.24781937738E+03  0.00000000000E+00 0. -1.
        -12    1    5    5    0    0 -0.13624987853E+02  0.44538627974E+01  0.41239398575E+02  0.43659651655E+02  0.00000000000E+00 0.  1.
          5    1    4    4  501    0 -0.34051334373E+02 -0.55423950527E+02  0.11662449951E+03  0.13360409406E+03  0.41800000000E+01 0.  1.
         -5    1    4    4    0  501 -0.11811944343E+03  0.48591436101E+02  0.13277349951E+03  0.18428132068E+03  0.41800000000E+01 0.  1.
</event>
<event>
11    1  0.7577197E-009  0.1352099E+03  0.7561462E-02  0.1113028E+00
         22   -1    0    0    0    0  0.00000000000E+00  0.00000000000E+00  0.31302771597E+04  0.31302771597E+04  0.00000000000E+00 0. -1.
         22   -1    0    0    0    0 -0.00000000000E+00 -0.00000000000E+00 -0.35017118395E+03  0.35017118395E+03  0.00000000000E+00 0.  1.
         24    2    1    2    0    0  0.11110898721E+02 -0.50768196114E+02 -0.26606197417E+03  0.28287116064E+03  0.80785256178E+02 0.  0.
         25    2    1    2    0    0  0.39156384658E+02  0.61130099466E+02 -0.51293609349E+01  0.14472163673E+03  0.12509168747E+03 0.  0.
        -24    2    1    2    0    0 -0.50267283379E+02 -0.10361903352E+02  0.30512973109E+04  0.30528555463E+04  0.82930925121E+02 0.  0.
        -13    1    3    3    0    0  0.45375945785E+02 -0.21804428436E+02 -0.15927621678E+03  0.16704287709E+03  0.00000000000E+00 0.  1.
         14    1    3    3    0    0 -0.34265047065E+02 -0.28963767678E+02 -0.10678575739E+03  0.11582828355E+03  0.00000000000E+00 0. -1.
         13    1    5    5    0    0 -0.52955451958E+02 -0.36569236426E+02  0.25953481798E+04  0.25961459442E+04  0.00000000000E+00 0. -1.
        -14    1    5    5    0    0  0.26881685795E+01  0.26207333074E+02  0.45594913104E+03  0.45670960210E+03  0.00000000000E+00 0.  1.
          5    1    4    4  501    0 -0.40211621420E+02  0.28294588966E+02  0.22727633542E+02  0.54328408668E+02  0.41800000000E+01 0.  1.
         -5    1    4    4    0  501  0.79368006078E+02  0.32835510500E+02 -0.27856994477E+02  0.90393228065E+02  0.41800000000E+01 0.  1.
</event>
<event>
11    1  0.7577197E-009  0.1453704E+03  0.7561462E-02  0.1101705E+00
         22   -1    0    0    0    0  0.00000000000E+00  0.00000000000E+00  0.65120134424E+03  0.65120134424E+03  0.00000000000E+00 0.  1.
         22   -1    0    0    0    0 -0.00000000000E+00 -0.00000000000E+00 -0.41148181452E+03  0.41148181452E+03  0.00000000000E+00 0. -1.
        -24    2    1    2    0    0 -0.32275023742E+01  0.73389098246E+02 -0.37715634772E+03  0.39241675836E+03  0.79671984443E+02 0.  0.
         25    2    1    2    0    0 -0.32319938198E+01 -0.10535124096E+03  0.37655087734E+03  0.41054506628E+03  0.12508940190E+03 0.  0.
         24    2    1    2    0    0  0.64594961940E+01  0.31962142714E+02  0.24032500010E+03  0.25972133412E+03  0.92928801042E+02 0.  0.
        -13    1    5    5    0    0 -0.20195574489E+02  0.56737220716E+02  0.17311871956E+03  0.18329502040E+03  0.00000000000E+00 0.  1.
         14    1    5    5    0    0  0.26655070683E+02 -0.24775078002E+02  0.67206280549E+02  0.76426313717E+02  0.00000000000E+00 0. -1.
         11    1    3    3    0    0  0.22036691103E+02  0.17211190283E+02 -0.24522701473E+03  0.24681598323E+03  0.00000000000E+00 0. -1.
        -12    1    3    3    0    0 -0.25264193477E+02  0.56177907963E+02 -0.13192933299E+03  0.14560077513E+03  0.00000000000E+00 0.  1.
          5    1    4    4  501    0  0.42605420893E+02 -0.69826085828E+02  0.31663054187E+03  0.32705240650E+03  0.41800000000E+01 0.  1.
         -5    1    4    4    0  501 -0.45837414713E+02 -0.35525155133E+02  0.59920335466E+02  0.83492659780E+02  0.41800000000E+01 0.  1.
</event>
<event>
11    1  0.7577197E-009  0.4692519E+03  0.7561462E-02  0.9464981E-01
         22   -1    0    0    0    0  0.00000000000E+00  0.00000000000E+00  0.19897658086E+03  0.19897658086E+03  0.00000000000E+00 0.  1.
         22   -1    0    0    0    0 -0.00000000000E+00 -0.00000000000E+00 -0.28032117041E+04  0.28032117041E+04  0.00000000000E+00 0. -1.
         24    2    1    2    0    0 -0.12430868377E+03 -0.51866941852E+02 -0.11993460335E+04  0.12095980551E+04  0.80955038146E+02 0.  0.
         25    2    1    2    0    0 -0.79243632514E+02 -0.37664906906E+03 -0.12052445400E+04  0.12713790317E+04  0.12508463786E+03 0.  0.
        -24    2    1    2    0    0  0.20355231629E+03  0.42851601091E+03 -0.19964454977E+03  0.52121119819E+03  0.82119728421E+02 0.  0.
        -11    1    3    3    0    0 -0.51067572638E+02 -0.29127325018E+02 -0.84526851157E+03  0.84731054206E+03  0.00000000000E+00 0.  1.
         12    1    3    3    0    0 -0.73241111136E+02 -0.22739616835E+02 -0.35407752193E+03  0.36228751299E+03  0.00000000000E+00 0. -1.
         13    1    5    5    0    0 -0.35870810116E+00  0.36972779699E+02 -0.66315891535E+00  0.36980466329E+02  0.00000000000E+00 0. -1.
        -14    1    5    5    0    0  0.20391102439E+03  0.39154323121E+03 -0.19898139085E+03  0.48423073186E+03  0.00000000000E+00 0.  1.
          5    1    4    4  501    0 -0.52521539143E+02 -0.20762365031E+03 -0.47062061851E+03  0.51707574997E+03  0.41800000000E+01 0.  1.
         -5    1    4    4    0  501 -0.26722093371E+02 -0.16902541874E+03 -0.73462392150E+03  0.75430328177E+03  0.41800000000E+01 0.  1.
</event>
<event>
11    1  0.7577197E-009  0.1451046E+03  0.7561462E-02  0.1101988E+00
         22   -1    0    0    0    0  0.00000000000E+00  0.00000000000E+00  0.19845363458E+04  0.19845363458E+04  0.00000000000E+00 0.  1.
         22   -1    0    0    0    0 -0.00000000000E+00 -0.00000000000E+00 -0.12855812519E+03  0.12855812519E+03  0.00000000000E+00 0.  1.
         24    2    1    2    0    0  0.27684984084E+02  0.13746934857E+02 -0.10232308907E+03  0.13416737480E+03  0.81089045763E+02 0.  0.
         25    2    1    2    0    0 -0.75750486928E+02 -0.60495040225E+02  0.76987055828E+03  0.78596792633E+03  0.12508844290E+03 0.  0.
        -24    2    1    2    0    0  0.48065502843E+02  0.46748105367E+02  0.11884307514E+04  0.11929591698E+04  0.79298500445E+02 0.  0.
        -13    1    3    3    0    0  0.30268059944E+02  0.16386996474E+02 -0.11548081393E+03  0.12050106843E+03  0.00000000000E+00 0.  1.
         14    1    3    3    0    0 -0.25830758598E+01 -0.26400616171E+01  0.13157724864E+02  0.13666306371E+02  0.00000000000E+00 0. -1.
         11    1    5    5    0    0  0.18891541395E+02 -0.21925263979E+02  0.29353930419E+03  0.29496259194E+03  0.00000000000E+00 0. -1.
        -12    1    5    5    0    0  0.29173961448E+02  0.68673369346E+02  0.89489144718E+03  0.89799657790E+03  0.00000000000E+00 0.  1.
          5    1    4    4  501    0  0.34488827417E+02 -0.94174399045E+01  0.20856649191E+03  0.21164976102E+03  0.41800000000E+01 0.  1.
         -5    1    4    4    0  501 -0.11023931435E+03 -0.51077600320E+02  0.56130406637E+03  0.57431816531E+03  0.41800000000E+01 0.  1.
</event>
<event>
11    1  0.7577197E-009  0.1320658E+03  0.7561462E-02  0.1116757E+00
         22   -1    0    0    0    0  0.00000000000E+00  0.00000000000E+00  0.44342535562E+03  0.44342535562E+03  0.00000000000E+00 0.  1.
         22   -1    0    0    0    0 -0.00000000000E+00 -0.00000000000E+00 -0.27986964720E+03  0.27986964720E+03  0.00000000000E+00 0.  1.
        -24    2    1    2    0    0 -0.12084061847E+00  0.41813349703E+02 -0.21054608795E+03  0.22931931724E+03  0.80680377374E+02 0.  0.
         25    2    1    2    0    0  0.19898511372E+02 -0.46478830486E+02  0.27425621862E+02  0.13768358439E+03  0.12509345402E+03 0.  0.
         24    2    1    2    0    0 -0.19777670754E+02  0.46654807831E+01  0.34667617451E+03  0.35629210118E+03  0.79666607952E+02 0.  0.
        -11    1    5    5    0    0  0.14510120280E+02  0.30386225073E+02  0.21996953153E+03  0.22253193269E+03  0.00000000000E+00 0.  1.
         12    1    5    5    0    0 -0.34287791034E+02 -0.25720744290E+02  0.12670664298E+03  0.13376016849E+03  0.00000000000E+00 0. -1.
         11    1    3    3    0    0  0.21418384055E+02  0.14928838232E+01 -0.10101082232E+02  0.23727784133E+02  0.00000000000E+00 0. -1.
        -12    1    3    3    0    0 -0.21539224673E+02  0.40320465880E+02 -0.20044500572E+03  0.20559153311E+03  0.00000000000E+00 0.  1.
          5    1    4    4  501    0  0.54542803507E+02  0.14020839871E+02  0.36521533294E+02  0.67251737221E+02  0.41800000000E+01 0. -1.
         -5    1    4    4    0  501 -0.34644292135E+02 -0.60499670357E+02 -0.90959114328E+01  0.70431847169E+02  0.41800000000E+01 0. -1.
</event>
<event>
11    1  0.7577197E-009  0.1265589E+03  0.7561462E-02  0.1123571E+00
         22   -1    0    0    0    0  0.00000000000E+00  0.00000000000E+00  0.47610389926E+03  0.47610389926E+03  0.00000000000E+00 0.  1.
         22   -1    0    0    0    0 -0.00000000000E+00 -0.00000000000E+00 -0.64691803091E+03  0.64691803091E+03  0.00000000000E+00 0.  1.
         24    2    1    2    0    0 -0.12386298473E+02 -0.15057809818E+02 -0.61083958876E+03  0.61686243650E+03  0.83750249814E+02 0.  0.
         25    2    1    2    0    0  0.11089628579E+01  0.39874762403E+01  0.11198113137E+03  0.16794847152E+03  0.12509910287E+03 0.  0.
        -24    2    1    2    0    0  0.11277335615E+02  0.11070333578E+02  0.32804432574E+03  0.33821102215E+03  0.80770571813E+02 0.  0.
        -13    1    3    3    0    0 -0.70219090370E+00  0.71530849783E+01 -0.56113757185E+03  0.56118360118E+03  0.00000000000E+00 0.  1.
         14    1    3    3    0    0 -0.11684107569E+02 -0.22210894796E+02 -0.49702016910E+02  0.55678835317E+02  0.00000000000E+00 0. -1.
         13    1    5    5    0    0  0.14925916546E+02  0.28902983610E+02  0.50497585964E+02  0.60068058355E+02  0.00000000000E+00 0. -1.
        -14    1    5    5    0    0 -0.36485809308E+01 -0.17832650032E+02  0.27754673978E+03  0.27814296380E+03  0.00000000000E+00 0.  1.
          5    1    4    4  501    0 -0.30674158135E+02 -0.36820306215E+02  0.10511921153E+03  0.11560345998E+03  0.41800000000E+01 0. -1.
         -5    1    4    4    0  501  0.31783120993E+02  0.40807782456E+02  0.68619198371E+01  0.52345011538E+02  0.41800000000E+01 0. -1.
</event>
<event>
11    1  0.7577197E-009  0.1583855E+03  0.7561462E-02  0.1088606E+00
         22   -1    0    0    0    0  0.00000000000E+00  0.00000000000E+00  0.11622723825E+04  0.11622723825E+04  0.00000000000E+00 0.  1.
         22   -1    0    0    0    0 -0.00000000000E+00 -0.00000000000E+00 -0.89445817658E+03  0.89445817658E+03  0.00000000000E+00 0. -1.
        -24    2    1    2    0    0  0.94751007576E+02 -0.11800709736E+02 -0.82540029243E+03  0.83475067366E+03  0.80037705183E+02 0.  0.
         25    2    1    2    0    0 -0.15320926884E+03  0.13462031397E+02  0.95875942726E+02  0.22021178663E+03  0.12508688272E+03 0.  0.
         24    2    1    2    0    0  0.58458261260E+02 -0.16613216612E+01  0.99733855560E+03  0.10017680988E+04  0.73722458854E+02 0.  0.
        -13    1    5    5    0    0  0.15920155299E+02 -0.35465375239E+02  0.48541997524E+03  0.48697412308E+03  0.00000000000E+00 0.  1.
         14    1    5    5    0    0  0.42538105961E+02  0.33804053577E+02  0.51191858036E+03  0.51479397570E+03  0.00000000000E+00 0. -1.
         13    1    3    3    0    0  0.98754222721E+02  0.47426933901E+01 -0.78042033429E+03  0.78665798656E+03  0.00000000000E+00 0. -1.
        -14    1    3    3    0    0 -0.40032151447E+01 -0.16543403126E+02 -0.44979958133E+02  0.48092687096E+02  0.00000000000E+00 0.  1.
          5    1    4    4  501    0 -0.10801113966E+03 -0.45810170968E+02  0.84608401829E+02  0.14471016590E+03  0.41800000000E+01 0.  1.
         -5    1    4    4    0  501 -0.45198129173E+02  0.59272202365E+02  0.11267540897E+02  0.75501620723E+02  0.41800000000E+01 0.  1.
</event>
<event>
11    1  0.7577197E-009  0.8797091E+03  0.7561462E-02  0.8802681E-01
         22   -1    0    0    0    0  0.00000000000E+00  0.00000000000E+00  0.21947644801E+04  0.21947644801E+04  0.00000000000E+00 0.  1.
         22   -1    0    0    0    0 -0.00000000000E+00 -0.00000000000E+00 -0.55007286223E+03  0.55007286223E+03  0.00000000000E+00 0.  1.
        -24    2    1    2    0    0 -0.76290334673E+03  0.34942319868E+03  0.35141410309E+03  0.91305151624E+03  0.77801743184E+02 0.  0.
         25    2    1    2    0    0  0.83358759807E+03 -0.36669052191E+03  0.53055796432E+03  0.10613524724E+04  0.12508834738E+03 0.  0.
         24    2    1    2    0    0 -0.70684251339E+02  0.17267323229E+02  0.76271955042E+03  0.77043335364E+03  0.80820888170E+02 0.  0.
        -11    1    5    5    0    0 -0.50892692253E+02  0.38337432572E+02  0.67655818853E+03  0.67955191659E+03  0.00000000000E+00 0.  1.
         12    1    5    5    0    0 -0.19791559086E+02 -0.21070109342E+02  0.86161361890E+02  0.90881437056E+02  0.00000000000E+00 0. -1.
         13    1    3    3    0    0 -0.45936420035E+03  0.24980153838E+03  0.23096575825E+03  0.57163052632E+03  0.00000000000E+00 0. -1.
        -14    1    3    3    0    0 -0.30353914638E+03  0.99621660303E+02  0.12044834483E+03  0.34142098992E+03  0.00000000000E+00 0.  1.
          5    1    4    4  501    0  0.34521140218E+03 -0.12413844609E+03  0.27849447438E+03  0.46060602542E+03  0.41800000000E+01 0.  1.
         -5    1    4    4    0  501  0.48837619588E+03 -0.24255207582E+03  0.25206348993E+03  0.60074644697E+03  0.41800000000E+01 0.  1.
</event>
<event>
11    1  0.7577197E-009  0.1544110E+03  0.7561462E-02  0.1092455E+00
         22   -1    0    0    0    0  0.00000000000E+00  0.00000000000E+00  0.19084890053E+04  0.19084890053E+04  0.00000000000E+00 0.  1.
         22   -1    0    0    0    0 -0.00000000000E+00 -0.00000000000E+00 -0.41875270535E+03  0.41875270535E+03  0.00000000000E+00 0. -1.
        -24    2    1    2    0    0  0.95166972322E+02 -0.48731111017E+02 -0.21548409284E+03  0.25382643808E+03  0.81012299060E+02 0.  0.
         25    2    1    2    0    0 -0.70153660430E+02  0.51093547863E+01 -0.15479383651E+03  0.21108411485E+03  0.12509088753E+03 0.  0.
         24    2    1    2    0    0 -0.25013311893E+02  0.43621756231E+02  0.18600142293E+04  0.18623311577E+04  0.78076144785E+02 0.  0.
        -11    1    5    5    0    0 -0.85929999936E+01  0.53133988111E+02  0.17394568118E+04  0.17402893611E+04  0.00000000000E+00 0.  1.
         12    1    5    5    0    0 -0.16420311899E+02 -0.95122318802E+01  0.12055741756E+03  0.12204179664E+03  0.00000000000E+00 0. -1.
         13    1    3    3    0    0  0.10851807900E+03 -0.32890064353E+02 -0.18421650768E+03  0.21631840307E+03  0.00000000000E+00 0. -1.
        -14    1    3    3    0    0 -0.13351106677E+02 -0.15841046664E+02 -0.31267585159E+02  0.37508035014E+02  0.00000000000E+00 0.  1.
          5    1    4    4  501    0 -0.74800841708E+02 -0.33278409808E+02 -0.15124100975E+03  0.17202887522E+03  0.41800000000E+01 0. -1.
         -5    1    4    4    0  501  0.46471812782E+01  0.38387764595E+02 -0.35528267609E+01  0.39055239628E+02  0.41800000000E+01 0. -1.
</event>
<event>
11    1  0.7577197E-009  0.1402960E+03  0.7561462E-02  0.1107228E+00
         22   -1    0    0    0    0  0.00000000000E+00  0.00000000000E+00  0.77422192418E+03  0.77422192418E+03  0.00000000000E+00 0.  1.
         22   -1    0    0    0    0 -0.00000000000E+00 -0.00000000000E+00 -0.10547983213E+04  0.10547983213E+04  0.00000000000E+00 0. -1.
         24    2    1    2    0    0 -0.66503564496E+02  0.76935530876E+01 -0.81242873418E+03  0.81990351595E+03  0.87860187220E+02 0.  0.
         25    2    1    2    0    0  0.44196275530E+02 -0.18761074036E+02 -0.21758736551E+03  0.25552715070E+03  0.12507827327E+03 0.  0.
        -24    2    1    2    0    0  0.22307288966E+02  0.11067520949E+02  0.74943970262E+03  0.75358957879E+03  0.74948517263E+02 0.  0.
        -13    1    3    3    0    0  0.62226667364E+01 -0.13395580547E+02 -0.26524016318E+02  0.30359291842E+02  0.00000000000E+00 0.  1.
         14    1    3    3    0    0 -0.72726231232E+02  0.21089133635E+02 -0.78590471786E+03  0.78954422411E+03  0.00000000000E+00 0. -1.
         13    1    5    5    0    0  0.41405806154E+01  0.16523874531E+02  0.35272836117E+02  0.39170854025E+02  0.00000000000E+00 0. -1.
        -14    1    5    5    0    0  0.18166708350E+02 -0.54563535818E+01  0.71416686650E+03  0.71441872476E+03  0.00000000000E+00 0.  1.
          5    1    4    4  501    0  0.13317717473E+02 -0.41594304562E+02 -0.10828545068E+02  0.45190458716E+02  0.41800000000E+01 0.  1.
         -5    1    4    4    0  501  0.30878558058E+02  0.22833230525E+02 -0.20675882044E+03  0.21033669199E+03  0.41800000000E+01 0.  1.
</event>
<event>
11    1  0.7577197E-009  0.1281802E+03  0.7561462E-02  0.1121525E+00
         22   -1    0    0    0    0  0.00000000000E+00  0.00000000000E+00  0.44054862773E+03  0.44054862773E+03  0.00000000000E+00 0. -1.
         22   -1    0    0    0    0 -0.00000000000E+00 -0.00000000000E+00 -0.32341711806E+04  0.32341711806E+04  0.00000000000E+00 0.  1.
        -24    2    1    2    0    0 -0.27407919673E+02 -0.63224773769E+01 -0.31745616880E+04  0.31757963616E+04  0.83961013933E+02 0.  0.
         25    2    1    2    0    0  0.10615866611E+02 -0.44010124994E+01  0.18238452358E+02  0.12693534380E+03  0.12509146584E+03 0.  0.
         24    2    1    2    0    0  0.16792053061E+02  0.10723489876E+02  0.36270068280E+03  0.37198810286E+03  0.80164812021E+02 0.  0.
        -13    1    5    5    0    0  0.16958404839E+02  0.44052628013E+02  0.17025747021E+03  0.17668001498E+03  0.00000000000E+00 0.  1.
         14    1    5    5    0    0 -0.16635177803E+00 -0.33329138137E+02  0.19244321259E+03  0.19530808789E+03  0.00000000000E+00 0. -1.
         11    1    3    3    0    0 -0.90828891461E+01  0.36091847864E+02 -0.90581896453E+03  0.90658321012E+03  0.00000000000E+00 0. -1.
        -12    1    3    3    0    0 -0.18325030526E+02 -0.42414325241E+02 -0.22687427235E+04  0.22692131515E+04  0.00000000000E+00 0.  1.
          5    1    4    4  501    0  0.72807993047E+01  0.39292390182E+02 -0.38145820945E+02  0.55402870145E+02  0.41800000000E+01 0.  1.
         -5    1    4    4    0  501  0.33350673066E+01 -0.43693402681E+02  0.56384273303E+02  0.71532473659E+02  0.41800000000E+01 0.  1.
</event>
<event>
11    1  0.7577197E-009  0.1370283E+03  0.7561462E-02  0.1110923E+00
         22   -1    0    0    0    0  0.00000000000E+00  0.00000000000E+00  0.19745936087E+03  0.19745936087E+03  0.00000000000E+00 0.  1.
         22   -1    0    0    0    0 -0.00000000000E+00 -0.00000000000E+00 -0.85359079382E+03  0.85359079382E+03  0.00000000000E+00 0. -1.
        -24    2    1    2    0    0  0.50522592425E+02  0.20361790970E+02 -0.62989808101E+03  0.63731432883E+03  0.80192433546E+02 0.  0.
         25    2    1    2    0    0 -0.61861863333E+02 -0.21304486142E+02 -0.18662710061E+03  0.23400301195E+03  0.12508782377E+03 0.  0.
         24    2    1    2    0    0  0.11339270909E+02  0.94269517234E+00  0.16039374867E+03  0.17973281390E+03  0.80301071237E+02 0.  0.
        -13    1    5    5    0    0  0.41324244104E+01  0.34618261057E+02  0.12723837448E+03  0.13192840812E+03  0.00000000000E+00 0.  1.
         14    1    5    5    0    0  0.72068464982E+01 -0.33675565884E+02  0.33155374192E+02  0.47804405779E+02  0.00000000000E+00 0. -1.
         13    1    3    3    0    0 -0.40049165045E+01  0.30421238418E+02 -0.38485728171E+03  0.38607851324E+03  0.00000000000E+00 0. -1.
        -14    1    3    3    0    0  0.54527508929E+02 -0.10059447448E+02 -0.24504079930E+03  0.25123581559E+03  0.00000000000E+00 0.  1.
          5    1    4    4  501    0 -0.72765344466E+02  0.33022052571E+02 -0.76754542516E+02  0.11087823731E+03  0.41800000000E+01 0.  1.
         -5    1    4    4    0  501  0.10903481132E+02 -0.54326538713E+02 -0.10987255810E+03  0.12312477465E+03  0.41800000000E+01 0.  1.
</event>
<event>
11    1  0.7577197E-009  0.1507623E+03  0.7561462E-02  0.1096102E+00
         22   -1    0    0    0    0  0.00000000000E+00  0.00000000000E+00  0.60577394899E+03  0.60577394899E+03  0.00000000000E+00 0.  1.
         22   -1    0    0    0    0 -0.00000000000E+00 -0.00000000000E+00 -0.27165619258E+04  0.27165619258E+04  0.00000000000E+00 0.  1.
        -24    2    1    2    0    0  0.23090137654E+02  0.19646913341E+02 -0.22281147467E+04  0.22298180668E+04  0.81695353379E+02 0.  0.
         25    2    1    2    0    0 -0.10265113007E+03 -0.46033825248E+02 -0.46722794067E+03  0.49659471827E+03  0.12509195858E+03 0.  0.
         24    2    1    2    0    0  0.79560992417E+02  0.26386911907E+02  0.58455471057E+03  0.59592308973E+03  0.79961857095E+02 0.  0.
        -11    1    5    5    0    0  0.21601115545E+02  0.18331779850E+02  0.42555737646E+03  0.42649940563E+03  0.00000000000E+00 0.  1.
         12    1    5    5    0    0  0.57959876871E+02  0.80551320572E+01  0.15899733412E+03  0.16942368410E+03  0.00000000000E+00 0. -1.
         13    1    3    3    0    0  0.22900735037E+01 -0.24326413760E+02 -0.27110851415E+03  0.27220735715E+03  0.00000000000E+00 0. -1.
        -14    1    3    3    0    0  0.20800064150E+02  0.43973327100E+02 -0.19570062325E+04  0.19576107096E+04  0.00000000000E+00 0.  1.
          5    1    4    4  501    0 -0.33135454766E+02  0.16019823655E+02 -0.32113037549E+03  0.32325962255E+03  0.41800000000E+01 0. -1.
         -5    1    4    4    0  501 -0.69515675305E+02 -0.62053648903E+02 -0.14609756518E+03  0.17333509572E+03  0.41800000000E+01 0. -1.
</event>
<event>
11    1  0.7577197E-009  0.3681722E+03  0.7561462E-02  0.9748635E-01
         22   -1    0    0    0    0  0.00000000000E+00  0.00000000000E+00  0.98887712176E+03  0.98887712176E+03  0.00000000000E+00 0.  1.
         22   -1    0    0    0    0 -0.00000000000E+00 -0.00000000000E+00 -0.50893787891E+03  0.50893787891E+03  0.00000000000E+00 0. -1.
         24    2    1    2    0    0  0.17077303028E+03  0.14311863290E+03 -0.30746965674E+03  0.38653525109E+03  0.72287893596E+02 0.  0.
         25    2    1    2    0    0 -0.13085469026E+03 -0.43784074355E+03  0.43362816586E+03  0.64226821534E+03  0.12509039743E+03 0.  0.
        -24    2    1    2    0    0 -0.39918340022E+02  0.29472211065E+03  0.35378073374E+03  0.46901153425E+03  0.79727130367E+02 0.  0.
        -13    1    3    3    0    0  0.10203872187E+03  0.85734526601E+02 -0.23962956817E+03  0.27419817606E+03  0.00000000000E+00 0.  1.
         14    1    3    3    0    0  0.68734308411E+02  0.57384106298E+02 -0.67840088574E+02  0.11233707503E+03  0.00000000000E+00 0. -1.
         11    1    5    5    0    0  0.23406491708E+02  0.52788879233E+02  0.62120183722E+02  0.84814190148E+02  0.00000000000E+00 0. -1.
        -12    1    5    5    0    0 -0.63324831730E+02  0.24193323142E+03  0.29166055001E+03  0.38419734410E+03  0.00000000000E+00 0.  1.
          5    1    4    4  501    0 -0.11074824679E+02 -0.20574809610E+03  0.13933173346E+03  0.24876843678E+03  0.41800000000E+01 0.  1.
         -5    1    4    4    0  501 -0.11977986558E+03 -0.23209264746E+03  0.29429643240E+03  0.39349977856E+03  0.41800000000E+01 0.  1.
</event>
<event>
11    1  0.7577197E-009  0.1353624E+03  0.7561462E-02  0.1112850E+00
         22   -1    0    0    0    0  0.00000000000E+00  0.00000000000E+00  0.20656486717E+03  0.20656486717E+03  0.00000000000E+00 0.  1.
         22   -1    0    0    0    0 -0.00000000000E+00 -0.00000000000E+00 -0.17631998940E+04  0.17631998940E+04  0.00000000000E+00 0.  1.
         24    2    1    2    0    0 -0.36269044122E+01  0.38700125646E+02 -0.14957699145E+04  0.14984130634E+04  0.80020105431E+02 0.  0.
         25    2    1    2    0    0  0.84664620978E+01  0.14696919988E+02 -0.23713920182E+03  0.26864619937E+03  0.12509236172E+03 0.  0.
        -24    2    1    2    0    0 -0.48395576856E+01 -0.53397045633E+02  0.17627408947E+03  0.20270549842E+03  0.84512121436E+02 0.  0.
        -13    1    3    3    0    0  0.18346299164E+02 -0.64450205485E+01 -0.98268726906E+03  0.98287964357E+03  0.00000000000E+00 0.  1.
         14    1    3    3    0    0 -0.21973203576E+02  0.45145146194E+02 -0.51308264542E+03  0.51553341980E+03  0.00000000000E+00 0. -1.
         13    1    5    5    0    0 -0.26454002604E+02  0.11937190131E+02  0.73468017671E+02  0.78992786901E+02  0.00000000000E+00 0. -1.
        -14    1    5    5    0    0  0.21614444919E+02 -0.65334235765E+02  0.10280607180E+03  0.12371271152E+03  0.00000000000E+00 0.  1.
          5    1    4    4  501    0 -0.36867774242E+02  0.37326154067E+02 -0.43007181562E+02  0.67967379094E+02  0.41800000000E+01 0.  1.
         -5    1    4    4    0  501  0.45334236340E+02 -0.22629234080E+02 -0.19413202026E+03  0.20067882028E+03  0.41800000000E+01 0.  1.
</event>
<event>
11    1  0.7577197E-009  0.1489475E+03  0.7561462E-02  0.1097959E+00
         22   -1    0    0    0    0  0.00000000000E+00  0.00000000000E+00  0.32913974365E+04  0.32913974365E+04  0.00000000000E+00 0. -1.
         22   -1    0    0    0    0 -0.00000000000E+00 -0.00000000000E+00 -0.10393510820E+03  0.10393510820E+03  0.00000000000E+00 0.  1.
        -24    2    1    2    0    0 -0.81860216800E+02  0.14368434561E+02 -0.54160831235E+02  0.12778975731E+03  0.80556063882E+02 0.  0.
         25    2    1    2    0    0  0.60153928646E+02  0.22132427691E+02  0.39124078114E+03  0.41572553300E+03  0.12510008181E+03 0.  0.
         24    2    1    2    0    0  0.21706288154E+02 -0.36500862252E+02  0.28503823784E+04  0.28518172544E+04  0.79865346122E+02 0.  0.
        -13    1    5    5    0    0 -0.44143343883E+01  0.15045867885E+02  0.15013225315E+03  0.15094885864E+03  0.00000000000E+00 0.  1.
         14    1    5    5    0    0  0.26120622542E+02 -0.51546730137E+02  0.27002501253E+04  0.27008683958E+04  0.00000000000E+00 0. -1.
         11    1    3    3    0    0 -0.87434497689E+01  0.32574143154E+02  0.20410783427E+01  0.33788884517E+02  0.00000000000E+00 0. -1.
        -12    1    3    3    0    0 -0.73116767031E+02 -0.18205708593E+02 -0.56201909578E+02  0.94000872797E+02  0.00000000000E+00 0.  1.
          5    1    4    4  501    0  0.82264427358E+02  0.71137298827E+01  0.13674499526E+03  0.15979583002E+03  0.41800000000E+01 0. -1.
         -5    1    4    4    0  501 -0.22110498712E+02  0.15018697808E+02  0.25449578588E+03  0.25592970298E+03  0.41800000000E+01 0. -1.
</event>
<event>
11    1  0.7577197E-009  0.2049828E+03  0.7561462E-02  0.1051055E+00
         22   -1    0    0    0    0  0.00000000000E+00  0.00000000000E+00  0.77179855580E+03  0.77179855580E+03  0.00000000000E+00 0.  1.
         22   -1    0    0    0    0 -0.00000000000E+00 -0.00000000000E+00 -0.38671827406E+03  0.38671827406E+03  0.00000000000E+00 0. -1.
         24    2    1    2    0    0 -0.26295469252E+02 -0.12370199205E+03 -0.23218896053E+03  0.27617216620E+03  0.79785446364E+02 0.  0.
         25    2    1    2    0    0  0.37951204204E+02  0.27288407051E+03  0.73168072598E+02  0.31129917566E+03  0.12509036765E+03 0.  0.
        -24    2    1    2    0    0 -0.11655734952E+02 -0.14918207846E+03  0.54410116968E+03  0.57104548800E+03  0.87496958945E+02 0.  0.
        -13    1    3    3    0    0  0.94795016732E+01 -0.42965214978E+01 -0.74222315455E+02  0.74948470034E+02  0.00000000000E+00 0.  1.
         14    1    3    3    0    0 -0.35774970925E+02 -0.11940547055E+03 -0.15796664508E+03  0.20122369617E+03  0.00000000000E+00 0. -1.
         11    1    5    5    0    0  0.10948884579E+02  0.19974180753E+01  0.11487001154E+03  0.11540791699E+03  0.00000000000E+00 0. -1.
        -12    1    5    5    0    0 -0.22604619532E+02 -0.15117949653E+03  0.42923115814E+03  0.45563757101E+03  0.00000000000E+00 0.  1.
          5    1    4    4  501    0  0.11098822458E+02  0.16566877834E+03 -0.19197311262E+02  0.16719849622E+03  0.41800000000E+01 0. -1.
         -5    1    4    4    0  501  0.26852381746E+02  0.10721529217E+03  0.92365383860E+02  0.14410067944E+03  0.41800000000E+01 0. -1.
</event>
<event>
11    1  0.7577197E-009  0.1328787E+03  0.7561462E-02  0.1115782E+00
         22   -1    0    0    0    0  0.00000000000E+00  0.00000000000E+00  0.88992325015E+03  0.88992325015E+03  0.00000000000E+00 0.  1.
         22   -1    0    0    0    0 -0.00000000000E+00 -0.00000000000E+00 -0.38910782145E+03  0.38910782145E+03  0.00000000000E+00 0. -1.
         24    2    1    2    0    0 -0.16413131398E+02  0.42931024145E+02 -0.36079681681E+03  0.37335051783E+03  0.84284057996E+02 0.  0.
         25    2    1    2    0    0 -0.10344442239E+02 -0.11497166360E+02  0.18954308279E+03  0.22762494340E+03  0.12508933730E+03 0.  0.
        -24    2    1    2    0    0  0.26757573637E+02 -0.31433857785E+02  0.67206916271E+03  0.67805561037E+03  0.79864861616E+02 0.  0.
        -11    1    3    3    0    0 -0.37074805172E+02  0.28031370306E+02 -0.89396042080E+02  0.10075689177E+03  0.00000000000E+00 0.  1.
         12    1    3    3    0    0  0.20661673774E+02  0.14899653839E+02 -0.27140077473E+03  0.27259362606E+03  0.00000000000E+00 0. -1.
         13    1    5    5    0    0  0.34355304676E+02 -0.14298373163E+02  0.11930330878E+03  0.12497203655E+03  0.00000000000E+00 0. -1.
        -14    1    5    5    0    0 -0.75977310390E+01 -0.17135484622E+02  0.55276585393E+03  0.55308357381E+03  0.00000000000E+00 0.  1.
          5    1    4    4  501    0 -0.51796229575E+02 -0.44400686260E+02  0.75574361484E+02  0.10189811996E+03  0.41800000000E+01 0.  1.
         -5    1    4    4    0  501  0.41451787336E+02  0.32903519900E+02  0.11396872131E+03  0.12572682344E+03  0.41800000000E+01 0.  1.
</event>
<event>
11    1  0.7577197E-009  0.1284023E+03  0.7561462E-02  0.1121248E+00
         22   -1    0    0    0    0  0.00000000000E+00  0.00000000000E+00  0.27842758831E+04  0.27842758831E+04  0.00000000000E+00 0.  1.
         22   -1    0    0    0    0 -0.00000000000E+00 -0.00000000000E+00 -0.31711867892E+03  0.31711867892E+03  0.00000000000E+00 0.  1.
         24    2    1    2    0    0 -0.27787230775E+02  0.93246350558E+01 -0.30281618759E+03  0.31521649832E+03  0.82490716631E+02 0.  0.
         25    2    1    2    0    0 -0.25849128559E+00 -0.25930167601E+01  0.52773267683E+03  0.54236134950E+03  0.12508902702E+03 0.  0.
        -24    2    1    2    0    0  0.28045722061E+02 -0.67316182957E+01  0.22422407150E+04  0.22438167142E+04  0.78981934391E+02 0.  0.
        -11    1    3    3    0    0  0.14351771359E+02  0.28566618314E+02 -0.19876035615E+03  0.20131493784E+03  0.00000000000E+00 0.  1.
         12    1    3    3    0    0 -0.42139002135E+02 -0.19241983259E+02 -0.10405583144E+03  0.11390156047E+03  0.00000000000E+00 0. -1.
         11    1    5    5    0    0 -0.14643405609E+02  0.16051345685E+02  0.14119689766E+04  0.14121361357E+04  0.00000000000E+00 0. -1.
        -12    1    5    5    0    0  0.42689127670E+02 -0.22782963981E+02  0.83027173841E+03  0.83168057851E+03  0.00000000000E+00 0.  1.
          5    1    4    4  501    0  0.26938861073E+02  0.18804270307E+02  0.34227284213E+02  0.47626486353E+02  0.41800000000E+01 0.  1.
         -5    1    4    4    0  501 -0.27197352359E+02 -0.21397287067E+02  0.49350539262E+03  0.49473486314E+03  0.41800000000E+01 0.  1.
</event>
<event>
11    1  0.7577197E-009  0.1761779E+03  0.7561462E-02  0.1072777E+00
         22   -1    0    0    0    0  0.00000000000E+00  0.00000000000E+00  0.22286134050E+04  0.22286134050E+04  0.00000000000E+00 0. -1.
         22   -1    0    0    0    0 -0.00000000000E+00 -0.00000000000E+00 -0.13458226066E+03  0.13458226066E+03  0.00000000000E+00 0. -1.
         24    2    1    2    0    0  0.71421151859E+00 -0.12063935872E+03 -0.54875731189E+02  0.15735136453E+03  0.84815924650E+02 0.  0.
         25    2    1    2    0    0  0.32805449703E+02  0.14714714233E+03  0.32344885451E+03  0.37814448334E+03  0.12508241189E+03 0.  0.
        -24    2    1    2    0    0 -0.33519661222E+02 -0.26507783611E+02  0.18254580210E+04  0.18276998178E+04  0.79770967171E+02 0.  0.
        -11    1    3    3    0    0  0.32987146012E+02 -0.32450878027E+02  0.41089094571E+01  0.46455294894E+02  0.00000000000E+00 0.  1.
         12    1    3    3    0    0 -0.32272934493E+02 -0.88188480693E+02 -0.58984640646E+02  0.11089606963E+03  0.00000000000E+00 0. -1.
         13    1    5    5    0    0 -0.46503971655E+02  0.22684167726E+01  0.14980294545E+04  0.14987528188E+04  0.00000000000E+00 0. -1.
        -14    1    5    5    0    0  0.12984310433E+02 -0.28776200383E+02  0.32742856645E+03  0.32894699900E+03  0.00000000000E+00 0.  1.
          5    1    4    4  501    0  0.32581821519E+01  0.13494521406E+03  0.31794560313E+03  0.34543842504E+03  0.41800000000E+01 0. -1.
         -5    1    4    4    0  501  0.29547267551E+02  0.12201928276E+02  0.55032513870E+01  0.32706058295E+02  0.41800000000E+01 0. -1.
</event>
<event>
11    1  0.7577197E-009  0.1435833E+03  0.7561462E-02  0.1103622E+00
         22   -1    0    0    0    0  0.00000000000E+00  0.00000000000E+00  0.67200180214E+03  0.67200180214E+03  0.00000000000E+00 0.  1.
         22   -1    0    0    0    0 -0.00000000000E+00 -0.00000000000E+00 -0.40333040299E+03  0.40333040299E+03  0.00000000000E+00 0. -1.
        -24    2    1    2    0    0 -0.54302570456E+02  0.50239284412E+02 -0.31549151636E+03  0.33400468938E+03  0.80941218042E+02 0.  0.
         25    2    1    2    0    0  0.58818301747E+02 -0.28315995109E+01 -0.10810504805E+02  0.13867954833E+03  0.12509012565E+03 0.  0.
         24    2    1    2    0    0 -0.45157312916E+01 -0.47407684901E+02  0.59497342032E+03  0.60264796742E+03  0.83206498128E+02 0.  0.
        -13    1    5    5    0    0 -0.40983084707E+02 -0.25449108928E+02  0.41060015268E+03  0.41342442569E+03  0.00000000000E+00 0.  1.
         14    1    5    5    0    0  0.36467353416E+02 -0.21958575973E+02  0.18437326764E+03  0.18922354173E+03  0.00000000000E+00 0. -1.
         11    1    3    3    0    0 -0.41130240131E+02  0.54419810258E+01 -0.25087601497E+03  0.25428347704E+03  0.00000000000E+00 0. -1.
        -12    1    3    3    0    0 -0.13172330325E+02  0.44797303386E+02 -0.64615501395E+02  0.79721212343E+02  0.00000000000E+00 0.  1.
          5    1    4    4  501    0  0.48921315178E+02 -0.29343631848E+02 -0.59293476894E+02  0.82386483180E+02  0.41800000000E+01 0. -1.
         -5    1    4    4    0  501  0.98969865699E+01  0.26512032337E+02  0.48482972089E+02  0.56293065153E+02  0.41800000000E+01 0. -1.
</event>
<event>
11    1  0.7577197E-009  0.3856717E+03  0.7561462E-02  0.9693006E-01
         22   -1    0    0    0    0  0.00000000000E+00  0.00000000000E+00  0.62436878647E+03  0.62436878647E+03  0.00000000000E+00 0.  1.
         22   -1    0    0    0    0 -0.00000000000E+00 -0.00000000000E+00 -0.92205493587E+03  0.92205493587E+03  0.00000000000E+00 0. -1.
        -24    2    1    2    0    0  0.17233395138E+03 -0.82763905488E+01 -0.60657546399E+03  0.63566492593E+03  0.79803603288E+02 0.  0.
         25    2    1    2    0    0 -0.42368421642E+03  0.21386539583E+03  0.61966772139E+02  0.49470616661E+03  0.12509031800E+03 0.  0.
         24    2    1    2    0    0  0.25135026504E+03 -0.20558900528E+03  0.24692254246E+03  0.41605262980E+03  0.81763402323E+02 0.  0.
        -11    1    5    5    0    0  0.13586073229E+03 -0.13740201000E+03  0.10164201586E+03  0.21833128571E+03  0.00000000000E+00 0.  1.
         12    1    5    5    0    0  0.11548953276E+03 -0.68186995282E+02  0.14528052660E+03  0.19772134409E+03  0.00000000000E+00 0. -1.
         11    1    3    3    0    0  0.10527131458E+03 -0.37344362296E+02 -0.43617186082E+03  0.45024720237E+03  0.00000000000E+00 0. -1.
        -12    1    3    3    0    0  0.67062636798E+02  0.29067971747E+02 -0.17040360318E+03  0.18541772356E+03  0.00000000000E+00 0.  1.
          5    1    4    4  501    0 -0.37876388231E+03  0.15510505704E+03  0.83112118776E+02  0.41766584006E+03  0.41800000000E+01 0.  1.
         -5    1    4    4    0  501 -0.44920334109E+02  0.58760338795E+02 -0.21145346638E+02  0.77040326558E+02  0.41800000000E+01 0.  1.
</event>
<event>
11    1  0.7577197E-009  0.1953503E+03  0.7561462E-02  0.1057861E+00
         22   -1    0    0    0    0  0.00000000000E+00  0.00000000000E+00  0.10092079114E+04  0.10092079114E+04  0.00000000000E+00 0. -1.
         22   -1    0    0    0    0 -0.00000000000E+00 -0.00000000000E+00 -0.26077516153E+03  0.26077516153E+03  0.00000000000E+00 0. -1.
        -24    2    1    2    0    0 -0.91566280136E+02  0.76645761449E+02 -0.19421018486E+03  0.24159943586E+03  0.79960834778E+02 0.  0.
         25    2    1    2    0    0  0.56715591079E+02 -0.20483953562E+03  0.46287148278E+03  0.52447508907E+03  0.12509282900E+03 0.  0.
         24    2    1    2    0    0  0.34850689057E+02  0.12819377417E+03  0.47977145200E+03  0.50390854804E+03  0.78070252797E+02 0.  0.
        -11    1    5    5    0    0  0.51272300371E+02  0.52709791415E+02  0.18233499416E+03  0.19660422425E+03  0.00000000000E+00 0.  1.
         12    1    5    5    0    0 -0.16421611314E+02  0.75483982754E+02  0.29743645784E+03  0.30730432379E+03  0.00000000000E+00 0. -1.
         11    1    3    3    0    0 -0.95113301594E+02  0.87865377022E+02 -0.16253217356E+03  0.20780657367E+03  0.00000000000E+00 0. -1.
        -12    1    3    3    0    0  0.35470214584E+01 -0.11219615573E+02 -0.31678011304E+02  0.33792862190E+02  0.00000000000E+00 0.  1.
          5    1    4    4  501    0 -0.34900271495E+02 -0.85867683976E+02  0.13476819910E+03  0.16361915533E+03  0.41800000000E+01 0. -1.
         -5    1    4    4    0  501  0.91615862574E+02 -0.11897185164E+03  0.32810328368E+03  0.36085593375E+03  0.41800000000E+01 0. -1.
</event>
<event>
11    1  0.7577197E-009  0.1844217E+03  0.7561462E-02  0.1066121E+00
         22   -1    0    0    0    0  0.00000000000E+00  0.00000000000E+00  0.34967939194E+03  0.34967939194E+03  0.00000000000E+00 0. -1.
         22   -1    0    0    0    0 -0.00000000000E+00 -0.00000000000E+00 -0.51686966180E+03  0.51686966180E+03  0.00000000000E+00 0.  1.
         24    2    1    2    0    0 -0.14731700669E+03 -0.81472706723E+01 -0.35389218247E+03  0.39205657520E+03  0.81853545215E+02 0.  0.
         25    2    1    2    0    0  0.98236435126E+02 -0.68281017500E+02 -0.72909257903E+02  0.18781438910E+03  0.12508313367E+03 0.  0.
        -24    2    1    2    0    0  0.49080571566E+02  0.76428288172E+02  0.25961117051E+03  0.28667808944E+03  0.80846653434E+02 0.  0.
        -13    1    3    3    0    0 -0.12211272261E+03 -0.38191107749E+02 -0.29179254338E+03  0.31861099496E+03  0.00000000000E+00 0.  1.
         14    1    3    3    0    0 -0.25204284086E+02  0.30043837077E+02 -0.62099639090E+02  0.73445580247E+02  0.00000000000E+00 0. -1.
         11    1    5    5    0    0  0.24341687283E+02  0.27751480446E+01  0.15192880689E+03  0.15389146029E+03  0.00000000000E+00 0. -1.
        -12    1    5    5    0    0  0.24738884283E+02  0.73653140127E+02  0.10768236362E+03  0.13278662915E+03  0.00000000000E+00 0.  1.
          5    1    4    4  501    0  0.55956196291E+02 -0.10346761289E+03 -0.53988996509E+02  0.12949489166E+03  0.41800000000E+01 0.  1.
         -5    1    4    4    0  501  0.42280238835E+02  0.35186595392E+02 -0.18920261394E+02  0.58319497447E+02  0.41800000000E+01 0.  1.
</event>
<event>
11    1  0.7577197E-009  0.1366441E+03  0.7561462E-02  0.1111365E+00
         22   -1    0    0    0    0  0.00000000000E+00  0.00000000000E+00  0.11862195828E+03  0.11862195828E+03  0.00000000000E+00 0. -1.
         22   -1    0    0    0    0 -0.00000000000E+00 -0.00000000000E+00 -0.12224920443E+04  0.12224920443E+04  0.00000000000E+00 0.  1.
         24    2    1    2    0    0  0.31394923022E+02  0.46173350749E+02 -0.11164923181E+04  0.11211187494E+04  0.85056067025E+02 0.  0.
         25    2    1    2    0    0  0.88290993829E+00 -0.38493406279E+02 -0.38986309160E+01  0.13094457269E+03  0.12509500364E+03 0.  0.
        -24    2    1    2    0    0 -0.32277832961E+02 -0.76799444696E+01  0.16520862916E+02  0.89050680488E+02  0.80970641199E+02 0.  0.
        -13    1    3    3    0    0  0.79746166307E+01  0.21003164837E+02 -0.98342665959E+03  0.98368324283E+03  0.00000000000E+00 0.  1.
         14    1    3    3    0    0  0.23420306392E+02  0.25170185912E+02 -0.13306565848E+03  0.13743550661E+03  0.00000000000E+00 0. -1.
         13    1    5    5    0    0 -0.20453068576E+02  0.84962964781E+01  0.47354804003E+02  0.52278031047E+02  0.00000000000E+00 0. -1.
        -14    1    5    5    0    0 -0.11824764385E+02 -0.16176240948E+02 -0.30833941087E+02  0.36772649441E+02  0.00000000000E+00 0.  1.
          5    1    4    4  501    0  0.60723288111E+02 -0.11996912408E+02  0.12642490415E+02  0.63313099673E+02  0.41800000000E+01 0.  1.
         -5    1    4    4    0  501 -0.59840378172E+02 -0.26496493871E+02 -0.16541121331E+02  0.67631473015E+02  0.41800000000E+01 0.  1.
</event>
<event>
11    1  0.7577197E-009  0.1835865E+03  0.7561462E-02  0.1066778E+00
         22   -1    0    0    0    0  0.00000000000E+00  0.00000000000E+00  0.18352068611E+04  0.18352068611E+04  0.00000000000E+00 0. -1.
         22   -1    0    0    0    0 -0.00000000000E+00 -0.00000000000E+00 -0.68651028599E+02  0.68651028599E+02  0.00000000000E+00 0. -1.
         24    2    1    2    0    0 -0.14170028014E+02 -0.11159544429E+02 -0.16031343091E+02  0.82968620110E+02  0.79381753796E+02 0.  0.
         25    2    1    2    0    0 -0.12298387217E+03  0.25750160776E+02  0.55530741961E+03  0.58292572361E+03  0.12509182780E+03 0.  0.
        -24    2    1    2    0    0  0.13715390018E+03 -0.14590616347E+02  0.12272797560E+04  0.12379635460E+04  0.85522297102E+02 0.  0.
        -13    1    3    3    0    0  0.37453411777E+01 -0.27148081871E+02  0.23907036141E+02  0.36367462200E+02  0.00000000000E+00 0.  1.
         14    1    3    3    0    0 -0.17915369191E+02  0.15988537442E+02 -0.39938379232E+02  0.46601157910E+02  0.00000000000E+00 0. -1.
         11    1    5    5    0    0  0.11470398583E+03 -0.33716725235E+02  0.72268446199E+03  0.73250710135E+03  0.00000000000E+00 0. -1.
        -12    1    5    5    0    0  0.22449914351E+02  0.19126108887E+02  0.50459529398E+03  0.50545644461E+03  0.00000000000E+00 0.  1.
          5    1    4    4  501    0 -0.28986529810E+02  0.67154284364E+02  0.26569016588E+03  0.27560597502E+03  0.41800000000E+01 0.  1.
         -5    1    4    4    0  501 -0.93997342356E+02 -0.41404123588E+02  0.28961725372E+03  0.30731974859E+03  0.41800000000E+01 0.  1.
</event>
<event>
11    1  0.7577197E-009  0.1625004E+03  0.7561462E-02  0.1084749E+00
         22   -1    0    0    0    0  0.00000000000E+00  0.00000000000E+00  0.49099306968E+02  0.49099306968E+02  0.00000000000E+00 0. -1.
         22   -1    0    0    0    0 -0.00000000000E+00 -0.00000000000E+00 -0.23867976343E+04  0.23867976343E+04  0.00000000000E+00 0.  1.
        -24    2    1    2    0    0  0.97604327022E+02 -0.62166144298E+02 -0.18572207816E+04  0.18625131231E+04  0.79340203961E+02 0.  0.
         25    2    1    2    0    0 -0.68958291170E+02 -0.27019507447E+02 -0.40722238238E+03  0.43239288220E+03  0.12509291014E+03 0.  0.
         24    2    1    2    0    0 -0.28646035852E+02  0.89185651745E+02 -0.73255163346E+02  0.14099093596E+03  0.75745951824E+02 0.  0.
        -11    1    5    5    0    0  0.25912107687E+01  0.24996784294E+02  0.13591499254E+02  0.28570657155E+02  0.00000000000E+00 0.  1.
         12    1    5    5    0    0 -0.31237246620E+02  0.64188867452E+02 -0.86846662600E+02  0.11242027880E+03  0.00000000000E+00 0. -1.
         11    1    3    3    0    0  0.93973313331E+02 -0.54875426026E+02 -0.11258612574E+04  0.11311082472E+04  0.00000000000E+00 0. -1.
        -12    1    3    3    0    0  0.36310136905E+01 -0.72907182722E+01 -0.73135952421E+03  0.73140487589E+03  0.00000000000E+00 0.  1.
          5    1    4    4  501    0 -0.39364886093E+02 -0.29830406184E+02 -0.39323458872E+02  0.63271274745E+02  0.41800000000E+01 0. -1.
         -5    1    4    4    0  501 -0.29593405078E+02  0.28108987366E+01 -0.36789892350E+03  0.36912160746E+03  0.41800000000E+01 0. -1.
</event>
<event>
11    1  0.7577197E-009  0.1414649E+03  0.7561462E-02  0.1105933E+00
         22   -1    0    0    0    0  0.00000000000E+00  0.00000000000E+00  0.69655898089E+03  0.69655898089E+03  0.00000000000E+00 0. -1.
         22   -1    0    0    0    0 -0.00000000000E+00 -0.00000000000E+00 -0.92397790375E+03  0.92397790375E+03  0.00000000000E+00 0.  1.
         24    2    1    2    0    0 -0.90174354591E+01  0.27204121129E+02 -0.86403515883E+03  0.86813562669E+03  0.79254856566E+02 0.  0.
         25    2    1    2    0    0  0.73554703325E+02 -0.14888357676E+02  0.46379414321E+02  0.15308435742E+03  0.12510720538E+03 0.  0.
        -24    2    1    2    0    0 -0.64537267866E+02 -0.12315763453E+02  0.59023682164E+03  0.59931690053E+03  0.80526422190E+02 0.  0.
        -13    1    3    3    0    0  0.33695918120E+02  0.12024249358E+02 -0.26771797892E+03  0.27009797058E+03  0.00000000000E+00 0.  1.
         14    1    3    3    0    0 -0.42713353579E+02  0.15179871770E+02 -0.59631717990E+03  0.59803765611E+03  0.00000000000E+00 0. -1.
         13    1    5    5    0    0 -0.51879114260E+02 -0.40658056374E+02  0.48917083972E+03  0.49359156241E+03  0.00000000000E+00 0. -1.
        -14    1    5    5    0    0 -0.12658153606E+02  0.28342292921E+02  0.10106598192E+03  0.10572533813E+03  0.00000000000E+00 0.  1.
          5    1    4    4  501    0  0.66440706177E+01  0.91542718245E+01 -0.39624417404E+02  0.41418730323E+02  0.41800000000E+01 0.  1.
         -5    1    4    4    0  501  0.66910632708E+02 -0.24042629500E+02  0.86003831724E+02  0.11166562709E+03  0.41800000000E+01 0.  1.
</event>
<event>
11    1  0.7577197E-009  0.1368361E+03  0.7561462E-02  0.1111144E+00
         22   -1    0    0    0    0  0.00000000000E+00  0.00000000000E+00  0.20596665993E+03  0.20596665993E+03  0.00000000000E+00 0.  1.
         22   -1    0    0    0    0 -0.00000000000E+00 -0.00000000000E+00 -0.18527683468E+03  0.18527683468E+03  0.00000000000E+00 0.  1.
        -24    2    1    2    0    0  0.23374158358E+02 -0.41359225440E+01 -0.85697738330E+02  0.11940526299E+03  0.79687247046E+02 0.  0.
         25    2    1    2    0    0  0.35339265037E+02  0.21155891853E+02  0.11195505223E+02  0.13216750865E+03  0.12508587287E+03 0.  0.
         24    2    1    2    0    0 -0.58713423395E+02 -0.17019969309E+02  0.95192058362E+02  0.13967072297E+03  0.81911155755E+02 0.  0.
        -11    1    5    5    0    0 -0.14178072447E+02 -0.16192282904E+02  0.92582636510E+02  0.95051314284E+02  0.00000000000E+00 0.  1.
         12    1    5    5    0    0 -0.44535350948E+02 -0.82768640511E+00  0.26094218514E+01  0.44619408683E+02  0.00000000000E+00 0. -1.
         13    1    3    3    0    0  0.20329504775E+02  0.36801420664E+02 -0.45509512463E+02  0.61957639173E+02  0.00000000000E+00 0. -1.
        -14    1    3    3    0    0  0.30446535831E+01 -0.40937343209E+02 -0.40188225867E+02  0.57447623822E+02  0.00000000000E+00 0.  1.
          5    1    4    4  501    0  0.34789243270E+02 -0.34862801885E+02 -0.34061724190E+02  0.60028158870E+02  0.41800000000E+01 0.  1.
         -5    1    4    4    0  501  0.55002176691E+00  0.56018693738E+02  0.45257229413E+02  0.72139349776E+02  0.41800000000E+01 0.  1.
</event>
<event>
11    1  0.7577197E-009  0.1334710E+03  0.7561462E-02  0.1115076E+00
         22   -1    0    0    0    0  0.00000000000E+00  0.00000000000E+00  0.13710419021E+04  0.13710419021E+04  0.00000000000E+00 0. -1.
         22   -1    0    0    0    0 -0.00000000000E+00 -0.00000000000E+00 -0.47226793041E+02  0.47226793041E+02  0.00000000000E+00 0.  1.
         24    2    1    2    0    0  0.48375859228E+02  0.48668188889E+01  0.32192128831E+02  0.99048591822E+02  0.80064853095E+02 0.  0.
         25    2    1    2    0    0 -0.70967429993E+02  0.29424326983E+02  0.48060094277E+03  0.50252023231E+03  0.12508857083E+03 0.  0.
        -24    2    1    2    0    0  0.22591570765E+02 -0.34291145872E+02  0.81102203751E+03  0.81669987106E+03  0.86923370326E+02 0.  0.
        -11    1    3    3    0    0  0.95317416024E+00 -0.32953294149E+02  0.12840513785E+02  0.35379470467E+02  0.00000000000E+00 0.  1.
         12    1    3    3    0    0  0.47422685068E+02  0.37820113038E+02  0.19351615046E+02  0.63669121355E+02  0.00000000000E+00 0. -1.
         13    1    5    5    0    0 -0.14878636484E+02 -0.37305477618E+02  0.17422922402E+03  0.17879847591E+03  0.00000000000E+00 0. -1.
        -14    1    5    5    0    0  0.37470207249E+02  0.30143317464E+01  0.63679281348E+03  0.63790139515E+03  0.00000000000E+00 0.  1.
          5    1    4    4  501    0 -0.10522852012E+03  0.14886508834E+02  0.39532715777E+03  0.40938451810E+03  0.41800000000E+01 0.  1.
         -5    1    4    4    0  501  0.34261090122E+02  0.14537818149E+02  0.85273784995E+02  0.93135714204E+02  0.41800000000E+01 0.  1.
</event>
<event>
11    1  0.7577197E-009  0.1566967E+03  0.7561462E-02  0.1090226E+00
         22   -1    0    0    0    0  0.00000000000E+00  0.00000000000E+00  0.51287536245E+03  0.51287536245E+03  0.00000000000E+00 0. -1.
         22   -1    0    0    0    0 -0.00000000000E+00 -0.00000000000E+00 -0.82648223962E+03  0.82648223962E+03  0.00000000000E+00 0. -1.
         24    2    1    2    0    0  0.33622987108E+02 -0.56144843260E+02 -0.76858081716E+03  0.77585629716E+03  0.83389283783E+02 0.  0.
         25    2    1    2    0    0 -0.63354733721E+02 -0.42316588884E+02  0.81040685287E+02  0.16738972521E+03  0.12508881426E+03 0.  0.
        -24    2    1    2    0    0  0.29731746613E+02  0.98461432144E+02  0.37393325471E+03  0.39611157970E+03  0.80620557038E+02 0.  0.
        -11    1    3    3    0    0  0.17958772104E+02  0.11953847801E+02 -0.58597679296E+02  0.62442773734E+02  0.00000000000E+00 0.  1.
         12    1    3    3    0    0  0.15664215004E+02 -0.68098691061E+02 -0.70998313787E+03  0.71341352343E+03  0.00000000000E+00 0. -1.
         11    1    5    5    0    0 -0.15501632407E+02  0.64958839086E+02  0.26749683186E+03  0.27570728398E+03  0.00000000000E+00 0. -1.
        -12    1    5    5    0    0  0.45233379021E+02  0.33502593059E+02  0.10643642285E+03  0.12040429572E+03  0.00000000000E+00 0.  1.
          5    1    4    4  501    0 -0.52622581803E+02 -0.34079702853E+02 -0.19552166378E+02  0.65805181196E+02  0.41800000000E+01 0. -1.
         -5    1    4    4    0  501 -0.10732151918E+02 -0.82368860310E+01  0.10059285166E+03  0.10158454401E+03  0.41800000000E+01 0. -1.
</event>
<event>
11    1  0.7577197E-009  0.1512796E+03  0.7561462E-02  0.1095578E+00
         22   -1    0    0    0    0  0.00000000000E+00  0.00000000000E+00  0.72126593899E+03  0.72126593899E+03  0.00000000000E+00 0.  1.
         22   -1    0    0    0    0 -0.00000000000E+00 -0.00000000000E+00 -0.41204298282E+03  0.41204298282E+03  0.00000000000E+00 0.  1.
         24    2    1    2    0    0  0.22928418487E+02  0.46455647883E+02 -0.36026831909E+03  0.37415240672E+03  0.86677114135E+02 0.  0.
         25    2    1    2    0    0  0.63294743343E+02 -0.58467194902E+02  0.11070517570E+03  0.18795877289E+03  0.12509287336E+03 0.  0.
        -24    2    1    2    0    0 -0.86223161830E+02  0.12011547019E+02  0.55878609956E+03  0.57119774221E+03  0.80288509417E+02 0.  0.
        -13    1    3    3    0    0  0.29664666859E+02  0.41009804599E+02 -0.36182796260E+03  0.36535088758E+03  0.00000000000E+00 0.  1.
         14    1    3    3    0    0 -0.67362483724E+01  0.54458432844E+01  0.15596435117E+01  0.88015191357E+01  0.00000000000E+00 0. -1.
         11    1    5    5    0    0 -0.39787691042E+02 -0.27945646405E+02  0.14581383823E+03  0.15370652208E+03  0.00000000000E+00 0. -1.
        -12    1    5    5    0    0 -0.46435470788E+02  0.39957193424E+02  0.41297226133E+03  0.41749122013E+03  0.00000000000E+00 0.  1.
          5    1    4    4  501    0  0.32051977520E+02 -0.96011218107E+02  0.61556984628E+02  0.11854205170E+03  0.41800000000E+01 0.  1.
         -5    1    4    4    0  501  0.31242765823E+02  0.37544023205E+02  0.49148191077E+02  0.69416721190E+02  0.41800000000E+01 0.  1.
</event>
<event>
11    1  0.7577197E-009  0.1825471E+03  0.7561462E-02  0.1067601E+00
         22   -1    0    0    0    0  0.00000000000E+00  0.00000000000E+00  0.23966404852E+03  0.23966404852E+03  0.00000000000E+00 0. -1.
         22   -1    0    0    0    0 -0.00000000000E+00 -0.00000000000E+00 -0.18661435116E+04  0.18661435116E+04  0.00000000000E+00 0.  1.
        -24    2    1    2    0    0 -0.36788259017E+02 -0.22320965257E+02 -0.15778102088E+04  0.15804392581E+04  0.80321803412E+02 0.  0.
         25    2    1    2    0    0 -0.53787085282E+02 -0.80719026675E+02 -0.23299702112E+03  0.28167984615E+03  0.12508921641E+03 0.  0.
         24    2    1    2    0    0  0.90575344299E+02  0.10303999193E+03  0.18432776685E+03  0.24368845586E+03  0.81155436994E+02 0.  0.
        -13    1    5    5    0    0 -0.10527353938E+02  0.31482132285E+02  0.23409777465E+02  0.40619792160E+02  0.00000000000E+00 0.  1.
         14    1    5    5    0    0  0.10110269824E+03  0.71557859648E+02  0.16091798939E+03  0.20306866370E+03  0.00000000000E+00 0. -1.
         11    1    3    3    0    0  0.82069233498E+01  0.20995778478E+02 -0.21057003550E+03  0.21177326591E+03  0.00000000000E+00 0. -1.
        -12    1    3    3    0    0 -0.44995182367E+02 -0.43316743735E+02 -0.13672401733E+04  0.13686659922E+04  0.00000000000E+00 0.  1.
          5    1    4    4  501    0 -0.28722478201E+02  0.31204867558E+02 -0.77056142647E+02  0.88055925598E+02  0.41800000000E+01 0.  1.
         -5    1    4    4    0  501 -0.25064607081E+02 -0.11192389423E+03 -0.15594087848E+03  0.19362392055E+03  0.41800000000E+01 0.  1.
</event>
<event>
11    1  0.7577197E-009  0.1389861E+03  0.7561462E-02  0.1108696E+00
         22   -1    0    0    0    0  0.00000000000E+00  0.00000000000E+00  0.54610591495E+02  0.54610591495E+02  0.00000000000E+00 0.  1.
         22   -1    0    0    0    0 -0.00000000000E+00 -0.00000000000E+00 -0.21164406666E+04  0.21164406666E+04  0.00000000000E+00 0. -1.
        -24    2    1    2    0    0  0.26271040929E+02  0.65146736017E+02 -0.15528515044E+04  0.15566075377E+04  0.82127746559E+02 0.  0.
         25    2    1    2    0    0 -0.20530238065E+02 -0.12318706365E+02 -0.50034089926E+03  0.51629795477E+03  0.12509724785E+03 0.  0.
         24    2    1    2    0    0 -0.57408028638E+01 -0.52828029652E+02 -0.86376713873E+01  0.98145765623E+02  0.82062320271E+02 0.  0.
        -13    1    5    5    0    0  0.16962994040E+02  0.70431581465E+01  0.20733976300E+02  0.27699224117E+02  0.00000000000E+00 0.  1.
         14    1    5    5    0    0 -0.22703796903E+02 -0.59871187799E+02 -0.29371647687E+02  0.70446541506E+02  0.00000000000E+00 0. -1.
         11    1    3    3    0    0  0.15172849713E+02  0.45464418058E+02 -0.14685028501E+04  0.14692848088E+04  0.00000000000E+00 0. -1.
        -12    1    3    3    0    0  0.11098191216E+02  0.19682317959E+02 -0.84348654294E+02  0.87322728827E+02  0.00000000000E+00 0.  1.
          5    1    4    4  501    0  0.16546375621E+01 -0.10728082890E+02 -0.49206281651E+03  0.49220028177E+03  0.41800000000E+01 0.  1.
         -5    1    4    4    0  501 -0.22184875627E+02 -0.15906234749E+01 -0.82780827580E+01  0.24097672995E+02  0.41800000000E+01 0.  1.
</event>
<event>
11    1  0.7577197E-009  0.1375620E+03  0.7561462E-02  0.1110312E+00
         22   -1    0    0    0    0  0.00000000000E+00  0.00000000000E+00  0.24173287422E+04  0.24173287422E+04  0.00000000000E+00 0. -1.
         22   -1    0    0    0    0 -0.00000000000E+00 -0.00000000000E+00 -0.38018281206E+03  0.38018281206E+03  0.00000000000E+00 0.  1.
         24    2    1    2    0    0  0.49542551645E+02 -0.23625853734E+02 -0.25283554537E+03  0.26874366932E+03  0.72695951826E+02 0.  0.
         25    2    1    2    0    0 -0.72113797927E+02  0.10677555865E+02 -0.74502308419E+02  0.16282485633E+03  0.12508768856E+03 0.  0.
        -24    2    1    2    0    0  0.22571246282E+02  0.12948297870E+02  0.23644837839E+04  0.23659430286E+04  0.78903298866E+02 0.  0.
        -13    1    3    3    0    0  0.59260336820E+02 -0.40103437954E+02 -0.20920668211E+03  0.22110519916E+03  0.00000000000E+00 0.  1.
         14    1    3    3    0    0 -0.97177851753E+01  0.16477584219E+02 -0.43628863256E+02  0.47638470163E+02  0.00000000000E+00 0. -1.
         11    1    5    5    0    0 -0.77792721549E+01 -0.20307913636E+02  0.15918411231E+04  0.15919896638E+04  0.00000000000E+00 0. -1.
        -12    1    5    5    0    0  0.30350518436E+02  0.33256211506E+02  0.77264266079E+03  0.77395336477E+03  0.00000000000E+00 0.  1.
          5    1    4    4  501    0 -0.24088985501E+02  0.49097142926E+02  0.12445713478E+02  0.56242127004E+02  0.41800000000E+01 0.  1.
         -5    1    4    4    0  501 -0.48024812425E+02 -0.38419587061E+02 -0.86948021898E+02  0.10658272932E+03  0.41800000000E+01 0.  1.
</event>
<event>
11    1  0.7577197E-009  0.1643773E+03  0.7561462E-02  0.1083031E+00
         22   -1    0    0    0    0  0.00000000000E+00  0.00000000000E+00  0.34913882179E+03  0.34913882179E+03  0.00000000000E+00 0.  1.
         22   -1    0    0    0    0 -0.00000000000E+00 -0.00000000000E+00 -0.36259376471E+03  0.36259376471E+03  0.00000000000E+00 0.  1.
        -24    2    1    2    0    0 -0.86696888277E+02  0.73592040612E+02 -0.22145256806E+03  0.26151089214E+03  0.80090997813E+02 0.  0.
         25    2    1    2    0    0  0.90387751003E+02 -0.25100851907E+02 -0.55107615059E+02  0.16578365838E+03  0.12508946339E+03 0.  0.
         24    2    1    2    0    0 -0.36908627269E+01 -0.48491188705E+02  0.26310524020E+03  0.28443803597E+03  0.96517413133E+02 0.  0.
        -11    1    5    5    0    0 -0.16313764211E+02 -0.25025767875E+02  0.25477594003E+03  0.25652135891E+03  0.00000000000E+00 0.  1.
         12    1    5    5    0    0  0.12622901484E+02 -0.23465420830E+02  0.83293001666E+01  0.27916677057E+02  0.00000000000E+00 0. -1.
         11    1    3    3    0    0 -0.45305352209E+02  0.10535295683E+02 -0.29022700486E+02  0.54825947666E+02  0.00000000000E+00 0. -1.
        -12    1    3    3    0    0 -0.41391536067E+02  0.63056744930E+02 -0.19242986757E+03  0.20668494448E+03  0.00000000000E+00 0.  1.
          5    1    4    4  501    0 -0.50757356022E+01  0.13831694273E+02  0.28913814972E+02  0.32719412504E+02  0.41800000000E+01 0. -1.
         -5    1    4    4    0  501  0.95463486606E+02 -0.38932546180E+02 -0.84021430031E+02  0.13306424588E+03  0.41800000000E+01 0. -1.
</event>
<event>
11    1  0.7577197E-009  0.1295378E+03  0.7561462E-02  0.1119838E+00
         22   -1    0    0    0    0  0.00000000000E+00  0.00000000000E+00  0.75866087410E+03  0.75866087410E+03  0.00000000000E+00 0.  1.
         22   -1    0    0    0    0 -0.00000000000E+00 -0.00000000000E+00 -0.43858730952E+03  0.43858730952E+03  0.00000000000E+00 0. -1.
         24    2    1    2    0    0 -0.14893254366E+02 -0.19289781984E+02 -0.41675804657E+03  0.42676896685E+03  0.88603481676E+02 0.  0.
         25    2    1    2    0    0 -0.17261838417E+02 -0.64048389888E+01  0.33830316499E+03  0.36116174220E+03  0.12509907897E+03 0.  0.
        -24    2    1    2    0    0  0.32155092783E+02  0.25694620973E+02  0.39852844616E+03  0.40931747457E+03  0.83795638574E+02 0.  0.
        -11    1    3    3    0    0 -0.31370285471E+02  0.13278444749E+02 -0.67496767567E+02  0.75605724238E+02  0.00000000000E+00 0.  1.
         12    1    3    3    0    0  0.16477031105E+02 -0.32568226733E+02 -0.34926127901E+03  0.35116324261E+03  0.00000000000E+00 0. -1.
         11    1    5    5    0    0 -0.59608930391E+01  0.20842281156E+02  0.22185750504E+02  0.31018388981E+02  0.00000000000E+00 0. -1.
        -12    1    5    5    0    0  0.38115985822E+02  0.48523398175E+01  0.37634269566E+03  0.37829908558E+03  0.00000000000E+00 0.  1.
          5    1    4    4  501    0  0.32611089969E+01  0.56425539246E+02  0.19905596149E+03  0.20696672321E+03  0.41800000000E+01 0. -1.
         -5    1    4    4    0  501 -0.20522947414E+02 -0.62830378234E+02  0.13924720350E+03  0.15419501899E+03  0.41800000000E+01 0. -1.
</event>
<event>
11    1  0.7577197E-009  0.1652547E+03  0.7561462E-02  0.1082237E+00
         22   -1    0    0    0    0  0.00000000000E+00  0.00000000000E+00  0.18062369377E+04  0.18062369377E+04  0.00000000000E+00 0.  1.
         22   -1    0    0    0    0 -0.00000000000E+00 -0.00000000000E+00 -0.41756032092E+03  0.41756032092E+03  0.00000000000E+00 0.  1.
         24    2    1    2    0    0  0.74666122438E+02 -0.44856420596E+02 -0.35889132235E+03  0.37793837597E+03  0.80295121015E+02 0.  0.
         25    2    1    2    0    0 -0.16560405633E+03 -0.86153229061E+01  0.18661477148E+03  0.27923508813E+03  0.12509290246E+03 0.  0.
        -24    2    1    2    0    0  0.90937933888E+02  0.53471743502E+02  0.15609531677E+04  0.15666237946E+04  0.81279682689E+02 0.  0.
        -11    1    3    3    0    0  0.72900550062E+02 -0.14459522398E+02 -0.32015272925E+03  0.32866599769E+03  0.00000000000E+00 0.  1.
         12    1    3    3    0    0  0.17655723762E+01 -0.30396898199E+02 -0.38738593099E+02  0.49272378278E+02  0.00000000000E+00 0. -1.
         11    1    5    5    0    0 -0.13418120503E+01  0.99485736274E+01  0.20809447438E+02  0.23104278380E+02  0.00000000000E+00 0. -1.
        -12    1    5    5    0    0  0.92279745938E+02  0.43523169875E+02  0.15401437202E+04  0.15435195162E+04  0.00000000000E+00 0.  1.
          5    1    4    4  501    0 -0.31480785552E+02  0.45083954261E+02  0.19986594312E+02  0.58656109170E+02  0.41800000000E+01 0.  1.
         -5    1    4    4    0  501 -0.13412327077E+03 -0.53699277167E+02  0.16662817717E+03  0.22057897896E+03  0.41800000000E+01 0.  1.
</event>
<event>
11    1  0.7577197E-009  0.1378191E+03  0.7561462E-02  0.1110018E+00
         22   -1    0    0    0    0  0.00000000000E+00  0.00000000000E+00  0.10841395178E+03  0.10841395178E+03  0.00000000000E+00 0.  1.
         22   -1    0    0    0    0 -0.00000000000E+00 -0.00000000000E+00 -0.25950898985E+04  0.25950898985E+04  0.00000000000E+00 0. -1.
        -24    2    1    2    0    0 -0.26801499023E+02 -0.29474839039E+02 -0.23348004132E+04  0.23365273960E+04  0.80499790734E+02 0.  0.
         25    2    1    2    0    0 -0.85106659016E+01 -0.21753838743E+02 -0.21313825381E+03  0.24823598986E+03  0.12509008950E+03 0.  0.
         24    2    1    2    0    0  0.35312164925E+02  0.51228677783E+02  0.61262720286E+02  0.11874046441E+03  0.80466456192E+02 0.  0.
        -11    1    5    5    0    0 -0.75184398147E+01 -0.37763732381E+01  0.46789726679E+02  0.47540156234E+02  0.00000000000E+00 0.  1.
         12    1    5    5    0    0  0.42830604739E+02  0.55005051021E+02  0.14472993607E+02  0.71200308174E+02  0.00000000000E+00 0. -1.
         13    1    3    3    0    0 -0.33431925433E+02 -0.40688811455E+02 -0.82917617688E+03  0.83084680015E+03  0.00000000000E+00 0. -1.
        -14    1    3    3    0    0  0.66304264102E+01  0.11213972416E+02 -0.15056242363E+04  0.15056805958E+04  0.00000000000E+00 0.  1.
          5    1    4    4  501    0 -0.18291681021E+02 -0.63239628332E+02 -0.59822482224E+02  0.89050760612E+02  0.41800000000E+01 0. -1.
         -5    1    4    4    0  501  0.97810151193E+01  0.41485789588E+02 -0.15331577159E+03  0.15918522925E+03  0.41800000000E+01 0. -1.
</event>
<event>
11    1  0.7577197E-009  0.1793323E+03  0.7561462E-02  0.1070184E+00
         22   -1    0    0    0    0  0.00000000000E+00  0.00000000000E+00  0.11567317352E+04  0.11567317352E+04  0.00000000000E+00 0.  1.
         22   -1    0    0    0    0 -0.00000000000E+00 -0.00000000000E+00 -0.17579614312E+04  0.17579614312E+04  0.00000000000E+00 0. -1.
        -24    2    1    2    0    0 -0.39160233474E+02 -0.12245173579E+03 -0.16807184200E+04  0.16875168194E+04  0.79816394952E+02 0.  0.
         25    2    1    2    0    0  0.51339736844E+02  0.11574843361E+03  0.37483524913E+02  0.18190959601E+03  0.12511042329E+03 0.  0.
         24    2    1    2    0    0 -0.12179503370E+02  0.67033021789E+01  0.10420051991E+04  0.10452667511E+04  0.81329401632E+02 0.  0.
        -11    1    5    5    0    0  0.29229263623E+02  0.11505553596E+02  0.70403186074E+03  0.70473228147E+03  0.00000000000E+00 0.  1.
         12    1    5    5    0    0 -0.41408766993E+02 -0.48022514168E+01  0.33797333832E+03  0.34053446965E+03  0.00000000000E+00 0. -1.
         13    1    3    3    0    0 -0.14900478831E+02 -0.59964412390E+02 -0.12580240705E+04  0.12595405182E+04  0.00000000000E+00 0. -1.
        -14    1    3    3    0    0 -0.24259754642E+02 -0.62487323404E+02 -0.42269434951E+03  0.42797630120E+03  0.00000000000E+00 0.  1.
          5    1    4    4  501    0  0.91854615555E+02  0.63579918763E+02  0.25156847256E+02  0.11458628117E+03  0.41800000000E+01 0.  1.
         -5    1    4    4    0  501 -0.40514878711E+02  0.52168514851E+02  0.12326677658E+02  0.67323314839E+02  0.41800000000E+01 0.  1.
</event>
<event>
11    1  0.7577197E-009  0.1329751E+03  0.7561462E-02  0.1115667E+00
         22   -1    0    0    0    0  0.00000000000E+00  0.00000000000E+00  0.42988734946E+02  0.42988734946E+02  0.00000000000E+00 0. -1.
         22   -1    0    0    0    0 -0.00000000000E+00 -0.00000000000E+00 -0.17009563619E+04  0.17009563619E+04  0.00000000000E+00 0.  1.
        -24    2    1    2    0    0 -0.47975994728E+02 -0.31793654659E+01 -0.12268691218E+04  0.12303982895E+04  0.79751516689E+02 0.  0.
         25    2    1    2    0    0  0.26053884220E+02  0.19003220423E+02 -0.40460869091E+03  0.42473664997E+03  0.12511235671E+03 0.  0.
         24    2    1    2    0    0  0.21922110508E+02 -0.15823854958E+02 -0.26489814203E+02  0.88810157303E+02  0.80340279242E+02 0.  0.
        -13    1    5    5    0    0  0.38735779950E+02 -0.14747363454E+02 -0.46738062367E+02  0.62469127183E+02  0.00000000000E+00 0.  1.
         14    1    5    5    0    0 -0.16813669442E+02 -0.10764915040E+01  0.20248248164E+02  0.26341030120E+02  0.00000000000E+00 0. -1.
         13    1    3    3    0    0 -0.67433545148E+02 -0.13804472408E+02 -0.80078541370E+03  0.80373821936E+03  0.00000000000E+00 0. -1.
        -14    1    3    3    0    0  0.19457550420E+02  0.10625106942E+02 -0.42608370812E+03  0.42666007018E+03  0.00000000000E+00 0.  1.
          5    1    4    4  501    0  0.26209100109E+02  0.57229486873E+02 -0.36152498557E+03  0.36698762743E+03  0.41800000000E+01 0.  1.
         -5    1    4    4    0  501 -0.15521588901E+00 -0.38226266449E+02 -0.43083705334E+02  0.57749022536E+02  0.41800000000E+01 0.  1.
</event>
<event>
11    1  0.7577197E-009  0.2067656E+03  0.7561462E-02  0.1049840E+00
         22   -1    0    0    0    0  0.00000000000E+00  0.00000000000E+00  0.13341285982E+04  0.13341285982E+04  0.00000000000E+00 0.  1.
         22   -1    0    0    0    0 -0.00000000000E+00 -0.00000000000E+00 -0.48228055608E+03  0.48228055608E+03  0.00000000000E+00 0. -1.
         24    2    1    2    0    0 -0.18668647343E+02  0.80151427253E+02 -0.38461645177E+03  0.40131347231E+03  0.79686375274E+02 0.  0.
         25    2    1    2    0    0 -0.23547649811E+02 -0.23252677901E+03  0.13477388038E+03  0.29737891082E+03  0.12508806100E+03 0.  0.
        -24    2    1    2    0    0  0.42216297154E+02  0.15237535175E+03  0.11016906135E+04  0.11177167711E+04  0.10280130847E+03 0.  0.
        -13    1    3    3    0    0 -0.29607123022E+02  0.39327279821E+02 -0.81115051094E+02  0.94883445267E+02  0.00000000000E+00 0.  1.
         14    1    3    3    0    0  0.10938475679E+02  0.40824147432E+02 -0.30350140067E+03  0.30643002705E+03  0.00000000000E+00 0. -1.
         11    1    5    5    0    0  0.25272992710E+01  0.76457820949E+02  0.24284380567E+03  0.25460812945E+03  0.00000000000E+00 0. -1.
        -12    1    5    5    0    0  0.39688997883E+02  0.75917530805E+02  0.85884680782E+03  0.86310864168E+03  0.00000000000E+00 0.  1.
          5    1    4    4  501    0 -0.74871966139E+02 -0.12435809246E+03  0.70516115992E+02  0.16143339645E+03  0.41800000000E+01 0. -1.
         -5    1    4    4    0  501  0.51324316328E+02 -0.10816868654E+03  0.64257764383E+02  0.13594551437E+03  0.41800000000E+01 0. -1.
</event>
<event>
11    1  0.7577197E-009  0.1372839E+03  0.7561462E-02  0.1110630E+00
         22   -1    0    0    0    0  0.00000000000E+00  0.00000000000E+00  0.11308991871E+04  0.11308991871E+04  0.00000000000E+00 0.  1.
         22   -1    0    0    0    0 -0.00000000000E+00 -0.00000000000E+00 -0.20998548519E+03  0.20998548519E+03  0.00000000000E+00 0. -1.
        -24    2    1    2    0    0 -0.47301318205E+02 -0.35740295465E+02 -0.16251947476E+03  0.19119209847E+03  0.81406728331E+02 0.  0.
         25    2    1    2    0    0  0.13143861234E+02  0.32884244519E+02  0.10577250361E+03  0.16759946304E+03  0.12509045872E+03 0.  0.
         24    2    1    2    0    0  0.34157456971E+02  0.28560509460E+01  0.97766067306E+03  0.98209311078E+03  0.86669473868E+02 0.  0.
        -13    1    5    5    0    0  0.12090986250E+02  0.68709188403E+00  0.92336682969E+03  0.92344624436E+03  0.00000000000E+00 0.  1.
         14    1    5    5    0    0  0.22066470721E+02  0.21689590620E+01  0.54293843369E+02  0.58646866423E+02  0.00000000000E+00 0. -1.
         11    1    3    3    0    0 -0.61333442219E+02 -0.40147082352E+02 -0.16036799080E+03  0.17632773982E+03  0.00000000000E+00 0. -1.
        -12    1    3    3    0    0  0.14032124014E+02  0.44067868872E+01 -0.21514839628E+01  0.14864358656E+02  0.00000000000E+00 0.  1.
          5    1    4    4  501    0  0.53450340991E+02  0.12919587989E+02  0.10915903264E+03  0.12229890234E+03  0.41800000000E+01 0. -1.
         -5    1    4    4    0  501 -0.40306479757E+02  0.19964656530E+02 -0.33865290284E+01  0.45300560699E+02  0.41800000000E+01 0. -1.
</event>
<event>
11    1  0.7577197E-009  0.8676926E+03  0.7561462E-02  0.8816165E-01
         22   -1    0    0    0    0  0.00000000000E+00  0.00000000000E+00  0.14417211465E+04  0.14417211465E+04  0.00000000000E+00 0. -1.
         22   -1    0    0    0    0 -0.00000000000E+00 -0.00000000000E+00 -0.10012291116E+04  0.10012291116E+04  0.00000000000E+00 0. -1.
         24    2    1    2    0    0 -0.67167785361E+02  0.16397501192E+03 -0.31821461865E+02  0.19695736902E+03  0.79876679034E+02 0.  0.
         25    2    1    2    0    0  0.79576163716E+03 -0.56520841194E+03 -0.37768518710E+03  0.10540351872E+04  0.12508774188E+03 0.  0.
        -24    2    1    2    0    0 -0.72859385180E+03  0.40123340003E+03  0.84999868389E+03  0.11919577019E+04  0.80175795727E+02 0.  0.
        -11    1    3    3    0    0 -0.17877806998E+02  0.13315537979E+03 -0.34683125016E+02  0.13875478482E+03  0.00000000000E+00 0.  1.
         12    1    3    3    0    0 -0.49289978363E+02  0.30819632124E+02  0.28616631511E+01  0.58202584197E+02  0.00000000000E+00 0. -1.
         13    1    5    5    0    0 -0.45945058264E+03  0.25940158495E+03  0.48358416806E+03  0.71570780893E+03  0.00000000000E+00 0. -1.
        -14    1    5    5    0    0 -0.26914326916E+03  0.14183181507E+03  0.36641451583E+03  0.47624989293E+03  0.00000000000E+00 0.  1.
          5    1    4    4  501    0  0.15977601458E+03 -0.62872585584E+02 -0.90995135952E+02  0.19436801182E+03  0.41800000000E+01 0. -1.
         -5    1    4    4    0  501  0.63598562258E+03 -0.50233582636E+03 -0.28669005115E+03  0.85966717537E+03  0.41800000000E+01 0. -1.
</event>
<event>
11    1  0.7577197E-009  0.1615598E+03  0.7561462E-02  0.1085619E+00
         22   -1    0    0    0    0  0.00000000000E+00  0.00000000000E+00  0.53305750960E+03  0.53305750960E+03  0.00000000000E+00 0.  1.
         22   -1    0    0    0    0 -0.00000000000E+00 -0.00000000000E+00 -0.22711306433E+03  0.22711306433E+03  0.00000000000E+00 0.  1.
        -24    2    1    2    0    0  0.62377859600E+01  0.73155219842E+02 -0.11899568614E+03  0.15941135052E+03  0.76559840577E+02 0.  0.
         25    2    1    2    0    0  0.58943728399E+02 -0.14401935179E+03  0.50579208273E+02  0.20596656144E+03  0.12509209134E+03 0.  0.
         24    2    1    2    0    0 -0.65181514359E+02  0.70864131946E+02  0.37436092314E+03  0.39479266198E+03  0.80279450468E+02 0.  0.
        -11    1    5    5    0    0  0.89886702682E+01 -0.10813225216E+02  0.60251213638E+02  0.61870273780E+02  0.00000000000E+00 0.  1.
         12    1    5    5    0    0 -0.74170184627E+02  0.81677357162E+02  0.31410970950E+03  0.33292238820E+03  0.00000000000E+00 0. -1.
         13    1    3    3    0    0 -0.24507075663E+02 -0.77352546669E+00 -0.40117220993E+02  0.47016874836E+02  0.00000000000E+00 0. -1.
        -14    1    3    3    0    0  0.30744861623E+02  0.73928745308E+02 -0.78878465149E+02  0.11239447568E+03  0.00000000000E+00 0.  1.
          5    1    4    4  501    0 -0.37604571393E+02 -0.21378829465E+02  0.13124541495E+02  0.45396961665E+02  0.41800000000E+01 0. -1.
         -5    1    4    4    0  501  0.96548299793E+02 -0.12264052232E+03  0.37454666777E+02  0.16056959977E+03  0.41800000000E+01 0.  1.
</event>
<event>
11    1  0.7577197E-009  0.2490644E+03  0.7561462E-02  0.1024399E+00
         22   -1    0    0    0    0  0.00000000000E+00  0.00000000000E+00  0.89283140416E+03  0.89283140416E+03  0.00000000000E+00 0.  1.
         22   -1    0    0    0    0 -0.00000000000E+00 -0.00000000000E+00 -0.15676844309E+04  0.15676844309E+04  0.00000000000E+00 0. -1.
        -24    2    1    2    0    0  0.11027066340E+03  0.71574893078E+01 -0.13412070974E+04  0.13480618662E+04  0.78888961094E+02 0.  0.
         25    2    1    2    0    0 -0.35438239620E+01  0.18487467781E+03 -0.14618594134E+03  0.26684992393E+03  0.12508935714E+03 0.  0.
         24    2    1    2    0    0 -0.10672683944E+03 -0.19203216712E+03  0.81254001206E+03  0.84560404485E+03  0.80981220020E+02 0.  0.
        -13    1    5    5    0    0 -0.10938972359E+03 -0.19687674514E+03  0.75713798562E+03  0.78992689134E+03  0.00000000000E+00 0.  1.
         14    1    5    5    0    0  0.26628841522E+01  0.48445780171E+01  0.55402026442E+02  0.55677153502E+02  0.00000000000E+00 0. -1.
         13    1    3    3    0    0  0.66386374681E+02  0.43002688532E+02 -0.79046301562E+03  0.79441057460E+03  0.00000000000E+00 0. -1.
        -14    1    3    3    0    0  0.43884288719E+02 -0.35845199225E+02 -0.55074408180E+03  0.55365129165E+03  0.00000000000E+00 0.  1.
          5    1    4    4  501    0  0.12563784824E+02  0.16086614094E+03 -0.16601208187E+03  0.23154534700E+03  0.41800000000E+01 0.  1.
         -5    1    4    4    0  501 -0.16107608786E+02  0.24008536868E+02  0.19826140533E+02  0.35304576924E+02  0.41800000000E+01 0.  1.
</event>
<event>
11    1  0.7577197E-009  0.1582728E+03  0.7561462E-02  0.1088713E+00
         22   -1    0    0    0    0  0.00000000000E+00  0.00000000000E+00  0.12108934166E+04  0.12108934166E+04  0.00000000000E+00 0.  1.
         22   -1    0    0    0    0 -0.00000000000E+00 -0.00000000000E+00 -0.25814622503E+03  0.25814622503E+03  0.00000000000E+00 0. -1.
         24    2    1    2    0    0  0.56090927859E+01  0.95893225179E+02 -0.13839813678E+03  0.18880417933E+03  0.85240842975E+02 0.  0.
         25    2    1    2    0    0  0.65787132733E+02 -0.97521239049E+02 -0.11768559561E+02  0.17211999096E+03  0.12509377840E+03 0.  0.
        -24    2    1    2    0    0 -0.71396225519E+02  0.16280138693E+01  0.11029138880E+04  0.11081154714E+04  0.80004888843E+02 0.  0.
        -11    1    3    3    0    0  0.16597755201E+02 -0.11602516111E+02 -0.24883465145E+02  0.32082560612E+02  0.00000000000E+00 0.  1.
         12    1    3    3    0    0 -0.10988662415E+02  0.10749574129E+03 -0.11351467164E+03  0.15672161872E+03  0.00000000000E+00 0. -1.
         11    1    5    5    0    0 -0.29596223837E+02 -0.30482857187E+02  0.25083612987E+03  0.25440893282E+03  0.00000000000E+00 0. -1.
        -12    1    5    5    0    0 -0.41800001681E+02  0.32110871056E+02  0.85207775808E+03  0.85370653857E+03  0.00000000000E+00 0.  1.
          5    1    4    4  501    0 -0.21084353795E+02  0.95989872684E+01  0.19583500790E+02  0.30621502816E+02  0.41800000000E+01 0.  1.
         -5    1    4    4    0  501  0.86871486527E+02 -0.10712022632E+03 -0.31352060351E+02  0.14149848814E+03  0.41800000000E+01 0.  1.
</event>
<event>
11    1  0.7577197E-009  0.1486582E+03  0.7561462E-02  0.1098258E+00
         22   -1    0    0    0    0  0.00000000000E+00  0.00000000000E+00  0.13862296986E+03  0.13862296986E+03  0.00000000000E+00 0.  1.
         22   -1    0    0    0    0 -0.00000000000E+00 -0.00000000000E+00 -0.59204515580E+03  0.59204515580E+03  0.00000000000E+00 0. -1.
        -24    2    1    2    0    0 -0.22737866175E+01  0.16536506254E+02 -0.41306175655E+03  0.41911199200E+03  0.68965360652E+02 0.  0.
         25    2    1    2    0    0 -0.78408288322E+02 -0.97329060266E+01 -0.10453798714E+03  0.18115097267E+03  0.12507955472E+03 0.  0.
         24    2    1    2    0    0  0.80682074939E+02 -0.68036002273E+01  0.64177557747E+02  0.13040516099E+03  0.79566707238E+02 0.  0.
        -13    1    5    5    0    0  0.78592022533E+02  0.23386498471E+02  0.37928546875E+02  0.90344944433E+02  0.00000000000E+00 0.  1.
         14    1    5    5    0    0  0.20900524067E+01 -0.30190098698E+02  0.26249010872E+02  0.40060216553E+02  0.00000000000E+00 0. -1.
         11    1    3    3    0    0 -0.34272835005E+01 -0.41861885691E+01 -0.38024105977E+03  0.38027954716E+03  0.00000000000E+00 0. -1.
        -12    1    3    3    0    0  0.11534968831E+01  0.20722694823E+02 -0.32820696778E+02  0.38832444847E+02  0.00000000000E+00 0.  1.
          5    1    4    4  501    0 -0.51374418098E+02  0.39783596013E+02 -0.10618321109E+03  0.12455686277E+03  0.41800000000E+01 0. -1.
         -5    1    4    4    0  501 -0.27033870223E+02 -0.49516502039E+02  0.16452239515E+01  0.56594109899E+02  0.41800000000E+01 0. -1.
</event>
<event>
11    1  0.7577197E-009  0.2068643E+03  0.7561462E-02  0.1049773E+00
         22   -1    0    0    0    0  0.00000000000E+00  0.00000000000E+00  0.21911910667E+03  0.21911910667E+03  0.00000000000E+00 0.  1.
         22   -1    0    0    0    0 -0.00000000000E+00 -0.00000000000E+00 -0.14914661900E+04  0.14914661900E+04  0.00000000000E+00 0. -1.
         24    2    1    2    0    0  0.12958746177E+03 -0.99758991417E+02 -0.13560140858E+04  0.13682998056E+04  0.82008478396E+02 0.  0.
         25    2    1    2    0    0 -0.13493248407E+03  0.13310667929E+03  0.83789932119E+01  0.22724717951E+03  0.12508760825E+03 0.  0.
        -24    2    1    2    0    0  0.53450222979E+01 -0.33347687874E+02  0.75288009287E+02  0.11503831153E+03  0.80155419201E+02 0.  0.
        -13    1    3    3    0    0  0.85955904728E+01  0.14222158072E+02 -0.11050161686E+03  0.11174417785E+03  0.00000000000E+00 0.  1.
         14    1    3    3    0    0  0.12099187130E+03 -0.11398114949E+03 -0.12455124689E+04  0.12565556278E+04  0.00000000000E+00 0. -1.
         11    1    5    5    0    0  0.29666153668E+02  0.94896858444E+01  0.89432938649E+01  0.32405513667E+02  0.00000000000E+00 0. -1.
        -12    1    5    5    0    0 -0.24321131370E+02 -0.42837373719E+02  0.66344715422E+02  0.82632797863E+02  0.00000000000E+00 0.  1.
          5    1    4    4  501    0 -0.10818749426E+03  0.56121819448E+02  0.54429713270E+02  0.13354496853E+03  0.41800000000E+01 0.  1.
         -5    1    4    4    0  501 -0.26744989810E+02  0.76984859843E+02 -0.46050720058E+02  0.93702210982E+02  0.41800000000E+01 0.  1.
</event>
<event>
11    1  0.7577197E-009  0.1479241E+03  0.7561462E-02  0.1099019E+00
         22   -1    0    0    0    0  0.00000000000E+00  0.00000000000E+00  0.10043130148E+03  0.10043130148E+03  0.00000000000E+00 0.  1.
         22   -1    0    0    0    0 -0.00000000000E+00 -0.00000000000E+00 -0.10614469341E+04  0.10614469341E+04  0.00000000000E+00 0. -1.
         24    2    1    2    0    0  0.78995924208E+02 -0.33149347790E+01 -0.89573458757E+03  0.90289662127E+03  0.81427959049E+02 0.  0.
         25    2    1    2    0    0 -0.77873734182E+02 -0.67745700327E+01 -0.91709429929E+02  0.17369507511E+03  0.12509654794E+03 0.  0.
        -24    2    1    2    0    0 -0.11221900258E+01  0.10089504812E+02  0.26428384874E+02  0.85286539196E+02  0.80450461921E+02 0.  0.
        -13    1    3    3    0    0  0.32099663065E+02  0.35454104130E+02 -0.26930167661E+03  0.27351558437E+03  0.00000000000E+00 0.  1.
         14    1    3    3    0    0  0.46896261143E+02 -0.38769038909E+02 -0.62643291095E+03  0.62938103690E+03  0.00000000000E+00 0. -1.
         13    1    5    5    0    0 -0.28336926574E+02 -0.92276199141E+01 -0.13947030135E+02  0.32903647617E+02  0.00000000000E+00 0. -1.
        -14    1    5    5    0    0  0.27214736548E+02  0.19317124726E+02  0.40375415009E+02  0.52382891579E+02  0.00000000000E+00 0.  1.
          5    1    4    4  501    0 -0.17684803318E+02 -0.61644538471E+02 -0.27523324263E+02  0.69912854113E+02  0.41800000000E+01 0.  1.
         -5    1    4    4    0  501 -0.60188930865E+02  0.54869968439E+02 -0.64186105666E+02  0.10378222100E+03  0.41800000000E+01 0.  1.
</event>
<event>
11    1  0.7577197E-009  0.1380156E+03  0.7561462E-02  0.1109795E+00
         22   -1    0    0    0    0  0.00000000000E+00  0.00000000000E+00  0.33282763774E+03  0.33282763774E+03  0.00000000000E+00 0. -1.
         22   -1    0    0    0    0 -0.00000000000E+00 -0.00000000000E+00 -0.10146482052E+04  0.10146482052E+04  0.00000000000E+00 0. -1.
        -24    2    1    2    0    0 -0.31310134840E+02 -0.27806263602E+01 -0.41016013604E+03  0.41920475484E+03  0.80704602459E+02 0.  0.
         25    2    1    2    0    0  0.66727016599E+02 -0.43254619836E+02 -0.58248043607E+03  0.60104459214E+03  0.12509071289E+03 0.  0.
         24    2    1    2    0    0 -0.35416881759E+02  0.46035246196E+02  0.31082000462E+03  0.32722649599E+03  0.84228884608E+02 0.  0.
        -11    1    5    5    0    0  0.17888166212E+02 -0.12993375144E+02  0.84221328726E+02  0.87074947605E+02  0.00000000000E+00 0.  1.
         12    1    5    5    0    0 -0.53305047970E+02  0.59028621340E+02  0.22659867589E+03  0.24015154839E+03  0.00000000000E+00 0. -1.
         11    1    3    3    0    0 -0.47754315379E+02 -0.16022421572E+02 -0.37364768566E+03  0.37702756614E+03  0.00000000000E+00 0. -1.
        -12    1    3    3    0    0  0.16444180539E+02  0.13241795212E+02 -0.36512450388E+02  0.42177188708E+02  0.00000000000E+00 0.  1.
          5    1    4    4  501    0  0.56172928816E+02 -0.63512949617E+02 -0.19267310843E+03  0.21054617501E+03  0.41800000000E+01 0. -1.
         -5    1    4    4    0  501  0.10554087782E+02  0.20258329781E+02 -0.38980732764E+03  0.39049841713E+03  0.41800000000E+01 0. -1.
</event>
<event>
11    1  0.7577197E-009  0.1394487E+03  0.7561462E-02  0.1108176E+00
         22   -1    0    0    0    0  0.00000000000E+00  0.00000000000E+00  0.53699183629E+03  0.53699183629E+03  0.00000000000E+00 0. -1.
         22   -1    0    0    0    0 -0.00000000000E+00 -0.00000000000E+00 -0.57012887956E+03  0.57012887956E+03  0.00000000000E+00 0. -1.
        -24    2    1    2    0    0  0.61537139013E+01 -0.62746436784E+02 -0.43921907511E+03  0.45090068859E+03  0.80143942373E+02 0.  0.
         25    2    1    2    0    0 -0.34360203564E+02  0.48029691396E+02 -0.81917667309E+02  0.16076565440E+03  0.12509043358E+03 0.  0.
         24    2    1    2    0    0  0.28206489663E+02  0.14716745388E+02  0.48799969915E+03  0.49545437287E+03  0.79493022170E+02 0.  0.
        -11    1    5    5    0    0  0.13804702233E+02 -0.25263192603E+02  0.76016052882E+02  0.81284924802E+02  0.00000000000E+00 0.  1.
         12    1    5    5    0    0  0.14401787430E+02  0.39979937990E+02  0.41198364627E+03  0.41416944807E+03  0.00000000000E+00 0. -1.
         11    1    3    3    0    0  0.26049425597E+02 -0.54636016614E+02 -0.41100108019E+03  0.41543417626E+03  0.00000000000E+00 0. -1.
        -12    1    3    3    0    0 -0.19895711696E+02 -0.81104201699E+01 -0.28217994926E+02  0.35466512330E+02  0.00000000000E+00 0.  1.
          5    1    4    4  501    0  0.20984843081E+02 -0.22034209175E+02  0.10245242730E+02  0.32377575754E+02  0.41800000000E+01 0.  1.
         -5    1    4    4    0  501 -0.55345046644E+02  0.70063900571E+02 -0.92162910038E+02  0.12838807864E+03  0.41800000000E+01 0.  1.
</event>
<event>
11    1  0.7577197E-009  0.1402693E+03  0.7561462E-02  0.1107258E+00
         22   -1    0    0    0    0  0.00000000000E+00  0.00000000000E+00  0.92933885518E+03  0.92933885518E+03  0.00000000000E+00 0.  1.
         22   -1    0    0    0    0 -0.00000000000E+00 -0.00000000000E+00 -0.12801668203E+03  0.12801668203E+03  0.00000000000E+00 0. -1.
        -24    2    1    2    0    0 -0.41682685971E+02  0.18872699216E+02 -0.79493724144E+02  0.12535763564E+03  0.85449748681E+02 0.  0.
         25    2    1    2    0    0  0.85048477672E+02  0.20382537784E+02  0.27655184302E+03  0.31587463753E+03  0.12508866199E+03 0.  0.
         24    2    1    2    0    0 -0.43365791701E+02 -0.39255237000E+02  0.60426405428E+03  0.61612326403E+03  0.10512499067E+03 0.  0.
        -11    1    5    5    0    0 -0.71708879056E+02 -0.48171913330E+02  0.36828766573E+03  0.37828362547E+03  0.00000000000E+00 0.  1.
         12    1    5    5    0    0  0.28343087356E+02  0.89166763304E+01  0.23597638855E+03  0.23783963856E+03  0.00000000000E+00 0. -1.
         13    1    3    3    0    0 -0.10429905277E+02  0.39094869209E+02 -0.78273312552E+02  0.88113013683E+02  0.00000000000E+00 0. -1.
        -14    1    3    3    0    0 -0.31252780694E+02 -0.20222169992E+02 -0.12204115927E+01  0.37244621958E+02  0.00000000000E+00 0.  1.
          5    1    4    4  501    0  0.75725571953E+02 -0.42498421972E+02  0.13393762932E+03  0.15967854917E+03  0.41800000000E+01 0.  1.
         -5    1    4    4    0  501  0.93229057186E+01  0.62880959755E+02  0.14261421369E+03  0.15619608836E+03  0.41800000000E+01 0.  1.
</event>
<event>
11    1  0.7577197E-009  0.1437714E+03  0.7561462E-02  0.1103419E+00
         22   -1    0    0    0    0  0.00000000000E+00  0.00000000000E+00  0.16050351639E+04  0.16050351639E+04  0.00000000000E+00 0. -1.
         22   -1    0    0    0    0 -0.00000000000E+00 -0.00000000000E+00 -0.36984275353E+03  0.36984275353E+03  0.00000000000E+00 0.  1.
        -24    2    1    2    0    0  0.31887909169E+02 -0.10652971519E+02 -0.32407905799E+03  0.33548337179E+03  0.79947059739E+02 0.  0.
         25    2    1    2    0    0  0.26085711418E+02 -0.32848901802E+02  0.76370169252E+02  0.15244513964E+03  0.12509037996E+03 0.  0.
         24    2    1    2    0    0 -0.57973620587E+02  0.43501873321E+02  0.14829012992E+04  0.14869494061E+04  0.82273443206E+02 0.  0.
        -11    1    5    5    0    0 -0.17000568717E+01 -0.14592553196E+02  0.60792506200E+02  0.62542478463E+02  0.00000000000E+00 0.  1.
         12    1    5    5    0    0 -0.56273563716E+02  0.58094426518E+02  0.14221087930E+04  0.14244069276E+04  0.00000000000E+00 0. -1.
         11    1    3    3    0    0 -0.15382464892E+02  0.23379755485E+02 -0.12260157650E+03  0.12575523747E+03  0.00000000000E+00 0. -1.
        -12    1    3    3    0    0  0.47270374062E+02 -0.34032727004E+02 -0.20147748150E+03  0.20972813431E+03  0.00000000000E+00 0.  1.
          5    1    4    4  501    0 -0.29909696929E+02 -0.16422742674E+02  0.86490389953E+02  0.93071780909E+02  0.41800000000E+01 0. -1.
         -5    1    4    4    0  501  0.55995408347E+02 -0.16426159128E+02 -0.10120220701E+02  0.59373358728E+02  0.41800000000E+01 0. -1.
</event>
<event>
11    1  0.7577197E-009  0.1313023E+03  0.7561462E-02  0.1117679E+00
         22   -1    0    0    0    0  0.00000000000E+00  0.00000000000E+00  0.90258544657E+03  0.90258544657E+03  0.00000000000E+00 0.  1.
         22   -1    0    0    0    0 -0.00000000000E+00 -0.00000000000E+00 -0.48624045447E+02  0.48624045447E+02  0.00000000000E+00 0. -1.
        -24    2    1    2    0    0 -0.26093216268E+02 -0.27641523191E+02  0.49053193663E+02  0.10068602374E+03  0.79287765951E+02 0.  0.
         25    2    1    2    0    0  0.36767856547E+02  0.27626482298E+02  0.20129621779E+03  0.24141826859E+03  0.12509002884E+03 0.  0.
         24    2    1    2    0    0 -0.10674640280E+02  0.15040893834E-01  0.60361198967E+03  0.60910519968E+03  0.80918242880E+02 0.  0.
        -11    1    5    5    0    0 -0.34538417392E+02 -0.25911248988E+02  0.41411651229E+03  0.41636135850E+03  0.00000000000E+00 0.  1.
         12    1    5    5    0    0  0.23863777113E+02  0.25926289882E+02  0.18949547739E+03  0.19274384118E+03  0.00000000000E+00 0. -1.
         11    1    3    3    0    0 -0.31000272466E+02 -0.50636147724E+02  0.18610258078E+02  0.62220399026E+02  0.00000000000E+00 0. -1.
        -12    1    3    3    0    0  0.49070561980E+01  0.22994624533E+02  0.30442935585E+02  0.38465624718E+02  0.00000000000E+00 0.  1.
          5    1    4    4  501    0 -0.60850089928E+01  0.66500781236E+02  0.64967792915E+02  0.93261287551E+02  0.41800000000E+01 0. -1.
         -5    1    4    4    0  501  0.42852865540E+02 -0.38874298938E+02  0.13632842487E+03  0.14815698104E+03  0.41800000000E+01 0. -1.
</event>
<event>
11    1  0.7577197E-009  0.1315357E+03  0.7561462E-02  0.1117396E+00
         22   -1    0    0    0    0  0.00000000000E+00  0.00000000000E+00  0.11179573356E+04  0.11179573356E+04  0.00000000000E+00 0.  1.
         22   -1    0    0    0    0 -0.00000000000E+00 -0.00000000000E+00 -0.14642823451E+03  0.14642823451E+03  0.00000000000E+00 0.  1.
        -24    2    1    2    0    0 -0.41863073523E+02  0.83400099954E+01 -0.11662941784E+03  0.14631541933E+03  0.77354431913E+02 0.  0.
         25    2    1    2    0    0 -0.61594249177E+01 -0.27956543853E+01  0.30750760898E+03  0.33204211730E+03  0.12508110923E+03 0.  0.
         24    2    1    2    0    0  0.48022498441E+02 -0.55443556101E+01  0.78065090998E+03  0.78602803352E+03  0.78021317496E+02 0.  0.
        -11    1    5    5    0    0  0.64646648364E+02  0.10988718160E+02  0.64912944440E+03  0.65243312045E+03  0.00000000000E+00 0.  1.
         12    1    5    5    0    0 -0.16624149923E+02 -0.16533073770E+02  0.13152146558E+03  0.13359491307E+03  0.00000000000E+00 0. -1.
         11    1    3    3    0    0  0.12357717636E+02  0.73383420225E+01  0.32546143304E+01  0.14736246579E+02  0.00000000000E+00 0. -1.
        -12    1    3    3    0    0 -0.54220791159E+02  0.10016679729E+01 -0.11988403217E+03  0.13157917275E+03  0.00000000000E+00 0.  1.
          5    1    4    4  501    0 -0.34156280883E+02 -0.44254155699E+02  0.72033765627E+02  0.91276599470E+02  0.41800000000E+01 0. -1.
         -5    1    4    4    0  501  0.27996855965E+02  0.41458501314E+02  0.23547384335E+03  0.24076551783E+03  0.41800000000E+01 0. -1.
</event>
<event>
11    1  0.7577197E-009  0.1538888E+03  0.7561462E-02  0.1092970E+00
         22   -1    0    0    0    0  0.00000000000E+00  0.00000000000E+00  0.99525398781E+03  0.99525398781E+03  0.00000000000E+00 0.  1.
         22   -1    0    0    0    0 -0.00000000000E+00 -0.00000000000E+00 -0.66250349478E+02  0.66250349478E+02  0.00000000000E+00 0.  1.
        -24    2    1    2    0    0  0.31920631761E+02 -0.28060060366E+02  0.29148683057E+02  0.93455709745E+02  0.77961722917E+02 0.  0.
         25    2    1    2    0    0 -0.11611204306E+03  0.13479635528E+02  0.22432232602E+03  0.28219532380E+03  0.12509991090E+03 0.  0.
         24    2    1    2    0    0  0.84191411297E+02  0.14580424838E+02  0.67553262925E+03  0.68585330374E+03  0.82156183841E+02 0.  0.
        -11    1    5    5    0    0  0.20229966995E+01  0.96247498970E+01  0.34785839315E+03  0.34799739943E+03  0.00000000000E+00 0.  1.
         12    1    5    5    0    0  0.82168414597E+02  0.49556749409E+01  0.32767423611E+03  0.33785590431E+03  0.00000000000E+00 0. -1.
         11    1    3    3    0    0 -0.16402866409E+02 -0.69156849733E+01  0.36102234696E+02  0.40252354902E+02  0.00000000000E+00 0. -1.
        -12    1    3    3    0    0  0.48323498170E+02 -0.21144375393E+02 -0.69535516386E+01  0.53203354843E+02  0.00000000000E+00 0.  1.
          5    1    4    4  501    0 -0.50072330597E+02 -0.55955806706E+02  0.10316615896E+03  0.12766761277E+03  0.41800000000E+01 0. -1.
         -5    1    4    4    0  501 -0.66039712460E+02  0.69435442234E+02  0.12115616706E+03  0.15452771103E+03  0.41800000000E+01 0. -1.
</event>
<event>
11    1  0.7577197E-009  0.2950683E+03  0.7561462E-02  0.1002300E+00
         22   -1    0    0    0    0  0.00000000000E+00  0.00000000000E+00  0.10275642342E+04  0.10275642342E+04  0.00000000000E+00 0.  1.
         22   -1    0    0    0    0 -0.00000000000E+00 -0.00000000000E+00 -0.26088344767E+03  0.26088344767E+03  0.00000000000E+00 0. -1.
        -24    2    1    2    0    0 -0.18367701842E+03  0.17901379824E+03 -0.67359126454E+01  0.26921788542E+03  0.81545755602E+02 0.  0.
         25    2    1    2    0    0  0.13583245162E+03 -0.26040415987E+03  0.98799094062E+02  0.33417033586E+03  0.12509105080E+03 0.  0.
         24    2    1    2    0    0  0.47844566794E+02  0.81390361624E+02  0.67461760516E+03  0.68505946064E+03  0.72691525542E+02 0.  0.
        -11    1    5    5    0    0  0.53692404989E+02  0.59377314253E+02  0.32549842020E+03  0.33519809270E+03  0.00000000000E+00 0.  1.
         12    1    5    5    0    0 -0.58478381951E+01  0.22013047371E+02  0.34911918496E+03  0.34986136793E+03  0.00000000000E+00 0. -1.
         13    1    3    3    0    0 -0.48021762638E+02  0.98839936481E+02  0.11957742675E+02  0.11053691845E+03  0.00000000000E+00 0. -1.
        -14    1    3    3    0    0 -0.13565525578E+03  0.80173861760E+02 -0.18693655321E+02  0.15868096697E+03  0.00000000000E+00 0.  1.
          5    1    4    4  501    0  0.73223627822E+02 -0.28381406257E+02  0.18917970008E+02  0.80886129107E+02  0.41800000000E+01 0.  1.
         -5    1    4    4    0  501  0.62608823802E+02 -0.23202275361E+03  0.79881124054E+02  0.25328420675E+03  0.41800000000E+01 0.  1.
</event>
<event>
11    1  0.7577197E-009  0.1337431E+03  0.7561462E-02  0.1114754E+00
         22   -1    0    0    0    0  0.00000000000E+00  0.00000000000E+00  0.41161351155E+03  0.41161351155E+03  0.00000000000E+00 0. -1.
         22   -1    0    0    0    0 -0.00000000000E+00 -0.00000000000E+00 -0.22355300746E+04  0.22355300746E+04  0.00000000000E+00 0. -1.
        -24    2    1    2    0    0  0.40362981679E+02  0.77670495087E+01 -0.21835174175E+04  0.21853955311E+04  0.80720612820E+02 0.  0.
         25    2    1    2    0    0 -0.75456054434E+02  0.17019123377E+02  0.80325383207E+02  0.16758293882E+03  0.12509439429E+03 0.  0.
         24    2    1    2    0    0  0.35093072755E+02 -0.24786172886E+02  0.27927547125E+03  0.29416511625E+03  0.81807387527E+02 0.  0.
        -11    1    5    5    0    0 -0.11951467573E+02  0.19863136866E+02  0.39771199939E+02  0.46034010556E+02  0.00000000000E+00 0.  1.
         12    1    5    5    0    0  0.47044540328E+02 -0.44649309751E+02  0.23950427132E+03  0.24813110570E+03  0.00000000000E+00 0. -1.
         11    1    3    3    0    0  0.64414751923E+02  0.10142190152E+02 -0.14213704369E+04  0.14228654340E+04  0.00000000000E+00 0. -1.
        -12    1    3    3    0    0 -0.24051770244E+02 -0.23751406429E+01 -0.76214698064E+03  0.76253009714E+03  0.00000000000E+00 0.  1.
          5    1    4    4  501    0 -0.85153342958E+01 -0.45055177920E+02  0.19976595039E+00  0.46043373921E+02  0.41800000000E+01 0.  1.
         -5    1    4    4    0  501 -0.66940720138E+02  0.62074301297E+02  0.80125617256E+02  0.12153956489E+03  0.41800000000E+01 0.  1.
</event>
<event>
11    1  0.7577197E-009  0.1298696E+03  0.7561462E-02  0.1119429E+00
         22   -1    0    0    0    0  0.00000000000E+00  0.00000000000E+00  0.19241762578E+04  0.19241762578E+04  0.00000000000E+00 0.  1.
         22   -1    0    0    0    0 -0.00000000000E+00 -0.00000000000E+00 -0.17251208790E+03  0.17251208790E+03  0.00000000000E+00 0.  1.
        -24    2    1    2    0    0  0.43910761761E+02 -0.68020156360E+00 -0.11735905277E+03  0.15941059916E+03  0.98539201262E+02 0.  0.
         25    2    1    2    0    0  0.18518136073E+02 -0.16370715156E+02  0.91977509191E+02  0.15721302268E+03  0.12508057653E+03 0.  0.
         24    2    1    2    0    0 -0.62428897834E+02  0.17050916720E+02  0.17770457135E+04  0.17800647239E+04  0.80937335447E+02 0.  0.
        -11    1    5    5    0    0 -0.23134372778E+02 -0.16611674708E+01  0.14441240804E+04  0.14443103262E+04  0.00000000000E+00 0.  1.
         12    1    5    5    0    0 -0.39294525056E+02  0.18712084191E+02  0.33292163308E+03  0.33575439769E+03  0.00000000000E+00 0. -1.
         13    1    3    3    0    0 -0.17556846515E+02 -0.16894542570E+02  0.17194715963E+01  0.24425908597E+02  0.00000000000E+00 0. -1.
        -14    1    3    3    0    0  0.61467608276E+02  0.16214341006E+02 -0.11907852437E+03  0.13498469057E+03  0.00000000000E+00 0.  1.
          5    1    4    4  501    0  0.62482595454E+02 -0.67831292046E+01  0.92629473553E+02  0.11201686189E+03  0.41800000000E+01 0.  1.
         -5    1    4    4    0  501 -0.43964459381E+02 -0.95875859518E+01 -0.65196436188E+00  0.45196160795E+02  0.41800000000E+01 0.  1.
</event>
<event>
11    1  0.7577197E-009  0.1565252E+03  0.7561462E-02  0.1090392E+00
         22   -1    0    0    0    0  0.00000000000E+00  0.00000000000E+00  0.18477316996E+03  0.18477316996E+03  0.00000000000E+00 0.  1.
         22   -1    0    0    0    0 -0.00000000000E+00 -0.00000000000E+00 -0.36280231483E+03  0.36280231483E+03  0.00000000000E+00 0.  1.
        -24    2    1    2    0    0  0.78760916203E+02  0.30639000423E+02 -0.18784505076E+03  0.22141062820E+03  0.81208822892E+02 0.  0.
         25    2    1    2    0    0 -0.12906933247E+03 -0.18304058454E+02 -0.78174862067E+02  0.19685642840E+03  0.12508882126E+03 0.  0.
         24    2    1    2    0    0  0.50308416266E+02 -0.12334941970E+02  0.87990767958E+02  0.12930842818E+03  0.79342339347E+02 0.  0.
        -11    1    5    5    0    0  0.59805157717E+01 -0.55816394341E+00  0.82949386810E+02  0.83166573141E+02  0.00000000000E+00 0.  1.
         12    1    5    5    0    0  0.44327900494E+02 -0.11776778026E+02  0.50413811475E+01  0.46141855043E+02  0.00000000000E+00 0. -1.
         11    1    3    3    0    0  0.39226480368E+02 -0.26185016469E+02 -0.63548578645E+02  0.79137814585E+02  0.00000000000E+00 0. -1.
        -12    1    3    3    0    0  0.39534435834E+02  0.56824016893E+02 -0.12429647212E+03  0.14227281362E+03  0.00000000000E+00 0.  1.
          5    1    4    4  501    0 -0.39947398648E+01 -0.50088441678E+02 -0.12274644549E+02  0.51893633860E+02  0.41800000000E+01 0. -1.
         -5    1    4    4    0  501 -0.12507459260E+03  0.31784383224E+02 -0.65900217517E+02  0.14496279454E+03  0.41800000000E+01 0. -1.
</event>
<event>
11    1  0.7577197E-009  0.1342926E+03  0.7561462E-02  0.1114104E+00
         22   -1    0    0    0    0  0.00000000000E+00  0.00000000000E+00  0.45408568788E+03  0.45408568788E+03  0.00000000000E+00 0.  1.
         22   -1    0    0    0    0 -0.00000000000E+00 -0.00000000000E+00 -0.12774757178E+04  0.12774757178E+04  0.00000000000E+00 0.  1.
         24    2    1    2    0    0  0.23988534672E+02 -0.33556893094E+02 -0.10818554997E+04  0.10855977639E+04  0.80060400703E+02 0.  0.
         25    2    1    2    0    0  0.19640894645E+02  0.55868275549E+02 -0.16346993095E+03  0.21418837439E+03  0.12508881822E+03 0.  0.
        -24    2    1    2    0    0 -0.43629429317E+02 -0.22311382455E+02  0.42193540076E+03  0.43177526742E+03  0.77453691009E+02 0.  0.
        -11    1    3    3    0    0  0.39319243785E+02  0.11062154528E+02 -0.61825532077E+03  0.61960311156E+03  0.00000000000E+00 0.  1.
         12    1    3    3    0    0 -0.15330709114E+02 -0.44619047622E+02 -0.46360017896E+03  0.46599465231E+03  0.00000000000E+00 0. -1.
         11    1    5    5    0    0 -0.59688908499E+01  0.10332240085E+02  0.69522224579E+01  0.13810005078E+02  0.00000000000E+00 0. -1.
        -12    1    5    5    0    0 -0.37660538467E+02 -0.32643622540E+02  0.41498317830E+03  0.41796526234E+03  0.00000000000E+00 0.  1.
          5    1    4    4  501    0 -0.29578505937E+02  0.78547977431E+02 -0.10038626012E+03  0.13091809040E+03  0.41800000000E+01 0. -1.
         -5    1    4    4    0  501  0.49219400582E+02 -0.22679701882E+02 -0.63083670823E+02  0.83270283989E+02  0.41800000000E+01 0. -1.
</event>
<event>
11    1  0.7577197E-009  0.3192499E+03  0.7561462E-02  0.9923580E-01
         22   -1    0    0    0    0  0.00000000000E+00  0.00000000000E+00  0.22061342125E+04  0.22061342125E+04  0.00000000000E+00 0. -1.
         22   -1    0    0    0    0 -0.00000000000E+00 -0.00000000000E+00 -0.16377052914E+04  0.16377052914E+04  0.00000000000E+00 0.  1.
         24    2    1    2    0    0 -0.27355476282E+03 -0.10736895234E+03 -0.15960279737E+04  0.16248999928E+04  0.81451786779E+02 0.  0.
         25    2    1    2    0    0  0.25409310876E+03  0.12989184804E+03  0.91451874435E+03  0.96614057710E+03  0.12509148991E+03 0.  0.
        -24    2    1    2    0    0  0.19461654055E+02 -0.22522895701E+02  0.12499381505E+04  0.12527989339E+04  0.79207019602E+02 0.  0.
        -11    1    3    3    0    0 -0.25176679659E+03 -0.10776441822E+03 -0.15495831461E+04  0.15735970311E+04  0.00000000000E+00 0.  1.
         12    1    3    3    0    0 -0.21787966232E+02  0.39546588158E+00 -0.46444827680E+02  0.51302961747E+02  0.00000000000E+00 0. -1.
         13    1    5    5    0    0 -0.29681657809E+02  0.12149135474E+01  0.49506707214E+03  0.49595754127E+03  0.00000000000E+00 0. -1.
        -14    1    5    5    0    0  0.49143311864E+02 -0.23737809249E+02  0.75487107837E+03  0.75684139266E+03  0.00000000000E+00 0.  1.
          5    1    4    4  501    0  0.15984431815E+03  0.14105223023E+03  0.56341564083E+03  0.60241231265E+03  0.41800000000E+01 0. -1.
         -5    1    4    4    0  501  0.94248790611E+02 -0.11160382187E+02  0.35110310352E+03  0.36372826446E+03  0.41800000000E+01 0. -1.
</event>
<event>
11    1  0.7577197E-009  0.1382493E+03  0.7561462E-02  0.1109529E+00
         22   -1    0    0    0    0  0.00000000000E+00  0.00000000000E+00  0.18931412474E+03  0.18931412474E+03  0.00000000000E+00 0. -1.
         22   -1    0    0    0    0 -0.00000000000E+00 -0.00000000000E+00 -0.97665187643E+03  0.97665187643E+03  0.00000000000E+00 0. -1.
         24    2    1    2    0    0  0.59237488435E+02  0.24596822932E+02 -0.85076798433E+03  0.85912009524E+03  0.10083199467E+03 0.  0.
         25    2    1    2    0    0 -0.14881227546E+02  0.65204509734E+01 -0.67867394787E+02  0.14323574075E+03  0.12508607812E+03 0.  0.
        -24    2    1    2    0    0 -0.44356260888E+02 -0.31117273906E+02  0.13129762744E+03  0.16361016518E+03  0.81200101987E+02 0.  0.
        -13    1    3    3    0    0  0.11347179908E+01 -0.17303962601E+02 -0.26033014968E+02  0.31279906889E+02  0.00000000000E+00 0.  1.
         14    1    3    3    0    0  0.58102770444E+02  0.41900785533E+02 -0.82473496937E+03  0.82784018836E+03  0.00000000000E+00 0. -1.
         11    1    5    5    0    0  0.16325464558E+02 -0.29851078193E+02  0.67280600384E+02  0.75394209660E+02  0.00000000000E+00 0. -1.
        -12    1    5    5    0    0 -0.60681725446E+02 -0.12661957131E+01  0.64017027057E+02  0.88215955518E+02  0.00000000000E+00 0.  1.
          5    1    4    4  501    0 -0.30666013741E+02 -0.53307633579E+02 -0.19703816935E+02  0.64713375730E+02  0.41800000000E+01 0.  1.
         -5    1    4    4    0  501  0.15784786195E+02  0.59828084553E+02 -0.48163577852E+02  0.78522365018E+02  0.41800000000E+01 0.  1.
</event>
<event>
11    1  0.7577197E-009  0.2908138E+03  0.7561462E-02  0.1004156E+00
         22   -1    0    0    0    0  0.00000000000E+00  0.00000000000E+00  0.98379953136E+03  0.98379953136E+03  0.00000000000E+00 0.  1.
         22   -1    0    0    0    0 -0.00000000000E+00 -0.00000000000E+00 -0.18372737530E+03  0.18372737530E+03  0.00000000000E+00 0. -1.
         24    2    1    2    0    0 -0.10875978279E+03 -0.24476629281E+03 -0.88772383652E+01  0.27966772982E+03  0.79975029194E+02 0.  0.
         25    2    1    2    0    0  0.57637277636E+02  0.23317715725E+03  0.62109817853E+03  0.67757339985E+03  0.12509645232E+03 0.  0.
        -24    2    1    2    0    0  0.51122505153E+02  0.11589135560E+02  0.18785121590E+03  0.21028577700E+03  0.78639748830E+02 0.  0.
        -13    1    3    3    0    0 -0.68496855472E+01 -0.40562818400E+02  0.26192879531E+02  0.48768097838E+02  0.00000000000E+00 0.  1.
         14    1    3    3    0    0 -0.10191009724E+03 -0.20420347441E+03 -0.35070117896E+02  0.23089963198E+03  0.00000000000E+00 0. -1.
         13    1    5    5    0    0  0.33115000511E+02 -0.32766302657E+02  0.96142273946E+02  0.10683431419E+03  0.00000000000E+00 0. -1.
        -14    1    5    5    0    0  0.18007504642E+02  0.44355438217E+02  0.91708941953E+02  0.10345146281E+03  0.00000000000E+00 0.  1.
          5    1    4    4  501    0 -0.25037938872E+02  0.68871882260E+02  0.93834231245E+02  0.11913257280E+03  0.41800000000E+01 0.  1.
         -5    1    4    4    0  501  0.82675216508E+02  0.16430527499E+03  0.52726394728E+03  0.55844082705E+03  0.41800000000E+01 0.  1.
</event>
<event>
11    1  0.7577197E-009  0.1340923E+03  0.7561462E-02  0.1114341E+00
         22   -1    0    0    0    0  0.00000000000E+00  0.00000000000E+00  0.28137285995E+03  0.28137285995E+03  0.00000000000E+00 0. -1.
         22   -1    0    0    0    0 -0.00000000000E+00 -0.00000000000E+00 -0.69530354470E+03  0.69530354470E+03  0.00000000000E+00 0.  1.
         24    2    1    2    0    0  0.42785373237E+02 -0.21807063895E+02 -0.59921761310E+03  0.60594342508E+03  0.76154778848E+02 0.  0.
         25    2    1    2    0    0 -0.48226537684E+02  0.21458812921E+02 -0.32488926793E+02  0.13960550568E+03  0.12509151555E+03 0.  0.
        -24    2    1    2    0    0  0.54411644476E+01  0.34825097414E+00  0.21777585515E+03  0.23112747389E+03  0.77226022500E+02 0.  0.
        -11    1    3    3    0    0  0.50480834315E+02 -0.23299848854E+02 -0.59384050134E+03  0.59643753958E+03  0.00000000000E+00 0.  1.
         12    1    3    3    0    0 -0.76954610787E+01  0.14927849589E+01 -0.53771117648E+01  0.95058854968E+01  0.00000000000E+00 0. -1.
         13    1    5    5    0    0 -0.23643624027E+02 -0.96614429962E+01  0.18269369885E+03  0.18447046386E+03  0.00000000000E+00 0. -1.
        -14    1    5    5    0    0  0.29084788475E+02  0.10009693970E+02  0.35082156294E+02  0.46657010023E+02  0.00000000000E+00 0.  1.
          5    1    4    4  501    0  0.91602192997E+01  0.62679008109E+02 -0.25746950169E+02  0.68505076586E+02  0.41800000000E+01 0. -1.
         -5    1    4    4    0  501 -0.57386756984E+02 -0.41220195188E+02 -0.67419766237E+01  0.71100429093E+02  0.41800000000E+01 0. -1.
</event>
<event>
11    1  0.7577197E-009  0.1300990E+03  0.7561462E-02  0.1119147E+00
         22   -1    0    0    0    0  0.00000000000E+00  0.00000000000E+00  0.28220002500E+04  0.28220002500E+04  0.00000000000E+00 0. -1.
         22   -1    0    0    0    0 -0.00000000000E+00 -0.00000000000E+00 -0.50583655251E+03  0.50583655251E+03  0.00000000000E+00 0.  1.
         24    2    1    2    0    0  0.34479405999E+02 -0.74591587882E+01 -0.47304196523E+03  0.48121226302E+03  0.80944874571E+02 0.  0.
         25    2    1    2    0    0 -0.57784716504E+02  0.11601761366E+01  0.14132051014E+03  0.19737583612E+03  0.12508123212E+03 0.  0.
        -24    2    1    2    0    0  0.23305310504E+02  0.62989826517E+01  0.26478851526E+04  0.26492487034E+04  0.81486786401E+02 0.  0.
        -13    1    3    3    0    0 -0.13371412548E+02  0.12161465891E+02 -0.30156287461E+03  0.30210406033E+03  0.00000000000E+00 0.  1.
         14    1    3    3    0    0  0.47850818547E+02 -0.19620624679E+02 -0.17147909062E+03  0.17910820269E+03  0.00000000000E+00 0. -1.
         11    1    5    5    0    0  0.53796695124E+02  0.59520089102E+01  0.15719734151E+04  0.15729049331E+04  0.00000000000E+00 0. -1.
        -12    1    5    5    0    0 -0.30491384619E+02  0.34697374148E+00  0.10759117374E+04  0.10763437702E+04  0.00000000000E+00 0.  1.
          5    1    4    4  501    0  0.11091026257E+02  0.43825947125E+01  0.12598395610E+03  0.12661614271E+03  0.41800000000E+01 0.  1.
         -5    1    4    4    0  501 -0.68875742761E+02 -0.32224185759E+01  0.15336554038E+02  0.70759693414E+02  0.41800000000E+01 0.  1.
</event>
<event>
11    1  0.7577197E-009  0.1485209E+03  0.7561462E-02  0.1098400E+00
         22   -1    0    0    0    0  0.00000000000E+00  0.00000000000E+00  0.23218675620E+04  0.23218675620E+04  0.00000000000E+00 0.  1.
         22   -1    0    0    0    0 -0.00000000000E+00 -0.00000000000E+00 -0.26467964290E+03  0.26467964290E+03  0.00000000000E+00 0. -1.
        -24    2    1    2    0    0 -0.66846625504E+02 -0.42956915889E+02 -0.21925703119E+03  0.24683542556E+03  0.80872205502E+02 0.  0.
         25    2    1    2    0    0  0.91563902782E+02  0.21039292031E+02  0.16822984629E+03  0.22972995153E+03  0.12509184364E+03 0.  0.
         24    2    1    2    0    0 -0.24717277278E+02  0.21917623858E+02  0.21082151040E+04  0.21099818278E+04  0.79756271971E+02 0.  0.
        -11    1    5    5    0    0 -0.50539600059E+02  0.30347603626E+02  0.15100980628E+04  0.15112482879E+04  0.00000000000E+00 0.  1.
         12    1    5    5    0    0  0.25822322781E+02 -0.84299797674E+01  0.59811704117E+03  0.59873353995E+03  0.00000000000E+00 0. -1.
         11    1    3    3    0    0 -0.36660580725E+02 -0.56606741515E+02 -0.19336603482E+03  0.20478951337E+03  0.00000000000E+00 0. -1.
        -12    1    3    3    0    0 -0.30186044779E+02  0.13649825626E+02 -0.25890996363E+02  0.42045912187E+02  0.00000000000E+00 0.  1.
          5    1    4    4  501    0  0.30038652700E+02  0.55065871482E+02  0.14070619657E+03  0.15411124881E+03  0.41800000000E+01 0. -1.
         -5    1    4    4    0  501  0.61525250082E+02 -0.34026579451E+02  0.27523649725E+02  0.75618702720E+02  0.41800000000E+01 0. -1.
</event>
<event>
11    1  0.7577197E-009  0.1536769E+03  0.7561462E-02  0.1093180E+00
         22   -1    0    0    0    0  0.00000000000E+00  0.00000000000E+00  0.87425365392E+03  0.87425365392E+03  0.00000000000E+00 0.  1.
         22   -1    0    0    0    0 -0.00000000000E+00 -0.00000000000E+00 -0.43191399237E+03  0.43191399237E+03  0.00000000000E+00 0. -1.
         24    2    1    2    0    0  0.14666161100E+02 -0.10472022279E+02 -0.32483621183E+03  0.33532660771E+03  0.81244136951E+02 0.  0.
         25    2    1    2    0    0 -0.95172025482E+02 -0.27189956008E+02 -0.32109290105E+02  0.16271477281E+03  0.12509229647E+03 0.  0.
        -24    2    1    2    0    0  0.80505864382E+02  0.37661978287E+02  0.79928516350E+03  0.80812626577E+03  0.79446019634E+02 0.  0.
        -11    1    3    3    0    0  0.58710670149E+01  0.14228087384E+02 -0.78871987805E+01  0.17294964675E+02  0.00000000000E+00 0.  1.
         12    1    3    3    0    0  0.87950940850E+01 -0.24700109663E+02 -0.31694901305E+03  0.31803164304E+03  0.00000000000E+00 0. -1.
         13    1    5    5    0    0  0.25125534107E+02 -0.62268175792E+01  0.58409877583E+02  0.63888805910E+02  0.00000000000E+00 0. -1.
        -14    1    5    5    0    0  0.55380330275E+02  0.43888795866E+02  0.74087528591E+03  0.74423745986E+03  0.00000000000E+00 0.  1.
          5    1    4    4  501    0  0.23911121511E+02  0.19864296277E+02 -0.48943811139E+01  0.31745225861E+02  0.41800000000E+01 0.  1.
         -5    1    4    4    0  501 -0.11908314699E+03 -0.47054252285E+02 -0.27214908991E+02  0.13096954695E+03  0.41800000000E+01 0.  1.
</event>
<event>
11    1  0.7577197E-009  0.2660189E+03  0.7561462E-02  0.1015696E+00
         22   -1    0    0    0    0  0.00000000000E+00  0.00000000000E+00  0.50273424130E+03  0.50273424130E+03  0.00000000000E+00 0. -1.
         22   -1    0    0    0    0 -0.00000000000E+00 -0.00000000000E+00 -0.10356448771E+04  0.10356448771E+04  0.00000000000E+00 0. -1.
         24    2    1    2    0    0 -0.41476788193E+02  0.23320524892E+03 -0.95275864422E+03  0.98504227591E+03  0.80338279248E+02 0.  0.
         25    2    1    2    0    0  0.27874627762E+02 -0.20163333107E+03  0.18302619735E+03  0.30096405848E+03  0.12509108886E+03 0.  0.
        -24    2    1    2    0    0  0.13602160431E+02 -0.31571917852E+02  0.23682181108E+03  0.25237278399E+03  0.80160134300E+02 0.  0.
        -11    1    3    3    0    0 -0.29531464378E+02  0.19150969717E+02 -0.11338651719E+03  0.11872392055E+03  0.00000000000E+00 0.  1.
         12    1    3    3    0    0 -0.11945323815E+02  0.21405427921E+03 -0.83937212703E+03  0.86631835536E+03  0.00000000000E+00 0. -1.
         13    1    5    5    0    0  0.25432847911E+02 -0.53137402155E+02  0.19649959903E+03  0.20514020981E+03  0.00000000000E+00 0. -1.
        -14    1    5    5    0    0 -0.11830687480E+02  0.21565484303E+02  0.40322212050E+02  0.47232574184E+02  0.00000000000E+00 0.  1.
          5    1    4    4  501    0  0.29123882524E+02 -0.52055996554E+02 -0.57510664972E+01  0.60071411473E+02  0.41800000000E+01 0. -1.
         -5    1    4    4    0  501 -0.12492547620E+01 -0.14957733452E+03  0.18877726385E+03  0.24089264701E+03  0.41800000000E+01 0. -1.
</event>
<event>
11    1  0.7577197E-009  0.3623259E+03  0.7561462E-02  0.9767963E-01
         22   -1    0    0    0    0  0.00000000000E+00  0.00000000000E+00  0.94896037585E+03  0.94896037585E+03  0.00000000000E+00 0. -1.
         22   -1    0    0    0    0 -0.00000000000E+00 -0.00000000000E+00 -0.48102691652E+03  0.48102691652E+03  0.00000000000E+00 0. -1.
         24    2    1    2    0    0 -0.59965907643E+02  0.13247488079E+03 -0.28583317995E+03  0.33042175858E+03  0.79576552241E+02 0.  0.
         25    2    1    2    0    0  0.54814826532E+02  0.24412688388E+03  0.31643585909E+02  0.28151732501E+03  0.12509231436E+03 0.  0.
        -24    2    1    2    0    0  0.51510811102E+01 -0.37660176467E+03  0.72212305337E+03  0.81804820878E+03  0.76718608502E+02 0.  0.
        -11    1    3    3    0    0 -0.58320935237E+02  0.69212727381E+02 -0.10388221046E+03  0.13777970376E+03  0.00000000000E+00 0.  1.
         12    1    3    3    0    0 -0.16449724054E+01  0.63262153408E+02 -0.18195096949E+03  0.19264205483E+03  0.00000000000E+00 0. -1.
         13    1    5    5    0    0 -0.22523404633E+02 -0.27908299279E+03  0.57278116705E+03  0.63755226135E+03  0.00000000000E+00 0. -1.
        -14    1    5    5    0    0  0.27674485743E+02 -0.97518771880E+02  0.14934188631E+03  0.18049594743E+03  0.00000000000E+00 0.  1.
          5    1    4    4  501    0  0.74454571173E+01  0.12943972485E+03  0.75202022043E+02  0.14994296822E+03  0.41800000000E+01 0. -1.
         -5    1    4    4    0  501  0.47369369415E+02  0.11468715904E+03 -0.43558436134E+02  0.13157435679E+03  0.41800000000E+01 0. -1.
</event>
<event>
11    1  0.7577197E-009  0.1851273E+03  0.7561462E-02  0.1065569E+00
         22   -1    0    0    0    0  0.00000000000E+00  0.00000000000E+00  0.64935415841E+03  0.64935415841E+03  0.00000000000E+00 0.  1.
         22   -1    0    0    0    0 -0.00000000000E+00 -0.00000000000E+00 -0.12663867342E+04  0.12663867342E+04  0.00000000000E+00 0. -1.
         24    2    1    2    0    0 -0.10275347572E+03  0.87881485702E+02 -0.11977046067E+04  0.12082273036E+04  0.83877648194E+02 0.  0.
         25    2    1    2    0    0  0.14840900548E+03 -0.12095530679E+03  0.16995737693E+03  0.28493228463E+03  0.12508188401E+03 0.  0.
        -24    2    1    2    0    0 -0.45655529758E+02  0.33073821087E+02  0.41071465398E+03  0.42258130442E+03  0.81915363714E+02 0.  0.
        -13    1    3    3    0    0 -0.41829775272E+02  0.43850048753E+02 -0.23839366653E+03  0.24597580596E+03  0.00000000000E+00 0.  1.
         14    1    3    3    0    0 -0.60923700449E+02  0.44031436948E+02 -0.95931094021E+03  0.96225149765E+03  0.00000000000E+00 0. -1.
         11    1    5    5    0    0  0.48552242438E+01 -0.11322307130E+02  0.89496799067E+01  0.15227101222E+02  0.00000000000E+00 0. -1.
        -12    1    5    5    0    0 -0.50510754002E+02  0.44396128217E+02  0.40176497408E+03  0.40735420320E+03  0.00000000000E+00 0.  1.
          5    1    4    4  501    0 -0.48845813532E+01 -0.63701830321E+02  0.36253766555E+02  0.73577104528E+02  0.41800000000E+01 0. -1.
         -5    1    4    4    0  501  0.15329358683E+03 -0.57253476468E+02  0.13370361037E+03  0.21135518011E+03  0.41800000000E+01 0. -1.
</event>
<event>
11    1  0.7577197E-009  0.1818292E+03  0.7561462E-02  0.1068173E+00
         22   -1    0    0    0    0  0.00000000000E+00  0.00000000000E+00  0.33223777382E+03  0.33223777382E+03  0.00000000000E+00 0. -1.
         22   -1    0    0    0    0 -0.00000000000E+00 -0.00000000000E+00 -0.18724779809E+04  0.18724779809E+04  0.00000000000E+00 0.  1.
         24    2    1    2    0    0 -0.12854161212E+03  0.12193083521E+02 -0.16523373475E+04  0.16593156359E+04  0.80237472450E+02 0.  0.
         25    2    1    2    0    0  0.18097391874E+03  0.85047927890E+01 -0.14932119515E+03  0.26602400129E+03  0.12509220270E+03 0.  0.
        -24    2    1    2    0    0 -0.52432306620E+02 -0.20697876310E+02  0.26141833566E+03  0.27937611752E+03  0.80832666445E+02 0.  0.
        -13    1    3    3    0    0 -0.88514541808E+02 -0.18330299503E+01 -0.64051148832E+03  0.64660123011E+03  0.00000000000E+00 0.  1.
         14    1    3    3    0    0 -0.40027070317E+02  0.14026113471E+02 -0.10118258592E+04  0.10127144058E+04  0.00000000000E+00 0. -1.
         13    1    5    5    0    0 -0.11393793408E+02  0.15592713702E+02  0.18125971502E+03  0.18228558785E+03  0.00000000000E+00 0. -1.
        -14    1    5    5    0    0 -0.41038513212E+02 -0.36290590012E+02  0.80158620636E+02  0.97090529674E+02  0.00000000000E+00 0.  1.
          5    1    4    4  501    0  0.48348028889E+02 -0.53991842401E+02 -0.60924674227E+02  0.94773093613E+02  0.41800000000E+01 0.  1.
         -5    1    4    4    0  501  0.13262588986E+03  0.62496635190E+02 -0.88396520925E+02  0.17125090768E+03  0.41800000000E+01 0.  1.
</event>
<event>
11    1  0.7577197E-009  0.1621511E+03  0.7561462E-02  0.1085071E+00
         22   -1    0    0    0    0  0.00000000000E+00  0.00000000000E+00  0.44432261025E+04  0.44432261025E+04  0.00000000000E+00 0. -1.
         22   -1    0    0    0    0 -0.00000000000E+00 -0.00000000000E+00 -0.56711664055E+03  0.56711664055E+03  0.00000000000E+00 0. -1.
        -24    2    1    2    0    0 -0.20973836697E+02 -0.73921689179E+02 -0.55582844486E+03  0.56691163832E+03  0.80865490768E+02 0.  0.
         25    2    1    2    0    0  0.11233675619E+03  0.18625958679E+02  0.17419037527E+04  0.17500981000E+04  0.12509277778E+03 0.  0.
         24    2    1    2    0    0 -0.91362919491E+02  0.55295730500E+02  0.26900341541E+04  0.26933330047E+04  0.79712752195E+02 0.  0.
        -11    1    5    5    0    0 -0.67174482246E+02  0.30912085732E+02  0.92042374083E+03  0.92338931702E+03  0.00000000000E+00 0.  1.
         12    1    5    5    0    0 -0.24188437245E+02  0.24383644768E+02  0.17696104133E+04  0.17699436877E+04  0.00000000000E+00 0. -1.
         11    1    3    3    0    0 -0.43003603280E+02 -0.27565023807E+02 -0.16494778859E+03  0.17267574640E+03  0.00000000000E+00 0. -1.
        -12    1    3    3    0    0  0.22029766583E+02 -0.46356665372E+02 -0.39088065627E+03  0.39423589193E+03  0.00000000000E+00 0.  1.
          5    1    4    4  501    0  0.10393332333E+03 -0.33421718529E+02  0.13842924944E+04  0.13885972524E+04  0.41800000000E+01 0.  1.
         -5    1    4    4    0  501  0.84034328543E+01  0.52047677208E+02  0.35761125825E+03  0.36150084760E+03  0.41800000000E+01 0.  1.
</event>
<event>
11    1  0.7577197E-009  0.1454010E+03  0.7561462E-02  0.1101673E+00
         22   -1    0    0    0    0  0.00000000000E+00  0.00000000000E+00  0.62281255053E+03  0.62281255053E+03  0.00000000000E+00 0. -1.
         22   -1    0    0    0    0 -0.00000000000E+00 -0.00000000000E+00 -0.49517106723E+03  0.49517106723E+03  0.00000000000E+00 0.  1.
        -24    2    1    2    0    0 -0.17755111510E+02 -0.69076038908E+02 -0.40834812878E+03  0.42212924412E+03  0.79738079543E+02 0.  0.
         25    2    1    2    0    0  0.95656044233E+01  0.11343469866E+03  0.18603819236E+02  0.17015622660E+03  0.12509239671E+03 0.  0.
         24    2    1    2    0    0  0.81895070867E+01 -0.44358659747E+02  0.51738579284E+03  0.52569814704E+03  0.81459956145E+02 0.  0.
        -13    1    5    5    0    0  0.28225316530E+02 -0.39467548064E+02  0.14828889967E+03  0.15602549026E+03  0.00000000000E+00 0.  1.
         14    1    5    5    0    0 -0.20035809444E+02 -0.48911116832E+01  0.36909689316E+03  0.36967265678E+03  0.00000000000E+00 0. -1.
         11    1    3    3    0    0 -0.47847263394E+02 -0.26390137852E+02 -0.19913856709E+03  0.20649931935E+03  0.00000000000E+00 0. -1.
        -12    1    3    3    0    0  0.30092151884E+02 -0.42685901056E+02 -0.20920956169E+03  0.21562992477E+03  0.00000000000E+00 0.  1.
          5    1    4    4  501    0  0.63844250994E+02  0.83510341580E+02  0.23656484052E+02  0.10782934282E+03  0.41800000000E+01 0.  1.
         -5    1    4    4    0  501 -0.54278646570E+02  0.29924357075E+02 -0.50526648155E+01  0.62326883779E+02  0.41800000000E+01 0.  1.
</event>
<event>
11    1  0.7577197E-009  0.1440780E+03  0.7561462E-02  0.1103088E+00
         22   -1    0    0    0    0  0.00000000000E+00  0.00000000000E+00  0.68709790107E+03  0.68709790107E+03  0.00000000000E+00 0.  1.
         22   -1    0    0    0    0 -0.00000000000E+00 -0.00000000000E+00 -0.17165381133E+04  0.17165381133E+04  0.00000000000E+00 0. -1.
        -24    2    1    2    0    0 -0.15612942892E+01 -0.56514604905E+01 -0.14607898689E+04  0.14631715750E+04  0.83244459569E+02 0.  0.
         25    2    1    2    0    0 -0.68653850512E+02 -0.80600334765E+01 -0.22928711583E+03  0.27018191510E+03  0.12508944971E+03 0.  0.
         24    2    1    2    0    0  0.70215144801E+02  0.13711493967E+02  0.66063677252E+03  0.67028252429E+03  0.87860944337E+02 0.  0.
        -13    1    5    5    0    0  0.55532454785E+02  0.43095003893E+02  0.56062760415E+03  0.56501711782E+03  0.00000000000E+00 0.  1.
         14    1    5    5    0    0  0.14682690016E+02 -0.29383509926E+02  0.10000916837E+03  0.10526540647E+03  0.00000000000E+00 0. -1.
         11    1    3    3    0    0  0.18148839148E+02 -0.12600638500E+02 -0.13627404975E+04  0.13629195941E+04  0.00000000000E+00 0. -1.
        -12    1    3    3    0    0 -0.19710133437E+02  0.69491780091E+01 -0.98049371453E+02  0.10025198092E+03  0.00000000000E+00 0.  1.
          5    1    4    4  501    0 -0.30987627995E+01 -0.13901097779E+02 -0.19553782879E+03  0.19610037669E+03  0.41800000000E+01 0.  1.
         -5    1    4    4    0  501 -0.65555087712E+02  0.58410643027E+01 -0.33749287047E+02  0.74081538411E+02  0.41800000000E+01 0.  1.
</event>
<event>
11    1  0.7577197E-009  0.1625202E+03  0.7561462E-02  0.1084731E+00
         22   -1    0    0    0    0  0.00000000000E+00  0.00000000000E+00  0.28002317496E+03  0.28002317496E+03  0.00000000000E+00 0. -1.
         22   -1    0    0    0    0 -0.00000000000E+00 -0.00000000000E+00 -0.77784018364E+03  0.77784018364E+03  0.00000000000E+00 0.  1.
         24    2    1    2    0    0 -0.32219266494E+02  0.29484696622E+02 -0.69293861764E+03  0.69881206610E+03  0.79164053993E+02 0.  0.
         25    2    1    2    0    0  0.39110245429E+02  0.87566652896E+02  0.13231087820E+03  0.20579299374E+03  0.12508820004E+03 0.  0.
        -24    2    1    2    0    0 -0.68909789354E+01 -0.11705134952E+03  0.62810730758E+02  0.15325829875E+03  0.76121049809E+02 0.  0.
        -13    1    3    3    0    0 -0.37152980613E+01  0.28902342397E+02 -0.61716354035E+03  0.61785110211E+03  0.00000000000E+00 0.  1.
         14    1    3    3    0    0 -0.28503968432E+02  0.58235422487E+00 -0.75775077280E+02  0.80960963987E+02  0.00000000000E+00 0. -1.
         13    1    5    5    0    0 -0.19804638219E+02 -0.70873641329E+02  0.73634417702E+02  0.10410246971E+03  0.00000000000E+00 0. -1.
        -14    1    5    5    0    0  0.12913659283E+02 -0.46177708188E+02 -0.10823686943E+02  0.49155829040E+02  0.00000000000E+00 0.  1.
          5    1    4    4  501    0  0.81670914341E+02  0.45176507573E+02  0.57280724036E+02  0.10958836084E+03  0.41800000000E+01 0. -1.
         -5    1    4    4    0  501 -0.42560668912E+02  0.42390145323E+02  0.75030154159E+02  0.96204632902E+02  0.41800000000E+01 0. -1.
</event>
<event>
11    1  0.7577197E-009  0.1764197E+03  0.7561462E-02  0.1072576E+00
         22   -1    0    0    0    0  0.00000000000E+00  0.00000000000E+00  0.31347573240E+03  0.31347573240E+03  0.00000000000E+00 0.  1.
         22   -1    0    0    0    0 -0.00000000000E+00 -0.00000000000E+00 -0.74735704609E+03  0.74735704609E+03  0.00000000000E+00 0.  1.
        -24    2    1    2    0    0  0.51522508999E+02  0.11076024096E+03 -0.65422191703E+03  0.67086116182E+03  0.84415530590E+02 0.  0.
         25    2    1    2    0    0 -0.48457535442E+02 -0.16389496012E+03  0.97029873283E+02  0.23295836186E+03  0.12508041956E+03 0.  0.
         24    2    1    2    0    0 -0.30649735571E+01  0.53134719159E+02  0.12331073006E+03  0.15701325481E+03  0.81332242049E+02 0.  0.
        -13    1    5    5    0    0  0.25844047651E+02  0.49204263865E+02  0.11324907769E+03  0.12615200347E+03  0.00000000000E+00 0.  1.
         14    1    5    5    0    0 -0.28909021208E+02  0.39304552932E+01  0.10061652364E+02  0.30861251341E+02  0.00000000000E+00 0. -1.
         13    1    3    3    0    0 -0.83438131756E+01  0.10576322019E+00 -0.53666319328E+01  0.99212470220E+01  0.00000000000E+00 0. -1.
        -14    1    3    3    0    0  0.59866322174E+02  0.11065447774E+03 -0.64885528510E+03  0.66093991480E+03  0.00000000000E+00 0.  1.
          5    1    4    4  501    0  0.20427326339E+02  0.66478979997E+01  0.30036552481E+02  0.37163652864E+02  0.41800000000E+01 0. -1.
         -5    1    4    4    0  501 -0.68884861781E+02 -0.17054285812E+03  0.66993320802E+02  0.19579470900E+03  0.41800000000E+01 0. -1.
</event>
<event>
11    1  0.7577197E-009  0.1435649E+03  0.7561462E-02  0.1103642E+00
         22   -1    0    0    0    0  0.00000000000E+00  0.00000000000E+00  0.63696042643E+03  0.63696042643E+03  0.00000000000E+00 0.  1.
         22   -1    0    0    0    0 -0.00000000000E+00 -0.00000000000E+00 -0.40134864996E+03  0.40134864996E+03  0.00000000000E+00 0.  1.
         24    2    1    2    0    0  0.63041956887E+02  0.42419889403E+02 -0.23351359117E+03  0.25852130963E+03  0.80814200034E+02 0.  0.
         25    2    1    2    0    0 -0.73439863779E+02  0.23588680312E+02 -0.11437813190E+03  0.18622331023E+03  0.12508766839E+03 0.  0.
        -24    2    1    2    0    0  0.10397906892E+02 -0.66008569715E+02  0.58350349954E+03  0.59356445654E+03  0.85890525339E+02 0.  0.
        -13    1    3    3    0    0 -0.71549949452E+01  0.99540878569E+01 -0.12313346971E+03  0.12374218836E+03  0.00000000000E+00 0.  1.
         14    1    3    3    0    0  0.70196951832E+02  0.32465801546E+02 -0.11038012146E+03  0.13477912127E+03  0.00000000000E+00 0. -1.
         11    1    5    5    0    0  0.49433691220E+01 -0.16019760729E+01 -0.11719421678E+01  0.53269760708E+01  0.00000000000E+00 0. -1.
        -12    1    5    5    0    0  0.54545377701E+01 -0.64406593642E+02  0.58467544171E+03  0.58823748047E+03  0.00000000000E+00 0.  1.
          5    1    4    4  501    0 -0.26240866797E+02  0.13964727790E+02  0.24767361308E+02  0.38916465650E+02  0.41800000000E+01 0.  1.
         -5    1    4    4    0  501 -0.47198996982E+02  0.96239525214E+01 -0.13914549321E+03  0.14730684458E+03  0.41800000000E+01 0.  1.
</event>
<event>
11    1  0.7577197E-009  0.2125218E+03  0.7561462E-02  0.1046006E+00
         22   -1    0    0    0    0  0.00000000000E+00  0.00000000000E+00  0.21059311802E+04  0.21059311802E+04  0.00000000000E+00 0.  1.
         22   -1    0    0    0    0 -0.00000000000E+00 -0.00000000000E+00 -0.56772255318E+03  0.56772255318E+03  0.00000000000E+00 0.  1.
        -24    2    1    2    0    0  0.10299477155E+03 -0.13895905628E+03 -0.48373911551E+03  0.52011608726E+03  0.81238353398E+02 0.  0.
         25    2    1    2    0    0 -0.11570753438E+03  0.11495127263E+03  0.97504128632E+02  0.22750294191E+03  0.12509398420E+03 0.  0.
         24    2    1    2    0    0  0.12712762831E+02  0.24007783643E+02  0.19244436139E+04  0.19260347042E+04  0.73406203888E+02 0.  0.
        -11    1    5    5    0    0 -0.12193877130E+00  0.48384367659E+01  0.17572905543E+04  0.17572972195E+04  0.00000000000E+00 0.  1.
         12    1    5    5    0    0  0.12834701603E+02  0.19169346877E+02  0.16715305954E+03  0.16873748469E+03  0.00000000000E+00 0. -1.
         11    1    3    3    0    0  0.13913800351E+02  0.85362315726E+00 -0.11478766298E+03  0.11563100832E+03  0.00000000000E+00 0. -1.
        -12    1    3    3    0    0  0.89080971196E+02 -0.13981267943E+03 -0.36895145253E+03  0.40448507894E+03  0.00000000000E+00 0.  1.
          5    1    4    4  501    0 -0.12233907285E+03  0.40458305100E+02  0.75633093482E+02  0.14947093506E+03  0.41800000000E+01 0. -1.
         -5    1    4    4    0  501  0.66315384690E+01  0.74492967534E+02  0.21871035150E+02  0.78032006850E+02  0.41800000000E+01 0. -1.
</event>
<event>
11    1  0.7577197E-009  0.1469721E+03  0.7561462E-02  0.1100013E+00
         22   -1    0    0    0    0  0.00000000000E+00  0.00000000000E+00  0.20128828873E+04  0.20128828873E+04  0.00000000000E+00 0. -1.
         22   -1    0    0    0    0 -0.00000000000E+00 -0.00000000000E+00 -0.16762630856E+03  0.16762630856E+03  0.00000000000E+00 0. -1.
         24    2    1    2    0    0 -0.19069306108E+02 -0.22664149446E+02 -0.14475599481E+03  0.16809966483E+03  0.80161693948E+02 0.  0.
         25    2    1    2    0    0  0.92190669588E+02  0.12235254939E+02  0.66909478867E+03  0.68701051763E+03  0.12508714593E+03 0.  0.
        -24    2    1    2    0    0 -0.73121363480E+02  0.10428894507E+02  0.13209177849E+04  0.13253990135E+04  0.80020339265E+02 0.  0.
        -11    1    3    3    0    0  0.15425046476E+02  0.21018920961E+02 -0.71443000788E+02  0.76051492154E+02  0.00000000000E+00 0.  1.
         12    1    3    3    0    0 -0.34494352584E+02 -0.43683070408E+02 -0.73312994021E+02  0.92048172675E+02  0.00000000000E+00 0. -1.
         11    1    5    5    0    0 -0.83442593898E+02  0.26549851404E+02  0.11699928204E+04  0.11732650003E+04  0.00000000000E+00 0. -1.
        -12    1    5    5    0    0  0.10321230418E+02 -0.16120956897E+02  0.15092496450E+03  0.15213401315E+03  0.00000000000E+00 0.  1.
          5    1    4    4  501    0  0.90852100231E+02 -0.20145355026E+02  0.62618152335E+03  0.63307243822E+03  0.41800000000E+01 0.  1.
         -5    1    4    4    0  501  0.13385693568E+01  0.32380609966E+02  0.42913265324E+02  0.53938079410E+02  0.41800000000E+01 0.  1.
</event>
<event>
11    1  0.7577197E-009  0.1562007E+03  0.7561462E-02  0.1090706E+00
         22   -1    0    0    0    0  0.00000000000E+00  0.00000000000E+00  0.25121831759E+03  0.25121831759E+03  0.00000000000E+00 0.  1.
         22   -1    0    0    0    0 -0.00000000000E+00 -0.00000000000E+00 -0.21185396425E+04  0.21185396425E+04  0.00000000000E+00 0. -1.
        -24    2    1    2    0    0 -0.15629783491E+02  0.90052688938E+02 -0.18526487151E+04  0.18565596932E+04  0.78440141285E+02 0.  0.
         25    2    1    2    0    0 -0.10273568854E+02 -0.13334878274E+03 -0.21955557583E+03  0.28590223308E+03  0.12509193390E+03 0.  0.
         24    2    1    2    0    0  0.25903352345E+02  0.43296093805E+02  0.20488296599E+03  0.22729603388E+03  0.84503975432E+02 0.  0.
        -11    1    5    5    0    0  0.85981544131E+01 -0.20566222706E+02  0.10599848681E+03  0.10831702074E+03  0.00000000000E+00 0.  1.
         12    1    5    5    0    0  0.17305197932E+02  0.63862316511E+02  0.98884479178E+02  0.11897901314E+03  0.00000000000E+00 0. -1.
         11    1    3    3    0    0 -0.39495005721E+02  0.80352179244E+02 -0.16236018639E+04  0.16260686765E+04  0.00000000000E+00 0. -1.
        -12    1    3    3    0    0  0.23865222230E+02  0.97005096934E+01 -0.22904685122E+03  0.23049101668E+03  0.00000000000E+00 0.  1.
          5    1    4    4  501    0 -0.93259037668E+01 -0.36382331348E+02  0.78961297981E+01  0.38606576916E+02  0.41800000000E+01 0. -1.
         -5    1    4    4    0  501 -0.94766508672E+00 -0.96966451394E+02 -0.22745170562E+03  0.24729565616E+03  0.41800000000E+01 0. -1.
</event>
<event>
11    1  0.7577197E-009  0.1857450E+03  0.7561462E-02  0.1065088E+00
         22   -1    0    0    0    0  0.00000000000E+00  0.00000000000E+00  0.83007469559E+03  0.83007469559E+03  0.00000000000E+00 0. -1.
         22   -1    0    0    0    0 -0.00000000000E+00 -0.00000000000E+00 -0.36558464390E+03  0.36558464390E+03  0.00000000000E+00 0. -1.
        -24    2    1    2    0    0 -0.67311504963E+01  0.14520632702E+03 -0.28964216762E+03  0.33414434299E+03  0.81422790979E+02 0.  0.
         25    2    1    2    0    0  0.60400108010E+02 -0.83658814436E+02  0.87972888024E+02  0.18448283550E+03  0.12509083615E+03 0.  0.
         24    2    1    2    0    0 -0.53668957514E+02 -0.61547512583E+02  0.66615933129E+03  0.67703216100E+03  0.89083326444E+02 0.  0.
        -13    1    5    5    0    0 -0.34644727544E+02 -0.50381043106E+02  0.17493188307E+03  0.18530966074E+03  0.00000000000E+00 0.  1.
         14    1    5    5    0    0 -0.19024229970E+02 -0.11166469477E+02  0.49122744822E+03  0.49172250025E+03  0.00000000000E+00 0. -1.
         11    1    3    3    0    0 -0.41280432347E+02  0.47776823108E+02 -0.11545002996E+03  0.13158802506E+03  0.00000000000E+00 0. -1.
        -12    1    3    3    0    0  0.34549281851E+02  0.97429503911E+02 -0.17419213767E+03  0.20255631793E+03  0.00000000000E+00 0.  1.
          5    1    4    4  501    0  0.94458992177E+02 -0.53558676562E+02  0.86368481579E+02  0.13880929381E+03  0.41800000000E+01 0.  1.
         -5    1    4    4    0  501 -0.34058884167E+02 -0.30100137873E+02  0.16044064452E+01  0.45673541692E+02  0.41800000000E+01 0.  1.
</event>
<event>
11    1  0.7577197E-009  0.1648422E+03  0.7561462E-02  0.1082609E+00
         22   -1    0    0    0    0  0.00000000000E+00  0.00000000000E+00  0.14173168612E+04  0.14173168612E+04  0.00000000000E+00 0.  1.
         22   -1    0    0    0    0 -0.00000000000E+00 -0.00000000000E+00 -0.67207431621E+02  0.67207431621E+02  0.00000000000E+00 0.  1.
         24    2    1    2    0    0  0.10398549144E+03 -0.33732459253E+02  0.46381329484E+02  0.14455284288E+03  0.82422299309E+02 0.  0.
         25    2    1    2    0    0 -0.72153761182E+02  0.85317321024E+02  0.45577155414E+03  0.48565417464E+03  0.12508819795E+03 0.  0.
        -24    2    1    2    0    0 -0.31831730261E+02 -0.51584861770E+02  0.84795654596E+03  0.85431727530E+03  0.84578046922E+02 0.  0.
        -13    1    3    3    0    0  0.87904802489E+02 -0.59556496504E+02  0.31957661286E+02  0.11088517796E+03  0.00000000000E+00 0.  1.
         14    1    3    3    0    0  0.16080688953E+02  0.25824037250E+02  0.14423668198E+02  0.33667664924E+02  0.00000000000E+00 0. -1.
         13    1    5    5    0    0 -0.19206870623E+02 -0.27952495741E+00  0.62079359260E+03  0.62109070725E+03  0.00000000000E+00 0. -1.
        -14    1    5    5    0    0 -0.12624859638E+02 -0.51305336813E+02  0.22716295336E+03  0.23322656805E+03  0.00000000000E+00 0.  1.
          5    1    4    4  501    0  0.14266385450E+01  0.44242567055E+02  0.35217722170E+02  0.56720370168E+02  0.41800000000E+01 0.  1.
         -5    1    4    4    0  501 -0.73580399727E+02  0.41074753969E+02  0.42055383197E+03  0.42893380448E+03  0.41800000000E+01 0.  1.
</event>
<event>
11    1  0.7577197E-009  0.1299524E+03  0.7561462E-02  0.1119328E+00
         22   -1    0    0    0    0  0.00000000000E+00  0.00000000000E+00  0.35978939593E+02  0.35978939593E+02  0.00000000000E+00 0. -1.
         22   -1    0    0    0    0 -0.00000000000E+00 -0.00000000000E+00 -0.18295374263E+04  0.18295374263E+04  0.00000000000E+00 0.  1.
         24    2    1    2    0    0  0.73325851110E+01 -0.37150338094E+02 -0.12688738304E+04  0.12719906849E+04  0.80533165152E+02 0.  0.
         25    2    1    2    0    0 -0.18755231449E+02 -0.10644247161E+01 -0.47126874623E+03  0.48794959402E+03  0.12509070081E+03 0.  0.
        -24    2    1    2    0    0  0.11422646338E+02  0.38214762810E+02 -0.53415910103E+02  0.10557608695E+03  0.81867000297E+02 0.  0.
        -11    1    3    3    0    0  0.85310083709E+01 -0.28985212919E+02 -0.12578861393E+04  0.12582489659E+04  0.00000000000E+00 0.  1.
         12    1    3    3    0    0 -0.11984232599E+01 -0.81651251749E+01 -0.10987691102E+02  0.13741719076E+02  0.00000000000E+00 0. -1.
         11    1    5    5    0    0 -0.12859736948E+02  0.57576519735E+02 -0.27332140536E+02  0.65019030794E+02  0.00000000000E+00 0. -1.
        -12    1    5    5    0    0  0.24282383286E+02 -0.19361756924E+02 -0.26083769568E+02  0.40557056157E+02  0.00000000000E+00 0.  1.
          5    1    4    4  501    0  0.79348517696E+01 -0.56973467821E+02 -0.30628058879E+03  0.31166361574E+03  0.41800000000E+01 0. -1.
         -5    1    4    4    0  501 -0.26690083218E+02  0.55909043105E+02 -0.16498815744E+03  0.17628597828E+03  0.41800000000E+01 0. -1.
</event>
<event>
11    1  0.7577197E-009  0.1310304E+03  0.7561462E-02  0.1118009E+00
         22   -1    0    0    0    0  0.00000000000E+00  0.00000000000E+00  0.13874672128E+04  0.13874672128E+04  0.00000000000E+00 0. -1.
         22   -1    0    0    0    0 -0.00000000000E+00 -0.00000000000E+00 -0.92428554832E+03  0.92428554832E+03  0.00000000000E+00 0. -1.
         24    2    1    2    0    0  0.31553699962E+02  0.33303297296E+01 -0.88329820549E+03  0.88766359019E+03  0.82001234404E+02 0.  0.
         25    2    1    2    0    0 -0.67434027692E+02  0.86017216964E+01  0.98953268271E+02  0.17338114621E+03  0.12509170577E+03 0.  0.
        -24    2    1    2    0    0  0.35880327730E+02 -0.11932051426E+02  0.12475266017E+04  0.12507080247E+04  0.80735180659E+02 0.  0.
        -13    1    3    3    0    0  0.14172115922E+02 -0.26564955452E+02 -0.12491681617E+03  0.12849418933E+03  0.00000000000E+00 0.  1.
         14    1    3    3    0    0  0.17381584040E+02  0.29895285182E+02 -0.75838138932E+03  0.75916940086E+03  0.00000000000E+00 0. -1.
         11    1    5    5    0    0  0.60324504818E+02  0.20891533526E+01  0.91551650140E+03  0.91750415518E+03  0.00000000000E+00 0. -1.
        -12    1    5    5    0    0 -0.24444177088E+02 -0.14021204779E+02  0.33201010026E+03  0.33320386950E+03  0.00000000000E+00 0.  1.
          5    1    4    4  501    0  0.34649989857E+00  0.27318977188E+02 -0.20700921831E+02  0.34531827948E+02  0.41800000000E+01 0. -1.
         -5    1    4    4    0  501 -0.67780527590E+02 -0.18717255492E+02  0.11965419010E+03  0.13884931826E+03  0.41800000000E+01 0. -1.
</event>
<event>
11    1  0.7577197E-009  0.1853806E+03  0.7561462E-02  0.1065372E+00
         22   -1    0    0    0    0  0.00000000000E+00  0.00000000000E+00  0.60037913312E+03  0.60037913312E+03  0.00000000000E+00 0. -1.
         22   -1    0    0    0    0 -0.00000000000E+00 -0.00000000000E+00 -0.45030640570E+03  0.45030640570E+03  0.00000000000E+00 0.  1.
        -24    2    1    2    0    0  0.52664806091E+02 -0.12809878461E+03 -0.37295191785E+03  0.40630524317E+03  0.82510224687E+02 0.  0.
         25    2    1    2    0    0  0.55072848988E+02  0.14486948320E+03  0.15580855634E+03  0.25287138016E+03  0.12508973905E+03 0.  0.
         24    2    1    2    0    0 -0.10773765508E+03 -0.16770698590E+02  0.36721608892E+03  0.39150891549E+03  0.80888295150E+02 0.  0.
        -11    1    5    5    0    0 -0.11422274867E+02 -0.18759989970E+02  0.17631334361E+03  0.17767611185E+03  0.00000000000E+00 0.  1.
         12    1    5    5    0    0 -0.96315380212E+02  0.19892913803E+01  0.19090274531E+03  0.21383280364E+03  0.00000000000E+00 0. -1.
         11    1    3    3    0    0  0.10523118090E+02 -0.98275327602E+02 -0.16768936470E+03  0.19464968293E+03  0.00000000000E+00 0. -1.
        -12    1    3    3    0    0  0.42141688001E+02 -0.29823457010E+02 -0.20526255315E+03  0.21165556024E+03  0.00000000000E+00 0.  1.
          5    1    4    4  501    0  0.40531057748E+02  0.14333874888E+03  0.17404612411E+03  0.22912505164E+03  0.41800000000E+01 0.  1.
         -5    1    4    4    0  501  0.14541791240E+02  0.15307343259E+01 -0.18237567768E+02  0.23746328519E+02  0.41800000000E+01 0.  1.
</event>
<event>
11    1  0.7577197E-009  0.1397106E+03  0.7561462E-02  0.1107882E+00
         22   -1    0    0    0    0  0.00000000000E+00  0.00000000000E+00  0.42190636440E+03  0.42190636440E+03  0.00000000000E+00 0.  1.
         22   -1    0    0    0    0 -0.00000000000E+00 -0.00000000000E+00 -0.72975240507E+03  0.72975240507E+03  0.00000000000E+00 0. -1.
        -24    2    1    2    0    0  0.59300235597E+02 -0.17566539848E+02 -0.67791554739E+03  0.68508582091E+03  0.77123221858E+02 0.  0.
         25    2    1    2    0    0 -0.88555877280E+02 -0.25123186513E+02  0.11173323537E+03  0.19132331855E+03  0.12508788283E+03 0.  0.
         24    2    1    2    0    0  0.29255641683E+02  0.42689726360E+02  0.25833627134E+03  0.27524963002E+03  0.79664448966E+02 0.  0.
        -11    1    5    5    0    0  0.27158653280E+02  0.12091372764E+02  0.23457685445E+03  0.23645315474E+03  0.00000000000E+00 0.  1.
         12    1    5    5    0    0  0.20969884028E+01  0.30598353596E+02  0.23759416893E+02  0.38796475281E+02  0.00000000000E+00 0. -1.
         11    1    3    3    0    0  0.59996928281E+02  0.18140370553E+02 -0.46293528962E+03  0.46715927351E+03  0.00000000000E+00 0. -1.
        -12    1    3    3    0    0 -0.69669268333E+00 -0.35706910401E+02 -0.21498025777E+03  0.21792654740E+03  0.00000000000E+00 0.  1.
          5    1    4    4  501    0 -0.12070173446E+03 -0.20533161000E+02  0.90317493109E+02  0.15220131854E+03  0.41800000000E+01 0.  1.
         -5    1    4    4    0  501  0.32145857181E+02 -0.45900255128E+01  0.21415742262E+02  0.39122000009E+02  0.41800000000E+01 0.  1.
</event>
<event>
11    1  0.7577197E-009  0.1386867E+03  0.7561462E-02  0.1109034E+00
         22   -1    0    0    0    0  0.00000000000E+00  0.00000000000E+00  0.21277491651E+03  0.21277491651E+03  0.00000000000E+00 0.  1.
         22   -1    0    0    0    0 -0.00000000000E+00 -0.00000000000E+00 -0.13700020316E+04  0.13700020316E+04  0.00000000000E+00 0. -1.
        -24    2    1    2    0    0 -0.27628640031E+02  0.63211801363E+02 -0.11111602316E+04  0.11149913621E+04  0.61397096767E+02 0.  0.
         25    2    1    2    0    0  0.15978518752E+02 -0.11895055986E+03 -0.21279535466E+03  0.27447012584E+03  0.12508972085E+03 0.  0.
         24    2    1    2    0    0  0.11650121279E+02  0.55738758492E+02  0.16672847116E+03  0.19331546026E+03  0.79560980101E+02 0.  0.
        -11    1    5    5    0    0 -0.22170936641E+02  0.37436076638E+02  0.13968108121E+03  0.14630042623E+03  0.00000000000E+00 0.  1.
         12    1    5    5    0    0  0.33821057919E+02  0.18302681854E+02  0.27047389950E+02  0.47015034031E+02  0.00000000000E+00 0. -1.
         13    1    3    3    0    0 -0.37146789874E+02  0.54653701263E+02 -0.10661638568E+04  0.10682098486E+04  0.00000000000E+00 0. -1.
        -14    1    3    3    0    0  0.95181498433E+01  0.85581001007E+01 -0.44996374808E+02  0.46781513439E+02  0.00000000000E+00 0.  1.
          5    1    4    4  501    0  0.62711216407E+02 -0.59962153163E+02 -0.16124588238E+03  0.18315529875E+03  0.41800000000E+01 0.  1.
         -5    1    4    4    0  501 -0.46732697656E+02 -0.58988406692E+02 -0.51549472278E+02  0.91314827089E+02  0.41800000000E+01 0.  1.
</event>
<event>
11    1  0.7577197E-009  0.2185335E+03  0.7561462E-02  0.1042140E+00
         22   -1    0    0    0    0  0.00000000000E+00  0.00000000000E+00  0.14919790486E+04  0.14919790486E+04  0.00000000000E+00 0.  1.
         22   -1    0    0    0    0 -0.00000000000E+00 -0.00000000000E+00 -0.49453009920E+03  0.49453009920E+03  0.00000000000E+00 0.  1.
         24    2    1    2    0    0  0.43140559434E+02  0.64265902191E+01 -0.39188737426E+03  0.40290424056E+03  0.82787100618E+02 0.  0.
         25    2    1    2    0    0 -0.10891235085E+03 -0.17134113195E+03  0.68081689334E+02  0.24799734047E+03  0.12509148968E+03 0.  0.
        -24    2    1    2    0    0  0.65771791418E+02  0.16491454173E+03  0.13212546343E+04  0.13356075668E+04  0.81308235057E+02 0.  0.
        -13    1    3    3    0    0  0.49366996489E+02  0.27133988557E+02 -0.35997468028E+03  0.36435576586E+03  0.00000000000E+00 0.  1.
         14    1    3    3    0    0 -0.62264370548E+01 -0.20707398338E+02 -0.31912693978E+02  0.38548474695E+02  0.00000000000E+00 0. -1.
         13    1    5    5    0    0  0.33320064203E+00  0.97273726546E+01  0.33025289552E+03  0.33039628903E+03  0.00000000000E+00 0. -1.
        -14    1    5    5    0    0  0.65438590776E+02  0.15518716908E+03  0.99100173880E+03  0.10052112778E+04  0.00000000000E+00 0.  1.
          5    1    4    4  501    0 -0.13607908230E+02 -0.10549141703E+03 -0.11980374250E+02  0.10711963406E+03  0.41800000000E+01 0.  1.
         -5    1    4    4    0  501 -0.95304442622E+02 -0.65849714924E+02  0.80062063584E+02  0.14087770641E+03  0.41800000000E+01 0.  1.
</event>
<event>
11    1  0.7577197E-009  0.1499373E+03  0.7561462E-02  0.1096943E+00
         22   -1    0    0    0    0  0.00000000000E+00  0.00000000000E+00  0.29832053428E+03  0.29832053428E+03  0.00000000000E+00 0.  1.
         22   -1    0    0    0    0 -0.00000000000E+00 -0.00000000000E+00 -0.30137141108E+03  0.30137141108E+03  0.00000000000E+00 0. -1.
        -24    2    1    2    0    0  0.86248441849E+02 -0.17914907466E+02 -0.16846048395E+03  0.20661549487E+03  0.80940042240E+02 0.  0.
         25    2    1    2    0    0 -0.71314531725E+02 -0.11617373573E+02 -0.56014919880E+02  0.15494043593E+03  0.12509253228E+03 0.  0.
         24    2    1    2    0    0 -0.14933910123E+02  0.29532281039E+02  0.22142452702E+03  0.23813601457E+03  0.81146552436E+02 0.  0.
        -11    1    5    5    0    0 -0.88321790160E+01  0.55577123772E+02  0.18193323379E+03  0.19043772113E+03  0.00000000000E+00 0.  1.
         12    1    5    5    0    0 -0.61017311073E+01 -0.26044842733E+02  0.39491293235E+02  0.47698293438E+02  0.00000000000E+00 0. -1.
         11    1    3    3    0    0  0.10923772305E+02  0.27064261752E+02 -0.63012230913E+02  0.69443101242E+02  0.00000000000E+00 0. -1.
        -12    1    3    3    0    0  0.75324669544E+02 -0.44979169219E+02 -0.10544825303E+03  0.13717239363E+03  0.00000000000E+00 0.  1.
          5    1    4    4  501    0 -0.46061330201E+02  0.46457452983E+02  0.64751290834E+01  0.65873672846E+02  0.41800000000E+01 0.  1.
         -5    1    4    4    0  501 -0.25253201525E+02 -0.58074826556E+02 -0.62490048963E+02  0.89066763083E+02  0.41800000000E+01 0.  1.
</event>
<event>
11    1  0.7577197E-009  0.2001176E+03  0.7561462E-02  0.1054441E+00
         22   -1    0    0    0    0  0.00000000000E+00  0.00000000000E+00  0.91353618409E+03  0.91353618409E+03  0.00000000000E+00 0. -1.
         22   -1    0    0    0    0 -0.00000000000E+00 -0.00000000000E+00 -0.19463228550E+03  0.19463228550E+03  0.00000000000E+00 0.  1.
        -24    2    1    2    0    0  0.48780239823E+02  0.37823049924E+02 -0.12977084750E+03  0.16485680819E+03  0.80791085172E+02 0.  0.
         25    2    1    2    0    0 -0.12880050151E+03 -0.15210940472E+03  0.37324848285E+03  0.44123530528E+03  0.12508926606E+03 0.  0.
         24    2    1    2    0    0  0.80020261682E+02  0.11428635480E+03  0.47542626324E+03  0.50207635612E+03  0.81153696327E+02 0.  0.
        -13    1    5    5    0    0  0.55166236477E+02  0.12901672455E+02  0.15155552740E+03  0.16179877838E+03  0.00000000000E+00 0.  1.
         14    1    5    5    0    0  0.24854025205E+02  0.10138468235E+03  0.32387073584E+03  0.34027757774E+03  0.00000000000E+00 0. -1.
         13    1    3    3    0    0  0.55768215672E+02 -0.51153607580E+01 -0.55893566104E+02  0.79122383222E+02  0.00000000000E+00 0. -1.
        -14    1    3    3    0    0 -0.69879758486E+01  0.42938410682E+02 -0.73877281392E+02  0.85734424966E+02  0.00000000000E+00 0.  1.
          5    1    4    4  501    0 -0.36607696924E+01 -0.53807810496E+02  0.27680715208E+02  0.60764924912E+02  0.41800000000E+01 0.  1.
         -5    1    4    4    0  501 -0.12513973181E+03 -0.98301594228E+02  0.34556776764E+03  0.38047038037E+03  0.41800000000E+01 0.  1.
</event>
<event>
11    1  0.7577197E-009  0.1632715E+03  0.7561462E-02  0.1084040E+00
         22   -1    0    0    0    0  0.00000000000E+00  0.00000000000E+00  0.22199316655E+04  0.22199316655E+04  0.00000000000E+00 0.  1.
         22   -1    0    0    0    0 -0.00000000000E+00 -0.00000000000E+00 -0.48130384470E+03  0.48130384470E+03  0.00000000000E+00 0. -1.
         24    2    1    2    0    0  0.72065037976E+02 -0.77867278245E+02 -0.44919522525E+03  0.46862539063E+03  0.81097001361E+02 0.  0.
         25    2    1    2    0    0 -0.35845214097E+02  0.68295791583E+02  0.23083840888E+03  0.27364835171E+03  0.12509138602E+03 0.  0.
        -24    2    1    2    0    0 -0.36219823879E+02  0.95714866621E+01  0.19569846372E+04  0.19589617679E+04  0.79616887697E+02 0.  0.
        -11    1    3    3    0    0 -0.10950290364E+02 -0.20876816420E+02 -0.17393526395E+03  0.17552557184E+03  0.00000000000E+00 0.  1.
         12    1    3    3    0    0  0.83015328340E+02 -0.56990461825E+02 -0.27525996130E+03  0.29309981879E+03  0.00000000000E+00 0. -1.
         13    1    5    5    0    0  0.11294770946E+02 -0.17180819167E+02  0.18512744689E+03  0.18626573488E+03  0.00000000000E+00 0. -1.
        -14    1    5    5    0    0 -0.47514594824E+02  0.26752305829E+02  0.17718571903E+04  0.17726960330E+04  0.00000000000E+00 0.  1.
          5    1    4    4  501    0 -0.59200918161E+02  0.91648134780E+02  0.20192407997E+03  0.22955377539E+03  0.41800000000E+01 0.  1.
         -5    1    4    4    0  501  0.23355704064E+02 -0.23352343198E+02  0.28914328907E+02  0.44094576325E+02  0.41800000000E+01 0.  1.
</event>
<event>
11    1  0.7577197E-009  0.2762693E+03  0.7561462E-02  0.1010767E+00
         22   -1    0    0    0    0  0.00000000000E+00  0.00000000000E+00  0.38798216158E+03  0.38798216158E+03  0.00000000000E+00 0. -1.
         22   -1    0    0    0    0 -0.00000000000E+00 -0.00000000000E+00 -0.10115346706E+04  0.10115346706E+04  0.00000000000E+00 0.  1.
         24    2    1    2    0    0  0.82046447184E+01  0.36011930384E+02 -0.63453521102E+03  0.64064400970E+03  0.80160076226E+02 0.  0.
         25    2    1    2    0    0 -0.25058909916E+03  0.60728580872E+01 -0.26129242694E+03  0.38308197508E+03  0.12508513513E+03 0.  0.
        -24    2    1    2    0    0  0.24238445444E+03 -0.42084788471E+02  0.27227512893E+03  0.37579084739E+03  0.81016430267E+02 0.  0.
        -13    1    3    3    0    0  0.43101308111E+01  0.60786429392E+02 -0.50845346044E+03  0.51209226577E+03  0.00000000000E+00 0.  1.
         14    1    3    3    0    0  0.38945139073E+01 -0.24774499009E+02 -0.12608175058E+03  0.12855174393E+03  0.00000000000E+00 0. -1.
         13    1    5    5    0    0  0.19794196180E+03 -0.55721240846E+02  0.25151644157E+03  0.32487905027E+03  0.00000000000E+00 0. -1.
        -14    1    5    5    0    0  0.44442492643E+02  0.13636452375E+02  0.20758687365E+02  0.50911797128E+02  0.00000000000E+00 0.  1.
          5    1    4    4  501    0 -0.24937996644E+03 -0.21548449138E+02 -0.22037340548E+03  0.33352153388E+03  0.41800000000E+01 0.  1.
         -5    1    4    4    0  501 -0.12091327282E+01  0.27621307225E+02 -0.40919021459E+02  0.49560441200E+02  0.41800000000E+01 0.  1.
</event>
<event>
11    1  0.7577197E-009  0.1289362E+03  0.7561462E-02  0.1120583E+00
         22   -1    0    0    0    0  0.00000000000E+00  0.00000000000E+00  0.14953674396E+03  0.14953674396E+03  0.00000000000E+00 0.  1.
         22   -1    0    0    0    0 -0.00000000000E+00 -0.00000000000E+00 -0.45003575987E+03  0.45003575987E+03  0.00000000000E+00 0.  1.
        -24    2    1    2    0    0 -0.35117859857E+02 -0.14983812324E+02 -0.33226857412E+03  0.33911423207E+03  0.56020338576E+02 0.  0.
         25    2    1    2    0    0  0.69403323176E+01 -0.91674447181E+01 -0.54626161824E+02  0.13697973734E+03  0.12508885094E+03 0.  0.
         24    2    1    2    0    0  0.28177527540E+02  0.24151257042E+02  0.86395720038E+02  0.12347853442E+03  0.80034191112E+02 0.  0.
        -13    1    5    5    0    0  0.23831026698E+02 -0.73039046787E+01  0.88218643703E+02  0.91672209278E+02  0.00000000000E+00 0.  1.
         14    1    5    5    0    0  0.43465008411E+01  0.31455161721E+02 -0.18229236648E+01  0.31806325143E+02  0.00000000000E+00 0. -1.
         11    1    3    3    0    0  0.25722018486E+01  0.26327491361E+01 -0.20865078743E+03  0.20868324966E+03  0.00000000000E+00 0. -1.
        -12    1    3    3    0    0 -0.37690061706E+02 -0.17616561460E+02 -0.12361778669E+03  0.13043098242E+03  0.00000000000E+00 0.  1.
          5    1    4    4  501    0  0.29502124020E+01 -0.26884512241E+02 -0.91586059335E+02  0.95587443820E+02  0.41800000000E+01 0. -1.
         -5    1    4    4    0  501  0.39901199155E+01  0.17717067523E+02  0.36959897510E+02  0.41392293516E+02  0.41800000000E+01 0. -1.
</event>
<event>
11    1  0.7577197E-009  0.1321609E+03  0.7561462E-02  0.1116642E+00
         22   -1    0    0    0    0  0.00000000000E+00  0.00000000000E+00  0.88163393788E+03  0.88163393788E+03  0.00000000000E+00 0. -1.
         22   -1    0    0    0    0 -0.00000000000E+00 -0.00000000000E+00 -0.64801785788E+03  0.64801785788E+03  0.00000000000E+00 0.  1.
         24    2    1    2    0    0  0.12416413559E+02 -0.14225355202E+02 -0.58766606369E+03  0.59352998699E+03  0.81055012076E+02 0.  0.
         25    2    1    2    0    0  0.27068297000E+02 -0.38211416623E+01  0.19861839807E+02  0.12957452115E+03  0.12509104694E+03 0.  0.
        -24    2    1    2    0    0 -0.39484710560E+02  0.18046496865E+02  0.80142030388E+03  0.80654728762E+03  0.79745252476E+02 0.  0.
        -11    1    3    3    0    0 -0.10966610203E+02  0.71865331518E+01 -0.50222245800E+03  0.50239358089E+03  0.00000000000E+00 0.  1.
         12    1    3    3    0    0  0.23383023762E+02 -0.21411888354E+02 -0.85443605689E+02  0.91136406097E+02  0.00000000000E+00 0. -1.
         13    1    5    5    0    0 -0.56263487433E+02 -0.87886721413E+01  0.59442320175E+03  0.59714467557E+03  0.00000000000E+00 0. -1.
        -14    1    5    5    0    0  0.16778776874E+02  0.26835169006E+02  0.20699710212E+03  0.20940261206E+03  0.00000000000E+00 0.  1.
          5    1    4    4  501    0 -0.43976586194E+02  0.45023364129E+01  0.34757911074E+02  0.56389679452E+02  0.41800000000E+01 0.  1.
         -5    1    4    4    0  501  0.71044883195E+02 -0.83234780752E+01 -0.14896071267E+02  0.73184841700E+02  0.41800000000E+01 0.  1.
</event>
<event>
11    1  0.7577197E-009  0.1654278E+03  0.7561462E-02  0.1082081E+00
         22   -1    0    0    0    0  0.00000000000E+00  0.00000000000E+00  0.24271423555E+03  0.24271423555E+03  0.00000000000E+00 0. -1.
         22   -1    0    0    0    0 -0.00000000000E+00 -0.00000000000E+00 -0.45142097420E+03  0.45142097420E+03  0.00000000000E+00 0. -1.
         24    2    1    2    0    0 -0.75136980983E+02  0.16366046057E+02 -0.19747759249E+03  0.22657672919E+03  0.80163590866E+02 0.  0.
         25    2    1    2    0    0  0.12857879915E+03  0.74758614221E+02 -0.17185821221E+03  0.25943055582E+03  0.12509040809E+03 0.  0.
        -24    2    1    2    0    0 -0.53441818171E+02 -0.91124660278E+02  0.16062906605E+03  0.20812792474E+03  0.79723299966E+02 0.  0.
        -11    1    3    3    0    0 -0.54345622286E+02 -0.24824212766E+02 -0.76280071580E+02  0.96893433840E+02  0.00000000000E+00 0.  1.
         12    1    3    3    0    0 -0.20791358697E+02  0.41190258823E+02 -0.12119752091E+03  0.12968329535E+03  0.00000000000E+00 0. -1.
         13    1    5    5    0    0 -0.17115195875E+02 -0.90038488723E+02  0.13682117904E+03  0.16468119023E+03  0.00000000000E+00 0. -1.
        -14    1    5    5    0    0 -0.36326622296E+02 -0.10861715545E+01  0.23807887012E+02  0.43446734515E+02  0.00000000000E+00 0.  1.
          5    1    4    4  501    0  0.95679138476E+02  0.61102970699E+02 -0.18834814008E+03  0.21995582474E+03  0.41800000000E+01 0.  1.
         -5    1    4    4    0  501  0.32899660678E+02  0.13655643522E+02  0.16489927864E+02  0.39474731078E+02  0.41800000000E+01 0.  1.
</event>
<event>
11    1  0.7577197E-009  0.2083386E+03  0.7561462E-02  0.1048779E+00
         22   -1    0    0    0    0  0.00000000000E+00  0.00000000000E+00  0.11149836080E+03  0.11149836080E+03  0.00000000000E+00 0. -1.
         22   -1    0    0    0    0 -0.00000000000E+00 -0.00000000000E+00 -0.13318184515E+04  0.13318184515E+04  0.00000000000E+00 0. -1.
        -24    2    1    2    0    0 -0.76453125615E+02 -0.15946484944E+03 -0.10001544426E+04  0.10187712238E+04  0.79446702905E+02 0.  0.
         25    2    1    2    0    0  0.61466713859E+02  0.12011216083E+03 -0.26475060851E+03  0.32240645836E+03  0.12509177267E+03 0.  0.
         24    2    1    2    0    0  0.14986411756E+02  0.39352688612E+02  0.44584960506E+02  0.10213913014E+03  0.81678372687E+02 0.  0.
        -13    1    5    5    0    0 -0.32106518167E+02  0.26918554966E+02  0.12161357850E+02  0.43627236161E+02  0.00000000000E+00 0.  1.
         14    1    5    5    0    0  0.47092929923E+02  0.12434133645E+02  0.32423602656E+02  0.58511893982E+02  0.00000000000E+00 0. -1.
         13    1    3    3    0    0 -0.79435421066E+02 -0.16692373442E+03 -0.93295431957E+03  0.95109267773E+03  0.00000000000E+00 0. -1.
        -14    1    3    3    0    0  0.29822954512E+01  0.74588849854E+01 -0.67200123076E+02  0.67678546031E+02  0.00000000000E+00 0.  1.
          5    1    4    4  501    0  0.29886247395E+02 -0.12022416048E+02 -0.11796401789E+03  0.12235484538E+03  0.41800000000E+01 0.  1.
         -5    1    4    4    0  501  0.31580466465E+02  0.13213457687E+03 -0.14678659063E+03  0.20005161298E+03  0.41800000000E+01 0.  1.
</event>
<event>
11    1  0.7577197E-009  0.1637749E+03  0.7561462E-02  0.1083580E+00
         22   -1    0    0    0    0  0.00000000000E+00  0.00000000000E+00  0.43167545895E+03  0.43167545895E+03  0.00000000000E+00 0. -1.
         22   -1    0    0    0    0 -0.00000000000E+00 -0.00000000000E+00 -0.19459400649E+04  0.19459400649E+04  0.00000000000E+00 0.  1.
         24    2    1    2    0    0  0.44595206970E+02  0.29384548818E+02 -0.16862635098E+04  0.16888768658E+04  0.77254510695E+02 0.  0.
         25    2    1    2    0    0 -0.14376253477E+03  0.28561112196E+01 -0.21066373354E+03  0.28408209400E+03  0.12509038224E+03 0.  0.
        -24    2    1    2    0    0  0.99167327797E+02 -0.32240660037E+02  0.38266263737E+03  0.40465656399E+03  0.80265943415E+02 0.  0.
        -11    1    3    3    0    0  0.45446463291E+02 -0.10827831458E+02 -0.12157598940E+04  0.12166572002E+04  0.00000000000E+00 0.  1.
         12    1    3    3    0    0 -0.85125632087E+00  0.40212380276E+02 -0.47050361576E+03  0.47221966563E+03  0.00000000000E+00 0. -1.
         11    1    5    5    0    0  0.69398905746E+01  0.14777800759E+02  0.13844147248E+03  0.13940081340E+03  0.00000000000E+00 0. -1.
        -12    1    5    5    0    0  0.92227437222E+02 -0.47018460796E+02  0.24422116490E+03  0.26525575058E+03  0.00000000000E+00 0.  1.
          5    1    4    4  501    0 -0.23708508667E+02  0.11125704875E+02 -0.14405436481E+03  0.14647527817E+03  0.41800000000E+01 0. -1.
         -5    1    4    4    0  501 -0.12005402610E+03 -0.82695936551E+01 -0.66609368728E+02  0.13760681584E+03  0.41800000000E+01 0. -1.
</event>
<event>
11    1  0.7577197E-009  0.1361178E+03  0.7561462E-02  0.1111973E+00
         22   -1    0    0    0    0  0.00000000000E+00  0.00000000000E+00  0.71881884008E+03  0.71881884008E+03  0.00000000000E+00 0.  1.
         22   -1    0    0    0    0 -0.00000000000E+00 -0.00000000000E+00 -0.22540673071E+03  0.22540673071E+03  0.00000000000E+00 0. -1.
         24    2    1    2    0    0  0.28161626801E+02  0.36515442497E+02 -0.13534301470E+03  0.16565854840E+03  0.83657445948E+02 0.  0.
         25    2    1    2    0    0 -0.58428296952E+02 -0.78435545812E+02  0.17122818675E+02  0.15970600967E+03  0.12508724106E+03 0.  0.
        -24    2    1    2    0    0  0.30266670151E+02  0.41920103315E+02  0.61163230539E+03  0.61886101272E+03  0.78876547084E+02 0.  0.
        -11    1    3    3    0    0  0.17895574923E+02  0.63931309752E+01  0.66575276737E+01  0.20135699646E+02  0.00000000000E+00 0.  1.
         12    1    3    3    0    0  0.10266051877E+02  0.30122311522E+02 -0.14200054238E+03  0.14552284875E+03  0.00000000000E+00 0. -1.
         13    1    5    5    0    0  0.11694026921E+02 -0.19490206506E+02  0.29017773373E+03  0.29106654835E+03  0.00000000000E+00 0. -1.
        -14    1    5    5    0    0  0.18572643230E+02  0.61410309820E+02  0.32145457167E+03  0.32779446437E+03  0.00000000000E+00 0.  1.
          5    1    4    4  501    0  0.23365521074E+02 -0.93452673564E+01 -0.32754045308E+02  0.41516038842E+02  0.41800000000E+01 0.  1.
         -5    1    4    4    0  501 -0.81793818027E+02 -0.69090278455E+02  0.49876863983E+02  0.11818997083E+03  0.41800000000E+01 0.  1.
</event>
<event>
11    1  0.7577197E-009  0.1809029E+03  0.7561462E-02  0.1068915E+00
         22   -1    0    0    0    0  0.00000000000E+00  0.00000000000E+00  0.16168610070E+03  0.16168610070E+03  0.00000000000E+00 0. -1.
         22   -1    0    0    0    0 -0.00000000000E+00 -0.00000000000E+00 -0.40439163428E+03  0.40439163428E+03  0.00000000000E+00 0.  1.
        -24    2    1    2    0    0  0.85474513459E+02  0.13989799064E+03 -0.21635289079E+03  0.28311450338E+03  0.80423307793E+02 0.  0.
         25    2    1    2    0    0  0.31769276036E+01 -0.78726033356E+02 -0.24114450240E+02  0.14979028956E+03  0.12509093868E+03 0.  0.
         24    2    1    2    0    0 -0.88651441063E+02 -0.61171957284E+02 -0.22381925637E+01  0.13317294204E+03  0.78287525350E+02 0.  0.
        -13    1    5    5    0    0 -0.25117436123E+02  0.72349952922E+01 -0.25967190980E+02  0.36844616454E+02  0.00000000000E+00 0.  1.
         14    1    5    5    0    0 -0.63534004940E+02 -0.68406952576E+02  0.23728998417E+02  0.96328325586E+02  0.00000000000E+00 0. -1.
         13    1    3    3    0    0  0.77342846504E+02  0.11187113114E+03 -0.11648226819E+03  0.17906754226E+03  0.00000000000E+00 0. -1.
        -14    1    3    3    0    0  0.81316669554E+01  0.28026859499E+02 -0.99870622593E+02  0.10404696112E+03  0.00000000000E+00 0.  1.
          5    1    4    4  501    0 -0.56241126199E+02 -0.27498603667E+02  0.11062528810E+02  0.63710983539E+02  0.41800000000E+01 0. -1.
         -5    1    4    4    0  501  0.59418053803E+02 -0.51227429689E+02 -0.35176979049E+02  0.86079306023E+02  0.41800000000E+01 0. -1.
</event>
<event>
11    1  0.7577197E-009  0.2422202E+03  0.7561462E-02  0.1028127E+00
         22   -1    0    0    0    0  0.00000000000E+00  0.00000000000E+00  0.16769008220E+04  0.16769008220E+04  0.00000000000E+00 0. -1.
         22   -1    0    0    0    0 -0.00000000000E+00 -0.00000000000E+00 -0.99047918188E+02  0.99047918188E+02  0.00000000000E+00 0. -1.
         24    2    1    2    0    0 -0.20300931662E+03  0.43303448881E+01  0.16607639659E+03  0.27262958393E+03  0.74256218678E+02 0.  0.
         25    2    1    2    0    0  0.20992758932E+03 -0.66711072603E+02  0.32676610329E+03  0.41345290882E+03  0.12508901464E+03 0.  0.
        -24    2    1    2    0    0 -0.69182727033E+01  0.62380727715E+02  0.10850104039E+04  0.10898662474E+04  0.81373478283E+02 0.  0.
        -11    1    3    3    0    0 -0.86154176245E+02  0.33730873313E+02  0.95579555040E+02  0.13302543080E+03  0.00000000000E+00 0.  1.
         12    1    3    3    0    0 -0.11685514037E+03 -0.29400528424E+02  0.70496841547E+02  0.13960415313E+03  0.00000000000E+00 0. -1.
         11    1    5    5    0    0  0.14377954446E+02  0.43979551918E+02  0.98172614058E+03  0.98281592461E+03  0.00000000000E+00 0. -1.
        -12    1    5    5    0    0 -0.21296227149E+02  0.18401175797E+02  0.10328426336E+03  0.10705032284E+03  0.00000000000E+00 0.  1.
          5    1    4    4  501    0  0.12729334466E+03  0.20505666272E+02  0.13197485160E+03  0.18455056706E+03  0.41800000000E+01 0. -1.
         -5    1    4    4    0  501  0.82634244660E+02 -0.87216738875E+02  0.19479125169E+03  0.22890234176E+03  0.41800000000E+01 0. -1.
</event>
<event>
11    1  0.7577197E-009  0.5658757E+03  0.7561462E-02  0.9257283E-01
         22   -1    0    0    0    0  0.00000000000E+00  0.00000000000E+00  0.51081767419E+03  0.51081767419E+03  0.00000000000E+00 0. -1.
         22   -1    0    0    0    0 -0.00000000000E+00 -0.00000000000E+00 -0.14685304040E+04  0.14685304040E+04  0.00000000000E+00 0. -1.
         24    2    1    2    0    0 -0.32250389420E+03  0.46738005173E+03 -0.11809129539E+04  0.13126201164E+04  0.77222346876E+02 0.  0.
         25    2    1    2    0    0  0.25052414756E+03 -0.40434634452E+03  0.12499641244E+03  0.50747413178E+03  0.12509027327E+03 0.  0.
        -24    2    1    2    0    0  0.71979746642E+02 -0.63033707213E+02  0.98203811617E+02  0.15925383001E+03  0.81015193540E+02 0.  0.
        -11    1    3    3    0    0 -0.23049285997E+03  0.34545412717E+03 -0.93577071604E+03  0.10237833489E+04  0.00000000000E+00 0.  1.
         12    1    3    3    0    0 -0.92011034235E+02  0.12192592456E+03 -0.24514223782E+03  0.28883676750E+03  0.00000000000E+00 0. -1.
         11    1    5    5    0    0 -0.46744510298E+01 -0.78694227200E+01  0.54372976133E+02  0.55137998149E+02  0.00000000000E+00 0. -1.
        -12    1    5    5    0    0  0.76654197671E+02 -0.55164284493E+02  0.43830835485E+02  0.10411583186E+03  0.00000000000E+00 0.  1.
          5    1    4    4  501    0  0.62713072650E+02 -0.21314244054E+03  0.36487898796E+02  0.22519207046E+03  0.41800000000E+01 0.  1.
         -5    1    4    4    0  501  0.18781107491E+03 -0.19120390398E+03  0.88508513642E+02  0.28228206132E+03  0.41800000000E+01 0.  1.
</event>
<event>
11    1  0.7577197E-009  0.4429436E+03  0.7561462E-02  0.9530912E-01
         22   -1    0    0    0    0  0.00000000000E+00  0.00000000000E+00  0.43620366458E+03  0.43620366458E+03  0.00000000000E+00 0. -1.
         22   -1    0    0    0    0 -0.00000000000E+00 -0.00000000000E+00 -0.21688300398E+04  0.21688300398E+04  0.00000000000E+00 0. -1.
        -24    2    1    2    0    0 -0.12096789559E+03  0.34658204645E+03 -0.10610908479E+04  0.11259082506E+04  0.83685450562E+02 0.  0.
         25    2    1    2    0    0  0.19571985241E+03 -0.71445952715E+03 -0.77722671390E+03  0.10809665347E+04  0.12509439535E+03 0.  0.
         24    2    1    2    0    0 -0.74751956821E+02  0.36787748070E+03  0.10569118658E+03  0.39815891908E+03  0.80238407686E+02 0.  0.
        -11    1    5    5    0    0 -0.22545888876E+02  0.18989460831E+02  0.18394597870E+02  0.34745905639E+02  0.00000000000E+00 0.  1.
         12    1    5    5    0    0 -0.52206067944E+02  0.34888801987E+03  0.87296588708E+02  0.36341301344E+03  0.00000000000E+00 0. -1.
         13    1    3    3    0    0 -0.23891824665E+02  0.16829403565E+03 -0.56094681654E+03  0.58613567773E+03  0.00000000000E+00 0. -1.
        -14    1    3    3    0    0 -0.97076070927E+02  0.17828801080E+03 -0.50014403135E+03  0.53977257289E+03  0.00000000000E+00 0.  1.
          5    1    4    4  501    0 -0.17087534108E+02 -0.51396009146E+02 -0.45919114046E+02  0.71130661552E+02  0.41800000000E+01 0.  1.
         -5    1    4    4    0  501  0.21280738652E+03 -0.66306351800E+03 -0.73130759986E+03  0.10098358731E+04  0.41800000000E+01 0.  1.
</event>
<event>
11    1  0.7577197E-009  0.1603031E+03  0.7561462E-02  0.1086793E+00
         22   -1    0    0    0    0  0.00000000000E+00  0.00000000000E+00  0.52391606220E+03  0.52391606220E+03  0.00000000000E+00 0.  1.
         22   -1    0    0    0    0 -0.00000000000E+00 -0.00000000000E+00 -0.39836613504E+03  0.39836613504E+03  0.00000000000E+00 0.  1.
         24    2    1    2    0    0  0.75729765509E+02 -0.23307673571E+02 -0.33646208830E+03  0.35375384898E+03  0.75211726307E+02 0.  0.
         25    2    1    2    0    0 -0.15194609255E+03 -0.13973813285E+02  0.20395208474E+03  0.28376977704E+03  0.12508377591E+03 0.  0.
        -24    2    1    2    0    0  0.76216327042E+02  0.37281486856E+02  0.25805993072E+03  0.28475857122E+03  0.85403034296E+02 0.  0.
        -11    1    3    3    0    0  0.87318005987E+02 -0.15465147294E+02 -0.32043108494E+03  0.33247508951E+03  0.00000000000E+00 0.  1.
         12    1    3    3    0    0 -0.11588240478E+02 -0.78425262776E+01 -0.16031003359E+02  0.21278759468E+02  0.00000000000E+00 0. -1.
         11    1    5    5    0    0 -0.11448222666E+02 -0.62738974004E+01  0.84452836917E+02  0.85455867289E+02  0.00000000000E+00 0. -1.
        -12    1    5    5    0    0  0.87664549709E+02  0.43555384256E+02  0.17360709381E+03  0.19930270393E+03  0.00000000000E+00 0.  1.
          5    1    4    4  501    0 -0.97362318471E+02  0.31268162051E+02  0.49321002990E+02  0.11360965079E+03  0.41800000000E+01 0.  1.
         -5    1    4    4    0  501 -0.54583774080E+02 -0.45241975336E+02  0.15463108175E+03  0.17016012626E+03  0.41800000000E+01 0.  1.
</event>
<event>
11    1  0.7577197E-009  0.7711214E+03  0.7561462E-02  0.8933597E-01
         22   -1    0    0    0    0  0.00000000000E+00  0.00000000000E+00  0.79197650050E+02  0.79197650050E+02  0.00000000000E+00 0. -1.
         22   -1    0    0    0    0 -0.00000000000E+00 -0.00000000000E+00 -0.18770386429E+04  0.18770386429E+04  0.00000000000E+00 0.  1.
         24    2    1    2    0    0 -0.82388429505E+02 -0.10226776298E+03 -0.42253123720E+03  0.45052186260E+03  0.84798311348E+02 0.  0.
         25    2    1    2    0    0  0.18641517703E+03  0.26008124297E+03 -0.11525861420E+04  0.12027031338E+04  0.12508853694E+03 0.  0.
        -24    2    1    2    0    0 -0.10402674753E+03 -0.15781347998E+03 -0.22272361357E+03  0.30301129650E+03  0.80519433065E+02 0.  0.
        -11    1    3    3    0    0  0.10057633471E+02  0.61238731057E+01 -0.57147634304E+02  0.58348178373E+02  0.00000000000E+00 0.  1.
         12    1    3    3    0    0 -0.92446062977E+02 -0.10839163609E+03 -0.36538360290E+03  0.39217368423E+03  0.00000000000E+00 0. -1.
         13    1    5    5    0    0 -0.68657952258E+02 -0.15544980919E+03 -0.18132896216E+03  0.24851307833E+03  0.00000000000E+00 0. -1.
        -14    1    5    5    0    0 -0.35368795269E+02 -0.23636707979E+01 -0.41394651408E+02  0.54498218169E+02  0.00000000000E+00 0.  1.
          5    1    4    4  501    0  0.65465793136E+02  0.14265449527E+02 -0.17460094891E+03  0.18706212038E+03  0.41800000000E+01 0.  1.
         -5    1    4    4    0  501  0.12094938390E+03  0.24581579344E+03 -0.97798519314E+03  0.10156410134E+04  0.41800000000E+01 0.  1.
</event>
<event>
11    1  0.7577197E-009  0.1686528E+03  0.7561462E-02  0.1079210E+00
         22   -1    0    0    0    0  0.00000000000E+00  0.00000000000E+00  0.34648851635E+03  0.34648851635E+03  0.00000000000E+00 0.  1.
         22   -1    0    0    0    0 -0.00000000000E+00 -0.00000000000E+00 -0.67818844787E+03  0.67818844787E+03  0.00000000000E+00 0.  1.
        -24    2    1    2    0    0  0.53457328093E+02  0.93478394586E+02 -0.51507756249E+03  0.53251038107E+03  0.81648725575E+02 0.  0.
         25    2    1    2    0    0 -0.78498134384E+02 -0.13439715712E+03 -0.77979608349E+02  0.21436715242E+03  0.12509158156E+03 0.  0.
         24    2    1    2    0    0  0.25040806291E+02  0.40918762534E+02  0.26135723931E+03  0.27779943072E+03  0.81015616148E+02 0.  0.
        -11    1    5    5    0    0 -0.85467534752E+01  0.49930646557E+02  0.20822609891E+03  0.21429938107E+03  0.00000000000E+00 0.  1.
         12    1    5    5    0    0  0.33587559767E+02 -0.90118840231E+01  0.53131140403E+02  0.63500049647E+02  0.00000000000E+00 0. -1.
         11    1    3    3    0    0  0.58522907834E+02  0.89144374496E+02 -0.31963743798E+03  0.33695658771E+03  0.00000000000E+00 0. -1.
        -12    1    3    3    0    0 -0.50655797414E+01  0.43340200903E+01 -0.19544012451E+03  0.19555379336E+03  0.00000000000E+00 0.  1.
          5    1    4    4  501    0 -0.81510273433E+02 -0.14157724605E+03 -0.30710248247E+02  0.16627878103E+03  0.41800000000E+01 0.  1.
         -5    1    4    4    0  501  0.30121390493E+01  0.71800889308E+01 -0.47269360102E+02  0.48088371392E+02  0.41800000000E+01 0.  1.
</event>
<event>
11    1  0.7577197E-009  0.2452674E+03  0.7561462E-02  0.1026451E+00
         22   -1    0    0    0    0  0.00000000000E+00  0.00000000000E+00  0.29279483699E+04  0.29279483699E+04  0.00000000000E+00 0.  1.
         22   -1    0    0    0    0 -0.00000000000E+00 -0.00000000000E+00 -0.74630420653E+03  0.74630420653E+03  0.00000000000E+00 0. -1.
         24    2    1    2    0    0 -0.17245367954E+03 -0.11845885948E+03 -0.69668110657E+03  0.73199355764E+03  0.81714326799E+02 0.  0.
         25    2    1    2    0    0  0.22114710181E+03  0.21099320787E+03  0.88485232014E+03  0.94447549360E+03  0.12508459192E+03 0.  0.
        -24    2    1    2    0    0 -0.48693422278E+02 -0.92534348397E+02  0.19934729498E+04  0.19977835252E+04  0.79189374260E+02 0.  0.
        -13    1    3    3    0    0  0.85268547294E+01 -0.86885904425E+01 -0.53913272590E+02  0.55270605360E+02  0.00000000000E+00 0.  1.
         14    1    3    3    0    0 -0.18098053426E+03 -0.10977026903E+03 -0.64276783398E+03  0.67672295228E+03  0.00000000000E+00 0. -1.
         13    1    5    5    0    0 -0.12303819074E+02 -0.50025967587E+02  0.39678799257E+03  0.40011834805E+03  0.00000000000E+00 0. -1.
        -14    1    5    5    0    0 -0.36389603205E+02 -0.42508380810E+02  0.15966849573E+04  0.15976651772E+04  0.00000000000E+00 0.  1.
          5    1    4    4  501    0  0.68887728887E+02 -0.12030734892E+01  0.19007204223E+03  0.20221725993E+03  0.41800000000E+01 0. -1.
         -5    1    4    4    0  501  0.15225937293E+03  0.21219628136E+03  0.69478027791E+03  0.74225823367E+03  0.41800000000E+01 0. -1.
</event>
<event>
11    1  0.7577197E-009  0.1544462E+03  0.7561462E-02  0.1092420E+00
         22   -1    0    0    0    0  0.00000000000E+00  0.00000000000E+00  0.90195730103E+02  0.90195730103E+02  0.00000000000E+00 0. -1.
         22   -1    0    0    0    0 -0.00000000000E+00 -0.00000000000E+00 -0.11746617624E+04  0.11746617624E+04  0.00000000000E+00 0. -1.
         24    2    1    2    0    0  0.21467481630E+02  0.86489894893E+02 -0.88328343576E+03  0.89142755940E+03  0.80697652345E+02 0.  0.
         25    2    1    2    0    0 -0.22106781962E+02 -0.96993033011E+02 -0.23477678103E+03  0.28401545150E+03  0.12509309140E+03 0.  0.
        -24    2    1    2    0    0  0.63930033276E+00  0.10503138118E+02  0.33594184487E+02  0.89414481608E+02  0.82192795759E+02 0.  0.
        -11    1    3    3    0    0 -0.48304258881E+01  0.17654255537E+02 -0.31264782999E+02  0.36228337096E+02  0.00000000000E+00 0.  1.
         12    1    3    3    0    0  0.26297907518E+02  0.68835639356E+02 -0.85201865276E+03  0.85519922231E+03  0.00000000000E+00 0. -1.
         13    1    5    5    0    0  0.30698352003E+02  0.30650170201E+02  0.30636290632E+02  0.53107476429E+02  0.00000000000E+00 0. -1.
        -14    1    5    5    0    0 -0.30059051670E+02 -0.20147032082E+02  0.29578938553E+01  0.36307005179E+02  0.00000000000E+00 0.  1.
          5    1    4    4  501    0 -0.22787756803E+01 -0.75293170649E+01 -0.17343840272E+03  0.17366702442E+03  0.41800000000E+01 0.  1.
         -5    1    4    4    0  501 -0.19828006282E+02 -0.89463715946E+02 -0.61338378319E+02  0.11034842708E+03  0.41800000000E+01 0.  1.
</event>
<event>
11    1  0.7577197E-009  0.1461781E+03  0.7561462E-02  0.1100849E+00
         22   -1    0    0    0    0  0.00000000000E+00  0.00000000000E+00  0.26812414713E+03  0.26812414713E+03  0.00000000000E+00 0. -1.
         22   -1    0    0    0    0 -0.00000000000E+00 -0.00000000000E+00 -0.89130653336E+03  0.89130653336E+03  0.00000000000E+00 0.  1.
        -24    2    1    2    0    0 -0.50904255330E+02 -0.54691553513E+02 -0.79108037169E+03  0.79840499779E+03  0.77845852664E+02 0.  0.
         25    2    1    2    0    0  0.25596766259E+02  0.10690532868E+03  0.34669180080E+00  0.16652902641E+03  0.12509137740E+03 0.  0.
         24    2    1    2    0    0  0.25307489072E+02 -0.52213775169E+02  0.16755129366E+03  0.19449665630E+03  0.79929756548E+02 0.  0.
        -11    1    5    5    0    0  0.64662162443E+00  0.11458249323E+02 -0.20575346973E+01  0.11659461656E+02  0.00000000000E+00 0.  1.
         12    1    5    5    0    0  0.24660867447E+02 -0.63672024492E+02  0.16960882836E+03  0.18283719464E+03  0.00000000000E+00 0. -1.
         11    1    3    3    0    0  0.17545740554E+02 -0.14369396548E+02 -0.30819415318E+03  0.30902745610E+03  0.00000000000E+00 0. -1.
        -12    1    3    3    0    0 -0.68449995884E+02 -0.40322156964E+02 -0.48288621851E+03  0.48937754169E+03  0.00000000000E+00 0.  1.
          5    1    4    4  501    0 -0.15297649268E+02  0.12178292909E+03  0.54677938726E-01  0.12281113663E+03  0.41800000000E+01 0.  1.
         -5    1    4    4    0  501  0.40894415526E+02 -0.14877600406E+02  0.29201386208E+00  0.43717889784E+02  0.41800000000E+01 0.  1.
</event>
<event>
11    1  0.7577197E-009  0.1313394E+03  0.7561462E-02  0.1117634E+00
         22   -1    0    0    0    0  0.00000000000E+00  0.00000000000E+00  0.16203526407E+04  0.16203526407E+04  0.00000000000E+00 0.  1.
         22   -1    0    0    0    0 -0.00000000000E+00 -0.00000000000E+00 -0.10184590087E+03  0.10184590087E+03  0.00000000000E+00 0. -1.
         24    2    1    2    0    0  0.78011001547E+00 -0.30368191721E+02 -0.71418193698E+02  0.11185045532E+03  0.80542723590E+02 0.  0.
         25    2    1    2    0    0 -0.24150806771E+02 -0.75145977503E+01  0.47810846616E+03  0.49484803229E+03  0.12508852467E+03 0.  0.
        -24    2    1    2    0    0  0.23370696755E+02  0.37882789471E+02  0.11118164673E+04  0.11155000539E+04  0.78887375936E+02 0.  0.
        -11    1    3    3    0    0 -0.28076667191E+01 -0.37278975947E+02  0.25519972208E+01  0.37471558947E+02  0.00000000000E+00 0.  1.
         12    1    3    3    0    0  0.35877767346E+01  0.69107842263E+01 -0.73970190919E+02  0.74378896369E+02  0.00000000000E+00 0. -1.
         11    1    5    5    0    0 -0.18743366435E+01  0.45442364466E+02  0.31691593112E+03  0.32016281643E+03  0.00000000000E+00 0. -1.
        -12    1    5    5    0    0  0.25245033399E+02 -0.75595749945E+01  0.79490053622E+03  0.79533723751E+03  0.00000000000E+00 0.  1.
          5    1    4    4  501    0 -0.73384843306E+02  0.25006582713E+01  0.22330104837E+03  0.23510087010E+03  0.41800000000E+01 0.  1.
         -5    1    4    4    0  501  0.49234036535E+02 -0.10015256022E+02  0.25480741779E+03  0.25974716219E+03  0.41800000000E+01 0.  1.
</event>
<event>
11    1  0.7577197E-009  0.1943842E+03  0.7561462E-02  0.1058567E+00
         22   -1    0    0    0    0  0.00000000000E+00  0.00000000000E+00  0.60704478536E+02  0.60704478536E+02  0.00000000000E+00 0.  1.
         22   -1    0    0    0    0 -0.00000000000E+00 -0.00000000000E+00 -0.15665345084E+04  0.15665345084E+04  0.00000000000E+00 0. -1.
        -24    2    1    2    0    0  0.10088038790E+03  0.10322680649E+03 -0.11151707497E+04  0.11272596000E+04  0.79219811176E+02 0.  0.
         25    2    1    2    0    0 -0.12813955230E+03 -0.11455768965E+03 -0.33486453469E+03  0.39664056849E+03  0.12508507048E+03 0.  0.
         24    2    1    2    0    0  0.27259164398E+02  0.11330883152E+02 -0.55794745478E+02  0.10333881849E+03  0.81819354841E+02 0.  0.
        -11    1    5    5    0    0 -0.85570328173E+01  0.14344307934E+02  0.15949458305E+02  0.23094744012E+02  0.00000000000E+00 0.  1.
         12    1    5    5    0    0  0.35816197216E+02 -0.30134247815E+01 -0.71744203783E+02  0.80244074475E+02  0.00000000000E+00 0. -1.
         11    1    3    3    0    0  0.93132024930E+02  0.11166903268E+03 -0.10893311641E+04  0.10989931447E+04  0.00000000000E+00 0. -1.
        -12    1    3    3    0    0  0.77483629749E+01 -0.84422261834E+01 -0.25839585631E+02  0.28266455337E+02  0.00000000000E+00 0.  1.
          5    1    4    4  501    0 -0.12087146692E+03 -0.49019884563E+02 -0.14241084052E+03  0.19316102219E+03  0.41800000000E+01 0.  1.
         -5    1    4    4    0  501 -0.72680853843E+01 -0.65537805083E+02 -0.19245369417E+03  0.20347954629E+03  0.41800000000E+01 0.  1.
</event>
<event>
11    1  0.7577197E-009  0.1317241E+03  0.7561462E-02  0.1117169E+00
         22   -1    0    0    0    0  0.00000000000E+00  0.00000000000E+00  0.14765450191E+04  0.14765450191E+04  0.00000000000E+00 0.  1.
         22   -1    0    0    0    0 -0.00000000000E+00 -0.00000000000E+00 -0.10615234323E+03  0.10615234323E+03  0.00000000000E+00 0. -1.
         24    2    1    2    0    0  0.40436948082E+02 -0.15504126839E+01 -0.65694959110E+02  0.11241406642E+03  0.81752945677E+02 0.  0.
         25    2    1    2    0    0 -0.50829642299E+02  0.63941291330E+01  0.26926823358E+03  0.30129406569E+03  0.12509274552E+03 0.  0.
        -24    2    1    2    0    0  0.10392694217E+02 -0.48437164491E+01  0.11668194014E+04  0.11689892302E+04  0.70262616083E+02 0.  0.
        -11    1    3    3    0    0 -0.54593783461E+01  0.26106743485E+01  0.16834690542E+02  0.17889305132E+02  0.00000000000E+00 0.  1.
         12    1    3    3    0    0  0.45896326428E+02 -0.41610870325E+01 -0.82529649651E+02  0.94524761288E+02  0.00000000000E+00 0. -1.
         11    1    5    5    0    0  0.95013823851E+01  0.31429299679E+02  0.41607246762E+03  0.41736599701E+03  0.00000000000E+00 0. -1.
        -12    1    5    5    0    0  0.89131183205E+00 -0.36273016128E+02  0.75074693376E+03  0.75162323320E+03  0.00000000000E+00 0.  1.
          5    1    4    4  501    0 -0.72193260712E+02  0.37609846189E+02  0.10636742129E+03  0.13400697047E+03  0.41800000000E+01 0. -1.
         -5    1    4    4    0  501  0.21363618413E+02 -0.31215717056E+02  0.16290081229E+03  0.16728709522E+03  0.41800000000E+01 0. -1.
</event>
<event>
11    1  0.7577197E-009  0.1418494E+03  0.7561462E-02  0.1105511E+00
         22   -1    0    0    0    0  0.00000000000E+00  0.00000000000E+00  0.24788171333E+03  0.24788171333E+03  0.00000000000E+00 0. -1.
         22   -1    0    0    0    0 -0.00000000000E+00 -0.00000000000E+00 -0.11570948706E+04  0.11570948706E+04  0.00000000000E+00 0. -1.
         24    2    1    2    0    0  0.18522241868E+02  0.62280694077E+02 -0.97010058597E+03  0.97554609631E+03  0.79831577881E+02 0.  0.
         25    2    1    2    0    0 -0.26689084175E+02 -0.86386502410E+02 -0.14149886112E+03  0.20939720825E+03  0.12510127143E+03 0.  0.
        -24    2    1    2    0    0  0.81668423072E+01  0.24105808333E+02  0.20238628979E+03  0.22003327939E+03  0.82502402609E+02 0.  0.
        -11    1    3    3    0    0 -0.17116176519E+02  0.64109157849E+02 -0.56714921079E+03  0.57101766603E+03  0.00000000000E+00 0.  1.
         12    1    3    3    0    0  0.35638418387E+02 -0.18284637726E+01 -0.40295137518E+03  0.40452843028E+03  0.00000000000E+00 0. -1.
         11    1    5    5    0    0  0.28568756131E+02 -0.11725135565E+01  0.17564770980E+03  0.17795973301E+03  0.00000000000E+00 0. -1.
        -12    1    5    5    0    0 -0.20401913824E+02  0.25278321890E+02  0.26738579989E+02  0.42073546381E+02  0.00000000000E+00 0.  1.
          5    1    4    4  501    0 -0.73624377002E+02 -0.34116169235E+02 -0.56100727270E+02  0.98738168367E+02  0.41800000000E+01 0. -1.
         -5    1    4    4    0  501  0.46935292826E+02 -0.52270333175E+02 -0.85398133854E+02  0.11065903989E+03  0.41800000000E+01 0. -1.
</event>
<event>
11    1  0.7577197E-009  0.1487940E+03  0.7561462E-02  0.1098118E+00
         22   -1    0    0    0    0  0.00000000000E+00  0.00000000000E+00  0.42598973570E+03  0.42598973570E+03  0.00000000000E+00 0.  1.
         22   -1    0    0    0    0 -0.00000000000E+00 -0.00000000000E+00 -0.55769865449E+03  0.55769865449E+03  0.00000000000E+00 0.  1.
        -24    2    1    2    0    0 -0.87505604380E+01 -0.34303298970E+02 -0.42215984052E+03  0.43138641424E+03  0.81375787646E+02 0.  0.
         25    2    1    2    0    0  0.88686198939E+02  0.35472910496E+02 -0.71833399305E+02  0.17300516146E+03  0.12508868604E+03 0.  0.
         24    2    1    2    0    0 -0.79935638501E+02 -0.11696115262E+01  0.36228432103E+03  0.37929681449E+03  0.78899112297E+02 0.  0.
        -11    1    5    5    0    0 -0.64406695428E+02  0.24661833107E+02  0.32013814236E+03  0.32748260812E+03  0.00000000000E+00 0.  1.
         12    1    5    5    0    0 -0.15528943072E+02 -0.25831444633E+02  0.42146178676E+02  0.51814206370E+02  0.00000000000E+00 0. -1.
         13    1    3    3    0    0 -0.12013480526E+02 -0.48995142673E+02 -0.13975736228E+03  0.14858320239E+03  0.00000000000E+00 0. -1.
        -14    1    3    3    0    0  0.32629200880E+01  0.14691843703E+02 -0.28240247824E+03  0.28280321185E+03  0.00000000000E+00 0.  1.
          5    1    4    4  501    0  0.69340704902E+02  0.56998649391E+01 -0.10381103788E+03  0.12503929703E+03  0.41800000000E+01 0. -1.
         -5    1    4    4    0  501  0.19345494037E+02  0.29773045557E+02  0.31977638578E+02  0.47965864428E+02  0.41800000000E+01 0. -1.
</event>
<event>
11    1  0.7577197E-009  0.2016479E+03  0.7561462E-02  0.1053364E+00
         22   -1    0    0    0    0  0.00000000000E+00  0.00000000000E+00  0.25439856184E+03  0.25439856184E+03  0.00000000000E+00 0. -1.
         22   -1    0    0    0    0 -0.00000000000E+00 -0.00000000000E+00 -0.29733518593E+03  0.29733518593E+03  0.00000000000E+00 0. -1.
         24    2    1    2    0    0  0.80287209470E+02  0.17031005461E+02 -0.47072253375E+01  0.11471445901E+03  0.80007237068E+02 0.  0.
         25    2    1    2    0    0 -0.72253357389E+02 -0.15550692481E+03 -0.13339129637E+03  0.25068453106E+03  0.12508614970E+03 0.  0.
        -24    2    1    2    0    0 -0.80338520813E+01  0.13847591935E+03  0.95161897614E+02  0.18633475771E+03  0.80154426911E+02 0.  0.
        -11    1    3    3    0    0 -0.30537006011E+01 -0.21768752090E+02  0.41090913621E+01  0.22362653839E+02  0.00000000000E+00 0.  1.
         12    1    3    3    0    0  0.83340910072E+02  0.38799757551E+02 -0.88163166996E+01  0.92351805168E+02  0.00000000000E+00 0. -1.
         11    1    5    5    0    0 -0.33015360678E+02  0.11521397101E+03  0.93764660761E+02  0.15217123501E+03  0.00000000000E+00 0. -1.
        -12    1    5    5    0    0  0.24981508597E+02  0.23261948348E+02  0.13972368522E+01  0.34163522704E+02  0.00000000000E+00 0.  1.
          5    1    4    4  501    0 -0.10298689890E+03 -0.11756931610E+03 -0.72001463197E+02  0.17213520423E+03  0.41800000000E+01 0. -1.
         -5    1    4    4    0  501  0.30733541508E+02 -0.37937608713E+02 -0.61389833170E+02  0.78549326828E+02  0.41800000000E+01 0. -1.
</event>
<event>
11    1  0.7577197E-009  0.1672111E+03  0.7561462E-02  0.1080484E+00
         22   -1    0    0    0    0  0.00000000000E+00  0.00000000000E+00  0.27077380472E+03  0.27077380472E+03  0.00000000000E+00 0.  1.
         22   -1    0    0    0    0 -0.00000000000E+00 -0.00000000000E+00 -0.12809437635E+04  0.12809437635E+04  0.00000000000E+00 0.  1.
        -24    2    1    2    0    0 -0.40823676144E+01  0.15902702043E+02 -0.69559504809E+03  0.70046566623E+03  0.80809139224E+02 0.  0.
         25    2    1    2    0    0 -0.46521837571E+02 -0.11421310783E+03 -0.55077256891E+03  0.57810630411E+03  0.12509021068E+03 0.  0.
         24    2    1    2    0    0  0.50604205186E+02  0.98310405787E+02  0.23619765827E+03  0.27314559784E+03  0.81200137804E+02 0.  0.
        -13    1    5    5    0    0  0.54783239056E+02  0.20450229967E+02  0.11537993597E+03  0.12935201897E+03  0.00000000000E+00 0.  1.
         14    1    5    5    0    0 -0.41790338707E+01  0.77860175820E+02  0.12081772230E+03  0.14379357887E+03  0.00000000000E+00 0. -1.
         13    1    3    3    0    0 -0.43138059331E+01 -0.19916444764E+02 -0.51644149677E+02  0.55519292948E+02  0.00000000000E+00 0. -1.
        -14    1    3    3    0    0  0.23143831865E+00  0.35819146807E+02 -0.64395089841E+03  0.64494637328E+03  0.00000000000E+00 0.  1.
          5    1    4    4  501    0  0.38900896252E+02 -0.57474019718E+02 -0.28088991154E+03  0.28936682166E+03  0.41800000000E+01 0.  1.
         -5    1    4    4    0  501 -0.85422733823E+02 -0.56739088111E+02 -0.26988265737E+03  0.28873948245E+03  0.41800000000E+01 0.  1.
</event>
<event>
11    1  0.7577197E-009  0.2036683E+03  0.7561462E-02  0.1051959E+00
         22   -1    0    0    0    0  0.00000000000E+00  0.00000000000E+00  0.28309338626E+03  0.28309338626E+03  0.00000000000E+00 0.  1.
         22   -1    0    0    0    0 -0.00000000000E+00 -0.00000000000E+00 -0.12059249849E+04  0.12059249849E+04  0.00000000000E+00 0.  1.
         24    2    1    2    0    0 -0.14918958291E+03 -0.59193251692E+02 -0.10895374694E+04  0.11042840850E+04  0.81179249183E+02 0.  0.
         25    2    1    2    0    0  0.15664044158E+03  0.49769171613E+02  0.91560926710E+01  0.20674875674E+03  0.12509203012E+03 0.  0.
        -24    2    1    2    0    0 -0.74508586625E+01  0.94240800790E+01  0.15754977811E+03  0.17798552937E+03  0.81930382044E+02 0.  0.
        -11    1    3    3    0    0 -0.99129213592E+02 -0.49769102585E+02 -0.93525469418E+03  0.94180937962E+03  0.00000000000E+00 0.  1.
         12    1    3    3    0    0 -0.50060369322E+02 -0.94241491066E+01 -0.15428277521E+03  0.16247470538E+03  0.00000000000E+00 0. -1.
         13    1    5    5    0    0 -0.64894875030E+01 -0.18610986388E+01 -0.88888754833E+01  0.11161955185E+02  0.00000000000E+00 0. -1.
        -14    1    5    5    0    0 -0.96137115952E+00  0.11285178718E+02  0.16643865360E+03  0.16682357419E+03  0.00000000000E+00 0.  1.
          5    1    4    4  501    0 -0.17574532650E+02  0.22816237752E+02  0.88277950254E+01  0.30411301650E+02  0.41800000000E+01 0.  1.
         -5    1    4    4    0  501  0.17421497423E+03  0.26952933861E+02  0.32829764555E+00  0.17633745509E+03  0.41800000000E+01 0.  1.
</event>
<event>
11    1  0.7577197E-009  0.2854286E+03  0.7561462E-02  0.1006554E+00
         22   -1    0    0    0    0  0.00000000000E+00  0.00000000000E+00  0.41623011833E+03  0.41623011833E+03  0.00000000000E+00 0. -1.
         22   -1    0    0    0    0 -0.00000000000E+00 -0.00000000000E+00 -0.58132545871E+03  0.58132545871E+03  0.00000000000E+00 0. -1.
        -24    2    1    2    0    0  0.63472019057E+00 -0.24984730577E+03 -0.33388628594E+03  0.42481955125E+03  0.81040237620E+02 0.  0.
         25    2    1    2    0    0 -0.17473314090E+03  0.27992284025E+03  0.91479034038E+02  0.36456049800E+03  0.12508987175E+03 0.  0.
         24    2    1    2    0    0  0.17409842071E+03 -0.30075534474E+02  0.77311911528E+02  0.20817552779E+03  0.78390821146E+02 0.  0.
        -11    1    5    5    0    0  0.13391634887E+03  0.11640219951E+02  0.63322278212E+02  0.14858934731E+03  0.00000000000E+00 0.  1.
         12    1    5    5    0    0  0.40182071840E+02 -0.41715754424E+02  0.13989633316E+02  0.59586180486E+02  0.00000000000E+00 0. -1.
         13    1    3    3    0    0  0.96535128597E+00 -0.24233335257E+03 -0.33826810480E+03  0.41611500382E+03  0.00000000000E+00 0. -1.
        -14    1    3    3    0    0 -0.33063109540E+00 -0.75139531982E+01  0.43818188588E+01  0.87045474378E+01  0.00000000000E+00 0.  1.
          5    1    4    4  501    0 -0.13832660958E+03  0.28242416242E+03  0.92458155662E+02  0.32781647516E+03  0.41800000000E+01 0.  1.
         -5    1    4    4    0  501 -0.36406531318E+02 -0.25013221769E+01 -0.97912162411E+00  0.36744022839E+02  0.41800000000E+01 0.  1.
</event>
<event>
11    1  0.7577197E-009  0.3231493E+03  0.7561462E-02  0.9908435E-01
         22   -1    0    0    0    0  0.00000000000E+00  0.00000000000E+00  0.10720736129E+04  0.10720736129E+04  0.00000000000E+00 0. -1.
         22   -1    0    0    0    0 -0.00000000000E+00 -0.00000000000E+00 -0.21202984930E+03  0.21202984930E+03  0.00000000000E+00 0. -1.
        -24    2    1    2    0    0  0.32965069803E+03 -0.30707487365E+02  0.15372641746E+03  0.37404204307E+03  0.81627851034E+02 0.  0.
         25    2    1    2    0    0 -0.57515024706E+02  0.19512727934E+03  0.23109740870E+03  0.33231827633E+03  0.12508713470E+03 0.  0.
         24    2    1    2    0    0 -0.27213567333E+03 -0.16441979197E+03  0.47521993740E+03  0.57774314276E+03  0.82833914627E+02 0.  0.
        -11    1    5    5    0    0 -0.19220779265E+03 -0.15377868190E+03  0.38256993186E+03  0.45491919208E+03  0.00000000000E+00 0.  1.
         12    1    5    5    0    0 -0.79927880675E+02 -0.10641110074E+02  0.92650005540E+02  0.12282395067E+03  0.00000000000E+00 0. -1.
         11    1    3    3    0    0  0.26101222115E+03 -0.57176948758E+02  0.12607723600E+03  0.29545228464E+03  0.00000000000E+00 0. -1.
        -12    1    3    3    0    0  0.68638476878E+02  0.26469461393E+02  0.27649181459E+02  0.78589758429E+02  0.00000000000E+00 0.  1.
          5    1    4    4  501    0 -0.71003770434E+02  0.38128825426E+02  0.88306016762E+02  0.11962762114E+03  0.41800000000E+01 0. -1.
         -5    1    4    4    0  501  0.13488745728E+02  0.15699845391E+03  0.14279139193E+03  0.21269065518E+03  0.41800000000E+01 0. -1.
</event>
<event>
11    1  0.7577197E-009  0.2277003E+03  0.7561462E-02  0.1036498E+00
         22   -1    0    0    0    0  0.00000000000E+00  0.00000000000E+00  0.16245096907E+04  0.16245096907E+04  0.00000000000E+00 0. -1.
         22   -1    0    0    0    0 -0.00000000000E+00 -0.00000000000E+00 -0.41992194367E+03  0.41992194367E+03  0.00000000000E+00 0.  1.
        -24    2    1    2    0    0 -0.15509046319E+03 -0.11061533210E+03 -0.31937985162E+03  0.38039805412E+03  0.80064889260E+02 0.  0.
         25    2    1    2    0    0  0.14768182137E+03  0.11805889662E+03  0.11771051321E+03  0.25544382491E+03  0.12509180361E+03 0.  0.
         24    2    1    2    0    0  0.74086418152E+01 -0.74435645262E+01  0.14062570854E+04  0.14085897553E+04  0.80348079371E+02 0.  0.
        -11    1    5    5    0    0  0.43907599811E+02 -0.25012194284E+01  0.81671442428E+03  0.81789766123E+03  0.00000000000E+00 0.  1.
         12    1    5    5    0    0 -0.36498957995E+02 -0.49423450978E+01  0.58954266113E+03  0.59069209407E+03  0.00000000000E+00 0. -1.
         13    1    3    3    0    0 -0.50794781071E+02 -0.31709702989E+02 -0.40252491425E+02  0.72151771382E+02  0.00000000000E+00 0. -1.
        -14    1    3    3    0    0 -0.10429568212E+03 -0.78905629109E+02 -0.27912736019E+03  0.30824628274E+03  0.00000000000E+00 0.  1.
          5    1    4    4  501    0  0.10670138314E+03  0.96564615668E+02  0.14268135259E+03  0.20269521686E+03  0.41800000000E+01 0.  1.
         -5    1    4    4    0  501  0.40980438230E+02  0.21494280956E+02 -0.24970839383E+02  0.52748608046E+02  0.41800000000E+01 0.  1.
</event>
<event>
11    1  0.7577197E-009  0.1978817E+03  0.7561462E-02  0.1056032E+00
         22   -1    0    0    0    0  0.00000000000E+00  0.00000000000E+00  0.63863312455E+03  0.63863312455E+03  0.00000000000E+00 0. -1.
         22   -1    0    0    0    0 -0.00000000000E+00 -0.00000000000E+00 -0.28545629888E+03  0.28545629888E+03  0.00000000000E+00 0.  1.
         24    2    1    2    0    0 -0.12941321398E+03  0.85670473298E+02 -0.15633452840E+03  0.23471835834E+03  0.81024767976E+02 0.  0.
         25    2    1    2    0    0  0.14003334669E+03 -0.55001818796E+02  0.27456038367E+02  0.19757383041E+03  0.12508815357E+03 0.  0.
        -24    2    1    2    0    0 -0.10620132709E+02 -0.30668654502E+02  0.48205531570E+03  0.49179723468E+03  0.91835935544E+02 0.  0.
        -13    1    3    3    0    0 -0.11993671172E+03  0.52216682062E+02 -0.15059970260E+03  0.19947848788E+03  0.00000000000E+00 0.  1.
         14    1    3    3    0    0 -0.94765022621E+01  0.33453791236E+02 -0.57348257947E+01  0.35239870460E+02  0.00000000000E+00 0. -1.
         13    1    5    5    0    0 -0.21427914226E+01 -0.16908319440E+02  0.47292991584E+03  0.47323692598E+03  0.00000000000E+00 0. -1.
        -14    1    5    5    0    0 -0.84773412861E+01 -0.13760335062E+02  0.91253998661E+01  0.18560308700E+02  0.00000000000E+00 0.  1.
          5    1    4    4  501    0  0.26352029053E+02 -0.52781577932E+02 -0.34039891821E+02  0.68238633041E+02  0.41800000000E+01 0.  1.
         -5    1    4    4    0  501  0.11368131764E+03 -0.22202408642E+01  0.61495930188E+02  0.12933519737E+03  0.41800000000E+01 0.  1.
</event>
<event>
11    1  0.7577197E-009  0.1285965E+03  0.7561462E-02  0.1121006E+00
         22   -1    0    0    0    0  0.00000000000E+00  0.00000000000E+00  0.93847967307E+03  0.93847967307E+03  0.00000000000E+00 0. -1.
         22   -1    0    0    0    0 -0.00000000000E+00 -0.00000000000E+00 -0.31607701941E+03  0.31607701941E+03  0.00000000000E+00 0.  1.
         24    2    1    2    0    0 -0.25082623475E+02  0.19805383459E+02 -0.23534882601E+03  0.25245525940E+03  0.85575679253E+02 0.  0.
         25    2    1    2    0    0 -0.11156400208E+02 -0.33919601671E+02 -0.94576292152E+01  0.13043335642E+03  0.12509360125E+03 0.  0.
        -24    2    1    2    0    0  0.36239023683E+02  0.14114218211E+02  0.86720910889E+03  0.87166807667E+03  0.79000755372E+02 0.  0.
        -13    1    3    3    0    0  0.18650763019E+02  0.89661250990E+01 -0.17953932784E+03  0.18072800724E+03  0.00000000000E+00 0.  1.
         14    1    3    3    0    0 -0.43733386493E+02  0.10839258360E+02 -0.55809498170E+02  0.71727252157E+02  0.00000000000E+00 0. -1.
         13    1    5    5    0    0  0.20896082175E+01 -0.10920042572E+02  0.66406250152E+03  0.66415556891E+03  0.00000000000E+00 0. -1.
        -14    1    5    5    0    0  0.34149415466E+02  0.25034260784E+02  0.20314660737E+03  0.20751250775E+03  0.00000000000E+00 0.  1.
          5    1    4    4  501    0 -0.33090360791E+02 -0.73282080593E+02  0.10075458508E+02  0.81143222622E+02  0.41800000000E+01 0.  1.
         -5    1    4    4    0  501  0.21933960583E+02  0.39362478922E+02 -0.19533087723E+02  0.49290133797E+02  0.41800000000E+01 0.  1.
</event>
<event>
11    1  0.7577197E-009  0.1531747E+03  0.7561462E-02  0.1093678E+00
         22   -1    0    0    0    0  0.00000000000E+00  0.00000000000E+00  0.11974959073E+03  0.11974959073E+03  0.00000000000E+00 0.  1.
         22   -1    0    0    0    0 -0.00000000000E+00 -0.00000000000E+00 -0.95268362559E+03  0.95268362559E+03  0.00000000000E+00 0. -1.
         24    2    1    2    0    0  0.85871477716E+01 -0.12723032244E+02 -0.67828051630E+03  0.68318481167E+03  0.80258416725E+02 0.  0.
         25    2    1    2    0    0  0.78397527350E+02 -0.10382866379E+02 -0.21052310927E+03  0.25733768514E+03  0.12509487777E+03 0.  0.
        -24    2    1    2    0    0 -0.86984675122E+02  0.23105898623E+02  0.55869590713E+02  0.13191071950E+03  0.78605410093E+02 0.  0.
        -13    1    3    3    0    0 -0.63313451846E+01 -0.32543408656E+02 -0.60323442279E+03  0.60414479077E+03  0.00000000000E+00 0.  1.
         14    1    3    3    0    0  0.14918492956E+02  0.19820376412E+02 -0.75046093512E+02  0.79040020904E+02  0.00000000000E+00 0. -1.
         11    1    5    5    0    0 -0.12260013097E+02  0.40862195769E+02  0.21317131722E+02  0.47691163427E+02  0.00000000000E+00 0. -1.
        -12    1    5    5    0    0 -0.74724662025E+02 -0.17756297146E+02  0.34552458991E+02  0.84219556075E+02  0.00000000000E+00 0.  1.
          5    1    4    4  501    0  0.83293472329E+01 -0.59478774656E+02 -0.65979011438E+02  0.89318559159E+02  0.41800000000E+01 0. -1.
         -5    1    4    4    0  501  0.70068180117E+02  0.49095908277E+02 -0.14454409784E+03  0.16801912598E+03  0.41800000000E+01 0. -1.
</event>
<event>
11    1  0.7577197E-009  0.1984784E+03  0.7561462E-02  0.1055605E+00
         22   -1    0    0    0    0  0.00000000000E+00  0.00000000000E+00  0.55718211043E+03  0.55718211043E+03  0.00000000000E+00 0.  1.
         22   -1    0    0    0    0 -0.00000000000E+00 -0.00000000000E+00 -0.59968854829E+03  0.59968854829E+03  0.00000000000E+00 0. -1.
         24    2    1    2    0    0  0.30776107089E+02  0.71526552969E+02 -0.34696127613E+03  0.36487526740E+03  0.81783965914E+02 0.  0.
         25    2    1    2    0    0 -0.14777160437E+03 -0.16510887202E+03 -0.15785649027E+03  0.29943877153E+03  0.12509004635E+03 0.  0.
        -24    2    1    2    0    0  0.11699549728E+03  0.93582319054E+02  0.46231132854E+03  0.49255661980E+03  0.80216347364E+02 0.  0.
        -13    1    3    3    0    0 -0.19882106434E+02 -0.30213809453E+01 -0.37454293752E+02  0.42511775069E+02  0.00000000000E+00 0.  1.
         14    1    3    3    0    0  0.50658213523E+02  0.74547933915E+02 -0.30950698237E+03  0.32236349233E+03  0.00000000000E+00 0. -1.
         11    1    5    5    0    0  0.94927563355E+00  0.13731087439E+02  0.14166907242E+03  0.14233611617E+03  0.00000000000E+00 0. -1.
        -12    1    5    5    0    0  0.11604622164E+03  0.79851231615E+02  0.32064225612E+03  0.35022050362E+03  0.00000000000E+00 0.  1.
          5    1    4    4  501    0 -0.11682282350E+03 -0.41157771093E+02 -0.56007143496E+02  0.13599928947E+03  0.41800000000E+01 0.  1.
         -5    1    4    4    0  501 -0.30948780862E+02 -0.12395110093E+03 -0.10184934677E+03  0.16343948206E+03  0.41800000000E+01 0.  1.
</event>
<event>
11    1  0.7577197E-009  0.1701618E+03  0.7561462E-02  0.1077891E+00
         22   -1    0    0    0    0  0.00000000000E+00  0.00000000000E+00  0.29158291192E+03  0.29158291192E+03  0.00000000000E+00 0. -1.
         22   -1    0    0    0    0 -0.00000000000E+00 -0.00000000000E+00 -0.23716964917E+04  0.23716964917E+04  0.00000000000E+00 0. -1.
         24    2    1    2    0    0  0.15130431569E+02  0.15825501544E+01 -0.22440890285E+04  0.22455999484E+04  0.80945203982E+02 0.  0.
         25    2    1    2    0    0 -0.10862840158E+03  0.62394128092E+02 -0.29313681806E+02  0.17944350556E+03  0.12509005915E+03 0.  0.
        -24    2    1    2    0    0  0.93497970015E+02 -0.63976678246E+02  0.19328913051E+03  0.23823594965E+03  0.80998728255E+02 0.  0.
        -11    1    3    3    0    0 -0.33135907649E+02 -0.27963806916E+01 -0.77870756893E+03  0.77941727338E+03  0.00000000000E+00 0.  1.
         12    1    3    3    0    0  0.48266339218E+02  0.43789308460E+01 -0.14653814596E+04  0.14661826750E+04  0.00000000000E+00 0. -1.
         11    1    5    5    0    0  0.51652028319E+02 -0.79025336911E+02  0.13952260969E+03  0.16846214565E+03  0.00000000000E+00 0. -1.
        -12    1    5    5    0    0  0.41845941696E+02  0.15048658664E+02  0.53766520820E+02  0.69773804004E+02  0.00000000000E+00 0.  1.
          5    1    4    4  501    0 -0.16895039298E+02  0.71656528406E+02 -0.44176282264E+02  0.85959971677E+02  0.41800000000E+01 0.  1.
         -5    1    4    4    0  501 -0.91733362286E+02 -0.92624003138E+01  0.14862600457E+02  0.93483533888E+02  0.41800000000E+01 0.  1.
</event>
<event>
11    1  0.7577197E-009  0.4341862E+03  0.7561462E-02  0.9553948E-01
         22   -1    0    0    0    0  0.00000000000E+00  0.00000000000E+00  0.80888851047E+03  0.80888851047E+03  0.00000000000E+00 0.  1.
         22   -1    0    0    0    0 -0.00000000000E+00 -0.00000000000E+00 -0.22967321739E+04  0.22967321739E+04  0.00000000000E+00 0.  1.
         24    2    1    2    0    0 -0.22740457864E+03  0.34691518789E+03 -0.20971314315E+04  0.21392805570E+04  0.80610610203E+02 0.  0.
         25    2    1    2    0    0  0.24491930496E+03 -0.35233673127E+03  0.11012629563E+03  0.46032664259E+03  0.12508468627E+03 0.  0.
        -24    2    1    2    0    0 -0.17514726323E+02  0.54215433840E+01  0.49916147244E+03  0.50601348481E+03  0.80940178342E+02 0.  0.
        -13    1    3    3    0    0 -0.14462781642E+03  0.15839088658E+03 -0.11782816132E+04  0.11976445375E+04  0.00000000000E+00 0.  1.
         14    1    3    3    0    0 -0.82776762216E+02  0.18852430131E+03 -0.91884981830E+03  0.94163601946E+03  0.00000000000E+00 0. -1.
         11    1    5    5    0    0 -0.94858141164E+01 -0.17234456280E+02  0.27893314350E+02  0.34132742904E+02  0.00000000000E+00 0. -1.
        -12    1    5    5    0    0 -0.80289122066E+01  0.22655999664E+02  0.47126815809E+03  0.47188074191E+03  0.00000000000E+00 0.  1.
          5    1    4    4  501    0  0.10436735770E+03 -0.19172080778E+03  0.11507639055E+03  0.24679842291E+03  0.41800000000E+01 0.  1.
         -5    1    4    4    0  501  0.14055194726E+03 -0.16061592349E+03 -0.49500949196E+01  0.21352821967E+03  0.41800000000E+01 0.  1.
</event>
<event>
11    1  0.7577197E-009  0.1507103E+03  0.7561462E-02  0.1096155E+00
         22   -1    0    0    0    0  0.00000000000E+00  0.00000000000E+00  0.16019929216E+04  0.16019929216E+04  0.00000000000E+00 0.  1.
         22   -1    0    0    0    0 -0.00000000000E+00 -0.00000000000E+00 -0.12792705074E+03  0.12792705074E+03  0.00000000000E+00 0.  1.
        -24    2    1    2    0    0  0.19526581544E+02 -0.71724198263E+02 -0.66285121063E+02  0.12750234784E+03  0.79608312543E+02 0.  0.
         25    2    1    2    0    0 -0.57333807577E+02  0.13995692392E+03  0.31020703861E+03  0.36708557208E+03  0.12509318278E+03 0.  0.
         24    2    1    2    0    0  0.37807226033E+02 -0.68232725655E+02  0.12301439533E+04  0.12353320525E+04  0.81890431028E+02 0.  0.
        -11    1    5    5    0    0  0.50169522270E+02 -0.20076443286E+02  0.88226498181E+03  0.88391828959E+03  0.00000000000E+00 0.  1.
         12    1    5    5    0    0 -0.12362296237E+02 -0.48156282370E+02  0.34787897154E+03  0.35141376287E+03  0.00000000000E+00 0. -1.
         11    1    3    3    0    0  0.39063379703E+02 -0.55399675868E+02 -0.13813028207E+02  0.69179993267E+02  0.00000000000E+00 0. -1.
        -12    1    3    3    0    0 -0.19536798159E+02 -0.16324522394E+02 -0.52472092856E+02  0.58322354568E+02  0.00000000000E+00 0.  1.
          5    1    4    4  501    0  0.30988451408E+02  0.12946619291E+02  0.10331697245E+03  0.10871875766E+03  0.41800000000E+01 0. -1.
         -5    1    4    4    0  501 -0.88322258985E+02  0.12701030463E+03  0.20689006616E+03  0.25836681442E+03  0.41800000000E+01 0. -1.
</event>
<event>
11    1  0.7577197E-009  0.2806101E+03  0.7561462E-02  0.1008749E+00
         22   -1    0    0    0    0  0.00000000000E+00  0.00000000000E+00  0.18989364874E+04  0.18989364874E+04  0.00000000000E+00 0.  1.
         22   -1    0    0    0    0 -0.00000000000E+00 -0.00000000000E+00 -0.69327296348E+02  0.69327296348E+02  0.00000000000E+00 0. -1.
        -24    2    1    2    0    0 -0.23850386119E+03 -0.34990141908E+02  0.33076491685E+03  0.41727802835E+03  0.81284198315E+02 0.  0.
         25    2    1    2    0    0  0.27896394581E+03  0.49546851300E+02  0.11630191090E+04  0.12035515290E+04  0.12508821472E+03 0.  0.
         24    2    1    2    0    0 -0.40460084622E+02 -0.14556709392E+02  0.33582516515E+03  0.34743422636E+03  0.77994127121E+02 0.  0.
        -11    1    5    5    0    0 -0.48575187955E+02 -0.25154103812E+02  0.12822775307E+03  0.13940815787E+03  0.00000000000E+00 0.  1.
         12    1    5    5    0    0  0.81151033336E+01  0.10597394420E+02  0.20759741208E+03  0.20802606849E+03  0.00000000000E+00 0. -1.
         13    1    3    3    0    0 -0.18162961687E+03 -0.55720950207E+02  0.21703544746E+03  0.28844154949E+03  0.00000000000E+00 0. -1.
        -14    1    3    3    0    0 -0.56874244324E+02  0.20730808300E+02  0.11372946938E+03  0.12883647886E+03  0.00000000000E+00 0.  1.
          5    1    4    4  501    0  0.12639939240E+03  0.61381983515E+02  0.36816157939E+03  0.39408752231E+03  0.41800000000E+01 0. -1.
         -5    1    4    4    0  501  0.15256455341E+03 -0.11835132215E+02  0.79485752964E+03  0.80946400670E+03  0.41800000000E+01 0. -1.
</event>
<event>
11    1  0.7577197E-009  0.1713898E+03  0.7561462E-02  0.1076829E+00
         22   -1    0    0    0    0  0.00000000000E+00  0.00000000000E+00  0.72347156273E+03  0.72347156273E+03  0.00000000000E+00 0. -1.
         22   -1    0    0    0    0 -0.00000000000E+00 -0.00000000000E+00 -0.26229221052E+03  0.26229221052E+03  0.00000000000E+00 0. -1.
        -24    2    1    2    0    0  0.39859671142E+02 -0.95568931618E+02 -0.20513172499E+03  0.24117227432E+03  0.73231326830E+02 0.  0.
         25    2    1    2    0    0  0.38394050354E+02  0.15719046995E+03  0.41497001709E+03  0.46263340490E+03  0.12508639136E+03 0.  0.
         24    2    1    2    0    0 -0.78253721495E+02 -0.61621538332E+02  0.25134106011E+03  0.28195809403E+03  0.80044858550E+02 0.  0.
        -11    1    5    5    0    0 -0.18168051476E+02 -0.57160652196E+01  0.16413928136E+01  0.19116633239E+02  0.00000000000E+00 0.  1.
         12    1    5    5    0    0 -0.60085670020E+02 -0.55905473113E+02  0.24969966729E+03  0.26284146079E+03  0.00000000000E+00 0. -1.
         11    1    3    3    0    0 -0.95740327321E+01 -0.57044722285E+02 -0.13639537582E+03  0.14815350481E+03  0.00000000000E+00 0. -1.
        -12    1    3    3    0    0  0.49433703874E+02 -0.38524209332E+02 -0.68736349170E+02  0.93018769507E+02  0.00000000000E+00 0.  1.
          5    1    4    4  501    0  0.57059703722E+01  0.37796055131E+01 -0.81025675564E+01  0.11400329676E+02  0.41800000000E+01 0.  1.
         -5    1    4    4    0  501  0.32688079981E+02  0.15341086444E+03  0.42307258464E+03  0.45123307523E+03  0.41800000000E+01 0.  1.
</event>
<event>
11    1  0.7577197E-009  0.1585402E+03  0.7561462E-02  0.1088458E+00
         22   -1    0    0    0    0  0.00000000000E+00  0.00000000000E+00  0.23501221915E+04  0.23501221915E+04  0.00000000000E+00 0.  1.
         22   -1    0    0    0    0 -0.00000000000E+00 -0.00000000000E+00 -0.16948141074E+04  0.16948141074E+04  0.00000000000E+00 0. -1.
        -24    2    1    2    0    0 -0.79224382422E+02 -0.57150780551E+02 -0.16725938355E+04  0.16771120491E+04  0.74779489922E+02 0.  0.
         25    2    1    2    0    0  0.38732365392E+02  0.55198710797E+02  0.24680519711E+03  0.28479471451E+03  0.12509248694E+03 0.  0.
         24    2    1    2    0    0  0.40492017030E+02  0.19520697542E+01  0.20810967224E+04  0.20830295353E+04  0.80031635584E+02 0.  0.
        -13    1    5    5    0    0  0.62174115965E+02 -0.10501844451E+02  0.16540343610E+04  0.16552358071E+04  0.00000000000E+00 0.  1.
         14    1    5    5    0    0 -0.21682098935E+02  0.12453914206E+02  0.42706236140E+03  0.42779372823E+03  0.00000000000E+00 0. -1.
         13    1    3    3    0    0 -0.44367301889E+02 -0.27611704668E+02 -0.13785043874E+04  0.13794945487E+04  0.00000000000E+00 0. -1.
        -14    1    3    3    0    0 -0.34857080533E+02 -0.29539075884E+02 -0.29408944808E+03  0.29761750039E+03  0.00000000000E+00 0.  1.
          5    1    4    4  501    0  0.51671731372E+02 -0.27006055614E+02  0.11147911444E+03  0.12587438270E+03  0.41800000000E+01 0.  1.
         -5    1    4    4    0  501 -0.12939365980E+02  0.82204766411E+02  0.13532608267E+03  0.15892033181E+03  0.41800000000E+01 0.  1.
</event>
<event>
11    1  0.7577197E-009  0.1608073E+03  0.7561462E-02  0.1086320E+00
         22   -1    0    0    0    0  0.00000000000E+00  0.00000000000E+00  0.29163015180E+03  0.29163015180E+03  0.00000000000E+00 0. -1.
         22   -1    0    0    0    0 -0.00000000000E+00 -0.00000000000E+00 -0.79037073787E+03  0.79037073787E+03  0.00000000000E+00 0. -1.
        -24    2    1    2    0    0  0.67959199547E+02 -0.20243754746E+02 -0.48716935484E+03  0.49875868444E+03  0.79987390255E+02 0.  0.
         25    2    1    2    0    0 -0.47193686102E+02 -0.80460341227E+02 -0.25987875164E+03  0.30311588371E+03  0.12506463484E+03 0.  0.
         24    2    1    2    0    0 -0.20765513444E+02  0.10070409597E+03  0.24830752041E+03  0.28012632151E+03  0.79003859526E+02 0.  0.
        -13    1    5    5    0    0  0.69621567564E+00 -0.89088728266E+01  0.63961245990E+02  0.64582456750E+02  0.00000000000E+00 0.  1.
         14    1    5    5    0    0 -0.21461729120E+02  0.10961296880E+03  0.18434627442E+03  0.21554386476E+03  0.00000000000E+00 0. -1.
         11    1    3    3    0    0  0.20022229019E+02  0.15787167792E+02 -0.32255953364E+03  0.32356572295E+03  0.00000000000E+00 0. -1.
        -12    1    3    3    0    0  0.47936970528E+02 -0.36030922538E+02 -0.16460982120E+03  0.17519296149E+03  0.00000000000E+00 0.  1.
          5    1    4    4  501    0 -0.32421208404E+02 -0.11037603487E+03 -0.15562225476E+03  0.19357107843E+03  0.41800000000E+01 0.  1.
         -5    1    4    4    0  501 -0.14772477698E+02  0.29915693641E+02 -0.10425649688E+03  0.10954480528E+03  0.41800000000E+01 0.  1.
</event>
<event>
11    1  0.7577197E-009  0.1375680E+03  0.7561462E-02  0.1110305E+00
         22   -1    0    0    0    0  0.00000000000E+00  0.00000000000E+00  0.21447635002E+03  0.21447635002E+03  0.00000000000E+00 0. -1.
         22   -1    0    0    0    0 -0.00000000000E+00 -0.00000000000E+00 -0.91920205361E+03  0.91920205361E+03  0.00000000000E+00 0. -1.
         24    2    1    2    0    0 -0.18509524515E+02  0.40836753620E+02 -0.71147610665E+03  0.71697183506E+03  0.76420671215E+02 0.  0.
         25    2    1    2    0    0  0.72230064600E+02 -0.22036450031E+02 -0.16388703805E+03  0.21956696952E+03  0.12509158844E+03 0.  0.
        -24    2    1    2    0    0 -0.53720540085E+02 -0.18800303589E+02  0.17063744111E+03  0.19713959906E+03  0.80669308700E+02 0.  0.
        -11    1    3    3    0    0  0.60231711251E+01 -0.11329499259E+01 -0.49770532779E+03  0.49774306170E+03  0.00000000000E+00 0.  1.
         12    1    3    3    0    0 -0.24532695640E+02  0.41969703546E+02 -0.21377077886E+03  0.21922877335E+03  0.00000000000E+00 0. -1.
         11    1    5    5    0    0 -0.73912647313E+02 -0.47058081949E+01  0.12561781882E+03  0.14582544520E+03  0.00000000000E+00 0. -1.
        -12    1    5    5    0    0  0.20192107228E+02 -0.14094495394E+02  0.45019622295E+02  0.51314153860E+02  0.00000000000E+00 0.  1.
          5    1    4    4  501    0  0.41034236754E+02  0.47046012897E+02 -0.39967585164E+02  0.74242953735E+02  0.41800000000E+01 0.  1.
         -5    1    4    4    0  501  0.31195827846E+02 -0.69082462928E+02 -0.12391945289E+03  0.14532401578E+03  0.41800000000E+01 0.  1.
</event>
<event>
11    1  0.7577197E-009  0.1990069E+03  0.7561462E-02  0.1055228E+00
         22   -1    0    0    0    0  0.00000000000E+00  0.00000000000E+00  0.48640559814E+03  0.48640559814E+03  0.00000000000E+00 0. -1.
         22   -1    0    0    0    0 -0.00000000000E+00 -0.00000000000E+00 -0.66394461308E+03  0.66394461308E+03  0.00000000000E+00 0.  1.
        -24    2    1    2    0    0 -0.30378445354E+02 -0.32999314152E+02 -0.58427422261E+03  0.59156110875E+03  0.80971436287E+02 0.  0.
         25    2    1    2    0    0  0.67926534393E+02 -0.12645969160E+03  0.14739579044E+03  0.24078806871E+03  0.12508919744E+03 0.  0.
         24    2    1    2    0    0 -0.37548089039E+02  0.15945900575E+03  0.25933941723E+03  0.31800103377E+03  0.83849213710E+02 0.  0.
        -11    1    5    5    0    0 -0.26326104651E+02  0.12861104539E+02  0.85184618034E+02  0.90082689490E+02  0.00000000000E+00 0.  1.
         12    1    5    5    0    0 -0.11221984388E+02  0.14659790121E+03  0.17415479920E+03  0.22791834428E+03  0.00000000000E+00 0. -1.
         13    1    3    3    0    0  0.17254893672E+02  0.16228430766E+02 -0.12795772072E+03  0.13013174713E+03  0.00000000000E+00 0. -1.
        -14    1    3    3    0    0 -0.47633339025E+02 -0.49227744917E+02 -0.45631650190E+03  0.46142936161E+03  0.00000000000E+00 0.  1.
          5    1    4    4  501    0  0.23623196613E+02 -0.13596137583E+03  0.80293558736E+02  0.15971248890E+03  0.41800000000E+01 0.  1.
         -5    1    4    4    0  501  0.44303337779E+02  0.95016842268E+01  0.67102231705E+02  0.81075579809E+02  0.41800000000E+01 0.  1.
</event>
<event>
11    1  0.7577197E-009  0.1407100E+03  0.7561462E-02  0.1106768E+00
         22   -1    0    0    0    0  0.00000000000E+00  0.00000000000E+00  0.70204227312E+03  0.70204227312E+03  0.00000000000E+00 0. -1.
         22   -1    0    0    0    0 -0.00000000000E+00 -0.00000000000E+00 -0.16072563653E+03  0.16072563653E+03  0.00000000000E+00 0. -1.
         24    2    1    2    0    0  0.42986623531E+02  0.40382956629E+02 -0.81898739120E+02  0.12904558503E+03  0.80415959602E+02 0.  0.
         25    2    1    2    0    0 -0.31473906986E+02 -0.10037105954E+03  0.80644955184E+02  0.18225454716E+03  0.12509258470E+03 0.  0.
        -24    2    1    2    0    0 -0.11512716545E+02  0.59988102914E+02  0.54257042052E+03  0.55146777745E+03  0.77478598383E+02 0.  0.
        -13    1    3    3    0    0 -0.14729558756E+02 -0.17885964992E+01  0.57775901798E+01  0.15922924570E+02  0.00000000000E+00 0.  1.
         14    1    3    3    0    0  0.57716182287E+02  0.42171553129E+02 -0.87676329300E+02  0.11312266046E+03  0.00000000000E+00 0. -1.
         11    1    5    5    0    0 -0.19915056976E+01  0.11726138352E+02  0.40824410562E+03  0.40841733336E+03  0.00000000000E+00 0. -1.
        -12    1    5    5    0    0 -0.95212108472E+01  0.48261964562E+02  0.13432631491E+03  0.14305044410E+03  0.00000000000E+00 0.  1.
          5    1    4    4  501    0 -0.47481397965E+02 -0.12469879581E+03  0.60300243230E+02  0.14648503187E+03  0.41800000000E+01 0. -1.
         -5    1    4    4    0  501  0.16007490979E+02  0.24327736265E+02  0.20344711954E+02  0.35769515285E+02  0.41800000000E+01 0. -1.
</event>
<event>
11    1  0.7577197E-009  0.1371259E+03  0.7561462E-02  0.1110811E+00
         22   -1    0    0    0    0  0.00000000000E+00  0.00000000000E+00  0.17951667550E+03  0.17951667550E+03  0.00000000000E+00 0. -1.
         22   -1    0    0    0    0 -0.00000000000E+00 -0.00000000000E+00 -0.57094887122E+03  0.57094887122E+03  0.00000000000E+00 0.  1.
        -24    2    1    2    0    0  0.50353021493E+02  0.15856341132E+02 -0.44558266408E+03  0.45613220609E+03  0.82011149090E+02 0.  0.
         25    2    1    2    0    0 -0.96582084407E+02 -0.13300016328E+02 -0.38298013816E+02  0.16315319629E+03  0.12508892091E+03 0.  0.
         24    2    1    2    0    0  0.46229062914E+02 -0.25563248033E+01  0.92448482168E+02  0.13118014435E+03  0.80733186242E+02 0.  0.
        -13    1    5    5    0    0 -0.14198458408E+02  0.13641271405E+02  0.54646432380E+02  0.58085394710E+02  0.00000000000E+00 0.  1.
         14    1    5    5    0    0  0.60427521322E+02 -0.16197596208E+02  0.37802049787E+02  0.73094749635E+02  0.00000000000E+00 0. -1.
         13    1    3    3    0    0  0.19400023783E+02  0.54390515034E+01 -0.17156328096E+02  0.26462875841E+02  0.00000000000E+00 0. -1.
        -14    1    3    3    0    0  0.30952997710E+02  0.10417289628E+02 -0.42842633598E+03  0.42966933025E+03  0.00000000000E+00 0.  1.
          5    1    4    4  501    0 -0.12122758308E+03 -0.18506255495E+02 -0.53032247010E+02  0.13367310879E+03  0.41800000000E+01 0. -1.
         -5    1    4    4    0  501  0.24645498670E+02  0.52062391669E+01  0.14734233194E+02  0.29480087496E+02  0.41800000000E+01 0. -1.
</event>
<event>
11    1  0.7577197E-009  0.1531228E+03  0.7561462E-02  0.1093730E+00
         22   -1    0    0    0    0  0.00000000000E+00  0.00000000000E+00  0.25895567442E+03  0.25895567442E+03  0.00000000000E+00 0. -1.
         22   -1    0    0    0    0 -0.00000000000E+00 -0.00000000000E+00 -0.24509610471E+03  0.24509610471E+03  0.00000000000E+00 0. -1.
        -24    2    1    2    0    0 -0.80471914256E+02 -0.35637990056E+02 -0.15243203094E+03  0.19367160157E+03  0.80792139968E+02 0.  0.
         25    2    1    2    0    0  0.73066591732E+02  0.55806478972E+02  0.42447631855E+02  0.16093831975E+03  0.12508497668E+03 0.  0.
         24    2    1    2    0    0  0.74053225244E+01 -0.20168488915E+02  0.12384396879E+03  0.14944185781E+03  0.80832750242E+02 0.  0.
        -11    1    5    5    0    0 -0.18611188701E+01  0.20428696420E+02  0.19199543812E+01  0.20602951868E+02  0.00000000000E+00 0.  1.
         12    1    5    5    0    0  0.92664413945E+01 -0.40597185335E+02  0.12192401441E+03  0.12883890594E+03  0.00000000000E+00 0. -1.
         13    1    3    3    0    0 -0.68360941447E+02 -0.48571956867E+02 -0.15454084633E+03  0.17582754760E+03  0.00000000000E+00 0. -1.
        -14    1    3    3    0    0 -0.12110972809E+02  0.12933966811E+02  0.21088153955E+01  0.17844053973E+02  0.00000000000E+00 0.  1.
          5    1    4    4  501    0  0.70145768658E+02  0.80852878469E+02  0.66298499347E+02  0.12597849115E+03  0.41800000000E+01 0. -1.
         -5    1    4    4    0  501  0.29208230741E+01 -0.25046399497E+02 -0.23850867492E+02  0.34959828594E+02  0.41800000000E+01 0. -1.
</event>
<event>
11    1  0.7577197E-009  0.1807501E+03  0.7561462E-02  0.1069038E+00
         22   -1    0    0    0    0  0.00000000000E+00  0.00000000000E+00  0.12045221095E+04  0.12045221095E+04  0.00000000000E+00 0. -1.
         22   -1    0    0    0    0 -0.00000000000E+00 -0.00000000000E+00 -0.13442521014E+03  0.13442521014E+03  0.00000000000E+00 0. -1.
        -24    2    1    2    0    0 -0.34457556491E+01 -0.93346045375E+02 -0.66547373582E+02  0.13713871263E+03  0.75187207363E+02 0.  0.
         25    2    1    2    0    0 -0.28739108536E+02  0.19846979949E+03  0.53196494707E+03  0.58210847219E+03  0.12508945122E+03 0.  0.
         24    2    1    2    0    0  0.32184864185E+02 -0.10512375411E+03  0.60467932586E+03  0.61970013482E+03  0.79399627277E+02 0.  0.
        -11    1    5    5    0    0 -0.14712116505E+02 -0.29610339923E+02  0.66908654692E+02  0.74632343358E+02  0.00000000000E+00 0.  1.
         12    1    5    5    0    0  0.46896980690E+02 -0.75513414191E+02  0.53777067117E+03  0.54506779146E+03  0.00000000000E+00 0. -1.
         11    1    3    3    0    0 -0.27492964011E+02 -0.81192768057E+02 -0.69058408832E+02  0.11007811992E+03  0.00000000000E+00 0. -1.
        -12    1    3    3    0    0  0.24047208362E+02 -0.12153277318E+02  0.25110352498E+01  0.27060592706E+02  0.00000000000E+00 0.  1.
          5    1    4    4  501    0  0.70493453067E+01  0.91264187855E+02  0.10021799252E+03  0.13579382784E+03  0.41800000000E+01 0.  1.
         -5    1    4    4    0  501 -0.35788453843E+02  0.10720561163E+03  0.43174695455E+03  0.44631464435E+03  0.41800000000E+01 0.  1.
</event>
<event>
11    1  0.7577197E-009  0.1688283E+03  0.7561462E-02  0.1079056E+00
         22   -1    0    0    0    0  0.00000000000E+00  0.00000000000E+00  0.25757402766E+03  0.25757402766E+03  0.00000000000E+00 0. -1.
         22   -1    0    0    0    0 -0.00000000000E+00 -0.00000000000E+00 -0.23831106807E+03  0.23831106807E+03  0.00000000000E+00 0. -1.
         24    2    1    2    0    0 -0.30943580289E+02 -0.10026569536E+03 -0.87343175357E+02  0.15904792646E+03  0.81588588674E+02 0.  0.
         25    2    1    2    0    0 -0.55264359185E+01  0.14053478413E+03 -0.18925921588E+01  0.18823334862E+03  0.12509054554E+03 0.  0.
        -24    2    1    2    0    0  0.36470016207E+02 -0.40269088766E+02  0.10849872710E+03  0.14860382065E+03  0.85787295901E+02 0.  0.
        -11    1    3    3    0    0 -0.39188703940E+02 -0.18466905901E+02 -0.66110498132E+01  0.43823362601E+02  0.00000000000E+00 0.  1.
         12    1    3    3    0    0  0.82451236510E+01 -0.81798789461E+02 -0.80732125544E+02  0.11522456386E+03  0.00000000000E+00 0. -1.
         13    1    5    5    0    0  0.21806788893E+02  0.10194289832E+02  0.89569732505E+02  0.92748027300E+02  0.00000000000E+00 0. -1.
        -14    1    5    5    0    0  0.14663227314E+02 -0.50463378598E+02  0.18928994598E+02  0.55855793354E+02  0.00000000000E+00 0.  1.
          5    1    4    4  501    0  0.57747595715E+02  0.61508452583E+02  0.14148869391E+02  0.85648919754E+02  0.41800000000E+01 0. -1.
         -5    1    4    4    0  501 -0.63274031633E+02  0.79026331545E+02 -0.16041461550E+02  0.10258442886E+03  0.41800000000E+01 0. -1.
</event>
<event>
11    1  0.7577197E-009  0.1271524E+03  0.7561462E-02  0.1122818E+00
         22   -1    0    0    0    0  0.00000000000E+00  0.00000000000E+00  0.29998402077E+03  0.29998402077E+03  0.00000000000E+00 0. -1.
         22   -1    0    0    0    0 -0.00000000000E+00 -0.00000000000E+00 -0.81439597764E+03  0.81439597764E+03  0.00000000000E+00 0.  1.
         24    2    1    2    0    0  0.50217566492E+01  0.28524564188E+02 -0.69546809704E+03  0.70066138942E+03  0.80072715855E+02 0.  0.
         25    2    1    2    0    0  0.10657793382E+02 -0.99330624496E+01 -0.72856078690E+02  0.14549319339E+03  0.12509199348E+03 0.  0.
        -24    2    1    2    0    0 -0.15679550031E+02 -0.18591501738E+02  0.25391221885E+03  0.26822541560E+03  0.82957618476E+02 0.  0.
        -11    1    3    3    0    0 -0.55994585327E+01 -0.24392451694E+02 -0.36100930224E+03  0.36187575484E+03  0.00000000000E+00 0.  1.
         12    1    3    3    0    0  0.10621215182E+02  0.52917015881E+02 -0.33445879480E+03  0.33878563458E+03  0.00000000000E+00 0. -1.
         11    1    5    5    0    0  0.14156124973E+01 -0.45146972631E+02  0.20562118199E+03  0.21052392638E+03  0.00000000000E+00 0. -1.
        -12    1    5    5    0    0 -0.17095162529E+02  0.26555470893E+02  0.48291036859E+02  0.57701489211E+02  0.00000000000E+00 0.  1.
          5    1    4    4  501    0  0.52407729229E+01  0.35415772241E+02  0.20509931919E+02  0.41471343499E+02  0.41800000000E+01 0. -1.
         -5    1    4    4    0  501  0.54170204591E+01 -0.45348834690E+02 -0.93366010610E+02  0.10402184990E+03  0.41800000000E+01 0. -1.
</event>
<event>
11    1  0.7577197E-009  0.1282781E+03  0.7561462E-02  0.1121403E+00
         22   -1    0    0    0    0  0.00000000000E+00  0.00000000000E+00  0.10127217837E+04  0.10127217837E+04  0.00000000000E+00 0.  1.
         22   -1    0    0    0    0 -0.00000000000E+00 -0.00000000000E+00 -0.13400912731E+03  0.13400912731E+03  0.00000000000E+00 0. -1.
        -24    2    1    2    0    0 -0.26118773242E+02  0.11290094261E+02 -0.10244893265E+03  0.13128498265E+03  0.77008482161E+02 0.  0.
         25    2    1    2    0    0  0.32933739613E+02  0.71731743331E+01  0.26840486407E+03  0.29803510751E+03  0.12509064162E+03 0.  0.
         24    2    1    2    0    0 -0.68149663715E+01 -0.18463268595E+02  0.71275672492E+03  0.71741082080E+03  0.79175759094E+02 0.  0.
        -11    1    5    5    0    0  0.22246414562E+02 -0.38889864975E+02  0.45868539711E+03  0.46086833052E+03  0.00000000000E+00 0.  1.
         12    1    5    5    0    0 -0.29061380933E+02  0.20426596381E+02  0.25407132782E+03  0.25654249028E+03  0.00000000000E+00 0. -1.
         13    1    3    3    0    0 -0.36243717995E+01 -0.20363807969E+02 -0.87111264875E+02  0.89533196157E+02  0.00000000000E+00 0. -1.
        -14    1    3    3    0    0 -0.22494401442E+02  0.31653902231E+02 -0.15337667772E+02  0.41751786493E+02  0.00000000000E+00 0.  1.
          5    1    4    4  501    0 -0.11273137895E+02 -0.53209947582E+02  0.10905201977E+03  0.12193521876E+03  0.41800000000E+01 0.  1.
         -5    1    4    4    0  501  0.44206877508E+02  0.60383121915E+02  0.15935284430E+03  0.17609988875E+03  0.41800000000E+01 0.  1.
</event>
<event>
11    1  0.7577197E-009  0.1674310E+03  0.7561462E-02  0.1080289E+00
         22   -1    0    0    0    0  0.00000000000E+00  0.00000000000E+00  0.94594899202E+03  0.94594899202E+03  0.00000000000E+00 0.  1.
         22   -1    0    0    0    0 -0.00000000000E+00 -0.00000000000E+00 -0.13340278641E+03  0.13340278641E+03  0.00000000000E+00 0. -1.
        -24    2    1    2    0    0 -0.86094566509E+01  0.61910105410E+00 -0.84609423568E+02  0.11421360590E+03  0.76233110826E+02 0.  0.
         25    2    1    2    0    0  0.96560482209E+02  0.65330899229E+02  0.24449463118E+03  0.29835755170E+03  0.12509017091E+03 0.  0.
         24    2    1    2    0    0 -0.87951025559E+02 -0.65950000283E+02  0.65266099800E+03  0.66678062084E+03  0.80902611697E+02 0.  0.
        -13    1    5    5    0    0 -0.97101421954E+02 -0.75437352092E+02  0.60229378856E+03  0.61471724229E+03  0.00000000000E+00 0.  1.
         14    1    5    5    0    0  0.91503963951E+01  0.94873518082E+01  0.50367209439E+02  0.52063378542E+02  0.00000000000E+00 0. -1.
         11    1    3    3    0    0 -0.36610815427E+02  0.17367202621E+02 -0.63583494684E+02  0.75397827087E+02  0.00000000000E+00 0. -1.
        -12    1    3    3    0    0  0.28001358776E+02 -0.16748101567E+02 -0.21025928884E+02  0.38815778813E+02  0.00000000000E+00 0.  1.
          5    1    4    4  501    0  0.10766131585E+03  0.85963147624E+02  0.23558808240E+03  0.27294658571E+03  0.41800000000E+01 0.  1.
         -5    1    4    4    0  501 -0.11100833640E+02 -0.20632248395E+02  0.89065487815E+01  0.25410965990E+02  0.41800000000E+01 0.  1.
</event>
<event>
11    1  0.7577197E-009  0.2729985E+03  0.7561462E-02  0.1012314E+00
         22   -1    0    0    0    0  0.00000000000E+00  0.00000000000E+00  0.12112145512E+04  0.12112145512E+04  0.00000000000E+00 0. -1.
         22   -1    0    0    0    0 -0.00000000000E+00 -0.00000000000E+00 -0.31172521381E+03  0.31172521381E+03  0.00000000000E+00 0. -1.
        -24    2    1    2    0    0  0.96072304139E+01 -0.80633033757E+01 -0.23439884331E+03  0.24817684952E+03  0.80570560101E+02 0.  0.
         25    2    1    2    0    0  0.10676516091E+03 -0.20853292873E+03  0.29540485086E+03  0.39723573923E+03  0.12508966648E+03 0.  0.
         24    2    1    2    0    0 -0.11637239133E+03  0.21659623211E+03  0.83848332985E+03  0.87752717627E+03  0.80889983421E+02 0.  0.
        -13    1    5    5    0    0 -0.35787111448E+01  0.13421220427E+02  0.10121511584E+02  0.17186661339E+02  0.00000000000E+00 0.  1.
         14    1    5    5    0    0 -0.11279368018E+03  0.20317501168E+03  0.82836181827E+03  0.86034051493E+03  0.00000000000E+00 0. -1.
         11    1    3    3    0    0  0.15431933600E+02  0.34278937330E+02 -0.13114293000E+03  0.13642455134E+03  0.00000000000E+00 0. -1.
        -12    1    3    3    0    0 -0.58247031862E+01 -0.42342240706E+02 -0.10325591331E+03  0.11175229818E+03  0.00000000000E+00 0.  1.
          5    1    4    4  501    0  0.36112529329E+02 -0.21562609921E+01  0.92019359743E+02  0.98963625659E+02  0.41800000000E+01 0.  1.
         -5    1    4    4    0  501  0.70652631584E+02 -0.20637666774E+03  0.20338549112E+03  0.29827211358E+03  0.41800000000E+01 0.  1.
</event>
<event>
11    1  0.7577197E-009  0.1342025E+03  0.7561462E-02  0.1114211E+00
         22   -1    0    0    0    0  0.00000000000E+00  0.00000000000E+00  0.12935266056E+04  0.12935266056E+04  0.00000000000E+00 0. -1.
         22   -1    0    0    0    0 -0.00000000000E+00 -0.00000000000E+00 -0.49476033642E+03  0.49476033642E+03  0.00000000000E+00 0. -1.
        -24    2    1    2    0    0  0.41827386774E+02 -0.36117796307E+02 -0.47788134684E+03  0.48775935682E+03  0.80526908633E+02 0.  0.
         25    2    1    2    0    0  0.15590031094E+02  0.15336581624E+02  0.43782241801E+03  0.45585972834E+03  0.12506543250E+03 0.  0.
         24    2    1    2    0    0 -0.57417417868E+02  0.20781214684E+02  0.83882519798E+03  0.84466785682E+03  0.78150219603E+02 0.  0.
        -11    1    5    5    0    0  0.53473702423E+01  0.26089115410E+01  0.37347186183E+01  0.70248780128E+01  0.00000000000E+00 0.  1.
         12    1    5    5    0    0 -0.62764788111E+02  0.18172303142E+02  0.83509047936E+03  0.83764297881E+03  0.00000000000E+00 0. -1.
         11    1    3    3    0    0  0.38420975003E+02 -0.43034605149E+00 -0.40203976666E+03  0.40387167578E+03  0.00000000000E+00 0. -1.
        -12    1    3    3    0    0  0.34064117715E+01 -0.35687450256E+02 -0.75841580183E+02  0.83887681048E+02  0.00000000000E+00 0.  1.
          5    1    4    4  501    0  0.59609267799E+02 -0.22930282188E+02  0.16813371521E+03  0.17990408900E+03  0.41800000000E+01 0.  1.
         -5    1    4    4    0  501 -0.44019236705E+02  0.38266863811E+02  0.26968870280E+03  0.27595563935E+03  0.41800000000E+01 0.  1.
</event>
<event>
11    1  0.7577197E-009  0.2155277E+03  0.7561462E-02  0.1044056E+00
         22   -1    0    0    0    0  0.00000000000E+00  0.00000000000E+00  0.26373607545E+03  0.26373607545E+03  0.00000000000E+00 0.  1.
         22   -1    0    0    0    0 -0.00000000000E+00 -0.00000000000E+00 -0.46764640467E+03  0.46764640467E+03  0.00000000000E+00 0. -1.
         24    2    1    2    0    0 -0.17250944601E+03  0.55101734192E+02 -0.35140061794E+03  0.40273908249E+03  0.76945852390E+02 0.  0.
         25    2    1    2    0    0  0.14662438446E+03 -0.15478278072E+02  0.75040930360E+02  0.20740814226E+03  0.12509480020E+03 0.  0.
        -24    2    1    2    0    0  0.25885061556E+02 -0.39623456120E+02  0.72449358361E+02  0.12123525537E+03  0.84905965221E+02 0.  0.
        -13    1    3    3    0    0 -0.67181166172E+02 -0.14771487482E+02 -0.10030757844E+03  0.12162695516E+03  0.00000000000E+00 0.  1.
         14    1    3    3    0    0 -0.10532827984E+03  0.69873221674E+02 -0.25109303951E+03  0.28111212733E+03  0.00000000000E+00 0. -1.
         11    1    5    5    0    0  0.38761331631E+02 -0.39250197755E+02  0.82749676566E+01  0.55780766787E+02  0.00000000000E+00 0. -1.
        -12    1    5    5    0    0 -0.12876270075E+02 -0.37325836471E+00  0.64174390705E+02  0.65454488579E+02  0.00000000000E+00 0.  1.
          5    1    4    4  501    0  0.41230015584E+01 -0.14715025497E+02  0.62291265659E+02  0.64274452892E+02  0.41800000000E+01 0.  1.
         -5    1    4    4    0  501  0.14250138290E+03 -0.76325257472E+00  0.12749664701E+02  0.14313368937E+03  0.41800000000E+01 0.  1.
</event>
<event>
11    1  0.7577197E-009  0.1383336E+03  0.7561462E-02  0.1109434E+00
         22   -1    0    0    0    0  0.00000000000E+00  0.00000000000E+00  0.25612535081E+03  0.25612535081E+03  0.00000000000E+00 0.  1.
         22   -1    0    0    0    0 -0.00000000000E+00 -0.00000000000E+00 -0.47073094499E+03  0.47073094499E+03  0.00000000000E+00 0.  1.
        -24    2    1    2    0    0  0.57921251583E+02  0.15493156611E+02 -0.38788789315E+03  0.40113270682E+03  0.82798076944E+02 0.  0.
         25    2    1    2    0    0 -0.56808044145E+02  0.27891705515E+02  0.12275630880E+02  0.14072131602E+03  0.12508675611E+03 0.  0.
         24    2    1    2    0    0 -0.11132074384E+01 -0.43384862126E+02  0.16100666808E+03  0.18500227295E+03  0.80119962180E+02 0.  0.
        -11    1    5    5    0    0  0.39194506188E+02 -0.24406398500E+02  0.90527253376E+02  0.10162216887E+03  0.00000000000E+00 0.  1.
         12    1    5    5    0    0 -0.40307713626E+02 -0.18978463626E+02  0.70479414702E+02  0.83380104079E+02  0.00000000000E+00 0. -1.
         13    1    3    3    0    0  0.27629054974E+02  0.33221744418E+02 -0.77209712798E+02  0.88478182233E+02  0.00000000000E+00 0. -1.
        -14    1    3    3    0    0  0.30292196609E+02 -0.17728587807E+02 -0.31067818035E+03  0.31265452459E+03  0.00000000000E+00 0.  1.
          5    1    4    4  501    0 -0.55642388732E+02 -0.16542857120E+02  0.54161675329E+02  0.79502836553E+02  0.41800000000E+01 0.  1.
         -5    1    4    4    0  501 -0.11656554129E+01  0.44434562635E+02 -0.41886044449E+02  0.61218479471E+02  0.41800000000E+01 0.  1.
</event>
<event>
11    1  0.7577197E-009  0.1523026E+03  0.7561462E-02  0.1094549E+00
         22   -1    0    0    0    0  0.00000000000E+00  0.00000000000E+00  0.58251796651E+03  0.58251796651E+03  0.00000000000E+00 0.  1.
         22   -1    0    0    0    0 -0.00000000000E+00 -0.00000000000E+00 -0.20166663793E+04  0.20166663793E+04  0.00000000000E+00 0. -1.
         24    2    1    2    0    0  0.77324314896E+02 -0.39807521253E+02 -0.19589987865E+04  0.19625649197E+04  0.80131955253E+02 0.  0.
         25    2    1    2    0    0 -0.81830425621E+02  0.15446630309E+02  0.56482499738E+02  0.16055342941E+03  0.12510920819E+03 0.  0.
        -24    2    1    2    0    0  0.45061107255E+01  0.24360890944E+02  0.46836787399E+03  0.47606599665E+03  0.81588048993E+02 0.  0.
        -13    1    3    3    0    0 -0.15739979249E+02 -0.65158992325E+01 -0.17406253818E+03  0.17489417110E+03  0.00000000000E+00 0.  1.
         14    1    3    3    0    0  0.93064294145E+02 -0.33291622021E+02 -0.17849362483E+04  0.17876707486E+04  0.00000000000E+00 0. -1.
         13    1    5    5    0    0 -0.13035149121E+02 -0.20155503274E+02  0.55946354895E+02  0.60878190273E+02  0.00000000000E+00 0. -1.
        -14    1    5    5    0    0  0.17541259847E+02  0.44516394219E+02  0.41242151909E+03  0.41518780638E+03  0.00000000000E+00 0.  1.
          5    1    4    4  501    0 -0.27678399712E+02 -0.15932707174E+01 -0.39811045343E+02  0.48693162287E+02  0.41800000000E+01 0. -1.
         -5    1    4    4    0  501 -0.54152025909E+02  0.17039901027E+02  0.96293545081E+02  0.11186026713E+03  0.41800000000E+01 0. -1.
</event>
<event>
11    1  0.7577197E-009  0.1444424E+03  0.7561462E-02  0.1102697E+00
         22   -1    0    0    0    0  0.00000000000E+00  0.00000000000E+00  0.20747197895E+03  0.20747197895E+03  0.00000000000E+00 0. -1.
         22   -1    0    0    0    0 -0.00000000000E+00 -0.00000000000E+00 -0.29672398406E+03  0.29672398406E+03  0.00000000000E+00 0. -1.
        -24    2    1    2    0    0 -0.68934040709E+02  0.74209031280E+01 -0.13746796983E+03  0.17386548854E+03  0.80776194553E+02 0.  0.
         25    2    1    2    0    0  0.75792404999E+02 -0.27624189128E+02 -0.83501277832E+02  0.17067620649E+03  0.12510123733E+03 0.  0.
         24    2    1    2    0    0 -0.68583642896E+01  0.20203286000E+02  0.13171724255E+03  0.15965426799E+03  0.87663238458E+02 0.  0.
        -11    1    5    5    0    0  0.26023272508E+02  0.68099546554E+00  0.40032976809E+01  0.26338201517E+02  0.00000000000E+00 0.  1.
         12    1    5    5    0    0 -0.32881636797E+02  0.19522290534E+02  0.12771394487E+03  0.13331606647E+03  0.00000000000E+00 0. -1.
         13    1    3    3    0    0 -0.46389795917E+02  0.40476476692E+02 -0.10747810602E+03  0.12386243015E+03  0.00000000000E+00 0. -1.
        -14    1    3    3    0    0 -0.22544244792E+02 -0.33055573564E+02 -0.29989863807E+02  0.50003058387E+02  0.00000000000E+00 0.  1.
          5    1    4    4  501    0 -0.25731803974E+02 -0.55246836614E+01  0.12242686155E+02  0.29325818481E+02  0.41800000000E+01 0.  1.
         -5    1    4    4    0  501  0.10152420897E+03 -0.22099505466E+02 -0.95743963986E+02  0.14135038801E+03  0.41800000000E+01 0.  1.
</event>
<event>
11    1  0.7577197E-009  0.1911795E+03  0.7561462E-02  0.1060942E+00
         22   -1    0    0    0    0  0.00000000000E+00  0.00000000000E+00  0.14865643089E+04  0.14865643089E+04  0.00000000000E+00 0. -1.
         22   -1    0    0    0    0 -0.00000000000E+00 -0.00000000000E+00 -0.33794663972E+03  0.33794663972E+03  0.00000000000E+00 0. -1.
        -24    2    1    2    0    0  0.61565951234E+02  0.45724784267E+02 -0.28532268624E+03  0.30641477182E+03  0.81239490741E+02 0.  0.
         25    2    1    2    0    0 -0.12462460242E+03  0.86206064673E+02  0.22962726117E+03  0.30222287752E+03  0.12508881449E+03 0.  0.
         24    2    1    2    0    0  0.63058651191E+02 -0.13193084894E+03  0.12043130943E+04  0.12158732993E+04  0.81213967394E+02 0.  0.
        -13    1    5    5    0    0  0.68595005664E+02 -0.79292950049E+02  0.97036220289E+03  0.97600996487E+03  0.00000000000E+00 0.  1.
         14    1    5    5    0    0 -0.55363544731E+01 -0.52637898892E+02  0.23395089140E+03  0.23986333444E+03  0.00000000000E+00 0. -1.
         13    1    3    3    0    0  0.65360855112E+02  0.83715208816E+01 -0.23216154954E+03  0.24133194738E+03  0.00000000000E+00 0. -1.
        -14    1    3    3    0    0 -0.37949038773E+01  0.37353263386E+02 -0.53161136707E+02  0.65082824439E+02  0.00000000000E+00 0.  1.
          5    1    4    4  501    0 -0.12333745373E+02 -0.88091009308E+01 -0.11679692953E+02  0.19585942959E+02  0.41800000000E+01 0. -1.
         -5    1    4    4    0  501 -0.11229085705E+03  0.95015165604E+02  0.24130695412E+03  0.28263693456E+03  0.41800000000E+01 0. -1.
</event>
<event>
11    1  0.7577197E-009  0.1366501E+03  0.7561462E-02  0.1111358E+00
         22   -1    0    0    0    0  0.00000000000E+00  0.00000000000E+00  0.15876951761E+03  0.15876951761E+03  0.00000000000E+00 0. -1.
         22   -1    0    0    0    0 -0.00000000000E+00 -0.00000000000E+00 -0.16911972138E+04  0.16911972138E+04  0.00000000000E+00 0. -1.
        -24    2    1    2    0    0 -0.19485818724E+02 -0.35302128467E+02 -0.15866278931E+04  0.15892558797E+04  0.81977086710E+02 0.  0.
         25    2    1    2    0    0 -0.40204045761E+02  0.22189239420E+02 -0.20299877254E+02  0.13478937476E+03  0.12508941958E+03 0.  0.
         24    2    1    2    0    0  0.59689864485E+02  0.13112889046E+02  0.74500074134E+02  0.12592147693E+03  0.81062503815E+02 0.  0.
        -11    1    5    5    0    0 -0.91423734605E+01 -0.15531157954E+02 -0.31264619751E+01  0.18291381150E+02  0.00000000000E+00 0.  1.
         12    1    5    5    0    0  0.68832237946E+02  0.28644047001E+02  0.77626536109E+02  0.10763009578E+03  0.00000000000E+00 0. -1.
         13    1    3    3    0    0  0.18552844127E+02 -0.47510102796E+02 -0.96295287714E+03  0.96430268146E+03  0.00000000000E+00 0. -1.
        -14    1    3    3    0    0 -0.38038662850E+02  0.12207974330E+02 -0.62367501593E+03  0.62495319826E+03  0.00000000000E+00 0.  1.
          5    1    4    4  501    0  0.21958093373E+02  0.51009027142E+01 -0.56330545467E+02  0.60817594705E+02  0.41800000000E+01 0. -1.
         -5    1    4    4    0  501 -0.62162139134E+02  0.17088336706E+02  0.36030668213E+02  0.73971780058E+02  0.41800000000E+01 0. -1.
</event>
<event>
11    1  0.7577197E-009  0.1415004E+03  0.7561462E-02  0.1105894E+00
         22   -1    0    0    0    0  0.00000000000E+00  0.00000000000E+00  0.13180563270E+04  0.13180563270E+04  0.00000000000E+00 0. -1.
         22   -1    0    0    0    0 -0.00000000000E+00 -0.00000000000E+00 -0.28900314285E+03  0.28900314285E+03  0.00000000000E+00 0. -1.
        -24    2    1    2    0    0 -0.57298783710E+02 -0.40731819506E+02 -0.24691564373E+03  0.26930805660E+03  0.81346557992E+02 0.  0.
         25    2    1    2    0    0  0.90559686053E+01  0.14371465697E+02  0.10642933648E+03  0.16511539488E+03  0.12508932955E+03 0.  0.
         24    2    1    2    0    0  0.48242815105E+02  0.26360353809E+02  0.11695394914E+04  0.11726360183E+04  0.65041311095E+02 0.  0.
        -11    1    5    5    0    0  0.70129572598E+01  0.39190464561E+02  0.69362741454E+03  0.69476907263E+03  0.00000000000E+00 0.  1.
         12    1    5    5    0    0  0.41229857845E+02 -0.12830110752E+02  0.47591207682E+03  0.47786694569E+03  0.00000000000E+00 0. -1.
         11    1    3    3    0    0 -0.68710500790E+02 -0.41363285678E+02 -0.13661051044E+03  0.15841239182E+03  0.00000000000E+00 0. -1.
        -12    1    3    3    0    0  0.11411717080E+02  0.63146617130E+00 -0.11030513329E+03  0.11089566478E+03  0.00000000000E+00 0.  1.
          5    1    4    4  501    0 -0.29857345515E+02 -0.45550181660E+02  0.48215883509E+02  0.72859618123E+02  0.41800000000E+01 0. -1.
         -5    1    4    4    0  501  0.38913314121E+02  0.59921647357E+02  0.58213452975E+02  0.92255776758E+02  0.41800000000E+01 0. -1.
</event>
<event>
11    1  0.1343475E-008  0.1665716E+03  0.7561462E-02  0.1081054E+00
         22   -1    0    0    0    0  0.00000000000E+00  0.00000000000E+00  0.54502870294E+03  0.54502870294E+03  0.00000000000E+00 0.  1.
         22   -1    0    0    0    0 -0.00000000000E+00 -0.00000000000E+00 -0.91393492002E+03  0.91393492002E+03  0.00000000000E+00 0. -1.
        -24    2    1    2    0    0  0.41976890569E+02 -0.29278392905E+02 -0.79207010095E+03  0.79830358005E+03  0.85406542278E+02 0.  0.
         25    2    1    2    0    0  0.70953615385E+02  0.16120227316E+02 -0.60896468122E+02  0.15700418866E+03  0.12509059982E+03 0.  0.
         24    2    1    2    0    0 -0.11293050595E+03  0.13158165589E+02  0.48406035199E+03  0.50365585426E+03  0.80177045737E+02 0.  0.
        -11    1    5    5    0    0 -0.60546191037E+02 -0.28726168258E+02  0.30908130075E+03  0.31626299889E+03  0.00000000000E+00 0.  1.
         12    1    5    5    0    0 -0.52384314917E+02  0.41884333847E+02  0.17497905124E+03  0.18739285537E+03  0.00000000000E+00 0. -1.
         13    1    3    3    0    0 -0.45080902013E+01 -0.39059391439E+02 -0.17291749422E+03  0.17733138116E+03  0.00000000000E+00 0. -1.
        -14    1    3    3    0    0  0.46484980770E+02  0.97809985347E+01 -0.61915260673E+03  0.62097219889E+03  0.00000000000E+00 0.  1.
          5    1    4    4  501    0 -0.11204673711E+02  0.33745227027E+02 -0.63428167729E+02  0.72834675269E+02  0.41800000000E+01 0.  1.
         -5    1    4    4    0  501  0.82158289096E+02 -0.17624999711E+02  0.25316996071E+01  0.84169513394E+02  0.41800000000E+01 0.  1.
</event>
<event>
11    1  0.7577197E-009  0.1733855E+03  0.7561462E-02  0.1075122E+00
         22   -1    0    0    0    0  0.00000000000E+00  0.00000000000E+00  0.24249133568E+04  0.24249133568E+04  0.00000000000E+00 0.  1.
         22   -1    0    0    0    0 -0.00000000000E+00 -0.00000000000E+00 -0.40420003153E+03  0.40420003153E+03  0.00000000000E+00 0.  1.
         24    2    1    2    0    0  0.11273865461E+03 -0.40523934772E+02 -0.37405203736E+03  0.40112927728E+03  0.81471325671E+02 0.  0.
         25    2    1    2    0    0 -0.10987882554E+03  0.80829476094E+02  0.53424382459E+03  0.56539332873E+03  0.12508553693E+03 0.  0.
        -24    2    1    2    0    0 -0.28598290702E+01 -0.40305541322E+02  0.18605215380E+04  0.18625907823E+04  0.77918634578E+02 0.  0.
        -11    1    3    3    0    0  0.88109129272E+02 -0.46613340012E+02 -0.35676502245E+03  0.37042854017E+03  0.00000000000E+00 0.  1.
         12    1    3    3    0    0  0.24629525343E+02  0.60894052405E+01 -0.17287014908E+02  0.30700737112E+02  0.00000000000E+00 0. -1.
         13    1    5    5    0    0 -0.66168802824E+01  0.22740162176E+02  0.39545394359E+03  0.39616249139E+03  0.00000000000E+00 0. -1.
        -14    1    5    5    0    0  0.37570512122E+01 -0.63045703498E+02  0.14650675944E+04  0.14664282909E+04  0.00000000000E+00 0.  1.
          5    1    4    4  501    0  0.24017487290E+02  0.54750340830E+01  0.14067316517E+03  0.14287486655E+03  0.41800000000E+01 0.  1.
         -5    1    4    4    0  501 -0.13389631283E+03  0.75354442011E+02  0.39357065942E+03  0.42251846218E+03  0.41800000000E+01 0.  1.
</event>
<event>
11    1  0.7577197E-009  0.1890878E+03  0.7561462E-02  0.1062520E+00
         22   -1    0    0    0    0  0.00000000000E+00  0.00000000000E+00  0.28578885559E+03  0.28578885559E+03  0.00000000000E+00 0.  1.
         22   -1    0    0    0    0 -0.00000000000E+00 -0.00000000000E+00 -0.16886360654E+04  0.16886360654E+04  0.00000000000E+00 0.  1.
         24    2    1    2    0    0 -0.48600798538E+02  0.47758088070E+02 -0.13295890461E+04  0.13337574645E+04  0.80368339544E+02 0.  0.
         25    2    1    2    0    0  0.12232996015E+03  0.74613545495E+02 -0.30367456068E+03  0.35832631965E+03  0.12509081594E+03 0.  0.
        -24    2    1    2    0    0 -0.73729161608E+02 -0.12237163356E+03  0.23041639703E+03  0.28234113679E+03  0.78828900348E+02 0.  0.
        -11    1    3    3    0    0 -0.22709814028E+02  0.68233186712E+02 -0.96605415240E+03  0.96872706620E+03  0.00000000000E+00 0.  1.
         12    1    3    3    0    0 -0.25890984510E+02 -0.20475098641E+02 -0.36353489374E+03  0.36503039833E+03  0.00000000000E+00 0. -1.
         11    1    5    5    0    0 -0.55326959374E+02 -0.19518778139E+02  0.84754596230E+02  0.10307956498E+03  0.00000000000E+00 0. -1.
        -12    1    5    5    0    0 -0.18402202234E+02 -0.10285285543E+03  0.14566180080E+03  0.17926157181E+03  0.00000000000E+00 0.  1.
          5    1    4    4  501    0  0.57172460698E+02 -0.12362245861E+02 -0.34564370597E+02  0.68071164965E+02  0.41800000000E+01 0. -1.
         -5    1    4    4    0  501  0.65157499448E+02  0.86975791355E+02 -0.26911019008E+03  0.29025515469E+03  0.41800000000E+01 0. -1.
</event>
<event>
11    1  0.7577197E-009  0.1336885E+03  0.7561462E-02  0.1114818E+00
         22   -1    0    0    0    0  0.00000000000E+00  0.00000000000E+00  0.26466550272E+03  0.26466550272E+03  0.00000000000E+00 0.  1.
         22   -1    0    0    0    0 -0.00000000000E+00 -0.00000000000E+00 -0.60747988940E+03  0.60747988940E+03  0.00000000000E+00 0. -1.
         24    2    1    2    0    0 -0.90857348262E+01  0.43494598493E+01 -0.55330782367E+03  0.55884679437E+03  0.77837802267E+02 0.  0.
         25    2    1    2    0    0 -0.31561632615E+02 -0.31283338852E+02  0.91768318156E+02  0.16137981420E+03  0.12508891346E+03 0.  0.
        -24    2    1    2    0    0  0.40647367441E+02  0.26933879003E+02  0.11872511884E+03  0.15191878354E+03  0.81277430031E+02 0.  0.
        -11    1    3    3    0    0  0.14232297579E+01 -0.11417413512E+01  0.23986994592E+01  0.30137875427E+01  0.00000000000E+00 0.  1.
         12    1    3    3    0    0 -0.10508964584E+02  0.54912012005E+01 -0.55570652313E+03  0.55583300683E+03  0.00000000000E+00 0. -1.
         13    1    5    5    0    0  0.48047623760E+02 -0.14741091646E+02  0.48011148857E+02  0.69504995119E+02  0.00000000000E+00 0. -1.
        -14    1    5    5    0    0 -0.74002563189E+01  0.41674970648E+02  0.70713969980E+02  0.82413788424E+02  0.00000000000E+00 0.  1.
          5    1    4    4  501    0 -0.49371991955E+02  0.37113699551E+02  0.44773214147E+02  0.76401134737E+02  0.41800000000E+01 0.  1.
         -5    1    4    4    0  501  0.17810359340E+02 -0.68397038403E+02  0.46995104009E+02  0.84978679461E+02  0.41800000000E+01 0.  1.
</event>
<event>
11    1  0.7577197E-009  0.1354871E+03  0.7561462E-02  0.1112705E+00
         22   -1    0    0    0    0  0.00000000000E+00  0.00000000000E+00  0.12025922029E+04  0.12025922029E+04  0.00000000000E+00 0.  1.
         22   -1    0    0    0    0 -0.00000000000E+00 -0.00000000000E+00 -0.72805504798E+03  0.72805504798E+03  0.00000000000E+00 0.  1.
        -24    2    1    2    0    0  0.21657163829E+02  0.12187872909E+02 -0.60056271169E+03  0.60677850180E+03  0.82987966548E+02 0.  0.
         25    2    1    2    0    0 -0.62928261979E+02 -0.43243131465E+02 -0.78512696785E+02  0.16625931486E+03  0.12509189281E+03 0.  0.
         24    2    1    2    0    0  0.41271098150E+02  0.31055258556E+02  0.11536125634E+04  0.11576094342E+04  0.81055062490E+02 0.  0.
        -13    1    5    5    0    0  0.78935193507E+01  0.32944487993E+01  0.91744023564E+03  0.91748010715E+03  0.00000000000E+00 0.  1.
         14    1    5    5    0    0  0.33377578800E+02  0.27760809757E+02  0.23617232775E+03  0.24012932707E+03  0.00000000000E+00 0. -1.
         11    1    3    3    0    0  0.51303413994E+02 -0.36361649356E+01 -0.30428602085E+03  0.30860208112E+03  0.00000000000E+00 0. -1.
        -12    1    3    3    0    0 -0.29646250165E+02  0.15824037845E+02 -0.29627669083E+03  0.29817642069E+03  0.00000000000E+00 0.  1.
          5    1    4    4  501    0 -0.10131211584E+03 -0.30535635085E+02 -0.57554222886E+02  0.12052605859E+03  0.41800000000E+01 0.  1.
         -5    1    4    4    0  501  0.38383853862E+02 -0.12707496381E+02 -0.20958473899E+02  0.45733256278E+02  0.41800000000E+01 0.  1.
</event>
<event>
11    1  0.7577197E-009  0.1719572E+03  0.7561462E-02  0.1076341E+00
         22   -1    0    0    0    0  0.00000000000E+00  0.00000000000E+00  0.15075527917E+04  0.15075527917E+04  0.00000000000E+00 0.  1.
         22   -1    0    0    0    0 -0.00000000000E+00 -0.00000000000E+00 -0.14839770620E+03  0.14839770620E+03  0.00000000000E+00 0. -1.
        -24    2    1    2    0    0 -0.17339219647E+02 -0.66483476659E+02 -0.93134217419E+02  0.14147065050E+03  0.81358842739E+02 0.  0.
         25    2    1    2    0    0  0.50524263166E+02  0.16959353787E+03  0.41281384238E+03  0.46623767929E+03  0.12509051070E+03 0.  0.
         24    2    1    2    0    0 -0.33185043519E+02 -0.10311006121E+03  0.10394754606E+04  0.10482421681E+04  0.81052317113E+02 0.  0.
        -13    1    5    5    0    0 -0.40343966471E+02 -0.11370342482E+03  0.98061781208E+03  0.98801184093E+03  0.00000000000E+00 0.  1.
         14    1    5    5    0    0  0.71589229519E+01  0.10593363614E+02  0.58857648475E+02  0.60230327199E+02  0.00000000000E+00 0. -1.
         13    1    3    3    0    0 -0.13903088224E+02 -0.83759420919E+02 -0.89725028151E+02  0.12352941808E+03  0.00000000000E+00 0. -1.
        -14    1    3    3    0    0 -0.34361314230E+01  0.17275944260E+02 -0.34091892685E+01  0.17941232418E+02  0.00000000000E+00 0.  1.
          5    1    4    4  501    0  0.49500921494E+02  0.18098108216E+03  0.41344572526E+03  0.45404772157E+03  0.41800000000E+01 0. -1.
         -5    1    4    4    0  501  0.10233416724E+01 -0.11387544292E+02 -0.63188287406E+00  0.12189957717E+02  0.41800000000E+01 0. -1.
</event>
<event>
11    1  0.7577197E-009  0.1896562E+03  0.7561462E-02  0.1062089E+00
         22   -1    0    0    0    0  0.00000000000E+00  0.00000000000E+00  0.35134678524E+03  0.35134678524E+03  0.00000000000E+00 0.  1.
         22   -1    0    0    0    0 -0.00000000000E+00 -0.00000000000E+00 -0.20805862559E+03  0.20805862559E+03  0.00000000000E+00 0. -1.
         24    2    1    2    0    0 -0.35320677263E+02 -0.43159766909E+02 -0.49417060264E+01  0.98101052631E+02  0.80554828203E+02 0.  0.
         25    2    1    2    0    0  0.15428843436E+03  0.10265673782E+03 -0.29276328832E+02  0.22549337417E+03  0.12508729579E+03 0.  0.
        -24    2    1    2    0    0 -0.11896775709E+03 -0.59496970909E+02  0.17750619450E+03  0.23581098403E+03  0.80032208059E+02 0.  0.
        -11    1    3    3    0    0 -0.39734158036E+02  0.51081771752E+01  0.18656522801E+02  0.44192336801E+02  0.00000000000E+00 0.  1.
         12    1    3    3    0    0  0.44134807730E+01 -0.48267944084E+02 -0.23598228827E+02  0.53908715830E+02  0.00000000000E+00 0. -1.
         11    1    5    5    0    0 -0.17865741288E+02  0.18316581284E+02  0.45686039327E+02  0.52363117278E+02  0.00000000000E+00 0. -1.
        -12    1    5    5    0    0 -0.10110201581E+03 -0.77813552193E+02  0.13182015518E+03  0.18344786675E+03  0.00000000000E+00 0.  1.
          5    1    4    4  501    0  0.60522675995E+02  0.71820028969E+02 -0.71440177342E+02  0.11807744158E+03  0.41800000000E+01 0.  1.
         -5    1    4    4    0  501  0.93765758363E+02  0.30836708849E+02  0.42163848510E+02  0.10741593259E+03  0.41800000000E+01 0.  1.
</event>
<event>
11    1  0.7577197E-009  0.1985618E+03  0.7561462E-02  0.1055545E+00
         22   -1    0    0    0    0  0.00000000000E+00  0.00000000000E+00  0.19620657146E+04  0.19620657146E+04  0.00000000000E+00 0.  1.
         22   -1    0    0    0    0 -0.00000000000E+00 -0.00000000000E+00 -0.53152780635E+03  0.53152780635E+03  0.00000000000E+00 0.  1.
        -24    2    1    2    0    0 -0.10467249775E+03  0.11164465900E+03 -0.47590517109E+03  0.50640063186E+03  0.80839386482E+02 0.  0.
         25    2    1    2    0    0  0.13999635542E+03 -0.11200976233E+03  0.26581694395E+03  0.34416703481E+03  0.12508850375E+03 0.  0.
         24    2    1    2    0    0 -0.35323857669E+02  0.36510332677E+00  0.16406261354E+04  0.16430258543E+04  0.81436683787E+02 0.  0.
        -13    1    5    5    0    0 -0.52176564965E+02  0.15438767461E+02  0.14565913976E+04  0.14576073714E+04  0.00000000000E+00 0.  1.
         14    1    5    5    0    0  0.16852707296E+02 -0.15073664135E+02  0.18403473777E+03  0.18541848290E+03  0.00000000000E+00 0. -1.
         13    1    3    3    0    0 -0.40284188222E+02  0.70507770847E+02 -0.13937750270E+03  0.16130793480E+03  0.00000000000E+00 0. -1.
        -14    1    3    3    0    0 -0.64388309527E+02  0.41136888157E+02 -0.33652766839E+03  0.34509269706E+03  0.00000000000E+00 0.  1.
          5    1    4    4  501    0  0.10885169634E+03 -0.41966728929E+02  0.75692314775E+02  0.13912834740E+03  0.41800000000E+01 0. -1.
         -5    1    4    4    0  501  0.31144659075E+02 -0.70043033402E+02  0.19012462917E+03  0.20503868741E+03  0.41800000000E+01 0. -1.
</event>
<event>
11    1  0.7577197E-009  0.1566296E+03  0.7561462E-02  0.1090291E+00
         22   -1    0    0    0    0  0.00000000000E+00  0.00000000000E+00  0.11634006536E+03  0.11634006536E+03  0.00000000000E+00 0.  1.
         22   -1    0    0    0    0 -0.00000000000E+00 -0.00000000000E+00 -0.77239749410E+03  0.77239749410E+03  0.00000000000E+00 0.  1.
         24    2    1    2    0    0  0.38570578166E+02  0.89592122186E+02 -0.63587294091E+03  0.65005103729E+03  0.93367640218E+02 0.  0.
         25    2    1    2    0    0 -0.95662746153E+01 -0.67858167196E+02 -0.23839407720E+02  0.14461216889E+03  0.12509243609E+03 0.  0.
        -24    2    1    2    0    0 -0.29004303551E+02 -0.21733954990E+02  0.36549198951E+01  0.94074353274E+02  0.86735293165E+02 0.  0.
        -13    1    3    3    0    0  0.61743946413E+02  0.40043189429E+02 -0.46056487236E+03  0.46640730440E+03  0.00000000000E+00 0.  1.
         14    1    3    3    0    0 -0.23173368247E+02  0.49548932756E+02 -0.17530806855E+03  0.18364373290E+03  0.00000000000E+00 0. -1.
         11    1    5    5    0    0 -0.43284715379E+02  0.18027018564E+02 -0.13007822676E+02  0.48659463977E+02  0.00000000000E+00 0. -1.
        -12    1    5    5    0    0  0.14280411828E+02 -0.39760973553E+02  0.16662742571E+02  0.45414889297E+02  0.00000000000E+00 0.  1.
          5    1    4    4  501    0  0.36500173894E+02 -0.60317779029E+02  0.26868099068E+02  0.75563644094E+02  0.41800000000E+01 0. -1.
         -5    1    4    4    0  501 -0.46066448510E+02 -0.75403881670E+01 -0.50707506788E+02  0.69048524797E+02  0.41800000000E+01 0. -1.
</event>
<event>
11    1  0.7577197E-009  0.1405385E+03  0.7561462E-02  0.1106959E+00
         22   -1    0    0    0    0  0.00000000000E+00  0.00000000000E+00  0.64396210194E+03  0.64396210194E+03  0.00000000000E+00 0.  1.
         22   -1    0    0    0    0 -0.00000000000E+00 -0.00000000000E+00 -0.12302148525E+04  0.12302148525E+04  0.00000000000E+00 0. -1.
        -24    2    1    2    0    0  0.40927777937E+02 -0.15851378113E+02 -0.77418454222E+03  0.77924045680E+03  0.76991135237E+02 0.  0.
         25    2    1    2    0    0 -0.95441512114E+01  0.71739343731E+02 -0.43817406034E+03  0.46139269257E+03  0.12509630427E+03 0.  0.
         24    2    1    2    0    0 -0.31383626726E+02 -0.55887965617E+02  0.62610585203E+03  0.63354380503E+03  0.72531498117E+02 0.  0.
        -13    1    5    5    0    0 -0.25276227494E+02 -0.51758139550E+01  0.43390843413E+03  0.43467482781E+03  0.00000000000E+00 0.  1.
         14    1    5    5    0    0 -0.61073992320E+01 -0.50712151662E+02  0.19219741791E+03  0.19886897722E+03  0.00000000000E+00 0. -1.
         13    1    3    3    0    0  0.16949129146E+02  0.24184087137E+02 -0.51792922304E+03  0.51877049177E+03  0.00000000000E+00 0. -1.
        -14    1    3    3    0    0  0.23978648791E+02 -0.40035465251E+02 -0.25625531918E+03  0.26046996503E+03  0.00000000000E+00 0.  1.
          5    1    4    4  501    0  0.46938645672E+02  0.73604247818E+02 -0.28343734478E+03  0.29660583704E+03  0.41800000000E+01 0. -1.
         -5    1    4    4    0  501 -0.56482796884E+02 -0.18649040874E+01 -0.15473671556E+03  0.16478685552E+03  0.41800000000E+01 0. -1.
</event>
<event>
11    1  0.7577197E-009  0.1357596E+03  0.7561462E-02  0.1112388E+00
         22   -1    0    0    0    0  0.00000000000E+00  0.00000000000E+00  0.23597929344E+04  0.23597929344E+04  0.00000000000E+00 0.  1.
         22   -1    0    0    0    0 -0.00000000000E+00 -0.00000000000E+00 -0.33942999918E+03  0.33942999918E+03  0.00000000000E+00 0. -1.
         24    2    1    2    0    0 -0.21367569595E+02  0.27593918191E+02 -0.32139815081E+03  0.33335660960E+03  0.81313347437E+02 0.  0.
         25    2    1    2    0    0  0.72075991779E+01 -0.76348051106E+02  0.48339985528E+03  0.50516935047E+03  0.12505869893E+03 0.  0.
        -24    2    1    2    0    0  0.14159970417E+02  0.48754132915E+02  0.18583612308E+04  0.18606969735E+04  0.78161966406E+02 0.  0.
        -11    1    3    3    0    0 -0.16987766867E+02 -0.16295580975E+02 -0.27640338558E+02  0.36305901697E+02  0.00000000000E+00 0.  1.
         12    1    3    3    0    0 -0.43798027270E+01  0.43889499167E+02 -0.29375781225E+03  0.29705070791E+03  0.00000000000E+00 0. -1.
         11    1    5    5    0    0 -0.26531394162E+02  0.41844515095E+02  0.80137393511E+03  0.80290414260E+03  0.00000000000E+00 0. -1.
        -12    1    5    5    0    0  0.40691364579E+02  0.69096178198E+01  0.10569872956E+04  0.10577928309E+04  0.00000000000E+00 0.  1.
          5    1    4    4  501    0 -0.42757860651E+02 -0.85230463296E+02  0.33108768832E+03  0.34457074206E+03  0.41800000000E+01 0.  1.
         -5    1    4    4    0  501  0.49965459829E+02  0.88824121902E+01  0.15231216696E+03  0.16059860842E+03  0.41800000000E+01 0.  1.
</event>
<event>
11    1  0.7577197E-009  0.2152672E+03  0.7561462E-02  0.1044223E+00
         22   -1    0    0    0    0  0.00000000000E+00  0.00000000000E+00  0.30664695153E+03  0.30664695153E+03  0.00000000000E+00 0. -1.
         22   -1    0    0    0    0 -0.00000000000E+00 -0.00000000000E+00 -0.47258109604E+03  0.47258109604E+03  0.00000000000E+00 0. -1.
         24    2    1    2    0    0  0.21518584873E+02  0.19547927128E+02 -0.23333888262E+03  0.24851958386E+03  0.80434933137E+02 0.  0.
         25    2    1    2    0    0  0.13662155944E+03 -0.98821629074E+02 -0.13548850034E+03  0.24987059126E+03  0.12508802411E+03 0.  0.
        -24    2    1    2    0    0 -0.15814014432E+03  0.79273701946E+02  0.20289323844E+03  0.28083787245E+03  0.80072587892E+02 0.  0.
        -13    1    3    3    0    0  0.56679650209E+00 -0.29226365518E+02 -0.11774771007E+03  0.12132198863E+03  0.00000000000E+00 0.  1.
         14    1    3    3    0    0  0.20951788371E+02  0.48774292646E+02 -0.11559117256E+03  0.12719759523E+03  0.00000000000E+00 0. -1.
         13    1    5    5    0    0 -0.12330597014E+03  0.85256249260E+02  0.19252193109E+03  0.24400345133E+03  0.00000000000E+00 0. -1.
        -14    1    5    5    0    0 -0.34834174177E+02 -0.59825473136E+01  0.10371307349E+02  0.36834421118E+02  0.00000000000E+00 0.  1.
          5    1    4    4  501    0  0.62802883789E+02  0.17198320013E+02 -0.75488546016E+02  0.99779644232E+02  0.41800000000E+01 0. -1.
         -5    1    4    4    0  501  0.73818675655E+02 -0.11601994909E+03 -0.59999954320E+02  0.15009094703E+03  0.41800000000E+01 0. -1.
</event>
<event>
11    1  0.7577197E-009  0.1281502E+03  0.7561462E-02  0.1121563E+00
         22   -1    0    0    0    0  0.00000000000E+00  0.00000000000E+00  0.84720901121E+03  0.84720901121E+03  0.00000000000E+00 0.  1.
         22   -1    0    0    0    0 -0.00000000000E+00 -0.00000000000E+00 -0.79350356118E+02  0.79350356118E+02  0.00000000000E+00 0.  1.
         24    2    1    2    0    0  0.19464993266E+01 -0.55847694283E+00 -0.34797830042E+02  0.86600870509E+02  0.79276232511E+02 0.  0.
         25    2    1    2    0    0  0.44862783859E+01  0.27624604776E+02  0.25263158552E+03  0.28329035618E+03  0.12508981741E+03 0.  0.
        -24    2    1    2    0    0 -0.64327777125E+01 -0.27066127833E+02  0.55002489961E+03  0.55666814063E+03  0.81105318590E+02 0.  0.
        -13    1    3    3    0    0  0.33397610911E+02  0.11254826082E+01 -0.42609803035E+02  0.54150368792E+02  0.00000000000E+00 0.  1.
         14    1    3    3    0    0 -0.31451111584E+02 -0.16839595510E+01  0.78119729925E+01  0.32450501717E+02  0.00000000000E+00 0. -1.
         13    1    5    5    0    0 -0.32255784162E+02 -0.31435948337E+02  0.17409102378E+03  0.17982307700E+03  0.00000000000E+00 0. -1.
        -14    1    5    5    0    0  0.25823006449E+02  0.43698205035E+01  0.37593387582E+03  0.37684506363E+03  0.00000000000E+00 0.  1.
          5    1    4    4  501    0 -0.24225914232E+02 -0.26274704717E+02  0.19800321409E+03  0.20124611851E+03  0.41800000000E+01 0. -1.
         -5    1    4    4    0  501  0.28712192617E+02  0.53899309493E+02  0.54628371437E+02  0.82044237669E+02  0.41800000000E+01 0. -1.
</event>
<event>
11    1  0.7577197E-009  0.1369365E+03  0.7561462E-02  0.1111028E+00
         22   -1    0    0    0    0  0.00000000000E+00  0.00000000000E+00  0.20034436279E+03  0.20034436279E+03  0.00000000000E+00 0.  1.
         22   -1    0    0    0    0 -0.00000000000E+00 -0.00000000000E+00 -0.93886731287E+03  0.93886731287E+03  0.00000000000E+00 0.  1.
        -24    2    1    2    0    0 -0.19527225001E+02 -0.50188446124E+02 -0.72519297687E+03  0.73150167629E+03  0.79307351939E+02 0.  0.
         25    2    1    2    0    0  0.65649160402E+02  0.50208052998E+02 -0.16893049169E+03  0.22587286979E+03  0.12510148455E+03 0.  0.
         24    2    1    2    0    0 -0.46121935401E+02 -0.19606874364E-01  0.15560051848E+03  0.18183712958E+03  0.82012115165E+02 0.  0.
        -11    1    5    5    0    0 -0.43808818595E+02 -0.18784975476E+02  0.15580008817E+03  0.16292868183E+03  0.00000000000E+00 0.  1.
         12    1    5    5    0    0 -0.23131168057E+01  0.18765368602E+02 -0.19956969226E+00  0.18908447746E+02  0.00000000000E+00 0. -1.
         11    1    3    3    0    0 -0.33887275590E+01  0.80630657725E+01 -0.82763505457E+01  0.12041365474E+02  0.00000000000E+00 0. -1.
        -12    1    3    3    0    0 -0.16138497442E+02 -0.58251511896E+02 -0.71691662633E+03  0.71946031082E+03  0.00000000000E+00 0.  1.
          5    1    4    4  501    0  0.30055576864E+02 -0.28461968060E+02 -0.11895028957E+03  0.12601613038E+03  0.41800000000E+01 0.  1.
         -5    1    4    4    0  501  0.35593583539E+02  0.78670021058E+02 -0.49980202119E+02  0.99856739414E+02  0.41800000000E+01 0.  1.
</event>
<event>
11    1  0.7577197E-009  0.1488701E+03  0.7561462E-02  0.1098039E+00
         22   -1    0    0    0    0  0.00000000000E+00  0.00000000000E+00  0.45985334518E+03  0.45985334518E+03  0.00000000000E+00 0.  1.
         22   -1    0    0    0    0 -0.00000000000E+00 -0.00000000000E+00 -0.25637557662E+04  0.25637557662E+04  0.00000000000E+00 0. -1.
         24    2    1    2    0    0  0.16166647170E+02 -0.79983582785E+02 -0.20810502702E+04  0.20841855429E+04  0.80002600134E+02 0.  0.
         25    2    1    2    0    0 -0.69933984061E+02  0.58548250382E+02 -0.46324412424E+03  0.48842957075E+03  0.12509862986E+03 0.  0.
        -24    2    1    2    0    0  0.53767336891E+02  0.21435332403E+02  0.44039197338E+03  0.45099399780E+03  0.78103110289E+02 0.  0.
        -13    1    3    3    0    0  0.42501589570E+02 -0.20416939486E+02 -0.68814680436E+03  0.68976029233E+03  0.00000000000E+00 0.  1.
         14    1    3    3    0    0 -0.26334942400E+02 -0.59566643299E+02 -0.13929034659E+04  0.13944252505E+04  0.00000000000E+00 0. -1.
         11    1    5    5    0    0  0.62886380480E+02  0.25461597860E+02  0.21652972153E+03  0.22690991631E+03  0.00000000000E+00 0. -1.
        -12    1    5    5    0    0 -0.91190435888E+01 -0.40262654572E+01  0.22386225185E+03  0.22408408148E+03  0.00000000000E+00 0.  1.
          5    1    4    4  501    0 -0.67437023981E+02  0.34796806770E+02 -0.10636073056E+03  0.13072355323E+03  0.41800000000E+01 0. -1.
         -5    1    4    4    0  501 -0.24969600806E+01  0.23751443612E+02 -0.35688339368E+03  0.35770601752E+03  0.41800000000E+01 0. -1.
</event>
<event>
11    1  0.7577197E-009  0.1473826E+03  0.7561462E-02  0.1099584E+00
         22   -1    0    0    0    0  0.00000000000E+00  0.00000000000E+00  0.69970910735E+03  0.69970910735E+03  0.00000000000E+00 0.  1.
         22   -1    0    0    0    0 -0.00000000000E+00 -0.00000000000E+00 -0.80784939012E+03  0.80784939012E+03  0.00000000000E+00 0. -1.
        -24    2    1    2    0    0 -0.20282875896E+02  0.44180156583E+02 -0.62232312446E+03  0.62936422213E+03  0.80311715036E+02 0.  0.
         25    2    1    2    0    0  0.80400835330E+02 -0.91643961742E+02 -0.13313014395E+03  0.21962187138E+03  0.12508885288E+03 0.  0.
         24    2    1    2    0    0 -0.60117959435E+02  0.47463805159E+02  0.64731298564E+03  0.65857240396E+03  0.94002808618E+02 0.  0.
        -11    1    5    5    0    0 -0.96257468710E+01  0.32183481709E+02  0.51552224382E+03  0.51661553923E+03  0.00000000000E+00 0.  1.
         12    1    5    5    0    0 -0.50492212564E+02  0.15280323450E+02  0.13179074182E+03  0.14195686473E+03  0.00000000000E+00 0. -1.
         13    1    3    3    0    0 -0.28237987957E+02 -0.16210391405E+02 -0.24548427700E+03  0.24763418788E+03  0.00000000000E+00 0. -1.
        -14    1    3    3    0    0  0.79551120616E+01  0.60390547988E+02 -0.37683884746E+03  0.38173003425E+03  0.00000000000E+00 0.  1.
          5    1    4    4  501    0  0.80924148739E+01  0.24153224070E+02 -0.58585332174E+02  0.64020144934E+02  0.41800000000E+01 0.  1.
         -5    1    4    4    0  501  0.72308420457E+02 -0.11579718581E+03 -0.74544811773E+02  0.15560172645E+03  0.41800000000E+01 0.  1.
</event>
<event>
11    1  0.7577197E-009  0.1882109E+03  0.7561462E-02  0.1063188E+00
         22   -1    0    0    0    0  0.00000000000E+00  0.00000000000E+00  0.28499325996E+04  0.28499325996E+04  0.00000000000E+00 0.  1.
         22   -1    0    0    0    0 -0.00000000000E+00 -0.00000000000E+00 -0.20723818306E+03  0.20723818306E+03  0.00000000000E+00 0. -1.
         24    2    1    2    0    0 -0.47309623016E+02 -0.12979783602E+03 -0.14898015961E+03  0.21956169355E+03  0.83226021471E+02 0.  0.
         25    2    1    2    0    0 -0.37154960510E+02  0.22325590821E+03  0.80881520290E+03  0.84914816108E+03  0.12508747092E+03 0.  0.
        -24    2    1    2    0    0  0.84464583526E+02 -0.93458072194E+02  0.19828593733E+04  0.19884609280E+04  0.79855438630E+02 0.  0.
        -11    1    3    3    0    0  0.72892637202E+01  0.23843722478E+01  0.51992397023E+01  0.92655647470E+01  0.00000000000E+00 0.  1.
         12    1    3    3    0    0 -0.54598886736E+02 -0.13218220827E+03 -0.15417939932E+03  0.21029612880E+03  0.00000000000E+00 0. -1.
         13    1    5    5    0    0  0.53522171816E+02 -0.28240097278E+02  0.46992989128E+03  0.47381032987E+03  0.00000000000E+00 0. -1.
        -14    1    5    5    0    0  0.30942411710E+02 -0.65217974916E+02  0.15129294820E+04  0.15146505982E+04  0.00000000000E+00 0.  1.
          5    1    4    4  501    0 -0.59541061507E+02  0.12675774101E+03  0.62273237081E+03  0.63829909992E+03  0.41800000000E+01 0.  1.
         -5    1    4    4    0  501  0.22386100997E+02  0.96498167201E+02  0.18608283210E+03  0.21084906116E+03  0.41800000000E+01 0.  1.
</event>
<event>
11    1  0.7577197E-009  0.2745143E+03  0.7561462E-02  0.1011594E+00
         22   -1    0    0    0    0  0.00000000000E+00  0.00000000000E+00  0.64402965900E+03  0.64402965900E+03  0.00000000000E+00 0.  1.
         22   -1    0    0    0    0 -0.00000000000E+00 -0.00000000000E+00 -0.37750623978E+03  0.37750623978E+03  0.00000000000E+00 0.  1.
         24    2    1    2    0    0 -0.23756511921E+02  0.23448405050E+02 -0.20303471178E+03  0.22114036132E+03  0.81029412299E+02 0.  0.
         25    2    1    2    0    0 -0.21136157750E+03 -0.10044097476E+03  0.20705236041E+01  0.26535529415E+03  0.12508812579E+03 0.  0.
        -24    2    1    2    0    0  0.23511808942E+03  0.76992569707E+02  0.46748760740E+03  0.53504024330E+03  0.80715717929E+02 0.  0.
        -13    1    3    3    0    0  0.96512253522E+01  0.53608890923E+01 -0.17125564938E+03  0.17161113812E+03  0.00000000000E+00 0.  1.
         14    1    3    3    0    0 -0.33407737273E+02  0.18087515958E+02 -0.31779062398E+02  0.49529223193E+02  0.00000000000E+00 0. -1.
         13    1    5    5    0    0 -0.19383702966E+01  0.10147035345E+02  0.60198313712E+01  0.11956503479E+02  0.00000000000E+00 0. -1.
        -14    1    5    5    0    0  0.23705645972E+03  0.66845534362E+02  0.46146777603E+03  0.52308373983E+03  0.00000000000E+00 0.  1.
          5    1    4    4  501    0 -0.50631847632E+02 -0.78264859394E+02 -0.33603630562E+02  0.99174838531E+02  0.41800000000E+01 0.  1.
         -5    1    4    4    0  501 -0.16072972987E+03 -0.22176115363E+02  0.35674154166E+02  0.16618045562E+03  0.41800000000E+01 0.  1.
</event>
<event>
11    1  0.7577197E-009  0.1378421E+03  0.7561462E-02  0.1109992E+00
         22   -1    0    0    0    0  0.00000000000E+00  0.00000000000E+00  0.10177482539E+04  0.10177482539E+04  0.00000000000E+00 0. -1.
         22   -1    0    0    0    0 -0.00000000000E+00 -0.00000000000E+00 -0.41849901156E+03  0.41849901156E+03  0.00000000000E+00 0. -1.
        -24    2    1    2    0    0  0.64662477639E+01 -0.18423622567E+02 -0.36291529324E+03  0.37224565773E+03  0.80486504462E+02 0.  0.
         25    2    1    2    0    0 -0.49502402498E+02  0.55459446665E+02  0.63728740297E+02  0.15885867008E+03  0.12509391130E+03 0.  0.
         24    2    1    2    0    0  0.43036154735E+02 -0.37035824098E+02  0.89843579528E+03  0.90514293765E+03  0.94197114875E+02 0.  0.
        -11    1    5    5    0    0 -0.15498988039E+01  0.58316058058E+01  0.16894329151E+01  0.62660989580E+01  0.00000000000E+00 0.  1.
         12    1    5    5    0    0  0.44586053538E+02 -0.42867429904E+02  0.89674636237E+03  0.89887683869E+03  0.00000000000E+00 0. -1.
         13    1    3    3    0    0 -0.56533171577E+01 -0.48116934522E+02 -0.17362700777E+03  0.18025963833E+03  0.00000000000E+00 0. -1.
        -14    1    3    3    0    0  0.12119564922E+02  0.29693311955E+02 -0.18928828547E+03  0.19198601940E+03  0.00000000000E+00 0.  1.
          5    1    4    4  501    0  0.10346947665E+02  0.15780969191E+02  0.82325884299E+02  0.84564306537E+02  0.41800000000E+01 0.  1.
         -5    1    4    4    0  501 -0.59849350163E+02  0.39678477474E+02 -0.18597144002E+02  0.74294363545E+02  0.41800000000E+01 0.  1.
</event>
<event>
11    1  0.7577197E-009  0.1758147E+03  0.7561462E-02  0.1073079E+00
         22   -1    0    0    0    0  0.00000000000E+00  0.00000000000E+00  0.19035689651E+03  0.19035689651E+03  0.00000000000E+00 0.  1.
         22   -1    0    0    0    0 -0.00000000000E+00 -0.00000000000E+00 -0.52949480992E+03  0.52949480992E+03  0.00000000000E+00 0. -1.
        -24    2    1    2    0    0  0.33827037457E+02 -0.12399434912E+03 -0.43039102429E+03  0.45657685518E+03  0.81897031800E+02 0.  0.
         25    2    1    2    0    0 -0.19924771889E+02  0.84219435645E+02  0.38037525813E+02  0.15679239414E+03  0.12508833525E+03 0.  0.
         24    2    1    2    0    0 -0.13902265568E+02  0.39774913470E+02  0.53215585077E+02  0.10648245711E+03  0.82044490663E+02 0.  0.
        -13    1    5    5    0    0  0.14094389625E+02 -0.74156427986E+01 -0.12948934516E+02  0.20526043996E+02  0.00000000000E+00 0.  1.
         14    1    5    5    0    0 -0.27996655193E+02  0.47190556269E+02  0.66164519593E+02  0.85956413117E+02  0.00000000000E+00 0. -1.
         13    1    3    3    0    0  0.25762859896E+02 -0.12426253515E+02 -0.32655658102E+02  0.43411159078E+02  0.00000000000E+00 0. -1.
        -14    1    3    3    0    0  0.80641775613E+01 -0.11156809560E+03 -0.39773536619E+03  0.41316569610E+03  0.00000000000E+00 0.  1.
          5    1    4    4  501    0 -0.24707022500E+02 -0.29186385757E+02  0.77577559843E+01  0.39242034253E+02  0.41800000000E+01 0.  1.
         -5    1    4    4    0  501  0.47822506105E+01  0.11340582140E+03  0.30279769829E+02  0.11755035989E+03  0.41800000000E+01 0.  1.
</event>
<event>
11    1  0.7577197E-009  0.1455263E+03  0.7561462E-02  0.1101540E+00
         22   -1    0    0    0    0  0.00000000000E+00  0.00000000000E+00  0.30690930846E+03  0.30690930846E+03  0.00000000000E+00 0.  1.
         22   -1    0    0    0    0 -0.00000000000E+00 -0.00000000000E+00 -0.65191740136E+03  0.65191740136E+03  0.00000000000E+00 0.  1.
         24    2    1    2    0    0 -0.69653756971E+02  0.17901385276E+02 -0.52070166337E+03  0.53135792885E+03  0.77710493872E+02 0.  0.
         25    2    1    2    0    0  0.11071420006E+03 -0.72855047678E+02 -0.39925779566E+02  0.18656769568E+03  0.12509174685E+03 0.  0.
        -24    2    1    2    0    0 -0.41060443089E+02  0.54953662402E+02  0.21561935004E+03  0.24090108529E+03  0.82678677915E+02 0.  0.
        -11    1    3    3    0    0 -0.37902241209E+02  0.37382256084E+02 -0.43032183692E+03  0.43360223280E+03  0.00000000000E+00 0.  1.
         12    1    3    3    0    0 -0.31751515762E+02 -0.19480870808E+02 -0.90379826449E+02  0.97755696047E+02  0.00000000000E+00 0. -1.
         11    1    5    5    0    0  0.12073687241E+02  0.45814179683E+02  0.61565495614E+02  0.77685411975E+02  0.00000000000E+00 0. -1.
        -12    1    5    5    0    0 -0.53134130330E+02  0.91394827193E+01  0.15405385443E+03  0.16321567331E+03  0.00000000000E+00 0.  1.
          5    1    4    4  501    0  0.13191090977E+03 -0.60043976995E+02 -0.57429036419E+02  0.15595298623E+03  0.41800000000E+01 0.  1.
         -5    1    4    4    0  501 -0.21196709707E+02 -0.12811070683E+02  0.17503256853E+02  0.30614709454E+02  0.41800000000E+01 0.  1.
</event>
<event>
11    1  0.7577197E-009  0.1372296E+03  0.7561462E-02  0.1110692E+00
         22   -1    0    0    0    0  0.00000000000E+00  0.00000000000E+00  0.11147985610E+04  0.11147985610E+04  0.00000000000E+00 0. -1.
         22   -1    0    0    0    0 -0.00000000000E+00 -0.00000000000E+00 -0.11969370785E+03  0.11969370785E+03  0.00000000000E+00 0. -1.
        -24    2    1    2    0    0 -0.39042863982E+02  0.45556471726E+02 -0.81173575646E+02  0.12910478753E+03  0.80493226020E+02 0.  0.
         25    2    1    2    0    0  0.42377688056E+01 -0.36405471028E+01  0.33027568880E+03  0.35321534874E+03  0.12509132547E+03 0.  0.
         24    2    1    2    0    0  0.34805095176E+02 -0.41915924623E+02  0.74600274002E+03  0.75217213260E+03  0.79211675615E+02 0.  0.
        -11    1    5    5    0    0 -0.10883965473E+01 -0.41748586037E+02  0.17009440788E+03  0.17514632921E+03  0.00000000000E+00 0.  1.
         12    1    5    5    0    0  0.35893491724E+02 -0.16733858652E+00  0.57590833214E+03  0.57702580339E+03  0.00000000000E+00 0. -1.
         11    1    3    3    0    0 -0.12215676400E+02 -0.19373440882E+01 -0.72890733340E+02  0.73932638658E+02  0.00000000000E+00 0. -1.
        -12    1    3    3    0    0 -0.26827187581E+02  0.47493815814E+02 -0.82828423052E+01  0.55172148868E+02  0.00000000000E+00 0.  1.
          5    1    4    4  501    0 -0.45057873299E+02  0.15624579209E+02  0.26395793488E+03  0.26826405501E+03  0.41800000000E+01 0.  1.
         -5    1    4    4    0  501  0.49295642105E+02 -0.19265126312E+02  0.66317753911E+02  0.84951293728E+02  0.41800000000E+01 0.  1.
</event>
<event>
11    1  0.7577197E-009  0.1342973E+03  0.7561462E-02  0.1114099E+00
         22   -1    0    0    0    0  0.00000000000E+00  0.00000000000E+00  0.13271438369E+04  0.13271438369E+04  0.00000000000E+00 0. -1.
         22   -1    0    0    0    0 -0.00000000000E+00 -0.00000000000E+00 -0.20797401182E+03  0.20797401182E+03  0.00000000000E+00 0. -1.
         24    2    1    2    0    0 -0.17872765204E+02  0.20769356918E+02 -0.16864847389E+03  0.18935008073E+03  0.81610926974E+02 0.  0.
         25    2    1    2    0    0  0.38935179431E+02  0.24131742996E+02  0.13715455276E+03  0.19119943698E+03  0.12509022400E+03 0.  0.
        -24    2    1    2    0    0 -0.21062414227E+02 -0.44901099913E+02  0.11506637462E+04  0.11545683311E+04  0.80877933194E+02 0.  0.
        -13    1    3    3    0    0  0.15219726024E+02  0.42328775658E+02 -0.71408136187E+02  0.84394829360E+02  0.00000000000E+00 0.  1.
         14    1    3    3    0    0 -0.33092491227E+02 -0.21559418740E+02 -0.97240337707E+02  0.10495525137E+03  0.00000000000E+00 0. -1.
         11    1    5    5    0    0  0.24342544271E+02 -0.41705955414E+02  0.50570060887E+03  0.50800103542E+03  0.00000000000E+00 0. -1.
        -12    1    5    5    0    0 -0.45404958498E+02 -0.31951444994E+01  0.64496313738E+03  0.64656729563E+03  0.00000000000E+00 0.  1.
          5    1    4    4  501    0 -0.80640830108E+01  0.62353426014E+02  0.10508311635E+03  0.12252719254E+03  0.41800000000E+01 0. -1.
         -5    1    4    4    0  501  0.46999262442E+02 -0.38221683018E+02  0.32071436412E+02  0.68672244439E+02  0.41800000000E+01 0. -1.
</event>
<event>
11    1  0.7577197E-009  0.1310062E+03  0.7561462E-02  0.1118039E+00
         22   -1    0    0    0    0  0.00000000000E+00  0.00000000000E+00  0.67791117507E+03  0.67791117507E+03  0.00000000000E+00 0. -1.
         22   -1    0    0    0    0 -0.00000000000E+00 -0.00000000000E+00 -0.31107989991E+03  0.31107989991E+03  0.00000000000E+00 0.  1.
         24    2    1    2    0    0 -0.25432589950E+02  0.63919219138E+01 -0.28010533643E+03  0.29254998282E+03  0.80242256032E+02 0.  0.
         25    2    1    2    0    0  0.11604314498E+01 -0.38735887472E+02  0.18857405071E+03  0.22958653104E+03  0.12509191443E+03 0.  0.
        -24    2    1    2    0    0  0.24272158500E+02  0.32343965559E+02  0.45836256088E+03  0.46685456112E+03  0.78877590156E+02 0.  0.
        -13    1    3    3    0    0  0.80825451294E+00 -0.12861810731E+02 -0.24239258673E+03  0.24273492858E+03  0.00000000000E+00 0.  1.
         14    1    3    3    0    0 -0.26240844463E+02  0.19253732645E+02 -0.37712749699E+02  0.49815054239E+02  0.00000000000E+00 0. -1.
         13    1    5    5    0    0 -0.32349635519E+01 -0.14915561732E+02  0.27718710514E+03  0.27760697078E+03  0.00000000000E+00 0. -1.
        -14    1    5    5    0    0  0.27507122052E+02  0.47259527291E+02  0.18117545575E+03  0.18924759034E+03  0.00000000000E+00 0.  1.
          5    1    4    4  501    0 -0.61597240635E+02 -0.18289030516E+02  0.10232432459E+03  0.12089850493E+03  0.41800000000E+01 0.  1.
         -5    1    4    4    0  501  0.62757672085E+02 -0.20446856957E+02  0.86249726124E+02  0.10868802612E+03  0.41800000000E+01 0.  1.
</event>
<event>
11    1  0.7577197E-009  0.8540939E+03  0.7561462E-02  0.8831704E-01
         22   -1    0    0    0    0  0.00000000000E+00  0.00000000000E+00  0.10582582470E+04  0.10582582470E+04  0.00000000000E+00 0. -1.
         22   -1    0    0    0    0 -0.00000000000E+00 -0.00000000000E+00 -0.20154512349E+04  0.20154512349E+04  0.00000000000E+00 0. -1.
         24    2    1    2    0    0  0.35545517198E+03 -0.67752229719E+03 -0.62081066205E+03  0.98855700404E+03  0.80338220307E+02 0.  0.
         25    2    1    2    0    0  0.14872205066E+03  0.10646884961E+04 -0.75525310472E+03  0.13197479392E+04  0.12509008220E+03 0.  0.
        -24    2    1    2    0    0 -0.50417722264E+03 -0.38716619895E+03  0.41887077886E+03  0.76540453871E+03  0.79366498320E+02 0.  0.
        -13    1    3    3    0    0  0.14327082981E+03 -0.35765694874E+03 -0.30025459706E+03  0.48846478554E+03  0.00000000000E+00 0.  1.
         14    1    3    3    0    0  0.21218434217E+03 -0.31986534845E+03 -0.32055606498E+03  0.50009221849E+03  0.00000000000E+00 0. -1.
         11    1    5    5    0    0 -0.42027681613E+03 -0.33503219078E+03  0.31938117694E+03  0.62520677157E+03  0.00000000000E+00 0. -1.
        -12    1    5    5    0    0 -0.83900406505E+02 -0.52134008170E+02  0.99489601914E+02  0.14019776713E+03  0.00000000000E+00 0.  1.
          5    1    4    4  501    0  0.28110638259E+02  0.69378633630E+02 -0.87031110987E+02  0.11487162168E+03  0.41800000000E+01 0. -1.
         -5    1    4    4    0  501  0.12061141240E+03  0.99530986251E+03 -0.66822199373E+03  0.12048763175E+04  0.41800000000E+01 0. -1.
</event>
<event>
11    1  0.7577197E-009  0.1567517E+03  0.7561462E-02  0.1090173E+00
         22   -1    0    0    0    0  0.00000000000E+00  0.00000000000E+00  0.40606131949E+03  0.40606131949E+03  0.00000000000E+00 0. -1.
         22   -1    0    0    0    0 -0.00000000000E+00 -0.00000000000E+00 -0.70403075479E+03  0.70403075479E+03  0.00000000000E+00 0. -1.
        -24    2    1    2    0    0  0.34622567685E+02 -0.86002092721E+02 -0.56997663079E+03  0.58322111381E+03  0.81721636130E+02 0.  0.
         25    2    1    2    0    0 -0.10206683102E+03  0.77812032605E+02 -0.51406450776E+02  0.18644804922E+03  0.12509157231E+03 0.  0.
         24    2    1    2    0    0  0.67444263338E+02  0.81900601158E+01  0.32341364625E+03  0.34042291125E+03  0.81704138065E+02 0.  0.
        -13    1    5    5    0    0 -0.67543886192E+01  0.25706357591E+02  0.50585369826E+02  0.57142963055E+02  0.00000000000E+00 0.  1.
         14    1    5    5    0    0  0.74198651957E+02 -0.17516297475E+02  0.27282827643E+03  0.28327994819E+03  0.00000000000E+00 0. -1.
         11    1    3    3    0    0  0.96580454750E+01 -0.59415277734E+02 -0.50609274080E+03  0.50965999977E+03  0.00000000000E+00 0. -1.
        -12    1    3    3    0    0  0.24964522210E+02 -0.26586814987E+02 -0.63883889981E+02  0.73561114044E+02  0.00000000000E+00 0.  1.
          5    1    4    4  501    0 -0.32775968226E+02  0.28104445813E+02 -0.84417248095E+02  0.94909789503E+02  0.41800000000E+01 0.  1.
         -5    1    4    4    0  501 -0.69290862797E+02  0.49707586792E+02  0.33010797319E+02  0.91538259714E+02  0.41800000000E+01 0.  1.
</event>
<event>
11    1  0.7577197E-009  0.2204247E+03  0.7561462E-02  0.1040952E+00
         22   -1    0    0    0    0  0.00000000000E+00  0.00000000000E+00  0.41665526944E+03  0.41665526944E+03  0.00000000000E+00 0. -1.
         22   -1    0    0    0    0 -0.00000000000E+00 -0.00000000000E+00 -0.53727955197E+03  0.53727955197E+03  0.00000000000E+00 0. -1.
         24    2    1    2    0    0  0.15719818042E+03 -0.82214960208E+02 -0.42256544067E+03  0.46803707832E+03  0.95008354535E+02 0.  0.
         25    2    1    2    0    0 -0.18851710399E+03  0.14640747296E+03  0.23792634819E+03  0.35948678013E+03  0.12509177147E+03 0.  0.
        -24    2    1    2    0    0  0.31318923570E+02 -0.64192512754E+02  0.64014809938E+02  0.12641096295E+03  0.82342467758E+02 0.  0.
        -13    1    3    3    0    0 -0.99440135224E+01 -0.19908602212E+02 -0.36397358454E+02  0.42661499615E+02  0.00000000000E+00 0.  1.
         14    1    3    3    0    0  0.16714219394E+03 -0.62306357995E+02 -0.38616808221E+03  0.42537557871E+03  0.00000000000E+00 0. -1.
         11    1    5    5    0    0 -0.24241638904E+02 -0.33244456993E+02  0.42796015151E+02  0.59366235271E+02  0.00000000000E+00 0. -1.
        -12    1    5    5    0    0  0.55560562474E+02 -0.30948055761E+02  0.21218794787E+02  0.67044727683E+02  0.00000000000E+00 0.  1.
          5    1    4    4  501    0 -0.76537849418E+02  0.11639639425E+03  0.18591770556E+03  0.23235539294E+03  0.41800000000E+01 0. -1.
         -5    1    4    4    0  501 -0.11197925457E+03  0.30011078709E+02  0.52008642633E+02  0.12713138719E+03  0.41800000000E+01 0. -1.
</event>
<event>
11    1  0.8917920E-009  0.1730695E+03  0.7561462E-02  0.1075391E+00
         22   -1    0    0    0    0  0.00000000000E+00  0.00000000000E+00  0.11487538632E+04  0.11487538632E+04  0.00000000000E+00 0. -1.
         22   -1    0    0    0    0 -0.00000000000E+00 -0.00000000000E+00 -0.12286212062E+03  0.12286212062E+03  0.00000000000E+00 0.  1.
         24    2    1    2    0    0 -0.19875039719E+02  0.69770373366E+02 -0.41433313795E+02  0.11639491334E+03  0.81044026033E+02 0.  0.
         25    2    1    2    0    0 -0.41674065446E+02 -0.16462829975E+03  0.25348917217E+03  0.32976364201E+03  0.12509234339E+03 0.  0.
        -24    2    1    2    0    0  0.61549105164E+02  0.94857926385E+02  0.81383588419E+03  0.82545742846E+03  0.79150497532E+02 0.  0.
        -11    1    3    3    0    0 -0.15965283862E+02  0.63728613656E+02 -0.64599003184E+02  0.92137167851E+02  0.00000000000E+00 0.  1.
         12    1    3    3    0    0 -0.39097558567E+01  0.60417597099E+01  0.23165689389E+02  0.24257745487E+02  0.00000000000E+00 0. -1.
         13    1    5    5    0    0  0.29777095665E+02  0.88220431357E+02  0.72351205686E+03  0.72947872920E+03  0.00000000000E+00 0. -1.
        -14    1    5    5    0    0  0.31772009499E+02  0.66374950276E+01  0.90323827333E+02  0.95978699262E+02  0.00000000000E+00 0.  1.
          5    1    4    4  501    0  0.22155151242E+02 -0.89631609073E+01  0.96883802420E+02  0.99875585362E+02  0.41800000000E+01 0. -1.
         -5    1    4    4    0  501 -0.63829216688E+02 -0.15566513884E+03  0.15660536975E+03  0.22988805665E+03  0.41800000000E+01 0. -1.
</event>
<event>
11    1  0.7577197E-009  0.1341484E+03  0.7561462E-02  0.1114274E+00
         22   -1    0    0    0    0  0.00000000000E+00  0.00000000000E+00  0.20466906595E+04  0.20466906595E+04  0.00000000000E+00 0. -1.
         22   -1    0    0    0    0 -0.00000000000E+00 -0.00000000000E+00 -0.34840636083E+03  0.34840636083E+03  0.00000000000E+00 0.  1.
        -24    2    1    2    0    0  0.80885868802E+01  0.51254568391E+02 -0.27384236328E+03  0.28977194847E+03  0.79282319443E+02 0.  0.
         25    2    1    2    0    0  0.50856692546E+01 -0.22875735019E+02 -0.39835390860E+01  0.12732900455E+03  0.12509054134E+03 0.  0.
         24    2    1    2    0    0 -0.13174256135E+02 -0.28378833372E+02  0.19761102010E+04  0.19779960673E+04  0.80486001573E+02 0.  0.
        -13    1    5    5    0    0 -0.37345305476E+02  0.68871376054E+01  0.58638901322E+03  0.58761737494E+03  0.00000000000E+00 0.  1.
         14    1    5    5    0    0  0.24171049341E+02 -0.35265970977E+02  0.13897211878E+04  0.13903786923E+04  0.00000000000E+00 0. -1.
         13    1    3    3    0    0 -0.31012951592E+02  0.23282469816E+02 -0.66980358508E+02  0.77396673010E+02  0.00000000000E+00 0. -1.
        -14    1    3    3    0    0  0.39101538472E+02  0.27972098575E+02 -0.20686200477E+03  0.21237527546E+03  0.00000000000E+00 0.  1.
          5    1    4    4  501    0 -0.58966051754E+01 -0.38652806581E+02  0.53600270613E+02  0.66477596369E+02  0.41800000000E+01 0. -1.
         -5    1    4    4    0  501  0.10982274430E+02  0.15777071562E+02 -0.57583809699E+02  0.60851408186E+02  0.41800000000E+01 0. -1.
</event>
<event>
11    1  0.7577197E-009  0.1347996E+03  0.7561462E-02  0.1113509E+00
         22   -1    0    0    0    0  0.00000000000E+00  0.00000000000E+00  0.69355492896E+03  0.69355492896E+03  0.00000000000E+00 0.  1.
         22   -1    0    0    0    0 -0.00000000000E+00 -0.00000000000E+00 -0.62575887178E+02  0.62575887178E+02  0.00000000000E+00 0.  1.
         24    2    1    2    0    0  0.25418845695E+02  0.22699567575E+02  0.12661803605E+02  0.88403584571E+02  0.80582159378E+02 0.  0.
         25    2    1    2    0    0 -0.56804278823E+02 -0.51142332338E+02  0.26386462507E+03  0.30185128182E+03  0.12508953482E+03 0.  0.
        -24    2    1    2    0    0  0.31385433128E+02  0.28442764763E+02  0.35445261310E+03  0.36587594975E+03  0.80215456033E+02 0.  0.
        -11    1    3    3    0    0  0.33148100680E+02  0.39890910684E+02 -0.15841794984E+02  0.54231391299E+02  0.00000000000E+00 0.  1.
         12    1    3    3    0    0 -0.77292549849E+01 -0.17191343109E+02  0.28503598589E+02  0.34172193273E+02  0.00000000000E+00 0. -1.
         11    1    5    5    0    0 -0.11632789897E+02 -0.20311192027E+02  0.13423328114E+03  0.13625872482E+03  0.00000000000E+00 0. -1.
        -12    1    5    5    0    0  0.43018223025E+02  0.48753956790E+02  0.22021933196E+03  0.22961722493E+03  0.00000000000E+00 0.  1.
          5    1    4    4  501    0 -0.82250288342E+02 -0.68683520837E+02  0.23903074053E+03  0.26198416610E+03  0.41800000000E+01 0.  1.
         -5    1    4    4    0  501  0.25446009520E+02  0.17541188499E+02  0.24833884534E+02  0.39867115716E+02  0.41800000000E+01 0.  1.
</event>
<event>
11    1  0.7577197E-009  0.2692182E+03  0.7561462E-02  0.1014132E+00
         22   -1    0    0    0    0  0.00000000000E+00  0.00000000000E+00  0.28634428295E+03  0.28634428295E+03  0.00000000000E+00 0. -1.
         22   -1    0    0    0    0 -0.00000000000E+00 -0.00000000000E+00 -0.77167164300E+03  0.77167164300E+03  0.00000000000E+00 0. -1.
        -24    2    1    2    0    0  0.86785634695E+02  0.21164611424E+03 -0.44331087984E+03  0.50535853617E+03  0.80851034766E+02 0.  0.
         25    2    1    2    0    0 -0.12715705445E+03 -0.22954826257E+03 -0.21416944335E+03  0.36108121157E+03  0.12509903893E+03 0.  0.
         24    2    1    2    0    0  0.40371419752E+02  0.17902148325E+02  0.17215296314E+03  0.19157617821E+03  0.71515389188E+02 0.  0.
        -11    1    5    5    0    0 -0.18622777962E+02 -0.24707539562E+01  0.21763432775E+02  0.28749947658E+02  0.00000000000E+00 0.  1.
         12    1    5    5    0    0  0.58994197714E+02  0.20372902282E+02  0.15038953037E+03  0.16282623055E+03  0.00000000000E+00 0. -1.
         11    1    3    3    0    0  0.58895543422E+02  0.19539695032E+03 -0.41482669345E+03  0.46230924588E+03  0.00000000000E+00 0. -1.
        -12    1    3    3    0    0  0.27890091273E+02  0.16249163923E+02 -0.28484186399E+02  0.43049290287E+02  0.00000000000E+00 0.  1.
          5    1    4    4  501    0 -0.15199394311E+03 -0.19384567698E+03 -0.17292036720E+03  0.30099373917E+03  0.41800000000E+01 0.  1.
         -5    1    4    4    0  501  0.24836888665E+02 -0.35702585590E+02 -0.41249076154E+02  0.60087472404E+02  0.41800000000E+01 0.  1.
</event>
<event>
11    1  0.7577197E-009  0.1489785E+03  0.7561462E-02  0.1097927E+00
         22   -1    0    0    0    0  0.00000000000E+00  0.00000000000E+00  0.42686834839E+03  0.42686834839E+03  0.00000000000E+00 0. -1.
         22   -1    0    0    0    0 -0.00000000000E+00 -0.00000000000E+00 -0.56629596164E+03  0.56629596164E+03  0.00000000000E+00 0.  1.
        -24    2    1    2    0    0 -0.11315946761E+02  0.31478884054E-01 -0.36495710997E+03  0.37397562893E+03  0.80845700400E+02 0.  0.
         25    2    1    2    0    0 -0.65352896669E+02  0.27197463816E+02 -0.16114588930E+03  0.21593214913E+03  0.12509193518E+03 0.  0.
         24    2    1    2    0    0  0.76668843429E+02 -0.27228942700E+02  0.38667538603E+03  0.40325653197E+03  0.80488816247E+02 0.  0.
        -11    1    5    5    0    0  0.42640725268E+02  0.22396734856E+02  0.23877813794E+03  0.24358744701E+03  0.00000000000E+00 0.  1.
         12    1    5    5    0    0  0.34028118162E+02 -0.49625677557E+02  0.14789724809E+03  0.15966908496E+03  0.00000000000E+00 0. -1.
         13    1    3    3    0    0 -0.22805108154E+02  0.35637528348E+02 -0.15302292616E+03  0.15876436097E+03  0.00000000000E+00 0. -1.
        -14    1    3    3    0    0  0.11489161393E+02 -0.35606049464E+02 -0.21193418381E+03  0.21521126796E+03  0.00000000000E+00 0.  1.
          5    1    4    4  501    0 -0.14366627299E+02  0.41352572864E+02  0.23468806809E+01  0.44038795526E+02  0.41800000000E+01 0.  1.
         -5    1    4    4    0  501 -0.50986269370E+02 -0.14155109048E+02 -0.16349276998E+03  0.17189335361E+03  0.41800000000E+01 0.  1.
</event>
<event>
11    1  0.7577197E-009  0.1282335E+03  0.7561462E-02  0.1121459E+00
         22   -1    0    0    0    0  0.00000000000E+00  0.00000000000E+00  0.63078008882E+03  0.63078008882E+03  0.00000000000E+00 0. -1.
         22   -1    0    0    0    0 -0.00000000000E+00 -0.00000000000E+00 -0.30834533795E+03  0.30834533795E+03  0.00000000000E+00 0.  1.
        -24    2    1    2    0    0  0.13688582985E+02 -0.24783333168E+02 -0.26726949396E+03  0.28065147505E+03  0.80812605073E+02 0.  0.
         25    2    1    2    0    0 -0.17433875726E+02  0.21174170482E+02  0.10034111696E+03  0.16268525123E+03  0.12508343494E+03 0.  0.
         24    2    1    2    0    0  0.37452927406E+01  0.36091626861E+01  0.48936312787E+03  0.49578870049E+03  0.79392136520E+02 0.  0.
        -11    1    5    5    0    0 -0.32997695761E+02 -0.91976933612E+01  0.13430316082E+03  0.13860297434E+03  0.00000000000E+00 0.  1.
         12    1    5    5    0    0  0.36742988501E+02  0.12806856047E+02  0.35505996705E+03  0.35718572615E+03  0.00000000000E+00 0. -1.
         13    1    3    3    0    0 -0.57211889256E+01 -0.43555132358E+01  0.37921170758E+01  0.81291235805E+01  0.00000000000E+00 0. -1.
        -14    1    3    3    0    0  0.19409771911E+02 -0.20427819933E+02 -0.27106161104E+03  0.27252235147E+03  0.00000000000E+00 0.  1.
          5    1    4    4  501    0  0.38989305401E+02  0.44343090977E+02  0.77273426797E+02  0.97340282217E+02  0.41800000000E+01 0. -1.
         -5    1    4    4    0  501 -0.56423181127E+02 -0.23168920495E+02  0.23067690165E+02  0.65344969010E+02  0.41800000000E+01 0. -1.
</event>
<event>
11    1  0.7577197E-009  0.2368711E+03  0.7561462E-02  0.1031135E+00
         22   -1    0    0    0    0  0.00000000000E+00  0.00000000000E+00  0.52741398491E+02  0.52741398491E+02  0.00000000000E+00 0.  1.
         22   -1    0    0    0    0 -0.00000000000E+00 -0.00000000000E+00 -0.20328260355E+04  0.20328260355E+04  0.00000000000E+00 0.  1.
        -24    2    1    2    0    0 -0.71401658712E+02  0.89279398707E+02 -0.72862100435E+03  0.74184996322E+03  0.79898636017E+02 0.  0.
         25    2    1    2    0    0  0.16359303708E+03  0.10465630584E+03 -0.85503365408E+03  0.88568953039E+03  0.12509104882E+03 0.  0.
         24    2    1    2    0    0 -0.92191378373E+02 -0.19393570455E+03 -0.39642997860E+03  0.45802794041E+03  0.80762358307E+02 0.  0.
        -11    1    5    5    0    0 -0.41583463297E+02 -0.63320726049E+02 -0.22046287304E+03  0.23311494409E+03  0.00000000000E+00 0.  1.
         12    1    5    5    0    0 -0.50607915075E+02 -0.13061497850E+03 -0.17596710556E+03  0.22491299632E+03  0.00000000000E+00 0. -1.
         13    1    3    3    0    0 -0.67227649143E+02  0.22898076473E+02 -0.31429295953E+03  0.32221722971E+03  0.00000000000E+00 0. -1.
        -14    1    3    3    0    0 -0.41740095696E+01  0.66381322234E+02 -0.41432804483E+03  0.41963273350E+03  0.00000000000E+00 0.  1.
          5    1    4    4  501    0  0.83591023774E+02  0.62169122318E+02 -0.21152977824E+03  0.23582785779E+03  0.41800000000E+01 0.  1.
         -5    1    4    4    0  501  0.80002013310E+02  0.42487183522E+02 -0.64350387584E+03  0.64986167260E+03  0.41800000000E+01 0.  1.
</event>
<event>
11    1  0.9540564E-009  0.1641999E+03  0.7561462E-02  0.1083192E+00
         22   -1    0    0    0    0  0.00000000000E+00  0.00000000000E+00  0.65388313627E+03  0.65388313627E+03  0.00000000000E+00 0.  1.
         22   -1    0    0    0    0 -0.00000000000E+00 -0.00000000000E+00 -0.11682587167E+04  0.11682587167E+04  0.00000000000E+00 0. -1.
        -24    2    1    2    0    0  0.25450930529E+02 -0.30004225828E+02 -0.68226885160E+03  0.68774964374E+03  0.77206108326E+02 0.  0.
         25    2    1    2    0    0 -0.12591212243E+03  0.63459607634E+02 -0.45765879553E+03  0.49495434532E+03  0.12508895414E+03 0.  0.
         24    2    1    2    0    0  0.10046119190E+03 -0.33455381806E+02  0.62555206671E+03  0.63943786390E+03  0.79709974161E+02 0.  0.
        -13    1    5    5    0    0  0.83112496681E+02 -0.26595583113E+02  0.60659890238E+03  0.61284356937E+03  0.00000000000E+00 0.  1.
         14    1    5    5    0    0  0.17348695216E+02 -0.68597986925E+01  0.18953164327E+02  0.26594294535E+02  0.00000000000E+00 0. -1.
         13    1    3    3    0    0  0.41700072049E+02 -0.14394340587E+02 -0.61932835717E+03  0.62089750124E+03  0.00000000000E+00 0. -1.
        -14    1    3    3    0    0 -0.16249141520E+02 -0.15609885241E+02 -0.62940494435E+02  0.66852142502E+02  0.00000000000E+00 0.  1.
          5    1    4    4  501    0 -0.13116509375E+03  0.88438761227E+01 -0.35306295394E+03  0.37676706040E+03  0.41800000000E+01 0. -1.
         -5    1    4    4    0  501  0.52529713244E+01  0.54615731511E+02 -0.10459584160E+03  0.11818728491E+03  0.41800000000E+01 0. -1.
</event>
<event>
11    1  0.7577197E-009  0.1635387E+03  0.7561462E-02  0.1083795E+00
         22   -1    0    0    0    0  0.00000000000E+00  0.00000000000E+00  0.91237599805E+03  0.91237599805E+03  0.00000000000E+00 0.  1.
         22   -1    0    0    0    0 -0.00000000000E+00 -0.00000000000E+00 -0.12754608907E+03  0.12754608907E+03  0.00000000000E+00 0.  1.
        -24    2    1    2    0    0  0.38059090937E+01  0.14767691977E+02 -0.34399077676E+02  0.86869119656E+02  0.78296728760E+02 0.  0.
         25    2    1    2    0    0 -0.23147720997E+02 -0.11701858755E+03  0.60600782961E+02  0.18316391746E+03  0.12508956370E+03 0.  0.
         24    2    1    2    0    0  0.19341811903E+02  0.10225089557E+03  0.75862820370E+03  0.76988904999E+03  0.79893970494E+02 0.  0.
        -11    1    5    5    0    0 -0.18078174778E+02  0.65434441560E+02  0.57213747509E+03  0.57615082830E+03  0.00000000000E+00 0.  1.
         12    1    5    5    0    0  0.37419986681E+02  0.36816454015E+02  0.18649072861E+03  0.19373822170E+03  0.00000000000E+00 0. -1.
         13    1    3    3    0    0  0.19045772646E+02 -0.16500890834E+02  0.12778393022E+02  0.28254348023E+02  0.00000000000E+00 0. -1.
        -14    1    3    3    0    0 -0.15239863552E+02  0.31268582811E+02 -0.47177470698E+02  0.58614771633E+02  0.00000000000E+00 0.  1.
          5    1    4    4  501    0 -0.22122764553E+02 -0.12351214654E+03  0.88884785696E+02  0.15382667058E+03  0.41800000000E+01 0. -1.
         -5    1    4    4    0  501 -0.10249564439E+01  0.64935589856E+01 -0.28284002735E+02  0.29337246884E+02  0.41800000000E+01 0. -1.
</event>
<event>
11    1  0.7577197E-009  0.2549942E+03  0.7561462E-02  0.1021272E+00
         22   -1    0    0    0    0  0.00000000000E+00  0.00000000000E+00  0.18058395034E+04  0.18058395034E+04  0.00000000000E+00 0. -1.
         22   -1    0    0    0    0 -0.00000000000E+00 -0.00000000000E+00 -0.13602543596E+03  0.13602543596E+03  0.00000000000E+00 0.  1.
        -24    2    1    2    0    0 -0.86114608988E+01 -0.24059828085E+03  0.93741672999E+02  0.27056952561E+03  0.80365894037E+02 0.  0.
         25    2    1    2    0    0 -0.25772112173E+02  0.19271357085E+03  0.24486329555E+03  0.33676092416E+03  0.12508862608E+03 0.  0.
         24    2    1    2    0    0  0.34383573072E+02  0.47884710002E+02  0.13312090989E+04  0.13345344896E+04  0.73412964826E+02 0.  0.
        -13    1    5    5    0    0  0.15704703907E+01  0.34222573974E+02  0.21111528186E+03  0.21387686454E+03  0.00000000000E+00 0.  1.
         14    1    5    5    0    0  0.32813102681E+02  0.13662136028E+02  0.11200938170E+04  0.11206576251E+04  0.00000000000E+00 0. -1.
         11    1    3    3    0    0  0.17463421020E+01 -0.12315972248E+02 -0.13312103237E+02  0.18219357171E+02  0.00000000000E+00 0. -1.
        -12    1    3    3    0    0 -0.10357803001E+02 -0.22828230860E+03  0.10705377624E+03  0.25235016844E+03  0.00000000000E+00 0.  1.
          5    1    4    4  501    0 -0.38655384701E+02  0.14036304307E+03  0.24220075241E+03  0.28262112358E+03  0.41800000000E+01 0.  1.
         -5    1    4    4    0  501  0.12883272528E+02  0.52350527783E+02  0.26625431381E+01  0.54139800574E+02  0.41800000000E+01 0.  1.
</event>
<event>
11    1  0.7577197E-009  0.1800100E+03  0.7561462E-02  0.1069635E+00
         22   -1    0    0    0    0  0.00000000000E+00  0.00000000000E+00  0.94639342155E+03  0.94639342155E+03  0.00000000000E+00 0. -1.
         22   -1    0    0    0    0 -0.00000000000E+00 -0.00000000000E+00 -0.26673432209E+03  0.26673432209E+03  0.00000000000E+00 0. -1.
        -24    2    1    2    0    0  0.65463162318E+01 -0.55518657998E+02 -0.20977663306E+03  0.23136587951E+03  0.79992241987E+02 0.  0.
         25    2    1    2    0    0 -0.23739947952E+02 -0.82593561870E+02  0.11420164355E+03  0.18993440891E+03  0.12509109763E+03 0.  0.
         24    2    1    2    0    0  0.17193631720E+02  0.13811221987E+03  0.77523408898E+03  0.79182745522E+03  0.81438442306E+02 0.  0.
        -13    1    5    5    0    0  0.39104270544E+00 -0.90925261495E+01  0.17298655982E+02  0.19546622341E+02  0.00000000000E+00 0.  1.
         14    1    5    5    0    0  0.16802589014E+02  0.14720474602E+03  0.75793543300E+03  0.77228083288E+03  0.00000000000E+00 0. -1.
         13    1    3    3    0    0 -0.32744716917E+02 -0.33999822652E+02 -0.14590107518E+03  0.15334708398E+03  0.00000000000E+00 0. -1.
        -14    1    3    3    0    0  0.39291033149E+02 -0.21518835346E+02 -0.63875557887E+02  0.78018795530E+02  0.00000000000E+00 0.  1.
          5    1    4    4  501    0 -0.36439755427E+02 -0.10515133354E+03  0.11932155257E+03  0.16321692323E+03  0.41800000000E+01 0. -1.
         -5    1    4    4    0  501  0.12699807475E+02  0.22557771670E+02 -0.51199090190E+01  0.26717485679E+02  0.41800000000E+01 0. -1.
</event>
<event>
11    1  0.7577197E-009  0.1468756E+03  0.7561462E-02  0.1100115E+00
         22   -1    0    0    0    0  0.00000000000E+00  0.00000000000E+00  0.12980538425E+04  0.12980538425E+04  0.00000000000E+00 0.  1.
         22   -1    0    0    0    0 -0.00000000000E+00 -0.00000000000E+00 -0.18504194163E+03  0.18504194163E+03  0.00000000000E+00 0.  1.
        -24    2    1    2    0    0  0.42651989756E+02  0.65912254459E+02 -0.15173097112E+03  0.18869833136E+03  0.80132110557E+02 0.  0.
         25    2    1    2    0    0  0.14492885534E+02 -0.60469203871E+02  0.39174782241E+03  0.41590889375E+03  0.12508910099E+03 0.  0.
         24    2    1    2    0    0 -0.57144875291E+02 -0.54430505881E+01  0.87299504956E+03  0.87848855901E+03  0.79540104217E+02 0.  0.
        -11    1    5    5    0    0 -0.20631770619E+02  0.31500889520E+02  0.55529130308E+03  0.55656662429E+03  0.00000000000E+00 0.  1.
         12    1    5    5    0    0 -0.36513104671E+02 -0.36943940108E+02  0.31770374648E+03  0.32192193471E+03  0.00000000000E+00 0. -1.
         11    1    3    3    0    0  0.24451822145E+02 -0.14390470265E+01 -0.33348285899E+01  0.24720104051E+02  0.00000000000E+00 0. -1.
        -12    1    3    3    0    0  0.18200167611E+02  0.67351301486E+02 -0.14839614253E+03  0.16397822731E+03  0.00000000000E+00 0.  1.
          5    1    4    4  501    0 -0.41856167280E+02  0.13337336176E+01  0.57044057175E+02  0.70888746947E+02  0.41800000000E+01 0.  1.
         -5    1    4    4    0  501  0.56349052815E+02 -0.61802937489E+02  0.33470376524E+03  0.34502014680E+03  0.41800000000E+01 0.  1.
</event>
<event>
11    1  0.7577197E-009  0.1256277E+03  0.7561462E-02  0.1124761E+00
         22   -1    0    0    0    0  0.00000000000E+00  0.00000000000E+00  0.10609895369E+04  0.10609895369E+04  0.00000000000E+00 0. -1.
         22   -1    0    0    0    0 -0.00000000000E+00 -0.00000000000E+00 -0.64751146172E+03  0.64751146172E+03  0.00000000000E+00 0. -1.
         24    2    1    2    0    0 -0.20348026376E+02 -0.71046920942E+01 -0.60753276961E+03  0.61298956421E+03  0.78712266228E+02 0.  0.
         25    2    1    2    0    0  0.20926044684E+02 -0.48161748361E+01  0.80647923379E+02  0.15037456518E+03  0.12508927781E+03 0.  0.
        -24    2    1    2    0    0 -0.57801830765E+00  0.11920866930E+02  0.94036292139E+03  0.94513686920E+03  0.94121391932E+02 0.  0.
        -13    1    3    3    0    0 -0.11249281090E+02  0.26950128110E+02 -0.98506678147E+02  0.10274444691E+03  0.00000000000E+00 0.  1.
         14    1    3    3    0    0 -0.90987452855E+01 -0.34054820205E+02 -0.50902609146E+03  0.51024511731E+03  0.00000000000E+00 0. -1.
         13    1    5    5    0    0  0.37438966211E+01  0.32888156781E+01  0.93295555741E+03  0.93296886613E+03  0.00000000000E+00 0. -1.
        -14    1    5    5    0    0 -0.43219149288E+01  0.86320512522E+01  0.74073639798E+01  0.12168003065E+02  0.00000000000E+00 0.  1.
          5    1    4    4  501    0  0.64760131857E+01 -0.76885905219E+01  0.11355649110E+03  0.11407717669E+03  0.41800000000E+01 0. -1.
         -5    1    4    4    0  501  0.14450031498E+02  0.28724156858E+01 -0.32908567719E+02  0.36297388494E+02  0.41800000000E+01 0. -1.
</event>
<event>
11    1  0.7577197E-009  0.3464892E+03  0.7561462E-02  0.9822341E-01
         22   -1    0    0    0    0  0.00000000000E+00  0.00000000000E+00  0.12370801219E+04  0.12370801219E+04  0.00000000000E+00 0.  1.
         22   -1    0    0    0    0 -0.00000000000E+00 -0.00000000000E+00 -0.59623956346E+03  0.59623956346E+03  0.00000000000E+00 0. -1.
        -24    2    1    2    0    0  0.64245006519E+01  0.41318148267E+02 -0.42326126816E+03  0.43297484288E+03  0.81047207577E+02 0.  0.
         25    2    1    2    0    0  0.26414475079E+03  0.14360903754E+03  0.47400629390E+02  0.32907452939E+03  0.12508885320E+03 0.  0.
         24    2    1    2    0    0 -0.27056925144E+03 -0.18492718580E+03  0.10167011972E+04  0.10712703131E+04  0.80826823631E+02 0.  0.
        -13    1    5    5    0    0 -0.27173339648E+03 -0.18545342107E+03  0.10177600963E+04  0.10696109684E+04  0.00000000000E+00 0.  1.
         14    1    5    5    0    0  0.11641450427E+01  0.52623526712E+00 -0.10588991264E+01  0.16593446287E+01  0.00000000000E+00 0. -1.
         11    1    3    3    0    0  0.39664122957E+02  0.40614238931E+02 -0.23194486115E+03  0.23879107535E+03  0.00000000000E+00 0. -1.
        -12    1    3    3    0    0 -0.33239622305E+02  0.70390933603E+00 -0.19131640702E+03  0.19418376753E+03  0.00000000000E+00 0.  1.
          5    1    4    4  501    0  0.24283549212E+03  0.91472196088E+02  0.69757544340E+01  0.25961966882E+03  0.41800000000E+01 0.  1.
         -5    1    4    4    0  501  0.21309258670E+02  0.52136841448E+02  0.40424874956E+02  0.69454860568E+02  0.41800000000E+01 0.  1.
</event>
<event>
11    1  0.7577197E-009  0.1290791E+03  0.7561462E-02  0.1120406E+00
         22   -1    0    0    0    0  0.00000000000E+00  0.00000000000E+00  0.25779050368E+03  0.25779050368E+03  0.00000000000E+00 0.  1.
         22   -1    0    0    0    0 -0.00000000000E+00 -0.00000000000E+00 -0.12025004569E+04  0.12025004569E+04  0.00000000000E+00 0.  1.
        -24    2    1    2    0    0 -0.32965540910E+02  0.30944191994E+01 -0.10767969661E+04  0.10802367612E+04  0.79520134161E+02 0.  0.
         25    2    1    2    0    0  0.43141990495E+01  0.14931214373E+02 -0.81110999344E+02  0.14989289006E+03  0.12508929131E+03 0.  0.
         24    2    1    2    0    0  0.28651341861E+02 -0.18025633572E+02  0.21319801221E+03  0.23016130933E+03  0.79843678806E+02 0.  0.
        -13    1    5    5    0    0  0.16495278786E+02  0.29456259827E+02  0.12250073785E+03  0.12706768370E+03  0.00000000000E+00 0.  1.
         14    1    5    5    0    0  0.12156063075E+02 -0.47481893399E+02  0.90697274352E+02  0.10309362563E+03  0.00000000000E+00 0. -1.
         13    1    3    3    0    0 -0.53406376049E+02  0.14479549797E+02 -0.51736385299E+03  0.52031457287E+03  0.00000000000E+00 0. -1.
        -14    1    3    3    0    0  0.20440835139E+02 -0.11385130598E+02 -0.55943311307E+03  0.55992218829E+03  0.00000000000E+00 0.  1.
          5    1    4    4  501    0  0.42042865292E+02 -0.18089838205E+02  0.88635541289E+01  0.46806834544E+02  0.41800000000E+01 0. -1.
         -5    1    4    4    0  501 -0.37728666243E+02  0.33021052578E+02 -0.89974553472E+02  0.10308605552E+03  0.41800000000E+01 0. -1.
</event>
<event>
11    1  0.7577197E-009  0.1360574E+03  0.7561462E-02  0.1112043E+00
         22   -1    0    0    0    0  0.00000000000E+00  0.00000000000E+00  0.49739739285E+03  0.49739739285E+03  0.00000000000E+00 0.  1.
         22   -1    0    0    0    0 -0.00000000000E+00 -0.00000000000E+00 -0.12683034418E+04  0.12683034418E+04  0.00000000000E+00 0.  1.
        -24    2    1    2    0    0 -0.27256972079E+02  0.47171924233E+02 -0.11991505900E+04  0.12034272322E+04  0.85480014183E+02 0.  0.
         25    2    1    2    0    0  0.14462839522E+02 -0.18587452376E+02  0.15668679700E+01  0.12731300494E+03  0.12510587132E+03 0.  0.
         24    2    1    2    0    0  0.12794132557E+02 -0.28584471856E+02  0.42667767304E+03  0.43496059751E+03  0.78460963892E+02 0.  0.
        -11    1    5    5    0    0 -0.30504023830E+02 -0.11162038975E+02  0.25468276580E+03  0.25674578434E+03  0.00000000000E+00 0.  1.
         12    1    5    5    0    0  0.43298156387E+02 -0.17422432881E+02  0.17199490724E+03  0.17821481317E+03  0.00000000000E+00 0. -1.
         13    1    3    3    0    0  0.80659978969E+01  0.20366871465E+02 -0.68714197465E+02  0.72121499628E+02  0.00000000000E+00 0. -1.
        -14    1    3    3    0    0 -0.35322969976E+02  0.26805052768E+02 -0.11304363925E+04  0.11313057326E+04  0.00000000000E+00 0.  1.
          5    1    4    4  501    0 -0.42584452736E+02  0.28527091020E+02 -0.97661786861E+01  0.52345784769E+02  0.41800000000E+01 0.  1.
         -5    1    4    4    0  501  0.57047292258E+02 -0.47114543396E+02  0.11333046656E+02  0.74967220169E+02  0.41800000000E+01 0.  1.
</event>
<event>
11    1  0.7577197E-009  0.1718885E+03  0.7561462E-02  0.1076400E+00
         22   -1    0    0    0    0  0.00000000000E+00  0.00000000000E+00  0.41726690167E+03  0.41726690167E+03  0.00000000000E+00 0. -1.
         22   -1    0    0    0    0 -0.00000000000E+00 -0.00000000000E+00 -0.17211299761E+04  0.17211299761E+04  0.00000000000E+00 0.  1.
         24    2    1    2    0    0 -0.11457194092E+03 -0.42263285232E+02 -0.14163376003E+04  0.14239667651E+04  0.82196320528E+02 0.  0.
         25    2    1    2    0    0  0.10596235682E+03 -0.29423710509E+02 -0.26991264843E+03  0.31716737991E+03  0.12509409777E+03 0.  0.
        -24    2    1    2    0    0  0.86095840986E+01  0.71686995740E+02  0.38238717433E+03  0.39726273274E+03  0.79903550829E+02 0.  0.
        -13    1    3    3    0    0 -0.12331345162E+03 -0.51903975183E+02 -0.12576833270E+04  0.12647796571E+04  0.00000000000E+00 0.  1.
         14    1    3    3    0    0  0.87415107073E+01  0.96406899510E+01 -0.15865427336E+03  0.15918710805E+03  0.00000000000E+00 0. -1.
         13    1    5    5    0    0  0.34357210239E+02  0.68252357236E+02  0.33072909841E+03  0.33944150998E+03  0.00000000000E+00 0. -1.
        -14    1    5    5    0    0 -0.25747626140E+02  0.34346385041E+01  0.51658075923E+02  0.57821222761E+02  0.00000000000E+00 0.  1.
          5    1    4    4  501    0 -0.22299018559E+02 -0.18923517872E+02 -0.18941048574E+02  0.35093895173E+02  0.41800000000E+01 0.  1.
         -5    1    4    4    0  501  0.12826137538E+03 -0.10500192636E+02 -0.25097159985E+03  0.28207348474E+03  0.41800000000E+01 0.  1.
</event>
<event>
11    1  0.7577197E-009  0.1497482E+03  0.7561462E-02  0.1097136E+00
         22   -1    0    0    0    0  0.00000000000E+00  0.00000000000E+00  0.24034360257E+04  0.24034360257E+04  0.00000000000E+00 0. -1.
         22   -1    0    0    0    0 -0.00000000000E+00 -0.00000000000E+00 -0.57273048242E+02  0.57273048242E+02  0.00000000000E+00 0.  1.
         24    2    1    2    0    0 -0.13734976979E+01  0.80578623080E+02  0.64695484006E+02  0.13005779172E+03  0.78960259258E+02 0.  0.
         25    2    1    2    0    0 -0.14340928167E+02 -0.86512643279E+02  0.22167014152E+03  0.26921244938E+03  0.12509033373E+03 0.  0.
        -24    2    1    2    0    0  0.15714425865E+02  0.59340201984E+01  0.20597973519E+04  0.20614388328E+04  0.80515680187E+02 0.  0.
        -11    1    3    3    0    0 -0.73582586613E+01  0.68416702196E+02  0.51663088996E+01  0.69004926328E+02  0.00000000000E+00 0.  1.
         12    1    3    3    0    0  0.59847609635E+01  0.12161920884E+02  0.59529175106E+02  0.61052865389E+02  0.00000000000E+00 0. -1.
         13    1    5    5    0    0  0.82675327315E+01 -0.15548286665E+02  0.18948528386E+04  0.18949346642E+04  0.00000000000E+00 0. -1.
        -14    1    5    5    0    0  0.74468931332E+01  0.21482306863E+02  0.16494451325E+03  0.16650416865E+03  0.00000000000E+00 0.  1.
          5    1    4    4  501    0  0.25198778883E+02 -0.88731429686E+02  0.20720075798E+03  0.22684327536E+03  0.41800000000E+01 0. -1.
         -5    1    4    4    0  501 -0.39539707050E+02  0.22187864073E+01  0.14469383543E+02  0.42369174017E+02  0.41800000000E+01 0. -1.
</event>
<event>
11    1  0.7577197E-009  0.1600558E+03  0.7561462E-02  0.1087025E+00
         22   -1    0    0    0    0  0.00000000000E+00  0.00000000000E+00  0.69432205529E+03  0.69432205529E+03  0.00000000000E+00 0. -1.
         22   -1    0    0    0    0 -0.00000000000E+00 -0.00000000000E+00 -0.96322219629E+03  0.96322219629E+03  0.00000000000E+00 0. -1.
        -24    2    1    2    0    0 -0.71954186938E+02 -0.73189596728E+02 -0.85563388121E+03  0.86533727250E+03  0.78518369983E+02 0.  0.
         25    2    1    2    0    0  0.36274184298E+02  0.62165736107E+02 -0.47062647103E+02  0.15179332436E+03  0.12508367350E+03 0.  0.
         24    2    1    2    0    0  0.35680002640E+02  0.11023860621E+02  0.63379638731E+03  0.64041365471E+03  0.83888023442E+02 0.  0.
        -13    1    5    5    0    0  0.16351579298E+02  0.42154125852E+02  0.48772859189E+03  0.48981988916E+03  0.00000000000E+00 0.  1.
         14    1    5    5    0    0  0.19328423342E+02 -0.31130265231E+02  0.14606779543E+03  0.15059376555E+03  0.00000000000E+00 0. -1.
         11    1    3    3    0    0  0.17384294232E+00 -0.47167460260E+02 -0.45445526303E+03  0.45689647145E+03  0.00000000000E+00 0. -1.
        -12    1    3    3    0    0 -0.72128029880E+02 -0.26022136468E+02 -0.40117861818E+03  0.40844080105E+03  0.00000000000E+00 0.  1.
          5    1    4    4  501    0  0.43604771006E+02  0.48487486583E+02  0.30835494357E+02  0.72254498281E+02  0.41800000000E+01 0. -1.
         -5    1    4    4    0  501 -0.73305867083E+01  0.13678249523E+02 -0.77898141460E+02  0.79538826082E+02  0.41800000000E+01 0. -1.
</event>
<event>
11    1  0.7577197E-009  0.1511978E+03  0.7561462E-02  0.1095661E+00
         22   -1    0    0    0    0  0.00000000000E+00  0.00000000000E+00  0.93944176433E+02  0.93944176433E+02  0.00000000000E+00 0.  1.
         22   -1    0    0    0    0 -0.00000000000E+00 -0.00000000000E+00 -0.13281460316E+04  0.13281460316E+04  0.00000000000E+00 0. -1.
         24    2    1    2    0    0 -0.34896172563E+02 -0.23493608168E+02 -0.10093681330E+04  0.10134464645E+04  0.80498547234E+02 0.  0.
         25    2    1    2    0    0  0.10864294792E+03 -0.10826013322E+02 -0.24011916507E+03  0.29190861117E+03  0.12503172055E+03 0.  0.
        -24    2    1    2    0    0 -0.73746775356E+02  0.34319621489E+02  0.15285442869E+02  0.11673513235E+03  0.82322676501E+02 0.  0.
        -11    1    3    3    0    0  0.73964589477E+01  0.13694170289E+02 -0.48646821227E+02  0.51075934846E+02  0.00000000000E+00 0.  1.
         12    1    3    3    0    0 -0.42292631511E+02 -0.37187778457E+02 -0.96072131177E+03  0.96237052970E+03  0.00000000000E+00 0. -1.
         11    1    5    5    0    0  0.13427360108E+02  0.21285957707E+02  0.13532242898E+02  0.28574596985E+02  0.00000000000E+00 0. -1.
        -12    1    5    5    0    0 -0.87174135465E+02  0.13033663782E+02  0.17531999709E+01  0.88160535364E+02  0.00000000000E+00 0.  1.
          5    1    4    4  501    0  0.67679074040E+02  0.32805550528E+02 -0.21326865545E+03  0.22618057610E+03  0.41800000000E+01 0.  1.
         -5    1    4    4    0  501  0.40963873880E+02 -0.43631563849E+02 -0.26850509622E+02  0.65728035070E+02  0.41800000000E+01 0.  1.
</event>
<event>
11    1  0.7577197E-009  0.1787522E+03  0.7561462E-02  0.1070657E+00
         22   -1    0    0    0    0  0.00000000000E+00  0.00000000000E+00  0.76429416547E+03  0.76429416547E+03  0.00000000000E+00 0. -1.
         22   -1    0    0    0    0 -0.00000000000E+00 -0.00000000000E+00 -0.20456741149E+03  0.20456741149E+03  0.00000000000E+00 0. -1.
        -24    2    1    2    0    0 -0.50878452067E+02 -0.42692228611E+02 -0.12364527366E+03  0.16306042647E+03  0.83001841639E+02 0.  0.
         25    2    1    2    0    0  0.23459661006E+02  0.16203301432E+03  0.15542871510E+03  0.25809277607E+03  0.12509493259E+03 0.  0.
         24    2    1    2    0    0  0.27418791061E+02 -0.11934078570E+03  0.52794331254E+03  0.54770837442E+03  0.79160020983E+02 0.  0.
        -13    1    5    5    0    0 -0.20515066158E+02 -0.43523366994E+02  0.10709999415E+03  0.11741192513E+03  0.00000000000E+00 0.  1.
         14    1    5    5    0    0  0.47933857219E+02 -0.75817418709E+02  0.42084331838E+03  0.43029644930E+03  0.00000000000E+00 0. -1.
         11    1    3    3    0    0 -0.43270288604E+02 -0.60168756034E+02 -0.12346275037E+03  0.14399877710E+03  0.00000000000E+00 0. -1.
        -12    1    3    3    0    0 -0.76081634624E+01  0.17476527423E+02 -0.18252329043E+00  0.19061649372E+02  0.00000000000E+00 0.  1.
          5    1    4    4  501    0  0.71579292096E+02  0.61830034747E+02  0.76005357153E+02  0.12141184032E+03  0.41800000000E+01 0.  1.
         -5    1    4    4    0  501 -0.48119631090E+02  0.10020297957E+03  0.79423357944E+02  0.13668093575E+03  0.41800000000E+01 0.  1.
</event>
<event>
11    1  0.7577197E-009  0.1466007E+03  0.7561462E-02  0.1100404E+00
         22   -1    0    0    0    0  0.00000000000E+00  0.00000000000E+00  0.15630106263E+03  0.15630106263E+03  0.00000000000E+00 0. -1.
         22   -1    0    0    0    0 -0.00000000000E+00 -0.00000000000E+00 -0.66096589769E+03  0.66096589769E+03  0.00000000000E+00 0. -1.
         24    2    1    2    0    0  0.15373211582E+02 -0.15681455225E+02 -0.48076038114E+03  0.48793042431E+03  0.80394721326E+02 0.  0.
         25    2    1    2    0    0  0.61982235945E+02  0.27905075976E+02 -0.11647521628E+03  0.18393756382E+03  0.12508421379E+03 0.  0.
        -24    2    1    2    0    0 -0.77355447527E+02 -0.12223620751E+02  0.92570762356E+02  0.14539897219E+03  0.80238599846E+02 0.  0.
        -11    1    3    3    0    0  0.13556355194E+02 -0.86774007707E+01 -0.14651968004E+02  0.21765849780E+02  0.00000000000E+00 0.  1.
         12    1    3    3    0    0  0.18168563877E+01 -0.70040544548E+01 -0.46610841314E+03  0.46616457453E+03  0.00000000000E+00 0. -1.
         11    1    5    5    0    0 -0.56119902285E+02  0.30872605212E+02  0.51299430406E+02  0.82062127349E+02  0.00000000000E+00 0. -1.
        -12    1    5    5    0    0 -0.21235545243E+02 -0.43096225963E+02  0.41271331950E+02  0.63336844845E+02  0.00000000000E+00 0.  1.
          5    1    4    4  501    0  0.49313113321E+02  0.29342767648E+02  0.85743077719E+01  0.58170201241E+02  0.41800000000E+01 0. -1.
         -5    1    4    4    0  501  0.12669122625E+02 -0.14376916713E+01 -0.12504952405E+03  0.12576736258E+03  0.41800000000E+01 0. -1.
</event>
<event>
11    1  0.7577197E-009  0.1453138E+03  0.7561462E-02  0.1101766E+00
         22   -1    0    0    0    0  0.00000000000E+00  0.00000000000E+00  0.28622688519E+03  0.28622688519E+03  0.00000000000E+00 0.  1.
         22   -1    0    0    0    0 -0.00000000000E+00 -0.00000000000E+00 -0.25465669720E+03  0.25465669720E+03  0.00000000000E+00 0.  1.
         24    2    1    2    0    0  0.26228573076E+02 -0.10496100572E+02 -0.12441089609E+03  0.15070438765E+03  0.80222410947E+02 0.  0.
         25    2    1    2    0    0 -0.96673872255E+02  0.12943382834E+01 -0.42872022292E+02  0.16380424358E+03  0.12508519909E+03 0.  0.
        -24    2    1    2    0    0  0.70445299179E+02  0.92017622887E+01  0.19885310638E+03  0.22637495116E+03  0.81583380605E+02 0.  0.
        -13    1    3    3    0    0  0.40820961588E+02  0.22695394337E+02 -0.86127961400E+02  0.97976821565E+02  0.00000000000E+00 0.  1.
         14    1    3    3    0    0 -0.14592388512E+02 -0.33191494909E+02 -0.38282934691E+02  0.52727566086E+02  0.00000000000E+00 0. -1.
         11    1    5    5    0    0 -0.41450200780E+01 -0.17340671742E+02  0.75984204028E+01  0.19380817333E+02  0.00000000000E+00 0. -1.
        -12    1    5    5    0    0  0.74590319257E+02  0.26542434030E+02  0.19125468598E+03  0.20699413383E+03  0.00000000000E+00 0.  1.
          5    1    4    4  501    0 -0.11106627788E+03 -0.86119139856E+01 -0.69731247273E+02  0.13149069317E+03  0.41800000000E+01 0.  1.
         -5    1    4    4    0  501  0.14392405620E+02  0.99062522690E+01  0.26859224981E+02  0.32313550411E+02  0.41800000000E+01 0.  1.
</event>
<event>
11    1  0.7577197E-009  0.1472256E+03  0.7561462E-02  0.1099748E+00
         22   -1    0    0    0    0  0.00000000000E+00  0.00000000000E+00  0.14123424521E+04  0.14123424521E+04  0.00000000000E+00 0.  1.
         22   -1    0    0    0    0 -0.00000000000E+00 -0.00000000000E+00 -0.72914653567E+03  0.72914653567E+03  0.00000000000E+00 0.  1.
        -24    2    1    2    0    0 -0.26545883865E+02 -0.72837678122E+02 -0.71184742042E+03  0.72045360536E+03  0.79477268509E+02 0.  0.
         25    2    1    2    0    0  0.56645787604E+02  0.89298339176E+02  0.62574586523E+03  0.64682245231E+03  0.12505382174E+03 0.  0.
         24    2    1    2    0    0 -0.30099903740E+02 -0.16460661053E+02  0.76929747159E+03  0.77421293006E+03  0.80063123274E+02 0.  0.
        -11    1    5    5    0    0  0.62762324362E+01 -0.31731591388E+00  0.60956313642E+03  0.60959552907E+03  0.00000000000E+00 0.  1.
         12    1    5    5    0    0 -0.36376136176E+02 -0.16143345140E+02  0.15973433517E+03  0.16461740099E+03  0.00000000000E+00 0. -1.
         13    1    3    3    0    0 -0.15981416800E+02  0.13965784822E+02 -0.88874150988E+02  0.91373210201E+02  0.00000000000E+00 0. -1.
        -14    1    3    3    0    0 -0.10564467065E+02 -0.86803462944E+02 -0.62297326944E+03  0.62908039516E+03  0.00000000000E+00 0.  1.
          5    1    4    4  501    0  0.72790596011E+02  0.33554698641E+02  0.17733559737E+03  0.19465296084E+03  0.41800000000E+01 0.  1.
         -5    1    4    4    0  501 -0.16144808406E+02  0.55743640535E+02  0.44841026786E+03  0.45216949148E+03  0.41800000000E+01 0.  1.
</event>
<event>
11    1  0.7577197E-009  0.1521668E+03  0.7561462E-02  0.1094685E+00
         22   -1    0    0    0    0  0.00000000000E+00  0.00000000000E+00  0.21028769224E+03  0.21028769224E+03  0.00000000000E+00 0. -1.
         22   -1    0    0    0    0 -0.00000000000E+00 -0.00000000000E+00 -0.11406812887E+04  0.11406812887E+04  0.00000000000E+00 0. -1.
        -24    2    1    2    0    0 -0.82370500670E+02 -0.19441593384E+02 -0.72619087240E+03  0.73553481580E+03  0.80594088865E+02 0.  0.
         25    2    1    2    0    0  0.98903415465E+02 -0.22711451802E+02 -0.38212592672E+03  0.41468785236E+03  0.12509234745E+03 0.  0.
         24    2    1    2    0    0 -0.16532914795E+02  0.42153045186E+02  0.17792320268E+03  0.20074631275E+03  0.81192361338E+02 0.  0.
        -11    1    5    5    0    0  0.15506219398E+02  0.73873801236E+01  0.55465480955E+00  0.17184989586E+02  0.00000000000E+00 0.  1.
         12    1    5    5    0    0 -0.32039134193E+02  0.34765665063E+02  0.17736854787E+03  0.18356132317E+03  0.00000000000E+00 0. -1.
         11    1    3    3    0    0 -0.68702626082E+02  0.61213880050E+01 -0.65568000257E+03  0.65929795085E+03  0.00000000000E+00 0. -1.
        -12    1    3    3    0    0 -0.13667874588E+02 -0.25562981389E+02 -0.70510869828E+02  0.76236864948E+02  0.00000000000E+00 0.  1.
          5    1    4    4  501    0  0.11561115850E+03 -0.10852776013E+02 -0.19951816997E+03  0.23088675853E+03  0.41800000000E+01 0. -1.
         -5    1    4    4    0  501 -0.16707743032E+02 -0.11858675790E+02 -0.18260775675E+03  0.18380109383E+03  0.41800000000E+01 0. -1.
</event>
<event>
11    1  0.7577197E-009  0.1553103E+03  0.7561462E-02  0.1091573E+00
         22   -1    0    0    0    0  0.00000000000E+00  0.00000000000E+00  0.19867436396E+03  0.19867436396E+03  0.00000000000E+00 0. -1.
         22   -1    0    0    0    0 -0.00000000000E+00 -0.00000000000E+00 -0.25411188961E+04  0.25411188961E+04  0.00000000000E+00 0. -1.
         24    2    1    2    0    0 -0.96945291794E+01  0.49993632195E+02 -0.24049376211E+04  0.24069152426E+04  0.83202622741E+02 0.  0.
         25    2    1    2    0    0 -0.84204819241E+02 -0.35729278976E+02 -0.52575879225E+02  0.16364096521E+03  0.12508840658E+03 0.  0.
        -24    2    1    2    0    0  0.93899348421E+02 -0.14264353219E+02  0.11506896819E+03  0.16923705226E+03  0.79873356066E+02 0.  0.
        -11    1    3    3    0    0  0.30997577312E+02  0.36367657206E+02 -0.81580084643E+03  0.81719916625E+03  0.00000000000E+00 0.  1.
         12    1    3    3    0    0 -0.40692106491E+02  0.13625974989E+02 -0.15891367747E+04  0.15897160763E+04  0.00000000000E+00 0. -1.
         11    1    5    5    0    0  0.28535571920E+02 -0.10759503762E+02  0.96488675479E+02  0.10119343003E+03  0.00000000000E+00 0. -1.
        -12    1    5    5    0    0  0.65363776501E+02 -0.35048494568E+01  0.18580292713E+02  0.68043622225E+02  0.00000000000E+00 0.  1.
          5    1    4    4  501    0 -0.11053876983E+03 -0.39581690759E+02 -0.16535205439E+02  0.11864406980E+03  0.41800000000E+01 0.  1.
         -5    1    4    4    0  501  0.26333950590E+02  0.38524117832E+01 -0.36040673786E+02  0.44996895417E+02  0.41800000000E+01 0.  1.
</event>
<event>
11    1  0.7577197E-009  0.1278913E+03  0.7561462E-02  0.1121887E+00
         22   -1    0    0    0    0  0.00000000000E+00  0.00000000000E+00  0.10974849827E+04  0.10974849827E+04  0.00000000000E+00 0. -1.
         22   -1    0    0    0    0 -0.00000000000E+00 -0.00000000000E+00 -0.12342450258E+04  0.12342450258E+04  0.00000000000E+00 0.  1.
        -24    2    1    2    0    0  0.10961700970E+02  0.97374760078E+01 -0.11893734939E+04  0.11920753986E+04  0.78863619747E+02 0.  0.
         25    2    1    2    0    0  0.73466676796E+01  0.10408876755E+02  0.52987722274E+02  0.13644573536E+03  0.12508965483E+03 0.  0.
         24    2    1    2    0    0 -0.18308368649E+02 -0.20146352763E+02  0.99962572851E+03  0.10032088745E+04  0.80220801306E+02 0.  0.
        -11    1    5    5    0    0 -0.22760939638E+02 -0.15365181976E+02  0.10416063669E+03  0.10771994906E+03  0.00000000000E+00 0.  1.
         12    1    5    5    0    0  0.44525709889E+01 -0.47811707871E+01  0.89546509182E+03  0.89548892548E+03  0.00000000000E+00 0. -1.
         13    1    3    3    0    0  0.38297126867E+02  0.13191314037E+02 -0.36482702207E+03  0.36706870845E+03  0.00000000000E+00 0. -1.
        -14    1    3    3    0    0 -0.27335425897E+02 -0.34538380293E+01 -0.82454647186E+03  0.82500669013E+03  0.00000000000E+00 0.  1.
          5    1    4    4  501    0 -0.15845088416E+01 -0.46732951105E+02 -0.12889279095E+02  0.48683521882E+02  0.41800000000E+01 0.  1.
         -5    1    4    4    0  501  0.89311765212E+01  0.57141827859E+02  0.65877001369E+02  0.87762213478E+02  0.41800000000E+01 0.  1.
</event>
<event>
11    1  0.7577197E-009  0.2013848E+03  0.7561462E-02  0.1053549E+00
         22   -1    0    0    0    0  0.00000000000E+00  0.00000000000E+00  0.21904940371E+03  0.21904940371E+03  0.00000000000E+00 0. -1.
         22   -1    0    0    0    0 -0.00000000000E+00 -0.00000000000E+00 -0.17286818798E+04  0.17286818798E+04  0.00000000000E+00 0.  1.
        -24    2    1    2    0    0  0.30689155267E+01 -0.35413636534E+01 -0.15225645078E+04  0.15247200077E+04  0.80910209636E+02 0.  0.
         25    2    1    2    0    0  0.72269059675E+02  0.14174581236E+03 -0.86570684017E+02  0.22012985763E+03  0.12509188055E+03 0.  0.
         24    2    1    2    0    0 -0.75337975201E+02 -0.13820444871E+03  0.99502715672E+02  0.20288141822E+03  0.80522042209E+02 0.  0.
        -13    1    5    5    0    0 -0.14318875615E+02 -0.23877323305E+02 -0.13498752736E+02  0.30941446193E+02  0.00000000000E+00 0.  1.
         14    1    5    5    0    0 -0.61019099586E+02 -0.11432712541E+03  0.11300146841E+03  0.17193997203E+03  0.00000000000E+00 0. -1.
         11    1    3    3    0    0  0.10360136598E+01  0.15673196627E+02 -0.59818289050E+02  0.61846181141E+02  0.00000000000E+00 0. -1.
        -12    1    3    3    0    0  0.20329018668E+01 -0.19214560280E+02 -0.14627462187E+04  0.14628738266E+04  0.00000000000E+00 0.  1.
          5    1    4    4  501    0  0.10032169624E+03  0.11795706268E+03 -0.95594774225E+02  0.18202786773E+03  0.41800000000E+01 0.  1.
         -5    1    4    4    0  501 -0.28052636568E+02  0.23788749686E+02  0.90240902081E+01  0.38101989897E+02  0.41800000000E+01 0.  1.
</event>
<event>
11    1  0.7577197E-009  0.1641207E+03  0.7561462E-02  0.1083264E+00
         22   -1    0    0    0    0  0.00000000000E+00  0.00000000000E+00  0.30690973436E+04  0.30690973436E+04  0.00000000000E+00 0.  1.
         22   -1    0    0    0    0 -0.00000000000E+00 -0.00000000000E+00 -0.22246650940E+03  0.22246650940E+03  0.00000000000E+00 0. -1.
        -24    2    1    2    0    0 -0.82183124119E+02 -0.69197162802E+02 -0.19578119870E+03  0.23724880110E+03  0.80089965836E+02 0.  0.
         25    2    1    2    0    0  0.33788793953E+02  0.39852885101E+02  0.95235056112E+03  0.96195016935E+03  0.12508637815E+03 0.  0.
         24    2    1    2    0    0  0.48394330166E+02  0.29344277701E+02  0.20900614718E+04  0.20923648826E+04  0.80191945141E+02 0.  0.
        -13    1    5    5    0    0  0.30837468170E+02  0.43064979259E+01  0.18622340865E+04  0.18624943727E+04  0.00000000000E+00 0.  1.
         14    1    5    5    0    0  0.17556861996E+02  0.25037779775E+02  0.22782738526E+03  0.22987050984E+03  0.00000000000E+00 0. -1.
         11    1    3    3    0    0  0.12009709835E+01 -0.21318931522E+02 -0.97288492023E+02  0.99604165840E+02  0.00000000000E+00 0. -1.
        -12    1    3    3    0    0 -0.83384095103E+02 -0.47878231280E+02 -0.98492706681E+02  0.13764463526E+03  0.00000000000E+00 0.  1.
          5    1    4    4  501    0  0.12591829095E+02  0.67305163924E+02  0.26574926196E+03  0.27446071100E+03  0.41800000000E+01 0.  1.
         -5    1    4    4    0  501  0.21196964858E+02 -0.27452278823E+02  0.68660129917E+03  0.68748945836E+03  0.41800000000E+01 0.  1.
</event>
<event>
11    1  0.7577197E-009  0.1437749E+03  0.7561462E-02  0.1103415E+00
         22   -1    0    0    0    0  0.00000000000E+00  0.00000000000E+00  0.17597408445E+04  0.17597408445E+04  0.00000000000E+00 0.  1.
         22   -1    0    0    0    0 -0.00000000000E+00 -0.00000000000E+00 -0.41046028903E+03  0.41046028903E+03  0.00000000000E+00 0.  1.
         24    2    1    2    0    0  0.59367129482E+02  0.50368884428E+02 -0.39126247939E+03  0.40736924477E+03  0.82473591074E+02 0.  0.
         25    2    1    2    0    0  0.13553310330E+02 -0.80188882292E+02  0.72364111950E+03  0.73886290101E+03  0.12509183668E+03 0.  0.
        -24    2    1    2    0    0 -0.72920439812E+02  0.29819997865E+02  0.10169019154E+04  0.10239689878E+04  0.90644137013E+02 0.  0.
        -11    1    3    3    0    0  0.51046285653E+02  0.66243397344E+02 -0.22318679736E+03  0.23834063331E+03  0.00000000000E+00 0.  1.
         12    1    3    3    0    0  0.83208438286E+01 -0.15874512916E+02 -0.16807568203E+03  0.16902861146E+03  0.00000000000E+00 0. -1.
         11    1    5    5    0    0  0.35493467967E+01 -0.22177015856E+02  0.10411583785E+03  0.10651068297E+03  0.00000000000E+00 0. -1.
        -12    1    5    5    0    0 -0.76469786608E+02  0.51997013720E+02  0.91278607753E+03  0.91745830479E+03  0.00000000000E+00 0.  1.
          5    1    4    4  501    0 -0.33751551076E+02 -0.15977105961E+02  0.49962691994E+03  0.50103788943E+03  0.41800000000E+01 0.  1.
         -5    1    4    4    0  501  0.47304861406E+02 -0.64211776331E+02  0.22401419955E+03  0.23782501158E+03  0.41800000000E+01 0.  1.
</event>
<event>
11    1  0.7577197E-009  0.2740003E+03  0.7561462E-02  0.1011838E+00
         22   -1    0    0    0    0  0.00000000000E+00  0.00000000000E+00  0.27195670243E+03  0.27195670243E+03  0.00000000000E+00 0.  1.
         22   -1    0    0    0    0 -0.00000000000E+00 -0.00000000000E+00 -0.16608570425E+04  0.16608570425E+04  0.00000000000E+00 0.  1.
         24    2    1    2    0    0  0.36080646096E+02 -0.53459033230E+02 -0.13362640883E+04  0.13403638857E+04  0.82546660259E+02 0.  0.
         25    2    1    2    0    0  0.19845380499E+03 -0.10887379826E+03  0.75148224900E+02  0.26931810689E+03  0.12509024875E+03 0.  0.
        -24    2    1    2    0    0 -0.23453445108E+03  0.16233283149E+03 -0.12778447670E+03  0.32313175239E+03  0.82017680948E+02 0.  0.
        -13    1    3    3    0    0  0.48258425538E+02 -0.56793764399E+02 -0.69664675242E+03  0.70062194154E+03  0.00000000000E+00 0.  1.
         14    1    3    3    0    0 -0.12177779442E+02  0.33347311696E+01 -0.63961733584E+03  0.63974194411E+03  0.00000000000E+00 0. -1.
         13    1    5    5    0    0 -0.17437826563E+03  0.76995036403E+02 -0.99163281265E+02  0.21487059246E+03  0.00000000000E+00 0. -1.
        -14    1    5    5    0    0 -0.60156185455E+02  0.85337795091E+02 -0.28621195437E+02  0.10826115992E+03  0.00000000000E+00 0.  1.
          5    1    4    4  501    0  0.30927876912E+02 -0.32100831718E+02  0.72215149886E+02  0.84967624660E+02  0.41800000000E+01 0. -1.
         -5    1    4    4    0  501  0.16752592807E+03 -0.76772966547E+02  0.29330750141E+01  0.18435048223E+03  0.41800000000E+01 0. -1.
</event>
<event>
11    1  0.7577197E-009  0.1922493E+03  0.7561462E-02  0.1060144E+00
         22   -1    0    0    0    0  0.00000000000E+00  0.00000000000E+00  0.58618084760E+03  0.58618084760E+03  0.00000000000E+00 0.  1.
         22   -1    0    0    0    0 -0.00000000000E+00 -0.00000000000E+00 -0.66671880826E+03  0.66671880826E+03  0.00000000000E+00 0. -1.
         24    2    1    2    0    0 -0.27361495710E+02  0.47537445439E+02 -0.59426235147E+03  0.60244186073E+03  0.82340712992E+02 0.  0.
         25    2    1    2    0    0 -0.19374964254E+02 -0.17544041312E+03  0.18304136253E+03  0.28338372505E+03  0.12508983744E+03 0.  0.
        -24    2    1    2    0    0  0.46736459964E+02  0.12790296768E+03  0.33068302828E+03  0.36707407008E+03  0.82756521790E+02 0.  0.
        -13    1    3    3    0    0  0.17808992059E+02  0.50182918144E+02 -0.34932073710E+03  0.35335600015E+03  0.00000000000E+00 0.  1.
         14    1    3    3    0    0 -0.45170487769E+02 -0.26454727051E+01 -0.24494161437E+03  0.24908586059E+03  0.00000000000E+00 0. -1.
         13    1    5    5    0    0  0.18651180881E+02  0.65785702378E+01  0.12555748087E+03  0.12710556690E+03  0.00000000000E+00 0. -1.
        -14    1    5    5    0    0  0.28085279084E+02  0.12132439744E+03  0.20512554740E+03  0.23996850317E+03  0.00000000000E+00 0.  1.
          5    1    4    4  501    0  0.29984614522E+02 -0.61810377671E+02  0.13290752108E+03  0.14967124458E+03  0.41800000000E+01 0. -1.
         -5    1    4    4    0  501 -0.49359578776E+02 -0.11363003545E+03  0.50133841451E+02  0.13371248046E+03  0.41800000000E+01 0. -1.
</event>
<event>
11    1  0.7577197E-009  0.1485803E+03  0.7561462E-02  0.1098338E+00
         22   -1    0    0    0    0  0.00000000000E+00  0.00000000000E+00  0.39736889379E+04  0.39736889379E+04  0.00000000000E+00 0.  1.
         22   -1    0    0    0    0 -0.00000000000E+00 -0.00000000000E+00 -0.20617374536E+03  0.20617374536E+03  0.00000000000E+00 0.  1.
         24    2    1    2    0    0  0.67353816585E+02  0.37817919536E+02 -0.15031182045E+03  0.18765339675E+03  0.81568512917E+02 0.  0.
         25    2    1    2    0    0 -0.13251793358E+03  0.32831852416E+01  0.19196026016E+03  0.26470256256E+03  0.12508766175E+03 0.  0.
        -24    2    1    2    0    0  0.65164116992E+02 -0.41101104777E+02  0.37258667528E+04  0.37275067240E+04  0.79294730387E+02 0.  0.
        -11    1    3    3    0    0  0.70268282723E+02 -0.31364556499E+01 -0.10629408046E+03  0.12745940707E+03  0.00000000000E+00 0.  1.
         12    1    3    3    0    0 -0.29144661375E+01  0.40954375186E+02 -0.44017739992E+02  0.60193989681E+02  0.00000000000E+00 0. -1.
         13    1    5    5    0    0 -0.77268881998E+01  0.60503212649E+01  0.79051468541E+02  0.79658306956E+02  0.00000000000E+00 0. -1.
        -14    1    5    5    0    0  0.72891005191E+02 -0.47151426042E+02  0.36468152843E+04  0.36478484170E+04  0.00000000000E+00 0.  1.
          5    1    4    4  501    0 -0.65333668168E+02  0.54803485164E+02  0.14372723313E+03  0.16717326379E+03  0.41800000000E+01 0.  1.
         -5    1    4    4    0  501 -0.67184265409E+02 -0.51520299923E+02  0.48233027022E+02  0.97529298769E+02  0.41800000000E+01 0.  1.
</event>
<event>
11    1  0.7577197E-009  0.1706476E+03  0.7561462E-02  0.1077469E+00
         22   -1    0    0    0    0  0.00000000000E+00  0.00000000000E+00  0.67008432638E+03  0.67008432638E+03  0.00000000000E+00 0. -1.
         22   -1    0    0    0    0 -0.00000000000E+00 -0.00000000000E+00 -0.96320237733E+02  0.96320237733E+02  0.00000000000E+00 0. -1.
        -24    2    1    2    0    0 -0.63108221195E+02  0.10735201436E+03  0.16488514869E+02  0.14925848694E+03  0.80617133603E+02 0.  0.
         25    2    1    2    0    0  0.58593923429E+02 -0.70095821991E+02  0.22708214052E+03  0.27489400977E+03  0.12511493094E+03 0.  0.
         24    2    1    2    0    0  0.45142977661E+01 -0.37256192373E+02  0.33019343326E+03  0.34225206740E+03  0.81855797089E+02 0.  0.
        -13    1    5    5    0    0 -0.37764114627E+02 -0.89846099390E+01  0.15847746105E+03  0.16316236463E+03  0.00000000000E+00 0.  1.
         14    1    5    5    0    0  0.42278412393E+02 -0.28271582434E+02  0.17171597221E+03  0.17908970277E+03  0.00000000000E+00 0. -1.
         11    1    3    3    0    0 -0.29675689348E+02  0.87893304765E+02  0.43114860556E+02  0.10229746215E+03  0.00000000000E+00 0. -1.
        -12    1    3    3    0    0 -0.33432531847E+02  0.19458709599E+02 -0.26626345687E+02  0.46961024793E+02  0.00000000000E+00 0.  1.
          5    1    4    4  501    0 -0.15303382811E+02  0.16612026868E+02  0.25923337156E+01  0.23115915648E+02  0.41800000000E+01 0. -1.
         -5    1    4    4    0  501  0.73897306240E+02 -0.86707848859E+02  0.22448980680E+03  0.25177809413E+03  0.41800000000E+01 0. -1.
</event>
<event>
11    1  0.7577197E-009  0.1656529E+03  0.7561462E-02  0.1081878E+00
         22   -1    0    0    0    0  0.00000000000E+00  0.00000000000E+00  0.29917431050E+03  0.29917431050E+03  0.00000000000E+00 0. -1.
         22   -1    0    0    0    0 -0.00000000000E+00 -0.00000000000E+00 -0.38276949831E+03  0.38276949831E+03  0.00000000000E+00 0.  1.
         24    2    1    2    0    0  0.89402402328E+02  0.33547779088E+02 -0.11850321222E+03  0.17212432060E+03  0.80408503356E+02 0.  0.
         25    2    1    2    0    0 -0.12314442317E+03 -0.26868120272E+02 -0.19506060830E+03  0.26378526007E+03  0.12509027809E+03 0.  0.
        -24    2    1    2    0    0  0.33742020847E+02 -0.66796588161E+01  0.22996863270E+03  0.24603422815E+03  0.80399798391E+02 0.  0.
        -11    1    3    3    0    0  0.59014694889E+02  0.53666835462E+02 -0.10787163454E+03  0.13416092195E+03  0.00000000000E+00 0.  1.
         12    1    3    3    0    0  0.30387707439E+02 -0.20119056374E+02 -0.10631577679E+02  0.37963398645E+02  0.00000000000E+00 0. -1.
         13    1    5    5    0    0  0.23323019974E+02  0.24024203337E+02  0.19688308824E+03  0.19970997983E+03  0.00000000000E+00 0. -1.
        -14    1    5    5    0    0  0.10419000873E+02 -0.30703862153E+02  0.33085544456E+02  0.46324248318E+02  0.00000000000E+00 0.  1.
          5    1    4    4  501    0 -0.50174526478E+02  0.16153918921E+02 -0.19965879548E+01  0.52913995949E+02  0.41800000000E+01 0.  1.
         -5    1    4    4    0  501 -0.72969896696E+02 -0.43022039193E+02 -0.19306402034E+03  0.21087126412E+03  0.41800000000E+01 0.  1.
</event>
<event>
11    1  0.7577197E-009  0.1374886E+03  0.7561462E-02  0.1110396E+00
         22   -1    0    0    0    0  0.00000000000E+00  0.00000000000E+00  0.11764378421E+03  0.11764378421E+03  0.00000000000E+00 0.  1.
         22   -1    0    0    0    0 -0.00000000000E+00 -0.00000000000E+00 -0.19942013344E+04  0.19942013344E+04  0.00000000000E+00 0.  1.
         24    2    1    2    0    0  0.11011897295E+02  0.85508091091E+00 -0.18668552096E+04  0.18692371250E+04  0.93685979836E+02 0.  0.
         25    2    1    2    0    0  0.42359868066E+02 -0.28025231212E+02 -0.34243560434E+02  0.13931700520E+03  0.12512727321E+03 0.  0.
        -24    2    1    2    0    0 -0.53371765361E+02  0.27170150301E+02  0.24541219865E+02  0.10329098840E+03  0.80498412446E+02 0.  0.
        -13    1    3    3    0    0  0.33951308353E+02  0.19161200842E+02 -0.16434622309E+04  0.16439245564E+04  0.00000000000E+00 0.  1.
         14    1    3    3    0    0 -0.22939411058E+02 -0.18306119931E+02 -0.22339297874E+03  0.22531256858E+03  0.00000000000E+00 0. -1.
         11    1    5    5    0    0 -0.24471625737E+02 -0.27805501531E+02  0.15826441576E+01  0.37074400118E+02  0.00000000000E+00 0. -1.
        -12    1    5    5    0    0 -0.28900139624E+02  0.54975651832E+02  0.22958575707E+02  0.66216588278E+02  0.00000000000E+00 0.  1.
          5    1    4    4  501    0  0.79268818464E+02  0.10580890649E+02 -0.30215528654E+02  0.85591771797E+02  0.41800000000E+01 0. -1.
         -5    1    4    4    0  501 -0.36908950398E+02 -0.38606121861E+02 -0.40280317807E+01  0.53725233407E+02  0.41800000000E+01 0. -1.
</event>
<event>
11    1  0.7577197E-009  0.2539740E+03  0.7561462E-02  0.1021803E+00
         22   -1    0    0    0    0  0.00000000000E+00  0.00000000000E+00  0.21111860365E+03  0.21111860365E+03  0.00000000000E+00 0.  1.
         22   -1    0    0    0    0 -0.00000000000E+00 -0.00000000000E+00 -0.73860785421E+03  0.73860785421E+03  0.00000000000E+00 0.  1.
         24    2    1    2    0    0 -0.18597472715E+03 -0.11051772728E+03 -0.53960723693E+03  0.58739706701E+03  0.84015337928E+02 0.  0.
         25    2    1    2    0    0  0.20671188487E+03  0.13931071432E+03  0.51026063156E+01  0.27894782734E+03  0.12509426572E+03 0.  0.
        -24    2    1    2    0    0 -0.20737157722E+02 -0.28792987037E+02  0.70153800522E+01  0.83381563504E+02  0.75127915998E+02 0.  0.
        -13    1    3    3    0    0 -0.13691979336E+03 -0.41740299035E+02 -0.28127354991E+03  0.31560116011E+03  0.00000000000E+00 0.  1.
         14    1    3    3    0    0 -0.49054933783E+02 -0.68777428245E+02 -0.25833368701E+03  0.27179590690E+03  0.00000000000E+00 0. -1.
         11    1    5    5    0    0 -0.25835216463E+01 -0.52511667397E+02 -0.51760387202E+00  0.52577730178E+02  0.00000000000E+00 0. -1.
        -12    1    5    5    0    0 -0.18153636075E+02  0.23718680360E+02  0.75329839242E+01  0.30803833326E+02  0.00000000000E+00 0.  1.
          5    1    4    4  501    0  0.25267239892E+02  0.80339304823E+02 -0.19464203354E+02  0.86539961425E+02  0.41800000000E+01 0.  1.
         -5    1    4    4    0  501  0.18144464498E+03  0.58971409494E+02  0.24566809670E+02  0.19240786591E+03  0.41800000000E+01 0.  1.
</event>
<event>
11    1  0.7577197E-009  0.1318809E+03  0.7561462E-02  0.1116979E+00
         22   -1    0    0    0    0  0.00000000000E+00  0.00000000000E+00  0.61850916101E+03  0.61850916101E+03  0.00000000000E+00 0.  1.
         22   -1    0    0    0    0 -0.00000000000E+00 -0.00000000000E+00 -0.10656208543E+04  0.10656208543E+04  0.00000000000E+00 0. -1.
        -24    2    1    2    0    0  0.94419868317E+01 -0.13388277459E+02 -0.93895560175E+03  0.94241965106E+03  0.79049222421E+02 0.  0.
         25    2    1    2    0    0 -0.41317072055E+02 -0.13619642269E+02 -0.85307482099E+02  0.15754455905E+03  0.12510126493E+03 0.  0.
         24    2    1    2    0    0  0.31875085223E+02  0.27007919728E+02  0.57715139054E+03  0.58416580521E+03  0.80003197330E+02 0.  0.
        -13    1    5    5    0    0  0.40806662949E+02  0.40899521935E+02  0.54468279339E+03  0.54773834999E+03  0.00000000000E+00 0.  1.
         14    1    5    5    0    0 -0.89315777265E+01 -0.13891602207E+02  0.32468597154E+02  0.36427455219E+02  0.00000000000E+00 0. -1.
         13    1    3    3    0    0  0.11958780489E+02 -0.46244292413E+02 -0.54788882307E+03  0.54996700761E+03  0.00000000000E+00 0. -1.
        -14    1    3    3    0    0 -0.25167936577E+01  0.32856014954E+02 -0.39106677868E+03  0.39245264345E+03  0.00000000000E+00 0.  1.
          5    1    4    4  501    0  0.41026439977E+01  0.41515094519E+02  0.51117844951E+01  0.42236684309E+02  0.41800000000E+01 0.  1.
         -5    1    4    4    0  501 -0.45419716052E+02 -0.55134736788E+02 -0.90419266594E+02  0.11530787475E+03  0.41800000000E+01 0.  1.
</event>
<event>
11    1  0.7577197E-009  0.1572426E+03  0.7561462E-02  0.1089700E+00
         22   -1    0    0    0    0  0.00000000000E+00  0.00000000000E+00  0.84530668071E+03  0.84530668071E+03  0.00000000000E+00 0. -1.
         22   -1    0    0    0    0 -0.00000000000E+00 -0.00000000000E+00 -0.20633666805E+03  0.20633666805E+03  0.00000000000E+00 0. -1.
        -24    2    1    2    0    0 -0.27212328135E+02 -0.91604607092E+02 -0.15805654620E+03  0.20427697768E+03  0.87265668906E+02 0.  0.
         25    2    1    2    0    0  0.71330048783E+01  0.93482285884E+02  0.26083750646E+03  0.30409478855E+03  0.12509043974E+03 0.  0.
         24    2    1    2    0    0  0.20079323257E+02 -0.18776787928E+01  0.53618905239E+03  0.54327158253E+03  0.85080006918E+02 0.  0.
        -11    1    5    5    0    0  0.25378854856E+02 -0.24856487281E+02  0.94546119629E+02  0.10099950480E+03  0.00000000000E+00 0.  1.
         12    1    5    5    0    0 -0.52995315989E+01  0.22978808488E+02  0.44164293276E+03  0.44227207773E+03  0.00000000000E+00 0. -1.
         13    1    3    3    0    0  0.12365173875E+02 -0.29047512106E+02 -0.11365089477E+03  0.11795414943E+03  0.00000000000E+00 0. -1.
        -14    1    3    3    0    0 -0.39577502011E+02 -0.62557094985E+02 -0.44405651426E+02  0.86322828249E+02  0.00000000000E+00 0.  1.
          5    1    4    4  501    0  0.37035357130E+02  0.11371348760E+03  0.20795081744E+03  0.23992371666E+03  0.41800000000E+01 0.  1.
         -5    1    4    4    0  501 -0.29902352252E+02 -0.20231201711E+02  0.52886689018E+02  0.64171071895E+02  0.41800000000E+01 0.  1.
</event>
<event>
11    1  0.7577197E-009  0.1342463E+03  0.7561462E-02  0.1114159E+00
         22   -1    0    0    0    0  0.00000000000E+00  0.00000000000E+00  0.35585037392E+03  0.35585037392E+03  0.00000000000E+00 0.  1.
         22   -1    0    0    0    0 -0.00000000000E+00 -0.00000000000E+00 -0.31212869212E+03  0.31212869212E+03  0.00000000000E+00 0. -1.
        -24    2    1    2    0    0 -0.43522057886E+01  0.14821842443E+02 -0.15733758471E+03  0.17736863862E+03  0.80410756088E+02 0.  0.
         25    2    1    2    0    0  0.48795012305E+02 -0.33247521012E+02 -0.10009923563E+03  0.17074046846E+03  0.12508437039E+03 0.  0.
         24    2    1    2    0    0 -0.44442806516E+02  0.18425678569E+02  0.30115850214E+03  0.31986995896E+03  0.96465945056E+02 0.  0.
        -11    1    5    5    0    0  0.25244597746E+02  0.17783626846E+02  0.15371686146E+03  0.15678782031E+03  0.00000000000E+00 0.  1.
         12    1    5    5    0    0 -0.69687404262E+02  0.64205172324E+00  0.14744164067E+03  0.16308213865E+03  0.00000000000E+00 0. -1.
         13    1    3    3    0    0  0.14635870493E+02 -0.29629309243E+02 -0.73655235334E+02  0.80729166746E+02  0.00000000000E+00 0. -1.
        -14    1    3    3    0    0 -0.18988076281E+02  0.44451151686E+02 -0.83682349380E+02  0.96639471877E+02  0.00000000000E+00 0.  1.
          5    1    4    4  501    0  0.31870883025E+02  0.20804666961E+02  0.15997351510E+02  0.41496686705E+02  0.41800000000E+01 0.  1.
         -5    1    4    4    0  501  0.16924129279E+02 -0.54052187973E+02 -0.11609658714E+03  0.12924378175E+03  0.41800000000E+01 0.  1.
</event>
<event>
11    1  0.9055626E-009  0.2188443E+03  0.7561462E-02  0.1041944E+00
         22   -1    0    0    0    0  0.00000000000E+00  0.00000000000E+00  0.50624253326E+03  0.50624253326E+03  0.00000000000E+00 0. -1.
         22   -1    0    0    0    0 -0.00000000000E+00 -0.00000000000E+00 -0.32510393050E+04  0.32510393050E+04  0.00000000000E+00 0.  1.
        -24    2    1    2    0    0  0.92082763287E+01 -0.60633105980E+01 -0.19069376259E+04  0.19084818470E+04  0.75962458504E+02 0.  0.
         25    2    1    2    0    0  0.60816252268E+02  0.17138686050E+03 -0.13146895730E+04  0.13330895998E+04  0.12508851027E+03 0.  0.
         24    2    1    2    0    0 -0.70024528597E+02 -0.16532354990E+03  0.47683042723E+03  0.51571039134E+03  0.79715999976E+02 0.  0.
        -13    1    5    5    0    0 -0.12766190245E+02 -0.94820888139E+02  0.32497317806E+03  0.33876473089E+03  0.00000000000E+00 0.  1.
         14    1    5    5    0    0 -0.57258338352E+02 -0.70502661760E+02  0.15185724917E+03  0.17694566045E+03  0.00000000000E+00 0. -1.
         11    1    3    3    0    0 -0.12392635384E+02 -0.51023480483E-01 -0.53811701467E+02  0.55220279155E+02  0.00000000000E+00 0. -1.
        -12    1    3    3    0    0  0.21600911713E+02 -0.60122871175E+01 -0.18531259245E+04  0.18532615679E+04  0.00000000000E+00 0.  1.
          5    1    4    4  501    0 -0.32464734913E+02  0.65159999902E+02 -0.30803930307E+03  0.31655247469E+03  0.41800000000E+01 0.  1.
         -5    1    4    4    0  501  0.93280987181E+02  0.10622686059E+03 -0.10066502699E+04  0.10165371252E+04  0.41800000000E+01 0.  1.
</event>
<event>
11    1  0.7577197E-009  0.1582492E+03  0.7561462E-02  0.1088736E+00
         22   -1    0    0    0    0  0.00000000000E+00  0.00000000000E+00  0.11740889670E+03  0.11740889670E+03  0.00000000000E+00 0.  1.
         22   -1    0    0    0    0 -0.00000000000E+00 -0.00000000000E+00 -0.15263776313E+04  0.15263776313E+04  0.00000000000E+00 0.  1.
        -24    2    1    2    0    0  0.79642646020E+02  0.59572506958E+02 -0.13090231017E+04  0.13152367011E+04  0.80089104084E+02 0.  0.
         25    2    1    2    0    0 -0.44599301418E+02 -0.63458795095E+02 -0.16408346489E+03  0.22042383255E+03  0.12508863316E+03 0.  0.
         24    2    1    2    0    0 -0.35043344602E+02  0.38862881379E+01  0.64137831937E+02  0.10812599437E+03  0.79589132020E+02 0.  0.
        -13    1    5    5    0    0  0.17618595560E+02  0.24370259565E+02  0.27738888549E+02  0.40911739131E+02  0.00000000000E+00 0.  1.
         14    1    5    5    0    0 -0.52661940161E+02 -0.20483971428E+02  0.36398943388E+02  0.67214255235E+02  0.00000000000E+00 0. -1.
         11    1    3    3    0    0 -0.37542159440E+01  0.22002041970E+02 -0.87790259930E+02  0.90583186778E+02  0.00000000000E+00 0. -1.
        -12    1    3    3    0    0  0.83396861964E+02  0.37570464988E+02 -0.12212328417E+04  0.12246535143E+04  0.00000000000E+00 0.  1.
          5    1    4    4  501    0 -0.39788379515E+02 -0.74146074603E+02 -0.18086906151E+03  0.19952905887E+03  0.41800000000E+01 0. -1.
         -5    1    4    4    0  501 -0.48109219034E+01  0.10687279508E+02  0.16785596625E+02  0.20894773674E+02  0.41800000000E+01 0. -1.
</event>
<event>
11    1  0.7577197E-009  0.1295903E+03  0.7561462E-02  0.1119773E+00
         22   -1    0    0    0    0  0.00000000000E+00  0.00000000000E+00  0.14533001406E+03  0.14533001406E+03  0.00000000000E+00 0.  1.
         22   -1    0    0    0    0 -0.00000000000E+00 -0.00000000000E+00 -0.27441812797E+03  0.27441812797E+03  0.00000000000E+00 0.  1.
        -24    2    1    2    0    0  0.16534785125E+02  0.20555980357E+02 -0.12969975325E+03  0.15501396854E+03  0.80692979891E+02 0.  0.
         25    2    1    2    0    0  0.18640705878E+02 -0.26457780255E+02 -0.74288884716E+02  0.14904163340E+03  0.12508828899E+03 0.  0.
         24    2    1    2    0    0 -0.35175491003E+02  0.59017998984E+01  0.74900524056E+02  0.11569254009E+03  0.80638259654E+02 0.  0.
        -11    1    5    5    0    0 -0.41250945915E+02  0.24436016348E+02  0.81956711795E+02  0.94950840134E+02  0.00000000000E+00 0.  1.
         12    1    5    5    0    0  0.60754549123E+01 -0.18534216450E+02 -0.70561877395E+01  0.20741699959E+02  0.00000000000E+00 0. -1.
         13    1    3    3    0    0  0.35346472213E+02  0.21585595249E+02 -0.24457368701E+02  0.48098585259E+02  0.00000000000E+00 0. -1.
        -14    1    3    3    0    0 -0.18811687088E+02 -0.10296148925E+01 -0.10524238454E+03  0.10691538328E+03  0.00000000000E+00 0.  1.
          5    1    4    4  501    0  0.41202656599E+02  0.37224245545E+02 -0.55891200552E+02  0.78896147348E+02  0.41800000000E+01 0. -1.
         -5    1    4    4    0  501 -0.22561950721E+02 -0.63682025800E+02 -0.18397684164E+02  0.70145486048E+02  0.41800000000E+01 0. -1.
</event>
<event>
11    1  0.7577197E-009  0.1559964E+03  0.7561462E-02  0.1090904E+00
         22   -1    0    0    0    0  0.00000000000E+00  0.00000000000E+00  0.96977944054E+03  0.96977944054E+03  0.00000000000E+00 0.  1.
         22   -1    0    0    0    0 -0.00000000000E+00 -0.00000000000E+00 -0.18793159881E+03  0.18793159881E+03  0.00000000000E+00 0.  1.
        -24    2    1    2    0    0 -0.37999064412E+02 -0.87156599335E+02 -0.13366350914E+03  0.18147103130E+03  0.77624737158E+02 0.  0.
         25    2    1    2    0    0  0.53262932638E+02  0.61058260980E+02  0.17079938986E+03  0.22668372669E+03  0.12509208264E+03 0.  0.
         24    2    1    2    0    0 -0.15263868226E+02  0.26098338355E+02  0.74471196101E+03  0.74955628137E+03  0.79527386073E+02 0.  0.
        -11    1    5    5    0    0  0.25401855643E+02  0.26950792182E+02  0.51025461162E+03  0.51159688051E+03  0.00000000000E+00 0.  1.
         12    1    5    5    0    0 -0.40665723869E+02 -0.85245382732E+00  0.23445734939E+03  0.23795940086E+03  0.00000000000E+00 0. -1.
         11    1    3    3    0    0  0.23275891294E+02 -0.18471406243E+02 -0.23291768333E+02  0.37755349770E+02  0.00000000000E+00 0. -1.
        -12    1    3    3    0    0 -0.61274955706E+02 -0.68685193091E+02 -0.11037174081E+03  0.14371568153E+03  0.00000000000E+00 0.  1.
          5    1    4    4  501    0  0.64573478629E+02 -0.11271668072E+02  0.12213503365E+03  0.13867668690E+03  0.41800000000E+01 0. -1.
         -5    1    4    4    0  501 -0.11310545991E+02  0.72329929052E+02  0.48664356210E+02  0.88007039790E+02  0.41800000000E+01 0. -1.
</event>
<event>
11    1  0.7577197E-009  0.1407438E+03  0.7561462E-02  0.1106731E+00
         22   -1    0    0    0    0  0.00000000000E+00  0.00000000000E+00  0.46482398618E+03  0.46482398618E+03  0.00000000000E+00 0.  1.
         22   -1    0    0    0    0 -0.00000000000E+00 -0.00000000000E+00 -0.44296429810E+03  0.44296429810E+03  0.00000000000E+00 0.  1.
        -24    2    1    2    0    0  0.40567359446E+02  0.46312049467E+02 -0.34612560995E+03  0.36046375898E+03  0.79628305889E+02 0.  0.
         25    2    1    2    0    0 -0.59222355278E+02 -0.73470712146E+02 -0.12239486615E+02  0.15716810640E+03  0.12508707259E+03 0.  0.
         24    2    1    2    0    0  0.18654995832E+02  0.27158662679E+02  0.38022478464E+03  0.39015641890E+03  0.81028035448E+02 0.  0.
        -11    1    5    5    0    0 -0.14065928759E+02  0.17205557689E+02  0.32097930059E+03  0.32174771635E+03  0.00000000000E+00 0.  1.
         12    1    5    5    0    0  0.32720924591E+02  0.99531049895E+01  0.59245484046E+02  0.68408702552E+02  0.00000000000E+00 0. -1.
         11    1    3    3    0    0  0.64663833072E+02  0.34402536365E+02 -0.23598603751E+03  0.24709179613E+03  0.00000000000E+00 0. -1.
        -12    1    3    3    0    0 -0.24096473626E+02  0.11909513102E+02 -0.11013957244E+03  0.11337196285E+03  0.00000000000E+00 0.  1.
          5    1    4    4  501    0 -0.24016476695E+01  0.11566815541E+02 -0.47330105955E+02  0.48960907498E+02  0.41800000000E+01 0.  1.
         -5    1    4    4    0  501 -0.56820707608E+02 -0.85037527687E+02  0.35090619340E+02  0.10820719890E+03  0.41800000000E+01 0.  1.
</event>
<event>
11    1  0.7577197E-009  0.2821754E+03  0.7561462E-02  0.1008030E+00
         22   -1    0    0    0    0  0.00000000000E+00  0.00000000000E+00  0.12705335453E+04  0.12705335453E+04  0.00000000000E+00 0. -1.
         22   -1    0    0    0    0 -0.00000000000E+00 -0.00000000000E+00 -0.17712163153E+03  0.17712163153E+03  0.00000000000E+00 0. -1.
         24    2    1    2    0    0 -0.24268021666E+03  0.83061146597E+02  0.15019790512E+02  0.26936363029E+03  0.80859938063E+02 0.  0.
         25    2    1    2    0    0  0.16591027768E+03 -0.21466097735E+03  0.75524788915E+03  0.81218992482E+03  0.12509014540E+03 0.  0.
        -24    2    1    2    0    0  0.76769938989E+02  0.13159983076E+03  0.32314423415E+03  0.36610162175E+03  0.79975386202E+02 0.  0.
        -13    1    3    3    0    0 -0.13041342440E+03  0.84712365937E+02  0.21013312850E+02  0.15692484036E+03  0.00000000000E+00 0.  1.
         14    1    3    3    0    0 -0.11226679227E+03 -0.16512193398E+01 -0.59935223382E+01  0.11243878993E+03  0.00000000000E+00 0. -1.
         13    1    5    5    0    0  0.68815162684E+02  0.84329921898E+02  0.14312937794E+03  0.17981401829E+03  0.00000000000E+00 0. -1.
        -14    1    5    5    0    0  0.79547763056E+01  0.47269908860E+02  0.18001485620E+03  0.18628760346E+03  0.00000000000E+00 0.  1.
          5    1    4    4  501    0 -0.32168602089E+00  0.14765915590E+02  0.42311360071E+02  0.45009547167E+02  0.41800000000E+01 0.  1.
         -5    1    4    4    0  501  0.16623196370E+03 -0.22942689294E+03  0.71293652908E+03  0.76718037765E+03  0.41800000000E+01 0.  1.
</event>
<event>
11    1  0.7577197E-009  0.1342493E+03  0.7561462E-02  0.1114156E+00
         22   -1    0    0    0    0  0.00000000000E+00  0.00000000000E+00  0.36325097845E+02  0.36325097845E+02  0.00000000000E+00 0.  1.
         22   -1    0    0    0    0 -0.00000000000E+00 -0.00000000000E+00 -0.21409860175E+04  0.21409860175E+04  0.00000000000E+00 0. -1.
        -24    2    1    2    0    0  0.50258765313E+02 -0.46926194238E+02 -0.11020963895E+04  0.11077959770E+04  0.88698724627E+02 0.  0.
         25    2    1    2    0    0 -0.18607005736E+02  0.81334403716E+01 -0.95535503579E+03  0.96372353077E+03  0.12508967118E+03 0.  0.
         24    2    1    2    0    0 -0.31651759577E+02  0.38792753866E+02 -0.47209494367E+02  0.10579160756E+03  0.80351827825E+02 0.  0.
        -13    1    5    5    0    0 -0.40027539486E+02  0.38399448715E+02  0.23595518991E+01  0.55518366907E+02  0.00000000000E+00 0.  1.
         14    1    5    5    0    0  0.83757799084E+01  0.39330515154E+00 -0.49569046266E+02  0.50273240653E+02  0.00000000000E+00 0. -1.
         13    1    3    3    0    0  0.44353336904E+02 -0.35483521647E+01 -0.21177055122E+03  0.21639449083E+03  0.00000000000E+00 0. -1.
        -14    1    3    3    0    0  0.59054284091E+01 -0.43377842073E+02 -0.89032583828E+03  0.89140148619E+03  0.00000000000E+00 0.  1.
          5    1    4    4  501    0 -0.63746192530E+02  0.30262811129E+02 -0.69037225204E+03  0.69398179629E+03  0.41800000000E+01 0.  1.
         -5    1    4    4    0  501  0.45139186794E+02 -0.22129370757E+02 -0.26498278376E+03  0.26974173448E+03  0.41800000000E+01 0.  1.
</event>
<event>
11    1  0.7577197E-009  0.2035539E+03  0.7561462E-02  0.1052039E+00
         22   -1    0    0    0    0  0.00000000000E+00  0.00000000000E+00  0.12446234411E+04  0.12446234411E+04  0.00000000000E+00 0. -1.
         22   -1    0    0    0    0 -0.00000000000E+00 -0.00000000000E+00 -0.37458248168E+03  0.37458248168E+03  0.00000000000E+00 0. -1.
        -24    2    1    2    0    0  0.68160023545E+02 -0.14239402980E+03 -0.31489539531E+03  0.36046286117E+03  0.76501736995E+02 0.  0.
         25    2    1    2    0    0 -0.57837498836E+02  0.21679989520E+03  0.47231800961E+03  0.53766111054E+03  0.12509115378E+03 0.  0.
         24    2    1    2    0    0 -0.10322524709E+02 -0.74405865404E+02  0.71261834508E+03  0.72108195102E+03  0.80569764921E+02 0.  0.
        -11    1    5    5    0    0 -0.30729680271E+02 -0.14376253436E+02  0.10937726208E+03  0.11451801331E+03  0.00000000000E+00 0.  1.
         12    1    5    5    0    0  0.20407155562E+02 -0.60029611968E+02  0.60324108300E+03  0.60656393771E+03  0.00000000000E+00 0. -1.
         11    1    3    3    0    0  0.75187679132E+02 -0.13263806359E+03 -0.31317495434E+03  0.34831680268E+03  0.00000000000E+00 0. -1.
        -12    1    3    3    0    0 -0.70276555864E+01 -0.97559662110E+01 -0.17204409766E+01  0.12146058493E+02  0.00000000000E+00 0.  1.
          5    1    4    4  501    0 -0.26416732575E+02  0.21836973744E+03  0.44221981139E+03  0.49392207885E+03  0.41800000000E+01 0. -1.
         -5    1    4    4    0  501 -0.31420766261E+02 -0.15698422339E+01  0.30098198215E+02  0.43739031686E+02  0.41800000000E+01 0. -1.
</event>
<event>
11    1  0.7577197E-009  0.1391713E+03  0.7561462E-02  0.1108487E+00
         22   -1    0    0    0    0  0.00000000000E+00  0.00000000000E+00  0.17512432182E+04  0.17512432182E+04  0.00000000000E+00 0.  1.
         22   -1    0    0    0    0 -0.00000000000E+00 -0.00000000000E+00 -0.13524327075E+04  0.13524327075E+04  0.00000000000E+00 0. -1.
        -24    2    1    2    0    0 -0.18437390744E+02 -0.57844369150E+02 -0.13000577247E+04  0.13038399257E+04  0.78501947528E+02 0.  0.
         25    2    1    2    0    0  0.17368217553E+02  0.77796939203E+02  0.62181335180E+02  0.16082698019E+03  0.12507909650E+03 0.  0.
         24    2    1    2    0    0  0.10691731914E+01 -0.19952570053E+02  0.16366869002E+04  0.16390090199E+04  0.84895876926E+02 0.  0.
        -11    1    5    5    0    0  0.19093182440E+02  0.24830407192E+02  0.10017768233E+04  0.10022663830E+04  0.00000000000E+00 0.  1.
         12    1    5    5    0    0 -0.18024009249E+02 -0.44782977245E+02  0.63491007684E+03  0.63674263689E+03  0.00000000000E+00 0. -1.
         11    1    3    3    0    0  0.95958970519E+01 -0.46461147601E+02 -0.11375954294E+04  0.11385842439E+04  0.00000000000E+00 0. -1.
        -12    1    3    3    0    0 -0.28033287796E+02 -0.11383221549E+02 -0.16246229534E+03  0.16525568180E+03  0.00000000000E+00 0.  1.
          5    1    4    4  501    0  0.53548972411E+01  0.80319313901E+02  0.95560997973E+02  0.12501697422E+03  0.41800000000E+01 0. -1.
         -5    1    4    4    0  501  0.12013320312E+02 -0.25223746980E+01 -0.33379662793E+02  0.35810005965E+02  0.41800000000E+01 0. -1.
</event>
<event>
11    1  0.7577197E-009  0.1706044E+03  0.7561462E-02  0.1077507E+00
         22   -1    0    0    0    0  0.00000000000E+00  0.00000000000E+00  0.61701892138E+03  0.61701892138E+03  0.00000000000E+00 0. -1.
         22   -1    0    0    0    0 -0.00000000000E+00 -0.00000000000E+00 -0.92912429513E+03  0.92912429513E+03  0.00000000000E+00 0. -1.
        -24    2    1    2    0    0 -0.38753883355E+01 -0.18152004131E+02 -0.84994307616E+03  0.85393850419E+03  0.80394168502E+02 0.  0.
         25    2    1    2    0    0  0.34952880739E+02 -0.95756576665E+02  0.28914761292E+02  0.16393496173E+03  0.12509029703E+03 0.  0.
         24    2    1    2    0    0 -0.31077492403E+02  0.11390858080E+03  0.50892294112E+03  0.52826975058E+03  0.78264896765E+02 0.  0.
        -13    1    5    5    0    0 -0.44761818240E+02  0.49114665621E+02  0.16229551508E+03  0.17537304515E+03  0.00000000000E+00 0.  1.
         14    1    5    5    0    0  0.13684325837E+02  0.64793915175E+02  0.34662742604E+03  0.35289670543E+03  0.00000000000E+00 0. -1.
         11    1    3    3    0    0 -0.60707261521E+01 -0.12623568459E+02 -0.84732281865E+03  0.84743859199E+03  0.00000000000E+00 0. -1.
        -12    1    3    3    0    0  0.21953378166E+01 -0.55284356718E+01 -0.26202575150E+01  0.64999121957E+01  0.00000000000E+00 0.  1.
          5    1    4    4  501    0  0.13393315385E+02 -0.10935839373E+03 -0.16701200016E+02  0.11151251795E+03  0.41800000000E+01 0.  1.
         -5    1    4    4    0  501  0.21559565354E+02  0.13601817070E+02  0.45615961308E+02  0.52422443781E+02  0.41800000000E+01 0.  1.
</event>
<event>
11    1  0.7577197E-009  0.1374707E+03  0.7561462E-02  0.1110416E+00
         22   -1    0    0    0    0  0.00000000000E+00  0.00000000000E+00  0.77584952955E+02  0.77584952955E+02  0.00000000000E+00 0.  1.
         22   -1    0    0    0    0 -0.00000000000E+00 -0.00000000000E+00 -0.12116638166E+04  0.12116638166E+04  0.00000000000E+00 0.  1.
        -24    2    1    2    0    0  0.51284608558E+02  0.18949562715E+02 -0.89836684133E+03  0.90343306999E+03  0.78352621863E+02 0.  0.
         25    2    1    2    0    0 -0.53597953049E+02 -0.71860472362E+02 -0.24774908846E+03  0.29165606061E+03  0.12508788429E+03 0.  0.
         24    2    1    2    0    0  0.23133444920E+01  0.52910909647E+02  0.12037066185E+02  0.94159638917E+02  0.76917037880E+02 0.  0.
        -11    1    5    5    0    0 -0.12418172134E+02  0.64364918476E+02  0.26342341816E+02  0.70646816644E+02  0.00000000000E+00 0.  1.
         12    1    5    5    0    0  0.14731516626E+02 -0.11454008829E+02 -0.14305275631E+02  0.23512822273E+02  0.00000000000E+00 0. -1.
         13    1    3    3    0    0  0.60865853766E+01  0.41858824718E+02 -0.30719359822E+03  0.31009210651E+03  0.00000000000E+00 0. -1.
        -14    1    3    3    0    0  0.45198023181E+02 -0.22909262003E+02 -0.59117324311E+03  0.59334096349E+03  0.00000000000E+00 0.  1.
          5    1    4    4  501    0 -0.53549757899E+02 -0.27421295680E+02 -0.26367583596E+02  0.65819646706E+02  0.41800000000E+01 0.  1.
         -5    1    4    4    0  501 -0.48195150116E-01 -0.44439176682E+02 -0.22138150487E+03  0.22583641390E+03  0.41800000000E+01 0.  1.
</event>
<event>
11    1  0.7577197E-009  0.1978543E+03  0.7561462E-02  0.1056051E+00
         22   -1    0    0    0    0  0.00000000000E+00  0.00000000000E+00  0.58356035282E+03  0.58356035282E+03  0.00000000000E+00 0.  1.
         22   -1    0    0    0    0 -0.00000000000E+00 -0.00000000000E+00 -0.74037485421E+03  0.74037485421E+03  0.00000000000E+00 0. -1.
         24    2    1    2    0    0 -0.14433267572E+03 -0.58143099345E+02 -0.63049212049E+03  0.65449230182E+03  0.81408340195E+02 0.  0.
         25    2    1    2    0    0  0.14085881118E+03  0.94027427501E+01  0.26492659696E+01  0.18863826599E+03  0.12509100897E+03 0.  0.
        -24    2    1    2    0    0  0.34738645388E+01  0.48740356595E+02  0.47102835313E+03  0.48080463923E+03  0.83172721257E+02 0.  0.
        -11    1    3    3    0    0 -0.88603666353E+02  0.47913626289E+01 -0.26513387793E+03  0.27958816154E+03  0.00000000000E+00 0.  1.
         12    1    3    3    0    0 -0.55729009369E+02 -0.62934461974E+02 -0.36535824256E+03  0.37490414028E+03  0.00000000000E+00 0. -1.
         13    1    5    5    0    0 -0.84781077365E+01  0.14997036832E+02  0.13523600579E+02  0.21901534128E+02  0.00000000000E+00 0. -1.
        -14    1    5    5    0    0  0.11951972275E+02  0.33743319763E+02  0.45750475255E+03  0.45890310510E+03  0.00000000000E+00 0.  1.
          5    1    4    4  501    0  0.90059231972E+02 -0.55624610281E+02 -0.89598987133E+00  0.10593883957E+03  0.41800000000E+01 0.  1.
         -5    1    4    4    0  501  0.50799579212E+02  0.65027353031E+02  0.35452558409E+01  0.82699426414E+02  0.41800000000E+01 0.  1.
</event>
<event>
11    1  0.7577197E-009  0.1528794E+03  0.7561462E-02  0.1093972E+00
         22   -1    0    0    0    0  0.00000000000E+00  0.00000000000E+00  0.11749047335E+03  0.11749047335E+03  0.00000000000E+00 0. -1.
         22   -1    0    0    0    0 -0.00000000000E+00 -0.00000000000E+00 -0.63392225175E+03  0.63392225175E+03  0.00000000000E+00 0.  1.
        -24    2    1    2    0    0 -0.73806698547E+02 -0.25229681148E+02 -0.27809811802E+03  0.29923193047E+03  0.78212654993E+02 0.  0.
         25    2    1    2    0    0  0.76830806788E+02  0.95558481062E+02 -0.28555610137E+03  0.33499874927E+03  0.12508988290E+03 0.  0.
         24    2    1    2    0    0 -0.30241082411E+01 -0.70328799914E+02  0.47222440999E+02  0.11718204537E+03  0.80909749081E+02 0.  0.
        -11    1    5    5    0    0  0.34642149069E+02 -0.15039446894E+02  0.50583347910E+01  0.38103152177E+02  0.00000000000E+00 0.  1.
         12    1    5    5    0    0 -0.37666257310E+02 -0.55289353019E+02  0.42164106208E+02  0.79078893197E+02  0.00000000000E+00 0. -1.
         11    1    3    3    0    0 -0.19231084353E+02  0.25777841301E+02 -0.52293914841E+02  0.61392061677E+02  0.00000000000E+00 0. -1.
        -12    1    3    3    0    0 -0.54575614195E+02 -0.51007522449E+02 -0.22580420318E+03  0.23783986879E+03  0.00000000000E+00 0.  1.
          5    1    4    4  501    0  0.33509085676E+02  0.11955840219E+03 -0.18521148319E+03  0.22301981137E+03  0.41800000000E+01 0.  1.
         -5    1    4    4    0  501  0.43321721112E+02 -0.23999921129E+02 -0.10034461818E+03  0.11197893790E+03  0.41800000000E+01 0.  1.
</event>
<event>
11    1  0.7577197E-009  0.1282874E+03  0.7561462E-02  0.1121391E+00
         22   -1    0    0    0    0  0.00000000000E+00  0.00000000000E+00  0.24276237585E+03  0.24276237585E+03  0.00000000000E+00 0. -1.
         22   -1    0    0    0    0 -0.00000000000E+00 -0.00000000000E+00 -0.60695017746E+03  0.60695017746E+03  0.00000000000E+00 0. -1.
         24    2    1    2    0    0  0.25963847631E+02  0.18215434305E+02 -0.45663880428E+03  0.46586955621E+03  0.86657500487E+02 0.  0.
         25    2    1    2    0    0 -0.15532258124E+02  0.91398808109E+01 -0.10912458679E+03  0.16697351561E+03  0.12508873254E+03 0.  0.
        -24    2    1    2    0    0 -0.10431589507E+02 -0.27355315116E+02  0.20157558947E+03  0.21686948149E+03  0.74448118888E+02 0.  0.
        -13    1    3    3    0    0 -0.31395424047E+02  0.15093161197E+02 -0.17234073738E+03  0.17582606725E+03  0.00000000000E+00 0.  1.
         14    1    3    3    0    0  0.57359271678E+02  0.31222731083E+01 -0.28429806691E+03  0.29004348895E+03  0.00000000000E+00 0. -1.
         13    1    5    5    0    0 -0.62438234354E+01 -0.29605776624E+02  0.20726122163E+03  0.20945811355E+03  0.00000000000E+00 0. -1.
        -14    1    5    5    0    0 -0.41877660715E+01  0.22504615080E+01 -0.56856321591E+01  0.74113679383E+01  0.00000000000E+00 0.  1.
          5    1    4    4  501    0 -0.10596606011E+02  0.65752642349E+02 -0.41672681955E+02  0.78675173061E+02  0.41800000000E+01 0.  1.
         -5    1    4    4    0  501 -0.49356521133E+01 -0.56612761539E+02 -0.67451904837E+02  0.88298342549E+02  0.41800000000E+01 0.  1.
</event>
<event>
11    1  0.7577197E-009  0.1409470E+03  0.7561462E-02  0.1106506E+00
         22   -1    0    0    0    0  0.00000000000E+00  0.00000000000E+00  0.20570785276E+03  0.20570785276E+03  0.00000000000E+00 0. -1.
         22   -1    0    0    0    0 -0.00000000000E+00 -0.00000000000E+00 -0.28319965057E+04  0.28319965057E+04  0.00000000000E+00 0. -1.
         24    2    1    2    0    0  0.51668758925E+02 -0.23183397630E+02 -0.15123128612E+04  0.15156203358E+04  0.82508675690E+02 0.  0.
         25    2    1    2    0    0 -0.70199926332E+02  0.55339867309E+02 -0.13036582772E+04  0.13126929189E+04  0.12508902845E+03 0.  0.
        -24    2    1    2    0    0  0.18531167407E+02 -0.32156469679E+02  0.18968248546E+03  0.20939110377E+03  0.80546547673E+02 0.  0.
        -13    1    3    3    0    0  0.46204172131E+02 -0.52672613459E+02 -0.10461547845E+04  0.10484984802E+04  0.00000000000E+00 0.  1.
         14    1    3    3    0    0  0.54645867936E+01  0.29489215829E+02 -0.46615807673E+03  0.46712185569E+03  0.00000000000E+00 0. -1.
         13    1    5    5    0    0  0.28719386847E+02  0.19155113915E+02  0.97059230638E+02  0.10301560960E+03  0.00000000000E+00 0. -1.
        -14    1    5    5    0    0 -0.10188219439E+02 -0.51311583595E+02  0.92623254820E+02  0.10637549417E+03  0.00000000000E+00 0.  1.
          5    1    4    4  501    0 -0.97768859703E+02  0.68753224637E+02 -0.91088904278E+03  0.91870674129E+03  0.41800000000E+01 0.  1.
         -5    1    4    4    0  501  0.27568933371E+02 -0.13413357327E+02 -0.39276923441E+03  0.39398617760E+03  0.41800000000E+01 0.  1.
</event>
<event>
11    1  0.7577197E-009  0.1355980E+03  0.7561462E-02  0.1112576E+00
         22   -1    0    0    0    0  0.00000000000E+00  0.00000000000E+00  0.20785363285E+03  0.20785363285E+03  0.00000000000E+00 0. -1.
         22   -1    0    0    0    0 -0.00000000000E+00 -0.00000000000E+00 -0.27327794393E+04  0.27327794393E+04  0.00000000000E+00 0.  1.
         24    2    1    2    0    0 -0.82461822179E+01  0.49748397288E+02 -0.23039946158E+04  0.23059159728E+04  0.79463083334E+02 0.  0.
         25    2    1    2    0    0  0.46304386189E+02 -0.72598326811E+02 -0.40440287086E+03  0.43197551470E+03  0.12508617074E+03 0.  0.
        -24    2    1    2    0    0 -0.38058203971E+02  0.22849929523E+02  0.18347168019E+03  0.20274158462E+03  0.73971254789E+02 0.  0.
        -11    1    3    3    0    0  0.95159597914E+01 -0.19914971423E+02 -0.48805549328E+03  0.48855432052E+03  0.00000000000E+00 0.  1.
         12    1    3    3    0    0 -0.17762142009E+02  0.69663368712E+02 -0.18159391225E+04  0.18173616523E+04  0.00000000000E+00 0. -1.
         11    1    5    5    0    0 -0.42526905901E+02  0.20565691904E+02  0.18926828933E+03  0.19507426984E+03  0.00000000000E+00 0. -1.
        -12    1    5    5    0    0  0.44687019296E+01  0.22842376193E+01 -0.57966091392E+01  0.76673147809E+01  0.00000000000E+00 0.  1.
          5    1    4    4  501    0  0.66642366305E+02 -0.90631294214E+02 -0.23757969442E+03  0.26290077991E+03  0.41800000000E+01 0.  1.
         -5    1    4    4    0  501 -0.20337980116E+02  0.18032967403E+02 -0.16682317644E+03  0.16907473479E+03  0.41800000000E+01 0.  1.
</event>
<event>
11    1  0.9884705E-009  0.1906972E+03  0.7561462E-02  0.1061304E+00
         22   -1    0    0    0    0  0.00000000000E+00  0.00000000000E+00  0.99423122389E+03  0.99423122389E+03  0.00000000000E+00 0. -1.
         22   -1    0    0    0    0 -0.00000000000E+00 -0.00000000000E+00 -0.12780083753E+04  0.12780083753E+04  0.00000000000E+00 0. -1.
        -24    2    1    2    0    0 -0.33264445489E+02 -0.57946438510E+02 -0.11356141335E+04  0.11396315703E+04  0.68383790834E+02 0.  0.
         25    2    1    2    0    0  0.85817197155E+02 -0.78418796828E+02 -0.78117405255E+02  0.18778650965E+03  0.12508934879E+03 0.  0.
         24    2    1    2    0    0 -0.52552751666E+02  0.13636523534E+03  0.92995438730E+03  0.94482151924E+03  0.80717232689E+02 0.  0.
        -13    1    5    5    0    0  0.14256536012E+02  0.27498722759E+02  0.89320347439E+02  0.94538632521E+02  0.00000000000E+00 0.  1.
         14    1    5    5    0    0 -0.66809287678E+02  0.10886651258E+03  0.84063403986E+03  0.85028288672E+03  0.00000000000E+00 0. -1.
         13    1    3    3    0    0 -0.30932687974E+02 -0.23330029170E+02 -0.95079746983E+03  0.95158654366E+03  0.00000000000E+00 0. -1.
        -14    1    3    3    0    0 -0.23317575149E+01 -0.34616409340E+02 -0.18481666363E+03  0.18804502664E+03  0.00000000000E+00 0.  1.
          5    1    4    4  501    0  0.36760629142E+02 -0.10752594023E+02  0.31578320340E+02  0.49815909593E+02  0.41800000000E+01 0.  1.
         -5    1    4    4    0  501  0.49056568013E+02 -0.67666202805E+02 -0.10969572559E+03  0.13797060006E+03  0.41800000000E+01 0.  1.
</event>
<event>
11    1  0.7577197E-009  0.1395633E+03  0.7561462E-02  0.1108047E+00
         22   -1    0    0    0    0  0.00000000000E+00  0.00000000000E+00  0.36430704374E+03  0.36430704374E+03  0.00000000000E+00 0.  1.
         22   -1    0    0    0    0 -0.00000000000E+00 -0.00000000000E+00 -0.43899914605E+03  0.43899914605E+03  0.00000000000E+00 0. -1.
        -24    2    1    2    0    0  0.56297055080E+02  0.34963761274E+02 -0.37796647042E+03  0.39320763443E+03  0.85800745920E+02 0.  0.
         25    2    1    2    0    0 -0.11414297295E+02  0.25114919390E+02  0.56066047374E+02  0.13982767126E+03  0.12508929061E+03 0.  0.
         24    2    1    2    0    0 -0.44882757785E+02 -0.60078680664E+02  0.24720832073E+03  0.27027088410E+03  0.79438574623E+02 0.  0.
        -13    1    5    5    0    0 -0.17372074223E+02 -0.72357250638E+02  0.20741703668E+03  0.22036149343E+03  0.00000000000E+00 0.  1.
         14    1    5    5    0    0 -0.27510683562E+02  0.12278569974E+02  0.39791284056E+02  0.49909390674E+02  0.00000000000E+00 0. -1.
         13    1    3    3    0    0  0.73417468113E+02  0.41045917903E+02 -0.34917338031E+03  0.35916144214E+03  0.00000000000E+00 0. -1.
        -14    1    3    3    0    0 -0.17120413033E+02 -0.60821566291E+01 -0.28793090106E+02  0.34046192291E+02  0.00000000000E+00 0.  1.
          5    1    4    4  501    0  0.20326716202E+01 -0.48719956235E+02  0.55291559201E+01  0.49252511151E+02  0.41800000000E+01 0. -1.
         -5    1    4    4    0  501 -0.13446968915E+02  0.73834875626E+02  0.50536891454E+02  0.90575160113E+02  0.41800000000E+01 0. -1.
</event>
<event>
11    1  0.7577197E-009  0.1376541E+03  0.7561462E-02  0.1110207E+00
         22   -1    0    0    0    0  0.00000000000E+00  0.00000000000E+00  0.70624727606E+03  0.70624727606E+03  0.00000000000E+00 0.  1.
         22   -1    0    0    0    0 -0.00000000000E+00 -0.00000000000E+00 -0.82266469194E+03  0.82266469194E+03  0.00000000000E+00 0.  1.
         24    2    1    2    0    0 -0.57348392751E+02 -0.58403440478E+01 -0.76160669667E+03  0.76836315251E+03  0.83750975784E+02 0.  0.
         25    2    1    2    0    0  0.55629233479E+02 -0.34608288778E+02  0.37245386089E+02  0.14603767507E+03  0.12508972174E+03 0.  0.
        -24    2    1    2    0    0  0.17191592714E+01  0.40448632826E+02  0.60794389470E+03  0.61451114042E+03  0.79931941006E+02 0.  0.
        -11    1    3    3    0    0 -0.78753992246E+02  0.12151339945E+01 -0.56333470535E+03  0.56881425624E+03  0.00000000000E+00 0.  1.
         12    1    3    3    0    0  0.21405599495E+02 -0.70554780423E+01 -0.19827199133E+03  0.19954889627E+03  0.00000000000E+00 0. -1.
         11    1    5    5    0    0 -0.54597304998E+01  0.43473265824E+01  0.17425730039E+01  0.71933626503E+01  0.00000000000E+00 0. -1.
        -12    1    5    5    0    0  0.71788897713E+01  0.36101306244E+02  0.60620132169E+03  0.60731777777E+03  0.00000000000E+00 0.  1.
          5    1    4    4  501    0  0.61045698126E+02  0.35323137495E+02  0.23354929882E+02  0.74412542303E+02  0.41800000000E+01 0.  1.
         -5    1    4    4    0  501 -0.54164646469E+01 -0.69931426274E+02  0.13890456207E+02  0.71625132765E+02  0.41800000000E+01 0.  1.
</event>
<event>
11    1  0.7577197E-009  0.1598240E+03  0.7561462E-02  0.1087243E+00
         22   -1    0    0    0    0  0.00000000000E+00  0.00000000000E+00  0.38230041832E+04  0.38230041832E+04  0.00000000000E+00 0.  1.
         22   -1    0    0    0    0 -0.00000000000E+00 -0.00000000000E+00 -0.38860909187E+03  0.38860909187E+03  0.00000000000E+00 0.  1.
        -24    2    1    2    0    0  0.71988349509E+02  0.68490949095E+02 -0.35785059890E+03  0.37970196456E+03  0.79013911315E+02 0.  0.
         25    2    1    2    0    0 -0.82671851772E+02 -0.62511204924E+02  0.32141637353E+03  0.36013700629E+03  0.12509153573E+03 0.  0.
         24    2    1    2    0    0  0.10683502263E+02 -0.59797441716E+01  0.34708293167E+04  0.34717743042E+04  0.80067341893E+02 0.  0.
        -13    1    5    5    0    0  0.18567054103E+02  0.86875597336E+01  0.33140085468E+04  0.33140719451E+04  0.00000000000E+00 0.  1.
         14    1    5    5    0    0 -0.78835518399E+01 -0.14667303905E+02  0.15682076990E+03  0.15770235910E+03  0.00000000000E+00 0. -1.
         11    1    3    3    0    0  0.71322528978E+01  0.22462801226E+02 -0.21430977125E+03  0.21560177301E+03  0.00000000000E+00 0. -1.
        -12    1    3    3    0    0  0.64856096611E+02  0.46028147870E+02 -0.14354082765E+03  0.16410019155E+03  0.00000000000E+00 0.  1.
          5    1    4    4  501    0  0.28353318515E+02 -0.27941243254E+02  0.44982518837E+02  0.60212317231E+02  0.41800000000E+01 0.  1.
         -5    1    4    4    0  501 -0.11102517029E+03 -0.34569961670E+02  0.27643385470E+03  0.29992468906E+03  0.41800000000E+01 0.  1.
</event>
<event>
11    1  0.7577197E-009  0.1631866E+03  0.7561462E-02  0.1084118E+00
         22   -1    0    0    0    0  0.00000000000E+00  0.00000000000E+00  0.97433673651E+02  0.97433673651E+02  0.00000000000E+00 0. -1.
         22   -1    0    0    0    0 -0.00000000000E+00 -0.00000000000E+00 -0.25681507755E+04  0.25681507755E+04  0.00000000000E+00 0.  1.
         24    2    1    2    0    0 -0.19225046218E+02 -0.11212889280E+01 -0.22577992977E+04  0.22592074936E+04  0.77394902478E+02 0.  0.
         25    2    1    2    0    0  0.91366465525E+02 -0.71322625092E+02 -0.21927061117E+03  0.27778009793E+03  0.12508970385E+03 0.  0.
        -24    2    1    2    0    0 -0.72141419307E+02  0.72443914020E+02  0.63528069607E+01  0.12859685764E+03  0.77745022872E+02 0.  0.
        -13    1    3    3    0    0 -0.42620053570E+01  0.26099207782E+02 -0.18631519428E+04  0.18633396082E+04  0.00000000000E+00 0.  1.
         14    1    3    3    0    0 -0.14963040861E+02 -0.27220496710E+02 -0.39464735486E+03  0.39586788545E+03  0.00000000000E+00 0. -1.
         11    1    5    5    0    0 -0.66854259385E+02  0.30436512657E+02 -0.23120782828E+02  0.77009375398E+02  0.00000000000E+00 0. -1.
        -12    1    5    5    0    0 -0.52871599215E+01  0.42007401364E+02  0.29473589789E+02  0.51587482245E+02  0.00000000000E+00 0.  1.
          5    1    4    4  501    0  0.14832501498E+02  0.35511102114E+02 -0.42764263889E+02  0.57682719596E+02  0.41800000000E+01 0.  1.
         -5    1    4    4    0  501  0.76533964027E+02 -0.10683372721E+03 -0.17650634728E+03  0.22009737834E+03  0.41800000000E+01 0.  1.
</event>
<event>
11    1  0.7577197E-009  0.1298319E+03  0.7561462E-02  0.1119476E+00
         22   -1    0    0    0    0  0.00000000000E+00  0.00000000000E+00  0.22324131390E+04  0.22324131390E+04  0.00000000000E+00 0.  1.
         22   -1    0    0    0    0 -0.00000000000E+00 -0.00000000000E+00 -0.30858105339E+03  0.30858105339E+03  0.00000000000E+00 0.  1.
         24    2    1    2    0    0  0.62481361556E+01  0.15032381059E+02 -0.26065578473E+03  0.27290607974E+03  0.79191404583E+02 0.  0.
         25    2    1    2    0    0  0.24937660763E+02 -0.30341220314E+02  0.63977987211E+02  0.14588874723E+03  0.12509143515E+03 0.  0.
        -24    2    1    2    0    0 -0.31185796918E+02  0.15308839255E+02  0.21205098832E+04  0.21221993654E+04  0.77207950706E+02 0.  0.
        -11    1    3    3    0    0  0.36443811281E+02 -0.13839650091E+02 -0.13213450488E+03  0.13776507059E+03  0.00000000000E+00 0.  1.
         12    1    3    3    0    0 -0.30195675126E+02  0.28872031151E+02 -0.12852127985E+03  0.13514100915E+03  0.00000000000E+00 0. -1.
         13    1    5    5    0    0  0.15500782690E+01  0.38780802132E+02  0.66457013106E+03  0.66570249545E+03  0.00000000000E+00 0. -1.
        -14    1    5    5    0    0 -0.32735875187E+02 -0.23471962877E+02  0.14559397521E+04  0.14564968700E+04  0.00000000000E+00 0.  1.
          5    1    4    4  501    0  0.89878071270E+01  0.25642716809E+02 -0.26523838802E+02  0.38200995106E+02  0.41800000000E+01 0. -1.
         -5    1    4    4    0  501  0.15949853636E+02 -0.55983937123E+02  0.90501826012E+02  0.10768775213E+03  0.41800000000E+01 0. -1.
</event>
<event>
11    1  0.7577197E-009  0.1602493E+03  0.7561462E-02  0.1086843E+00
         22   -1    0    0    0    0  0.00000000000E+00  0.00000000000E+00  0.19455607601E+03  0.19455607601E+03  0.00000000000E+00 0. -1.
         22   -1    0    0    0    0 -0.00000000000E+00 -0.00000000000E+00 -0.23270936087E+03  0.23270936087E+03  0.00000000000E+00 0. -1.
        -24    2    1    2    0    0 -0.57594222329E+01 -0.57321405440E+02 -0.75301208338E+02  0.12425970196E+03  0.80319904673E+02 0.  0.
         25    2    1    2    0    0 -0.83972682882E+02 -0.98657056434E+01 -0.24631865129E+02  0.15298176884E+03  0.12509176311E+03 0.  0.
         24    2    1    2    0    0  0.89732105115E+02  0.67187111084E+02  0.61779788604E+02  0.15002396609E+03  0.78259117914E+02 0.  0.
        -13    1    5    5    0    0 -0.13153258985E+02  0.11410113220E+01  0.12578275784E+02  0.18235217314E+02  0.00000000000E+00 0.  1.
         14    1    5    5    0    0  0.10288536410E+03  0.66046099762E+02  0.49201512819E+02  0.13178874877E+03  0.00000000000E+00 0. -1.
         13    1    3    3    0    0  0.33925074683E+02 -0.17242945135E+02 -0.48958952865E+02  0.62009748546E+02  0.00000000000E+00 0. -1.
        -14    1    3    3    0    0 -0.39684496916E+02 -0.40078460306E+02 -0.26342255474E+02  0.62249953409E+02  0.00000000000E+00 0.  1.
          5    1    4    4  501    0 -0.11020263273E+03  0.11196868446E+02 -0.37055250059E+02  0.11687837302E+03  0.41800000000E+01 0.  1.
         -5    1    4    4    0  501  0.26229949845E+02 -0.21062574090E+02  0.12423384930E+02  0.36103395814E+02  0.41800000000E+01 0.  1.
</event>
<event>
11    1  0.7577197E-009  0.2038530E+03  0.7561462E-02  0.1051832E+00
         22   -1    0    0    0    0  0.00000000000E+00  0.00000000000E+00  0.67035743057E+03  0.67035743057E+03  0.00000000000E+00 0. -1.
         22   -1    0    0    0    0 -0.00000000000E+00 -0.00000000000E+00 -0.46431711192E+03  0.46431711192E+03  0.00000000000E+00 0.  1.
        -24    2    1    2    0    0  0.47512811483E+02 -0.68408638548E+01 -0.37793313151E+03  0.38941954614E+03  0.80683742774E+02 0.  0.
         25    2    1    2    0    0  0.57777118806E+02  0.13500575795E+03  0.81300298228E+02  0.20933562820E+03  0.12508763570E+03 0.  0.
         24    2    1    2    0    0 -0.10528993029E+03 -0.12816489410E+03  0.50267315193E+03  0.53591936814E+03  0.83767905469E+02 0.  0.
        -11    1    5    5    0    0 -0.47644572328E+02 -0.40763547221E+02  0.86861581432E+02  0.10712892412E+03  0.00000000000E+00 0.  1.
         12    1    5    5    0    0 -0.57645357961E+02 -0.87401346877E+02  0.41581157049E+03  0.42879044402E+03  0.00000000000E+00 0. -1.
         13    1    3    3    0    0 -0.11068102972E+02 -0.13243917305E+02 -0.18951869320E+02  0.25633524918E+02  0.00000000000E+00 0. -1.
        -14    1    3    3    0    0  0.58580914455E+02  0.64030534503E+01 -0.35898126219E+03  0.36378602122E+03  0.00000000000E+00 0.  1.
          5    1    4    4  501    0  0.74559778239E+02  0.55964684707E+02 -0.18190234508E+01  0.93338029290E+02  0.41800000000E+01 0.  1.
         -5    1    4    4    0  501 -0.16782659433E+02  0.79041073246E+02  0.83119321679E+02  0.11599759891E+03  0.41800000000E+01 0.  1.
</event>
<event>
11    1  0.7577197E-009  0.1320634E+03  0.7561462E-02  0.1116759E+00
         22   -1    0    0    0    0  0.00000000000E+00  0.00000000000E+00  0.29586125307E+02  0.29586125307E+02  0.00000000000E+00 0. -1.
         22   -1    0    0    0    0 -0.00000000000E+00 -0.00000000000E+00 -0.25050439563E+04  0.25050439563E+04  0.00000000000E+00 0.  1.
        -24    2    1    2    0    0 -0.41504950186E+02  0.11184748434E+02 -0.14336530135E+04  0.14367962943E+04  0.84704596644E+02 0.  0.
         25    2    1    2    0    0  0.44676231823E+02  0.26498843586E+02 -0.97458947069E+03  0.98395688112E+03  0.12509337760E+03 0.  0.
         24    2    1    2    0    0 -0.31712816374E+01 -0.37683592021E+02 -0.67215346820E+02  0.11387690621E+03  0.83785063021E+02 0.  0.
        -13    1    5    5    0    0 -0.74344964223E+01 -0.25525457713E+02 -0.86606759335E+02  0.90595537921E+02  0.00000000000E+00 0.  1.
         14    1    5    5    0    0  0.42632147849E+01 -0.12158134307E+02  0.19391412516E+02  0.23281368291E+02  0.00000000000E+00 0. -1.
         11    1    3    3    0    0  0.22741904251E+02  0.17699351956E+02 -0.33010331450E+03  0.33135880781E+03  0.00000000000E+00 0. -1.
        -12    1    3    3    0    0 -0.64246854437E+02 -0.65146035218E+01 -0.11035496990E+04  0.11054374865E+04  0.00000000000E+00 0.  1.
          5    1    4    4  501    0  0.67951250215E+02 -0.10518760706E+02 -0.29446871029E+03  0.30241909740E+03  0.41800000000E+01 0. -1.
         -5    1    4    4    0  501 -0.23275018392E+02  0.37017604293E+02 -0.68012076040E+03  0.68153778372E+03  0.41800000000E+01 0. -1.
</event>
<event>
11    1  0.7577197E-009  0.1315885E+03  0.7561462E-02  0.1117333E+00
         22   -1    0    0    0    0  0.00000000000E+00  0.00000000000E+00  0.13103703678E+03  0.13103703678E+03  0.00000000000E+00 0.  1.
         22   -1    0    0    0    0 -0.00000000000E+00 -0.00000000000E+00 -0.69523997018E+03  0.69523997018E+03  0.00000000000E+00 0.  1.
         24    2    1    2    0    0 -0.43263834785E+02 -0.20384288722E+02 -0.48086379524E+03  0.48968039952E+03  0.79180966631E+02 0.  0.
         25    2    1    2    0    0  0.13338112475E+01  0.14855562720E+02 -0.16959560959E+03  0.21126243633E+03  0.12508668760E+03 0.  0.
        -24    2    1    2    0    0  0.41930023538E+02  0.55287260019E+01  0.86256471439E+02  0.12533417110E+03  0.80497092467E+02 0.  0.
        -13    1    3    3    0    0 -0.47317946814E+02 -0.23878721194E+02 -0.48139304447E+03  0.48430201804E+03  0.00000000000E+00 0.  1.
         14    1    3    3    0    0  0.40541120287E+01  0.34944324717E+01  0.52924922548E+00  0.53783814836E+01  0.00000000000E+00 0. -1.
         13    1    5    5    0    0  0.34034407631E+02  0.16154654187E+02 -0.39644112995E+00  0.37675866549E+02  0.00000000000E+00 0. -1.
        -14    1    5    5    0    0  0.78956159072E+01 -0.10625928185E+02  0.86652912569E+02  0.87658304553E+02  0.00000000000E+00 0.  1.
          5    1    4    4  501    0 -0.22893499032E+02  0.11991096230E+02  0.11420316203E+02  0.28562120175E+02  0.41800000000E+01 0.  1.
         -5    1    4    4    0  501  0.24227310280E+02  0.28644664900E+01 -0.18101592580E+03  0.18270031616E+03  0.41800000000E+01 0.  1.
</event>
<event>
11    1  0.7577197E-009  0.1639720E+03  0.7561462E-02  0.1083400E+00
         22   -1    0    0    0    0  0.00000000000E+00  0.00000000000E+00  0.17517695225E+03  0.17517695225E+03  0.00000000000E+00 0.  1.
         22   -1    0    0    0    0 -0.00000000000E+00 -0.00000000000E+00 -0.33044954543E+03  0.33044954543E+03  0.00000000000E+00 0.  1.
         24    2    1    2    0    0 -0.62455983771E+02  0.38430360411E+02 -0.10737108529E+03  0.15292695851E+03  0.80501317828E+02 0.  0.
         25    2    1    2    0    0  0.14182342482E+03 -0.81307247805E+02 -0.89626947140E+02  0.22451148390E+03  0.12509062465E+03 0.  0.
        -24    2    1    2    0    0 -0.79367441049E+02  0.42876887394E+02  0.41725439250E+02  0.12818805527E+03  0.80953981134E+02 0.  0.
        -11    1    3    3    0    0 -0.53949440996E+02  0.49924561776E+02 -0.11517845602E+03  0.13663484469E+03  0.00000000000E+00 0.  1.
         12    1    3    3    0    0 -0.85065427755E+01 -0.11494201365E+02  0.78073707290E+01  0.16292113819E+02  0.00000000000E+00 0. -1.
         11    1    5    5    0    0  0.92793337320E+01 -0.94327730585E+01 -0.62416696801E+01  0.14630163447E+02  0.00000000000E+00 0. -1.
        -12    1    5    5    0    0 -0.88646774781E+02  0.52309660453E+02  0.47967108930E+02  0.11355789182E+03  0.00000000000E+00 0.  1.
          5    1    4    4  501    0  0.44355056743E+02 -0.77391239220E+00  0.27292088594E+02  0.52252277451E+02  0.41800000000E+01 0.  1.
         -5    1    4    4    0  501  0.97468368078E+02 -0.80533335413E+02 -0.11691903573E+03  0.17225920645E+03  0.41800000000E+01 0.  1.
</event>
<event>
11    1  0.7577197E-009  0.1629404E+03  0.7561462E-02  0.1084344E+00
         22   -1    0    0    0    0  0.00000000000E+00  0.00000000000E+00  0.22464484925E+04  0.22464484925E+04  0.00000000000E+00 0. -1.
         22   -1    0    0    0    0 -0.00000000000E+00 -0.00000000000E+00 -0.24126657477E+02  0.24126657477E+02  0.00000000000E+00 0.  1.
        -24    2    1    2    0    0 -0.49668199667E+02 -0.87802702086E+02  0.49186524418E+03  0.50857478694E+03  0.80874290832E+02 0.  0.
         25    2    1    2    0    0 -0.56312462436E+02  0.14879169859E+02  0.40488826490E+03  0.42775571075E+03  0.12509179792E+03 0.  0.
         24    2    1    2    0    0  0.10598066210E+03  0.72923532227E+02  0.13255683259E+04  0.13342446523E+04  0.80793954857E+02 0.  0.
        -13    1    5    5    0    0  0.35540772124E+02 -0.24402304109E+01  0.15057935452E+03  0.15473604369E+03  0.00000000000E+00 0.  1.
         14    1    5    5    0    0  0.70439889979E+02  0.75363762638E+02  0.11749889714E+04  0.11795086086E+04  0.00000000000E+00 0. -1.
         11    1    3    3    0    0 -0.61245179400E+02 -0.54339017205E+02  0.22623974841E+03  0.24059951071E+03  0.00000000000E+00 0. -1.
        -12    1    3    3    0    0  0.11576979733E+02 -0.33463684881E+02  0.26562549577E+03  0.26797527623E+03  0.00000000000E+00 0.  1.
          5    1    4    4  501    0 -0.70414239992E+02 -0.37653872804E+02  0.28565905873E+03  0.29663875263E+03  0.41800000000E+01 0.  1.
         -5    1    4    4    0  501  0.14101777557E+02  0.52533042663E+02  0.11922920618E+03  0.13111695812E+03  0.41800000000E+01 0.  1.
</event>
<event>
11    1  0.7577197E-009  0.1992858E+03  0.7561462E-02  0.1055030E+00
         22   -1    0    0    0    0  0.00000000000E+00  0.00000000000E+00  0.63218732278E+02  0.63218732278E+02  0.00000000000E+00 0. -1.
         22   -1    0    0    0    0 -0.00000000000E+00 -0.00000000000E+00 -0.19937088696E+04  0.19937088696E+04  0.00000000000E+00 0.  1.
        -24    2    1    2    0    0  0.12117827603E+03  0.84996809194E+02 -0.11990272462E+04  0.12107013005E+04  0.78883900246E+02 0.  0.
         25    2    1    2    0    0 -0.10279608018E+03 -0.15433738721E+03 -0.69844561647E+03  0.73338985777E+03  0.12508933259E+03 0.  0.
         24    2    1    2    0    0 -0.18382195851E+02  0.69340578019E+02 -0.33017274602E+02  0.11283644357E+03  0.80597156838E+02 0.  0.
        -13    1    5    5    0    0 -0.14605793546E+02  0.25771146427E+02 -0.56059516393E+02  0.63404657332E+02  0.00000000000E+00 0.  1.
         14    1    5    5    0    0 -0.37764023044E+01  0.43569431592E+02  0.23042241790E+02  0.49431786235E+02  0.00000000000E+00 0. -1.
         11    1    3    3    0    0  0.98742543659E+01  0.36262443713E+02 -0.14897551080E+03  0.15364299054E+03  0.00000000000E+00 0. -1.
        -12    1    3    3    0    0  0.11130402166E+03  0.48734365481E+02 -0.10500517354E+04  0.10570583100E+04  0.00000000000E+00 0.  1.
          5    1    4    4  501    0 -0.94754116432E+02 -0.70160690952E+02 -0.24279275793E+03  0.26993825375E+03  0.41800000000E+01 0.  1.
         -5    1    4    4    0  501 -0.80419637457E+01 -0.84176696261E+02 -0.45565285853E+03  0.46345160401E+03  0.41800000000E+01 0.  1.
</event>
<event>
11    1  0.7577197E-009  0.2085661E+03  0.7561462E-02  0.1048626E+00
         22   -1    0    0    0    0  0.00000000000E+00  0.00000000000E+00  0.27215377720E+03  0.27215377720E+03  0.00000000000E+00 0.  1.
         22   -1    0    0    0    0 -0.00000000000E+00 -0.00000000000E+00 -0.77532818334E+03  0.77532818334E+03  0.00000000000E+00 0.  1.
         24    2    1    2    0    0 -0.15066010371E+03 -0.74610428512E+02 -0.39682211955E+03  0.43836590747E+03  0.80197826471E+02 0.  0.
         25    2    1    2    0    0  0.17561464469E+03  0.18796595160E+01 -0.30993655432E+03  0.37756022241E+03  0.12508803816E+03 0.  0.
        -24    2    1    2    0    0 -0.24954540984E+02  0.72730768996E+02  0.20358426773E+03  0.23155583066E+03  0.79114188154E+02 0.  0.
        -13    1    3    3    0    0 -0.12162646882E+03 -0.76146892418E+02 -0.37642938679E+03  0.40285286443E+03  0.00000000000E+00 0.  1.
         14    1    3    3    0    0 -0.29033634886E+02  0.15364639057E+01 -0.20392732765E+02  0.35513043036E+02  0.00000000000E+00 0. -1.
         13    1    5    5    0    0  0.16642854823E+02  0.56617245030E+01  0.98926255170E+02  0.10047608523E+03  0.00000000000E+00 0. -1.
        -14    1    5    5    0    0 -0.41597395808E+02  0.67069044493E+02  0.10465801256E+03  0.13107974543E+03  0.00000000000E+00 0.  1.
          5    1    4    4  501    0  0.78417842105E+02 -0.49961764000E+02 -0.20600064760E+03  0.22605148758E+03  0.41800000000E+01 0. -1.
         -5    1    4    4    0  501  0.97196802590E+02  0.51841423516E+02 -0.10393590672E+03  0.15150873484E+03  0.41800000000E+01 0. -1.
</event>
<event>
11    1  0.7577197E-009  0.1368903E+03  0.7561462E-02  0.1111081E+00
         22   -1    0    0    0    0  0.00000000000E+00  0.00000000000E+00  0.19095075656E+04  0.19095075656E+04  0.00000000000E+00 0.  1.
         22   -1    0    0    0    0 -0.00000000000E+00 -0.00000000000E+00 -0.54005838590E+03  0.54005838590E+03  0.00000000000E+00 0. -1.
        -24    2    1    2    0    0 -0.18311332764E+02 -0.53563712214E+02 -0.47897933110E+03  0.48885421244E+03  0.79704863276E+02 0.  0.
         25    2    1    2    0    0  0.39566150634E+02  0.27243437903E+02  0.26294449450E+02  0.13655264948E+03  0.12509013880E+03 0.  0.
         24    2    1    2    0    0 -0.21254817871E+02  0.26320274311E+02  0.18221340613E+04  0.18241590895E+04  0.78989381837E+02 0.  0.
        -11    1    5    5    0    0 -0.50880257135E+02  0.15751958715E+02  0.12867118773E+04  0.12878137986E+04  0.00000000000E+00 0.  1.
         12    1    5    5    0    0  0.29625439264E+02  0.10568315595E+02  0.53542218401E+03  0.53634529090E+03  0.00000000000E+00 0. -1.
         11    1    3    3    0    0 -0.20156836329E+02 -0.69944315193E+02 -0.44688111203E+03  0.45277061915E+03  0.00000000000E+00 0. -1.
        -12    1    3    3    0    0  0.18455035656E+01  0.16380602980E+02 -0.32098219072E+02  0.36083593293E+02  0.00000000000E+00 0.  1.
          5    1    4    4  501    0  0.27662803329E+02  0.77385430200E+02  0.16722972349E+02  0.83969433126E+02  0.41800000000E+01 0.  1.
         -5    1    4    4    0  501  0.11903347305E+02 -0.50141992297E+02  0.95714771003E+01  0.52583216357E+02  0.41800000000E+01 0.  1.
</event>
<event>
11    1  0.7577197E-009  0.1294829E+03  0.7561462E-02  0.1119906E+00
         22   -1    0    0    0    0  0.00000000000E+00  0.00000000000E+00  0.52607369259E+03  0.52607369259E+03  0.00000000000E+00 0.  1.
         22   -1    0    0    0    0 -0.00000000000E+00 -0.00000000000E+00 -0.51720686703E+03  0.51720686703E+03  0.00000000000E+00 0.  1.
         24    2    1    2    0    0 -0.30725564050E+01  0.17834207090E+02 -0.48436030354E+03  0.49138945837E+03  0.80815819020E+02 0.  0.
         25    2    1    2    0    0  0.27255004198E+02  0.79835850393E+01  0.14870116144E+03  0.19638270884E+03  0.12509020758E+03 0.  0.
        -24    2    1    2    0    0 -0.24182447793E+02 -0.25817792130E+02  0.34452596766E+03  0.35550839241E+03  0.80229206124E+02 0.  0.
        -13    1    3    3    0    0 -0.40094937190E+00  0.31129025403E+01 -0.47192271223E+03  0.47193314912E+03  0.00000000000E+00 0.  1.
         14    1    3    3    0    0 -0.26716070331E+01  0.14721304550E+02 -0.12437591308E+02  0.19456309243E+02  0.00000000000E+00 0. -1.
         13    1    5    5    0    0 -0.28021770624E+02  0.23321005300E+02  0.11085863577E+03  0.11669929752E+03  0.00000000000E+00 0. -1.
        -14    1    5    5    0    0  0.38393228311E+01 -0.49138797430E+02  0.23366733188E+03  0.23880909489E+03  0.00000000000E+00 0.  1.
          5    1    4    4  501    0  0.21739834326E+01 -0.40887094860E+02  0.13281834300E+03  0.13904914730E+03  0.41800000000E+01 0.  1.
         -5    1    4    4    0  501  0.25081020765E+02  0.48870679899E+02  0.15882818449E+02  0.57333561535E+02  0.41800000000E+01 0.  1.
</event>
<event>
11    1  0.7577197E-009  0.1255395E+03  0.7561462E-02  0.1124874E+00
         22   -1    0    0    0    0  0.00000000000E+00  0.00000000000E+00  0.89768532901E+03  0.89768532901E+03  0.00000000000E+00 0. -1.
         22   -1    0    0    0    0 -0.00000000000E+00 -0.00000000000E+00 -0.20603196602E+03  0.20603196602E+03  0.00000000000E+00 0. -1.
         24    2    1    2    0    0  0.13431067647E+02 -0.50029710639E+01 -0.14961127541E+03  0.17041323963E+03  0.80322569757E+02 0.  0.
         25    2    1    2    0    0 -0.84421209842E+01 -0.49054479354E+01  0.45755009841E+02  0.13355244944E+03  0.12508957990E+03 0.  0.
        -24    2    1    2    0    0 -0.49889466626E+01  0.99084189993E+01  0.79550962855E+03  0.79975160596E+03  0.81510709497E+02 0.  0.
        -11    1    3    3    0    0  0.66257879684E+01  0.29046701373E+02 -0.19165140474E+02  0.35424772917E+02  0.00000000000E+00 0.  1.
         12    1    3    3    0    0  0.68052796785E+01 -0.34049672437E+02 -0.13044613494E+03  0.13498846671E+03  0.00000000000E+00 0. -1.
         13    1    5    5    0    0 -0.52276834338E+01  0.45758076666E+02  0.48375907085E+03  0.48594646710E+03  0.00000000000E+00 0. -1.
        -14    1    5    5    0    0  0.23873677125E+00 -0.35849657667E+02  0.31175055770E+03  0.31380513886E+03  0.00000000000E+00 0.  1.
          5    1    4    4  501    0  0.40876452692E+02  0.56234437055E+01 -0.23586158701E+02  0.47710447347E+02  0.41800000000E+01 0. -1.
         -5    1    4    4    0  501 -0.49318573676E+02 -0.10528891641E+02  0.69341168542E+02  0.85842002094E+02  0.41800000000E+01 0. -1.
</event>
<event>
11    1  0.7577197E-009  0.1797264E+03  0.7561462E-02  0.1069864E+00
         22   -1    0    0    0    0  0.00000000000E+00  0.00000000000E+00  0.12563520098E+04  0.12563520098E+04  0.00000000000E+00 0. -1.
         22   -1    0    0    0    0 -0.00000000000E+00 -0.00000000000E+00 -0.15771605104E+03  0.15771605104E+03  0.00000000000E+00 0.  1.
        -24    2    1    2    0    0 -0.30075727024E+02 -0.12350172271E+03 -0.95859927585E+02  0.17914615566E+03  0.82140090732E+02 0.  0.
         25    2    1    2    0    0  0.35943124684E+02  0.15179370869E+03  0.56160074881E+03  0.59613468533E+03  0.12509166153E+03 0.  0.
         24    2    1    2    0    0 -0.58673976591E+01 -0.28291985985E+02  0.63289513757E+03  0.63878721987E+03  0.81596533550E+02 0.  0.
        -13    1    5    5    0    0  0.58174274061E+01 -0.24848249492E+02  0.53613192850E+02  0.59377204481E+02  0.00000000000E+00 0.  1.
         14    1    5    5    0    0 -0.11684825065E+02 -0.34437364926E+01  0.57928194472E+03  0.57941001539E+03  0.00000000000E+00 0. -1.
         11    1    3    3    0    0  0.21579559260E+02 -0.77125405738E+01 -0.58358018335E+01  0.23647774589E+02  0.00000000000E+00 0. -1.
        -12    1    3    3    0    0 -0.51655286284E+02 -0.11578918213E+03 -0.90024125751E+02  0.15549838108E+03  0.00000000000E+00 0.  1.
          5    1    4    4  501    0  0.54039653389E+02  0.15106030801E+03  0.55269327786E+03  0.57552309475E+03  0.41800000000E+01 0. -1.
         -5    1    4    4    0  501 -0.18096528706E+02  0.73340067620E+00  0.89074709465E+01  0.20611590584E+02  0.41800000000E+01 0. -1.
</event>
<event>
11    1  0.7577197E-009  0.1684628E+03  0.7561462E-02  0.1079377E+00
         22   -1    0    0    0    0  0.00000000000E+00  0.00000000000E+00  0.12578866439E+03  0.12578866439E+03  0.00000000000E+00 0.  1.
         22   -1    0    0    0    0 -0.00000000000E+00 -0.00000000000E+00 -0.17634085953E+04  0.17634085953E+04  0.00000000000E+00 0. -1.
        -24    2    1    2    0    0 -0.63741130249E+02 -0.98694606151E+02 -0.14655222050E+04  0.14723699668E+04  0.79463380616E+02 0.  0.
         25    2    1    2    0    0 -0.23400024688E+02  0.10400560612E+03 -0.23495098917E+03  0.28672981286E+03  0.12508913227E+03 0.  0.
         24    2    1    2    0    0  0.87141154936E+02 -0.53109999639E+01  0.62853263269E+02  0.13009748000E+03  0.73164431218E+02 0.  0.
        -11    1    5    5    0    0  0.28696766366E+02 -0.18527195966E+02  0.61279761188E+02  0.70156756777E+02  0.00000000000E+00 0.  1.
         12    1    5    5    0    0  0.58444388570E+02  0.13216196003E+02  0.15735020813E+01  0.59940723226E+02  0.00000000000E+00 0. -1.
         11    1    3    3    0    0 -0.61757059065E+01 -0.19919856517E+02 -0.74269534876E+03  0.74298810294E+03  0.00000000000E+00 0. -1.
        -12    1    3    3    0    0 -0.57565424342E+02 -0.78774749634E+02 -0.72282685623E+03  0.72938186387E+03  0.00000000000E+00 0.  1.
          5    1    4    4  501    0 -0.13384299505E+02  0.12403013138E+03 -0.13353894763E+03  0.18279150937E+03  0.41800000000E+01 0.  1.
         -5    1    4    4    0  501 -0.10015725183E+02 -0.20024525265E+02 -0.10141204155E+03  0.10393830350E+03  0.41800000000E+01 0.  1.
</event>
<event>
11    1  0.7577197E-009  0.1653485E+03  0.7561462E-02  0.1082152E+00
         22   -1    0    0    0    0  0.00000000000E+00  0.00000000000E+00  0.27509512164E+03  0.27509512164E+03  0.00000000000E+00 0. -1.
         22   -1    0    0    0    0 -0.00000000000E+00 -0.00000000000E+00 -0.73487883970E+03  0.73487883970E+03  0.00000000000E+00 0. -1.
         24    2    1    2    0    0  0.97644190055E+01  0.12661034707E+03 -0.54766935192E+03  0.56790213729E+03  0.80284460740E+02 0.  0.
         25    2    1    2    0    0 -0.70952093215E+02 -0.33529016208E+02 -0.12303364490E+03  0.19219493453E+03  0.12507286125E+03 0.  0.
        -24    2    1    2    0    0  0.61187674209E+02 -0.93081330867E+02  0.21091927877E+03  0.24987688953E+03  0.74454362766E+02 0.  0.
        -13    1    3    3    0    0  0.20802231964E+02  0.48305255270E+02 -0.96939826674E+02  0.11028807976E+03  0.00000000000E+00 0.  1.
         14    1    3    3    0    0 -0.11037812958E+02  0.78305091805E+02 -0.45072952525E+03  0.45761405753E+03  0.00000000000E+00 0. -1.
         11    1    5    5    0    0  0.22482555779E+02 -0.66373229943E+02  0.18112061017E+03  0.19420490827E+03  0.00000000000E+00 0. -1.
        -12    1    5    5    0    0  0.38705118430E+02 -0.26708100923E+02  0.29798668602E+02  0.55671981266E+02  0.00000000000E+00 0.  1.
          5    1    4    4  501    0  0.30708891126E+02 -0.30266045383E+02 -0.21288697420E+02  0.48267489423E+02  0.41800000000E+01 0. -1.
         -5    1    4    4    0  501 -0.10166098434E+03 -0.32629708249E+01 -0.10174494748E+03  0.14392744510E+03  0.41800000000E+01 0. -1.
</event>
<event>
11    1  0.7577197E-009  0.2752695E+03  0.7561462E-02  0.1011237E+00
         22   -1    0    0    0    0  0.00000000000E+00  0.00000000000E+00  0.18522786703E+04  0.18522786703E+04  0.00000000000E+00 0.  1.
         22   -1    0    0    0    0 -0.00000000000E+00 -0.00000000000E+00 -0.88835883545E+03  0.88835883545E+03  0.00000000000E+00 0.  1.
         24    2    1    2    0    0 -0.58417579042E+02  0.24025279534E+03 -0.85131154493E+03  0.89018722725E+03  0.81042789999E+02 0.  0.
         25    2    1    2    0    0  0.36822127519E+02 -0.16219194856E+03  0.73498563171E+03  0.76388028557E+03  0.12508842718E+03 0.  0.
        -24    2    1    2    0    0  0.21595451523E+02 -0.78060846780E+02  0.10802457481E+04  0.10865699929E+04  0.84519902984E+02 0.  0.
        -11    1    3    3    0    0 -0.72382492879E+02  0.12801584020E+03 -0.47434594637E+03  0.49661993260E+03  0.00000000000E+00 0.  1.
         12    1    3    3    0    0  0.13964913837E+02  0.11223695514E+03 -0.37696559856E+03  0.39356729464E+03  0.00000000000E+00 0. -1.
         11    1    5    5    0    0  0.29357889491E+00 -0.91555893781E+02  0.81404137515E+03  0.81917393045E+03  0.00000000000E+00 0. -1.
        -12    1    5    5    0    0  0.21301872628E+02  0.13495047001E+02  0.26620437291E+03  0.26739606247E+03  0.00000000000E+00 0.  1.
          5    1    4    4  501    0 -0.15652189493E+02  0.64387588311E+01  0.16527139623E+02  0.24022227110E+02  0.41800000000E+01 0. -1.
         -5    1    4    4    0  501  0.52474317012E+02 -0.16863070740E+03  0.71845849209E+03  0.73985805846E+03  0.41800000000E+01 0. -1.
</event>
<event>
11    1  0.7577197E-009  0.2302798E+03  0.7561462E-02  0.1034962E+00
         22   -1    0    0    0    0  0.00000000000E+00  0.00000000000E+00  0.10848320908E+04  0.10848320908E+04  0.00000000000E+00 0.  1.
         22   -1    0    0    0    0 -0.00000000000E+00 -0.00000000000E+00 -0.12411007239E+04  0.12411007239E+04  0.00000000000E+00 0. -1.
         24    2    1    2    0    0 -0.13534243066E+03  0.78587911677E+02 -0.75646819975E+03  0.77653264819E+03  0.79152909427E+02 0.  0.
         25    2    1    2    0    0 -0.46943195158E+02 -0.14930445924E+03 -0.44229311410E+03  0.48555743631E+03  0.12508932831E+03 0.  0.
        -24    2    1    2    0    0  0.18228562582E+03  0.70716547563E+02  0.10424926807E+04  0.10638427303E+04  0.82106551623E+02 0.  0.
        -11    1    3    3    0    0 -0.40352910835E+02  0.15133677630E+02 -0.83791725181E+02  0.94225468003E+02  0.00000000000E+00 0.  1.
         12    1    3    3    0    0 -0.94989519828E+02  0.63454234046E+02 -0.67267647457E+03  0.68230718019E+03  0.00000000000E+00 0. -1.
         11    1    5    5    0    0  0.73713654203E+02 -0.12160611077E+01  0.24729963336E+03  0.25805482030E+03  0.00000000000E+00 0. -1.
        -12    1    5    5    0    0  0.10857197162E+03  0.71932608671E+02  0.79519304738E+03  0.80578790995E+03  0.00000000000E+00 0.  1.
          5    1    4    4  501    0 -0.61405652450E+02 -0.13380798844E+03 -0.23635738251E+03  0.27849150183E+03  0.41800000000E+01 0.  1.
         -5    1    4    4    0  501  0.14462457292E+02 -0.15496470799E+02 -0.20593573159E+03  0.20706593448E+03  0.41800000000E+01 0.  1.
</event>
<event>
11    1  0.7577197E-009  0.1877302E+03  0.7561462E-02  0.1063556E+00
         22   -1    0    0    0    0  0.00000000000E+00  0.00000000000E+00  0.12919908190E+04  0.12919908190E+04  0.00000000000E+00 0.  1.
         22   -1    0    0    0    0 -0.00000000000E+00 -0.00000000000E+00 -0.85659650923E+03  0.85659650923E+03  0.00000000000E+00 0.  1.
        -24    2    1    2    0    0  0.10508585324E+03 -0.80353964545E+02 -0.79995253773E+03  0.81609598087E+03  0.92675731429E+02 0.  0.
         25    2    1    2    0    0  0.22763326112E+02  0.15128602745E+03  0.19062040867E+03  0.27456613870E+03  0.12507914775E+03 0.  0.
         24    2    1    2    0    0 -0.12784917935E+03 -0.70932062901E+02  0.10447264388E+04  0.10579252087E+04  0.79847635502E+02 0.  0.
        -13    1    5    5    0    0 -0.13864331485E+03 -0.61368534788E+02  0.97552125738E+03  0.98723340170E+03  0.00000000000E+00 0.  1.
         14    1    5    5    0    0  0.10794135504E+02 -0.95635281133E+01  0.69205181454E+02  0.70691806960E+02  0.00000000000E+00 0. -1.
         11    1    3    3    0    0  0.78806443010E+02 -0.55385149423E+02 -0.30570073198E+03  0.32051662635E+03  0.00000000000E+00 0. -1.
        -12    1    3    3    0    0  0.26279410226E+02 -0.24968815123E+02 -0.49425180576E+03  0.49557935452E+03  0.00000000000E+00 0.  1.
          5    1    4    4  501    0  0.40337492325E+02  0.38342493553E+02  0.43468076380E+01  0.55978810595E+02  0.41800000000E+01 0.  1.
         -5    1    4    4    0  501 -0.17574166213E+02  0.11294353389E+03  0.18627360103E+03  0.21858732811E+03  0.41800000000E+01 0.  1.
</event>
<event>
11    1  0.7577197E-009  0.1427039E+03  0.7561462E-02  0.1104576E+00
         22   -1    0    0    0    0  0.00000000000E+00  0.00000000000E+00  0.75966319527E+03  0.75966319527E+03  0.00000000000E+00 0. -1.
         22   -1    0    0    0    0 -0.00000000000E+00 -0.00000000000E+00 -0.27872698333E+03  0.27872698333E+03  0.00000000000E+00 0. -1.
         24    2    1    2    0    0 -0.35082703183E+02  0.51279271356E+02 -0.15101438974E+03  0.18128656562E+03  0.78734447558E+02 0.  0.
         25    2    1    2    0    0  0.48909591078E+02 -0.78740059226E+02 -0.54739568195E+02  0.16502500046E+03  0.12507871691E+03 0.  0.
        -24    2    1    2    0    0 -0.13826887895E+02  0.27460787871E+02  0.68669016988E+03  0.69207861252E+03  0.80524150437E+02 0.  0.
        -11    1    3    3    0    0 -0.43361342861E+01  0.20195880240E+02  0.32821623369E+01  0.20915263059E+02  0.00000000000E+00 0.  1.
         12    1    3    3    0    0 -0.30746568896E+02  0.31083391116E+02 -0.15429655208E+03  0.16037130257E+03  0.00000000000E+00 0. -1.
         11    1    5    5    0    0 -0.30398447946E+01 -0.13509833250E+02  0.51679803986E+03  0.51698352997E+03  0.00000000000E+00 0. -1.
        -12    1    5    5    0    0 -0.10787043101E+02  0.40970621121E+02  0.16989213002E+03  0.17509508256E+03  0.00000000000E+00 0.  1.
          5    1    4    4  501    0 -0.19385227622E+02 -0.83885620532E+02 -0.39089999669E+02  0.94647159789E+02  0.41800000000E+01 0. -1.
         -5    1    4    4    0  501  0.68294818700E+02  0.51455613055E+01 -0.15649568526E+02  0.70377840670E+02  0.41800000000E+01 0. -1.
</event>
<event>
11    1  0.7577197E-009  0.1470153E+03  0.7561462E-02  0.1099968E+00
         22   -1    0    0    0    0  0.00000000000E+00  0.00000000000E+00  0.13641028193E+03  0.13641028193E+03  0.00000000000E+00 0.  1.
         22   -1    0    0    0    0 -0.00000000000E+00 -0.00000000000E+00 -0.10341308040E+04  0.10341308040E+04  0.00000000000E+00 0.  1.
        -24    2    1    2    0    0 -0.45989663796E+02 -0.45043075122E+02 -0.74443238734E+03  0.75159063809E+03  0.81024565114E+02 0.  0.
         25    2    1    2    0    0 -0.34062232852E+02  0.57087676092E+02 -0.23804208742E+03  0.27700090946E+03  0.12508489113E+03 0.  0.
         24    2    1    2    0    0  0.80051896648E+02 -0.12044600970E+02  0.84753952680E+02  0.14194953839E+03  0.80081585794E+02 0.  0.
        -13    1    5    5    0    0  0.49848189364E+02  0.31108999651E+02  0.30006430209E+02  0.65977251353E+02  0.00000000000E+00 0.  1.
         14    1    5    5    0    0  0.30203707284E+02 -0.43153600621E+02  0.54747522470E+02  0.75972287032E+02  0.00000000000E+00 0. -1.
         13    1    3    3    0    0 -0.38212591990E+02 -0.60434318638E+02 -0.37498959970E+03  0.38174560763E+03  0.00000000000E+00 0. -1.
        -14    1    3    3    0    0 -0.77770718062E+01  0.15391243515E+02 -0.36944278763E+03  0.36984503046E+03  0.00000000000E+00 0.  1.
          5    1    4    4  501    0 -0.56819709735E+02 -0.24244175618E+01 -0.18625185227E+03  0.19478599048E+03  0.41800000000E+01 0. -1.
         -5    1    4    4    0  501  0.22757476883E+02  0.59512093654E+02 -0.51790235150E+02  0.82214918975E+02  0.41800000000E+01 0. -1.
</event>
<event>
11    1  0.7577197E-009  0.1312574E+03  0.7561462E-02  0.1117734E+00
         22   -1    0    0    0    0  0.00000000000E+00  0.00000000000E+00  0.11383651830E+04  0.11383651830E+04  0.00000000000E+00 0. -1.
         22   -1    0    0    0    0 -0.00000000000E+00 -0.00000000000E+00 -0.69915095859E+03  0.69915095859E+03  0.00000000000E+00 0.  1.
         24    2    1    2    0    0  0.11257503939E+02  0.37145937592E+02 -0.65734499385E+03  0.66350324378E+03  0.81409836601E+02 0.  0.
         25    2    1    2    0    0 -0.26938193330E+02  0.11051979979E+01  0.74968539112E+02  0.14830593062E+03  0.12508988560E+03 0.  0.
        -24    2    1    2    0    0  0.15680689391E+02 -0.38251135590E+02  0.10215906791E+04  0.10257069671E+04  0.81964830464E+02 0.  0.
        -11    1    3    3    0    0 -0.13365859948E+02 -0.16485441930E+02 -0.34370259425E+03  0.34435721178E+03  0.00000000000E+00 0.  1.
         12    1    3    3    0    0  0.24623363887E+02  0.53631379523E+02 -0.31364239960E+03  0.31914603200E+03  0.00000000000E+00 0. -1.
         13    1    5    5    0    0 -0.31815525460E+02 -0.27331779480E+02  0.39376672079E+03  0.39599429823E+03  0.00000000000E+00 0. -1.
        -14    1    5    5    0    0  0.47496214851E+02 -0.10919356110E+02  0.62782395832E+03  0.62971266892E+03  0.00000000000E+00 0.  1.
          5    1    4    4  501    0  0.65582270656E+01 -0.55333420623E+02  0.57682032743E+02  0.80308698666E+02  0.41800000000E+01 0.  1.
         -5    1    4    4    0  501 -0.33496420396E+02  0.56438618621E+02  0.17286506369E+02  0.67997231956E+02  0.41800000000E+01 0.  1.
</event>
<event>
11    1  0.7577197E-009  0.1326709E+03  0.7561462E-02  0.1116030E+00
         22   -1    0    0    0    0  0.00000000000E+00  0.00000000000E+00  0.75709837686E+03  0.75709837686E+03  0.00000000000E+00 0.  1.
         22   -1    0    0    0    0 -0.00000000000E+00 -0.00000000000E+00 -0.70456000250E+03  0.70456000250E+03  0.00000000000E+00 0. -1.
        -24    2    1    2    0    0  0.45423242601E+01 -0.43841883849E+02 -0.68244599601E+03  0.68870774163E+03  0.81505045383E+02 0.  0.
         25    2    1    2    0    0  0.67392632622E+01  0.55842477696E+02  0.28273234289E+03  0.31424563007E+03  0.12509571664E+03 0.  0.
         24    2    1    2    0    0 -0.11281587522E+02 -0.12000593847E+02  0.45225202748E+03  0.45870500766E+03  0.74880566440E+02 0.  0.
        -11    1    5    5    0    0 -0.36036681845E+02 -0.25668929823E+02  0.34345832762E+03  0.34629634594E+03  0.00000000000E+00 0.  1.
         12    1    5    5    0    0  0.24755094323E+02  0.13668335976E+02  0.10879369985E+03  0.11240866172E+03  0.00000000000E+00 0. -1.
         13    1    3    3    0    0 -0.10187896029E+02 -0.56384450766E+02 -0.28028178838E+03  0.28607845150E+03  0.00000000000E+00 0. -1.
        -14    1    3    3    0    0  0.14730220289E+02  0.12542566917E+02 -0.40216420762E+03  0.40262929013E+03  0.00000000000E+00 0.  1.
          5    1    4    4  501    0  0.16962471128E+02  0.93015671452E+02  0.23064730814E+03  0.24930963422E+03  0.41800000000E+01 0. -1.
         -5    1    4    4    0  501 -0.10223207866E+02 -0.37173193756E+02  0.52085034742E+02  0.64935995851E+02  0.41800000000E+01 0. -1.
</event>
<event>
11    1  0.7577197E-009  0.1437521E+03  0.7561462E-02  0.1103439E+00
         22   -1    0    0    0    0  0.00000000000E+00  0.00000000000E+00  0.59264465321E+03  0.59264465321E+03  0.00000000000E+00 0.  1.
         22   -1    0    0    0    0 -0.00000000000E+00 -0.00000000000E+00 -0.41452505663E+03  0.41452505663E+03  0.00000000000E+00 0.  1.
         24    2    1    2    0    0  0.59642221679E+02  0.96736153484E+01 -0.35221792139E+03  0.36628157758E+03  0.80336520251E+02 0.  0.
         25    2    1    2    0    0 -0.39227828711E+02 -0.78090990333E+02  0.70013550083E+02  0.16788497588E+03  0.12508574105E+03 0.  0.
        -24    2    1    2    0    0 -0.20414392968E+02  0.68417374985E+02  0.46032396790E+03  0.47300315638E+03  0.82074026871E+02 0.  0.
        -13    1    3    3    0    0 -0.86441100231E+01  0.27477682648E+02 -0.78673907846E+02  0.83781426686E+02  0.00000000000E+00 0.  1.
         14    1    3    3    0    0  0.68286331702E+02 -0.17804067299E+02 -0.27354401355E+03  0.28250015090E+03  0.00000000000E+00 0. -1.
         13    1    5    5    0    0  0.23084343877E+01  0.57069964649E+02  0.13364791803E+03  0.14534123891E+03  0.00000000000E+00 0. -1.
        -14    1    5    5    0    0 -0.22722827356E+02  0.11347410337E+02  0.32667604986E+03  0.32766191747E+03  0.00000000000E+00 0.  1.
          5    1    4    4  501    0 -0.22124500555E+02  0.27811996176E+02 -0.60792203865E+01  0.36296418234E+02  0.41800000000E+01 0.  1.
         -5    1    4    4    0  501 -0.17103328156E+02 -0.10590298651E+03  0.76092770469E+02  0.13158855765E+03  0.41800000000E+01 0.  1.
</event>
<event>
11    1  0.7577197E-009  0.1468589E+03  0.7561462E-02  0.1100132E+00
         22   -1    0    0    0    0  0.00000000000E+00  0.00000000000E+00  0.44999271562E+03  0.44999271562E+03  0.00000000000E+00 0. -1.
         22   -1    0    0    0    0 -0.00000000000E+00 -0.00000000000E+00 -0.57303111771E+03  0.57303111771E+03  0.00000000000E+00 0. -1.
         24    2    1    2    0    0 -0.25429418163E+02  0.66430433729E+02 -0.42040619559E+03  0.43394707327E+03  0.80678592454E+02 0.  0.
         25    2    1    2    0    0  0.52427093211E+02 -0.11394143833E+03 -0.83311310130E+02  0.19575333617E+03  0.12508933909E+03 0.  0.
        -24    2    1    2    0    0 -0.26997675048E+02  0.47511004602E+02  0.38067910363E+03  0.39332342389E+03  0.82465543267E+02 0.  0.
        -11    1    3    3    0    0 -0.23461771451E+02  0.13475256264E+02 -0.31312581642E+03  0.31429256142E+03  0.00000000000E+00 0.  1.
         12    1    3    3    0    0 -0.19676467121E+01  0.52955177465E+02 -0.10728037916E+03  0.11965451186E+03  0.00000000000E+00 0. -1.
         11    1    5    5    0    0 -0.43481683348E+02  0.53424338574E+02  0.35853162617E+03  0.36508867923E+03  0.00000000000E+00 0. -1.
        -12    1    5    5    0    0  0.16484008300E+02 -0.59133339725E+01  0.22147477464E+02  0.28234744666E+02  0.00000000000E+00 0.  1.
          5    1    4    4  501    0  0.41950830588E+02 -0.12095617196E+03 -0.18293250907E+02  0.12939236125E+03  0.41800000000E+01 0. -1.
         -5    1    4    4    0  501  0.10476262622E+02  0.70147336294E+01 -0.65018059223E+02  0.66360974914E+02  0.41800000000E+01 0. -1.
</event>
<event>
11    1  0.7577197E-009  0.1368935E+03  0.7561462E-02  0.1111078E+00
         22   -1    0    0    0    0  0.00000000000E+00  0.00000000000E+00  0.23686101609E+04  0.23686101609E+04  0.00000000000E+00 0. -1.
         22   -1    0    0    0    0 -0.00000000000E+00 -0.00000000000E+00 -0.25855888781E+02  0.25855888781E+02  0.00000000000E+00 0.  1.
         24    2    1    2    0    0 -0.38099063569E+02 -0.80537782178E+01  0.10383523158E+03  0.13972011930E+03  0.84991496234E+02 0.  0.
         25    2    1    2    0    0  0.18159507182E+02  0.60681254117E+02  0.77749710372E+03  0.79003822898E+03  0.12508666858E+03 0.  0.
        -24    2    1    2    0    0  0.19939556387E+02 -0.52627475899E+02  0.14614219368E+04  0.14647077014E+04  0.80295304903E+02 0.  0.
        -13    1    3    3    0    0 -0.12476996036E+02 -0.36985420865E+02  0.13225495295E+02  0.41212989608E+02  0.00000000000E+00 0.  1.
         14    1    3    3    0    0 -0.25622067533E+02  0.28931642647E+02  0.90609736287E+02  0.98507129696E+02  0.00000000000E+00 0. -1.
         11    1    5    5    0    0  0.24369551501E+02 -0.19640873880E+02  0.12719301475E+04  0.12723151886E+04  0.00000000000E+00 0. -1.
        -12    1    5    5    0    0 -0.44299951147E+01 -0.32986602019E+02  0.18949178928E+03  0.19239251278E+03  0.00000000000E+00 0.  1.
          5    1    4    4  501    0  0.61277898265E+02  0.28874069135E+01  0.24187605132E+03  0.24956925800E+03  0.41800000000E+01 0.  1.
         -5    1    4    4    0  501 -0.43118391082E+02  0.57793847203E+02  0.53562105240E+03  0.54046897098E+03  0.41800000000E+01 0.  1.
</event>
<event>
11    1  0.7577197E-009  0.1706170E+03  0.7561462E-02  0.1077496E+00
         22   -1    0    0    0    0  0.00000000000E+00  0.00000000000E+00  0.21702830352E+04  0.21702830352E+04  0.00000000000E+00 0. -1.
         22   -1    0    0    0    0 -0.00000000000E+00 -0.00000000000E+00 -0.12456893762E+04  0.12456893762E+04  0.00000000000E+00 0. -1.
         24    2    1    2    0    0  0.86038295337E+02 -0.77834799454E+02 -0.12325278943E+04  0.12405971822E+04  0.80594752805E+02 0.  0.
         25    2    1    2    0    0 -0.10261732565E+03  0.61700334409E+02  0.96573419996E+03  0.98113592539E+03  0.12509161577E+03 0.  0.
        -24    2    1    2    0    0  0.16579030310E+02  0.16134465045E+02  0.11913873533E+04  0.11942393037E+04  0.79173881831E+02 0.  0.
        -13    1    3    3    0    0  0.14151471778E+02 -0.20441071834E+02 -0.68077192409E+03  0.68122574394E+03  0.00000000000E+00 0.  1.
         14    1    3    3    0    0  0.71886823559E+02 -0.57393727620E+02 -0.55175597018E+03  0.55937143831E+03  0.00000000000E+00 0. -1.
         13    1    5    5    0    0 -0.10191962788E+01  0.48949797165E+01  0.11160632893E+04  0.11160744892E+04  0.00000000000E+00 0. -1.
        -14    1    5    5    0    0  0.17598226589E+02  0.11239485328E+02  0.75324064029E+02  0.78164814536E+02  0.00000000000E+00 0.  1.
          5    1    4    4  501    0 -0.98413563920E+02  0.92958405024E+02  0.86375079306E+03  0.87430509523E+03  0.41800000000E+01 0.  1.
         -5    1    4    4    0  501 -0.42037617267E+01 -0.31258070615E+02  0.10198340690E+03  0.10683083016E+03  0.41800000000E+01 0.  1.
</event>
<event>
11    1  0.7577197E-009  0.1382143E+03  0.7561462E-02  0.1109569E+00
         22   -1    0    0    0    0  0.00000000000E+00  0.00000000000E+00  0.30532591019E+03  0.30532591019E+03  0.00000000000E+00 0.  1.
         22   -1    0    0    0    0 -0.00000000000E+00 -0.00000000000E+00 -0.23934470338E+03  0.23934470338E+03  0.00000000000E+00 0. -1.
         24    2    1    2    0    0  0.21132721171E+02 -0.55249250497E+02 -0.16360601549E+03  0.19173776945E+03  0.80606279823E+02 0.  0.
         25    2    1    2    0    0 -0.22229793340E+02  0.51974699797E+02  0.34071590086E+02  0.14143509625E+03  0.12508988796E+03 0.  0.
        -24    2    1    2    0    0  0.10970721696E+01  0.32745506994E+01  0.19551563221E+03  0.21149774787E+03  0.80579207419E+02 0.  0.
        -13    1    3    3    0    0  0.37470854406E+02  0.46686489132E+01 -0.57426668093E+02  0.68729058053E+02  0.00000000000E+00 0.  1.
         14    1    3    3    0    0 -0.16338133236E+02 -0.59917899410E+02 -0.10617934739E+03  0.12300871140E+03  0.00000000000E+00 0. -1.
         11    1    5    5    0    0 -0.12087569203E+02  0.34215537335E+02  0.47868312240E+02  0.60068191592E+02  0.00000000000E+00 0. -1.
        -12    1    5    5    0    0  0.13184641373E+02 -0.30940986636E+02  0.14764731997E+03  0.15142955628E+03  0.00000000000E+00 0.  1.
          5    1    4    4  501    0 -0.28524800754E+02 -0.30268647607E+02  0.41004231548E+02  0.58554886140E+02  0.41800000000E+01 0.  1.
         -5    1    4    4    0  501  0.62950074139E+01  0.82243347404E+02 -0.69326414616E+01  0.82880210112E+02  0.41800000000E+01 0.  1.
</event>
<event>
11    1  0.7577197E-009  0.1329562E+03  0.7561462E-02  0.1115689E+00
         22   -1    0    0    0    0  0.00000000000E+00  0.00000000000E+00  0.94090095570E+03  0.94090095570E+03  0.00000000000E+00 0.  1.
         22   -1    0    0    0    0 -0.00000000000E+00 -0.00000000000E+00 -0.14834216761E+03  0.14834216761E+03  0.00000000000E+00 0.  1.
        -24    2    1    2    0    0 -0.45456456150E+01 -0.11609607078E+02 -0.78332563865E+02  0.11243958639E+03  0.79694567909E+02 0.  0.
         25    2    1    2    0    0 -0.21707848179E+02 -0.25722677635E+02  0.32887386582E+02  0.13364980189E+03  0.12509117688E+03 0.  0.
         24    2    1    2    0    0  0.26253493794E+02  0.37332284713E+02  0.83800396538E+03  0.84315373503E+03  0.81084088992E+02 0.  0.
        -11    1    5    5    0    0  0.25063092676E+02  0.34524833382E+02  0.83889319256E+03  0.83997732782E+03  0.00000000000E+00 0.  1.
         12    1    5    5    0    0  0.11904011178E+01  0.28074513309E+01 -0.88922717735E+00  0.31764072109E+01  0.00000000000E+00 0. -1.
         13    1    3    3    0    0  0.87346174851E+01 -0.36294315149E+02 -0.10098319508E+02  0.38672301607E+02  0.00000000000E+00 0. -1.
        -14    1    3    3    0    0 -0.13280263100E+02  0.24684708071E+02 -0.68234244357E+02  0.73767284778E+02  0.00000000000E+00 0.  1.
          5    1    4    4  501    0  0.19448829518E+02 -0.64370493272E+02  0.37040613417E+02  0.76884958321E+02  0.41800000000E+01 0. -1.
         -5    1    4    4    0  501 -0.41156677697E+02  0.38647815637E+02 -0.41532268352E+01  0.56764843572E+02  0.41800000000E+01 0. -1.
</event>
<event>
11    1  0.7577197E-009  0.1527674E+03  0.7561462E-02  0.1094084E+00
         22   -1    0    0    0    0  0.00000000000E+00  0.00000000000E+00  0.22793399387E+03  0.22793399387E+03  0.00000000000E+00 0. -1.
         22   -1    0    0    0    0 -0.00000000000E+00 -0.00000000000E+00 -0.79376268658E+03  0.79376268658E+03  0.00000000000E+00 0. -1.
        -24    2    1    2    0    0 -0.80321212251E+02 -0.33967387340E+02 -0.66098656748E+03  0.67144062598E+03  0.79523526605E+02 0.  0.
         25    2    1    2    0    0  0.93216939518E+02  0.16711856416E+02 -0.65266724632E+02  0.16992798650E+03  0.12508833396E+03 0.  0.
         24    2    1    2    0    0 -0.12895727267E+02  0.17255530924E+02  0.16042459941E+03  0.18032806797E+03  0.79486520071E+02 0.  0.
        -11    1    5    5    0    0  0.72622815249E+01  0.19384196253E+02  0.22069645637E+01  0.20817264227E+02  0.00000000000E+00 0.  1.
         12    1    5    5    0    0 -0.20158008792E+02 -0.21286653287E+01  0.15821763485E+03  0.15951080374E+03  0.00000000000E+00 0. -1.
         13    1    3    3    0    0 -0.63679424082E+02 -0.25045458122E+02 -0.63815165064E+03  0.64180984196E+03  0.00000000000E+00 0. -1.
        -14    1    3    3    0    0 -0.16641788169E+02 -0.89219292176E+01 -0.22834916848E+02  0.29630784024E+02  0.00000000000E+00 0.  1.
          5    1    4    4  501    0  0.11431389673E+03  0.43622751006E+02 -0.49832765503E+02  0.13217937929E+03  0.41800000000E+01 0. -1.
         -5    1    4    4    0  501 -0.21096957217E+02 -0.26910894591E+02 -0.15433959129E+02  0.37748607204E+02  0.41800000000E+01 0. -1.
</event>
<event>
11    1  0.7577197E-009  0.2469082E+03  0.7561462E-02  0.1025559E+00
         22   -1    0    0    0    0  0.00000000000E+00  0.00000000000E+00  0.87402099259E+02  0.87402099259E+02  0.00000000000E+00 0.  1.
         22   -1    0    0    0    0 -0.00000000000E+00 -0.00000000000E+00 -0.13219620879E+04  0.13219620879E+04  0.00000000000E+00 0.  1.
        -24    2    1    2    0    0 -0.14586811250E+03  0.48657200176E+02 -0.38487474099E+03  0.42220604605E+03  0.80525459962E+02 0.  0.
         25    2    1    2    0    0  0.10547657352E+03 -0.24025319737E+03 -0.49589870489E+03  0.57481331088E+03  0.12509160821E+03 0.  0.
         24    2    1    2    0    0  0.40391538985E+02  0.19159599720E+03 -0.35378654275E+03  0.41234483021E+03  0.80764092300E+02 0.  0.
        -13    1    5    5    0    0 -0.20064330465E+01  0.13958091904E+03 -0.19368229594E+03  0.23874607954E+03  0.00000000000E+00 0.  1.
         14    1    5    5    0    0  0.42397972031E+02  0.52015078156E+02 -0.16010424681E+03  0.17359875067E+03  0.00000000000E+00 0. -1.
         13    1    3    3    0    0 -0.32485978437E+01  0.83930873993E+01 -0.10617554189E+03  0.10655629029E+03  0.00000000000E+00 0. -1.
        -14    1    3    3    0    0 -0.14261951466E+03  0.40264112776E+02 -0.27869919909E+03  0.31564975576E+03  0.00000000000E+00 0.  1.
          5    1    4    4  501    0  0.13414662201E+02 -0.40152490231E+02 -0.20794832317E+03  0.21225492490E+03  0.41800000000E+01 0. -1.
         -5    1    4    4    0  501  0.92061911319E+02 -0.20010070714E+03 -0.28795038172E+03  0.36255838598E+03  0.41800000000E+01 0. -1.
</event>
<event>
11    1  0.7577197E-009  0.3991311E+03  0.7561462E-02  0.9652325E-01
         22   -1    0    0    0    0  0.00000000000E+00  0.00000000000E+00  0.29702322876E+04  0.29702322876E+04  0.00000000000E+00 0. -1.
         22   -1    0    0    0    0 -0.00000000000E+00 -0.00000000000E+00 -0.84593411696E+02  0.84593411696E+02  0.00000000000E+00 0.  1.
        -24    2    1    2    0    0 -0.18669660204E+02  0.73892989569E+02  0.81395828624E+02  0.13760750989E+03  0.80633837438E+02 0.  0.
         25    2    1    2    0    0 -0.30392984144E+03  0.16637153811E+03  0.96897091263E+03  0.10366315077E+04  0.12508963179E+03 0.  0.
         24    2    1    2    0    0  0.32259950165E+03 -0.24026452768E+03  0.18352721346E+04  0.18805866817E+04  0.81147874589E+02 0.  0.
        -13    1    5    5    0    0  0.73622897816E+02 -0.82198464990E+02  0.64176573099E+03  0.65118367010E+03  0.00000000000E+00 0.  1.
         14    1    5    5    0    0  0.24897660383E+03 -0.15806606269E+03  0.11935064036E+04  0.12294030116E+04  0.00000000000E+00 0. -1.
         13    1    3    3    0    0 -0.45903003335E+02  0.21813192527E+02  0.27105167430E+02  0.57598534571E+02  0.00000000000E+00 0. -1.
        -14    1    3    3    0    0  0.27233343130E+02  0.52079797042E+02  0.54290661193E+02  0.80008975314E+02  0.00000000000E+00 0.  1.
          5    1    4    4  501    0 -0.71168110244E+02  0.50576989380E+02  0.11815131355E+03  0.14696985087E+03  0.41800000000E+01 0.  1.
         -5    1    4    4    0  501 -0.23276173120E+03  0.11579454873E+03  0.85081959908E+03  0.88966165681E+03  0.41800000000E+01 0.  1.
</event>
<event>
11    1  0.7577197E-009  0.1567550E+03  0.7561462E-02  0.1090170E+00
         22   -1    0    0    0    0  0.00000000000E+00  0.00000000000E+00  0.15165906446E+03  0.15165906446E+03  0.00000000000E+00 0.  1.
         22   -1    0    0    0    0 -0.00000000000E+00 -0.00000000000E+00 -0.40038732308E+03  0.40038732308E+03  0.00000000000E+00 0. -1.
         24    2    1    2    0    0 -0.26492030140E+02 -0.45564204496E+02 -0.19735103083E+03  0.22070330409E+03  0.83573887526E+02 0.  0.
         25    2    1    2    0    0 -0.20035085204E+02  0.12115916873E+03 -0.10067829385E+03  0.20215185538E+03  0.12509318517E+03 0.  0.
        -24    2    1    2    0    0  0.46527115344E+02 -0.75594964230E+02  0.49301066061E+02  0.12919122806E+03  0.79877451230E+02 0.  0.
        -11    1    3    3    0    0 -0.21923804363E+02 -0.60360256220E+02 -0.81202694918E+02  0.10352724951E+03  0.00000000000E+00 0.  1.
         12    1    3    3    0    0 -0.45682257770E+01  0.14796051724E+02 -0.11614833591E+03  0.11717605459E+03  0.00000000000E+00 0. -1.
         13    1    5    5    0    0  0.21136254112E+02  0.12415936462E+02 -0.12928532676E+01  0.24547264322E+02  0.00000000000E+00 0. -1.
        -14    1    5    5    0    0  0.25390861232E+02 -0.88010900692E+02  0.50593919328E+02  0.10464396374E+03  0.00000000000E+00 0.  1.
          5    1    4    4  501    0  0.55362371908E+01  0.13500416477E+03 -0.51089669485E+02  0.14451436315E+03  0.41800000000E+01 0. -1.
         -5    1    4    4    0  501 -0.25571322395E+02 -0.13844996046E+02 -0.49588624368E+02  0.57637492236E+02  0.41800000000E+01 0. -1.
</event>
<event>
11    1  0.7577197E-009  0.1359599E+03  0.7561462E-02  0.1112156E+00
         22   -1    0    0    0    0  0.00000000000E+00  0.00000000000E+00  0.70872332408E+03  0.70872332408E+03  0.00000000000E+00 0.  1.
         22   -1    0    0    0    0 -0.00000000000E+00 -0.00000000000E+00 -0.50732294079E+03  0.50732294079E+03  0.00000000000E+00 0.  1.
        -24    2    1    2    0    0  0.26810441065E+02  0.13304534432E+02 -0.41649593384E+03  0.42518338764E+03  0.80101434657E+02 0.  0.
         25    2    1    2    0    0 -0.52570160509E+02 -0.58725750047E+02 -0.16899957780E+02  0.14881620209E+03  0.12509323698E+03 0.  0.
         24    2    1    2    0    0  0.25759719444E+02  0.45421215616E+02  0.63479627491E+03  0.64204667514E+03  0.80814432121E+02 0.  0.
        -13    1    5    5    0    0  0.15237603708E+02  0.47407225273E+02  0.62656500975E+03  0.62854064389E+03  0.00000000000E+00 0.  1.
         14    1    5    5    0    0  0.10522115736E+02 -0.19860096572E+01  0.82312651571E+01  0.13506031246E+02  0.00000000000E+00 0. -1.
         13    1    3    3    0    0 -0.26175864592E+02 -0.62173743812E+01 -0.93718880859E+02  0.97504155096E+02  0.00000000000E+00 0. -1.
        -14    1    3    3    0    0  0.52986305657E+02  0.19521908813E+02 -0.32277705298E+03  0.32767923254E+03  0.00000000000E+00 0.  1.
          5    1    4    4  501    0  0.38024152322E+02 -0.24181857018E+02 -0.24518798603E+02  0.51470790295E+02  0.41800000000E+01 0.  1.
         -5    1    4    4    0  501 -0.90594312831E+02 -0.34543893029E+02  0.76188408229E+01  0.97345411799E+02  0.41800000000E+01 0.  1.
</event>
<event>
11    1  0.7577197E-009  0.2218219E+03  0.7561462E-02  0.1040082E+00
         22   -1    0    0    0    0  0.00000000000E+00  0.00000000000E+00  0.46579667620E+03  0.46579667620E+03  0.00000000000E+00 0. -1.
         22   -1    0    0    0    0 -0.00000000000E+00 -0.00000000000E+00 -0.24264004273E+03  0.24264004273E+03  0.00000000000E+00 0. -1.
         24    2    1    2    0    0 -0.92404253801E+01 -0.17393349255E+03 -0.65460294323E+02  0.20131713082E+03  0.76845896040E+02 0.  0.
         25    2    1    2    0    0  0.30844652719E+01  0.20150245336E+03  0.35327668884E+02  0.23980772097E+03  0.12508775404E+03 0.  0.
        -24    2    1    2    0    0  0.61559601083E+01 -0.27568960814E+02  0.25328925891E+03  0.26731186714E+03  0.80636481770E+02 0.  0.
        -11    1    3    3    0    0  0.31319613629E+02 -0.11118693130E+03 -0.35849132328E+02  0.12094879982E+03  0.00000000000E+00 0.  1.
         12    1    3    3    0    0 -0.40560039009E+02 -0.62746561247E+02 -0.29611161995E+02  0.80368330998E+02  0.00000000000E+00 0. -1.
         13    1    5    5    0    0 -0.11516200570E+02 -0.59471041894E+00  0.22226342711E+03  0.22256236786E+03  0.00000000000E+00 0. -1.
        -14    1    5    5    0    0  0.17672160678E+02 -0.26974250395E+02  0.31025831796E+02  0.44749499283E+02  0.00000000000E+00 0.  1.
          5    1    4    4  501    0  0.29813262054E+02  0.41218684202E+02 -0.35831826124E+02  0.62363472362E+02  0.41800000000E+01 0.  1.
         -5    1    4    4    0  501 -0.26728796782E+02  0.16028376916E+03  0.71159495009E+02  0.17744424861E+03  0.41800000000E+01 0.  1.
</event>
<event>
11    1  0.7577197E-009  0.1422785E+03  0.7561462E-02  0.1105040E+00
         22   -1    0    0    0    0  0.00000000000E+00  0.00000000000E+00  0.11845850267E+04  0.11845850267E+04  0.00000000000E+00 0. -1.
         22   -1    0    0    0    0 -0.00000000000E+00 -0.00000000000E+00 -0.59226398205E+03  0.59226398205E+03  0.00000000000E+00 0.  1.
        -24    2    1    2    0    0  0.62757516217E+02 -0.23994445007E+02 -0.55570407869E+03  0.56517673240E+03  0.78124749867E+02 0.  0.
         25    2    1    2    0    0 -0.75305224713E+02  0.71690186557E+02  0.19304814088E+03  0.25243888001E+03  0.12508974269E+03 0.  0.
         24    2    1    2    0    0  0.12547708496E+02 -0.47695741551E+02  0.95497698242E+03  0.95923339630E+03  0.75599886712E+02 0.  0.
        -13    1    5    5    0    0 -0.29011834527E+02 -0.12429412068E+02  0.22197419820E+03  0.22420687209E+03  0.00000000000E+00 0.  1.
         14    1    5    5    0    0  0.41559543022E+02 -0.35266329482E+02  0.73300278422E+03  0.73502652420E+03  0.00000000000E+00 0. -1.
         13    1    3    3    0    0  0.35445171255E+02  0.24984407191E+02 -0.17131612257E+03  0.17671953661E+03  0.00000000000E+00 0. -1.
        -14    1    3    3    0    0  0.27312344962E+02 -0.48978852198E+02 -0.38438795613E+03  0.38845719579E+03  0.00000000000E+00 0.  1.
          5    1    4    4  501    0 -0.66978091989E+02  0.60448051932E+02  0.21087054350E+03  0.22939897625E+03  0.41800000000E+01 0.  1.
         -5    1    4    4    0  501 -0.83271327241E+01  0.11242134625E+02 -0.17822402616E+02  0.23039903762E+02  0.41800000000E+01 0.  1.
</event>
<event>
11    1  0.7577197E-009  0.1271936E+03  0.7561462E-02  0.1122766E+00
         22   -1    0    0    0    0  0.00000000000E+00  0.00000000000E+00  0.32509134994E+03  0.32509134994E+03  0.00000000000E+00 0.  1.
         22   -1    0    0    0    0 -0.00000000000E+00 -0.00000000000E+00 -0.34914514221E+03  0.34914514221E+03  0.00000000000E+00 0. -1.
        -24    2    1    2    0    0 -0.80328042891E+01 -0.61758794365E+01 -0.24542260150E+03  0.25834028072E+03  0.80029868671E+02 0.  0.
         25    2    1    2    0    0 -0.14073645163E+02 -0.22808124938E+01 -0.47413760172E+02  0.13453113290E+03  0.12508913410E+03 0.  0.
         24    2    1    2    0    0  0.22106449452E+02  0.84566919304E+01  0.26878256940E+03  0.28136507854E+03  0.79762316050E+02 0.  0.
        -11    1    5    5    0    0 -0.12570723672E+02 -0.19375988456E+02  0.18571047823E+03  0.18714121338E+03  0.00000000000E+00 0.  1.
         12    1    5    5    0    0  0.34677173125E+02  0.27832680386E+02  0.83072091178E+02  0.94223865162E+02  0.00000000000E+00 0. -1.
         13    1    3    3    0    0  0.59754609042E+01  0.27206144471E+02 -0.19071959540E+03  0.19274294928E+03  0.00000000000E+00 0. -1.
        -14    1    3    3    0    0 -0.14008265193E+02 -0.33382023907E+02 -0.54703006109E+02  0.65597331433E+02  0.00000000000E+00 0.  1.
          5    1    4    4  501    0  0.74893445335E+01  0.57730322281E+02 -0.66717933087E+01  0.58744068792E+02  0.41800000000E+01 0.  1.
         -5    1    4    4    0  501 -0.21562989697E+02 -0.60011134775E+02 -0.40741966863E+02  0.75787064104E+02  0.41800000000E+01 0.  1.
</event>
<event>
11    1  0.7577197E-009  0.2203280E+03  0.7561462E-02  0.1041012E+00
         22   -1    0    0    0    0  0.00000000000E+00  0.00000000000E+00  0.98940351488E+02  0.98940351488E+02  0.00000000000E+00 0.  1.
         22   -1    0    0    0    0 -0.00000000000E+00 -0.00000000000E+00 -0.11249545637E+04  0.11249545637E+04  0.00000000000E+00 0. -1.
         24    2    1    2    0    0 -0.22557372108E+02  0.17739264589E+03 -0.78673697245E+03  0.81090273594E+03  0.81432164878E+02 0.  0.
         25    2    1    2    0    0  0.22354906690E+02 -0.18972002278E+03 -0.23984405158E+03  0.33115870416E+03  0.12508992512E+03 0.  0.
        -24    2    1    2    0    0  0.20246541866E+00  0.12327376890E+02  0.56681182615E+00  0.81833475083E+02  0.80897411302E+02 0.  0.
        -11    1    3    3    0    0 -0.15009137650E+02  0.18145613694E+02 -0.33311035320E+02  0.40794148887E+02  0.00000000000E+00 0.  1.
         12    1    3    3    0    0 -0.75482344582E+01  0.15924703220E+03 -0.75342593713E+03  0.77010858705E+03  0.00000000000E+00 0. -1.
         11    1    5    5    0    0 -0.21185707754E+02 -0.28634542542E+02  0.53290163958E+00  0.35623801366E+02  0.00000000000E+00 0. -1.
        -12    1    5    5    0    0  0.21388173172E+02  0.40961919432E+02  0.33910186569E-01  0.46209673717E+02  0.00000000000E+00 0.  1.
          5    1    4    4  501    0  0.40180483565E+02 -0.19951727441E+03 -0.23275804872E+03  0.30921739228E+03  0.41800000000E+01 0.  1.
         -5    1    4    4    0  501 -0.17825576876E+02  0.97972516264E+01 -0.70860028608E+01  0.21941311878E+02  0.41800000000E+01 0.  1.
</event>
<event>
11    1  0.7577197E-009  0.1540977E+03  0.7561462E-02  0.1092764E+00
         22   -1    0    0    0    0  0.00000000000E+00  0.00000000000E+00  0.23348300291E+03  0.23348300291E+03  0.00000000000E+00 0. -1.
         22   -1    0    0    0    0 -0.00000000000E+00 -0.00000000000E+00 -0.39467434090E+03  0.39467434090E+03  0.00000000000E+00 0. -1.
         24    2    1    2    0    0  0.18096530140E+02  0.87886325565E+02 -0.24076430505E+03  0.26960922410E+03  0.81671246532E+02 0.  0.
         25    2    1    2    0    0 -0.32026599468E+02 -0.85920144068E+02 -0.81863608573E+02  0.17537346319E+03  0.12508487900E+03 0.  0.
        -24    2    1    2    0    0  0.13930069328E+02 -0.19661814968E+01  0.16143657562E+03  0.18317465652E+03  0.85400668270E+02 0.  0.
        -13    1    3    3    0    0  0.36083582306E+02  0.13891867428E+02 -0.43732321453E+02  0.58374008191E+02  0.00000000000E+00 0.  1.
         14    1    3    3    0    0 -0.17987052166E+02  0.73994458137E+02 -0.19703198359E+03  0.21123521591E+03  0.00000000000E+00 0. -1.
         13    1    5    5    0    0  0.36116600048E+02  0.30381359863E+02  0.83127423969E+02  0.95590817769E+02  0.00000000000E+00 0. -1.
        -14    1    5    5    0    0 -0.22186530720E+02 -0.32347541360E+02  0.78309151653E+02  0.87583838749E+02  0.00000000000E+00 0.  1.
          5    1    4    4  501    0  0.30930725681E+02  0.32656169327E+01 -0.54276295030E+02  0.62695794495E+02  0.41800000000E+01 0.  1.
         -5    1    4    4    0  501 -0.62957325149E+02 -0.89185761001E+02 -0.27587313543E+02  0.11267766870E+03  0.41800000000E+01 0.  1.
</event>
<event>
11    1  0.7577197E-009  0.1438502E+03  0.7561462E-02  0.1103334E+00
         22   -1    0    0    0    0  0.00000000000E+00  0.00000000000E+00  0.16085056632E+03  0.16085056632E+03  0.00000000000E+00 0. -1.
         22   -1    0    0    0    0 -0.00000000000E+00 -0.00000000000E+00 -0.82486984121E+03  0.82486984121E+03  0.00000000000E+00 0. -1.
        -24    2    1    2    0    0  0.48546457079E+02  0.36001268265E+02 -0.70539528538E+03  0.71255969511E+03  0.80659535340E+02 0.  0.
         25    2    1    2    0    0 -0.62605201958E+02  0.39551564414E+02 -0.19526046641E+02  0.14667172265E+03  0.12509032804E+03 0.  0.
         24    2    1    2    0    0  0.14058744878E+02 -0.75552832679E+02  0.60902057142E+02  0.12648898977E+03  0.79903223564E+02 0.  0.
        -13    1    5    5    0    0  0.65550617592E+01  0.10802249258E+02 -0.86845976604E+01  0.15332307727E+02  0.00000000000E+00 0.  1.
         14    1    5    5    0    0  0.75036831191E+01 -0.86355081937E+02  0.69586654802E+02  0.11115668205E+03  0.00000000000E+00 0. -1.
         11    1    3    3    0    0  0.40271857906E+02 -0.79067240137E+01 -0.52914242185E+03  0.53073160959E+03  0.00000000000E+00 0. -1.
        -12    1    3    3    0    0  0.82745991729E+01  0.43907992279E+02 -0.17625286354E+03  0.18182808552E+03  0.00000000000E+00 0.  1.
          5    1    4    4  501    0  0.38120286030E+02  0.53824624547E+01 -0.18512681850E+01  0.38768888338E+02  0.41800000000E+01 0. -1.
         -5    1    4    4    0  501 -0.10072548799E+03  0.34169101959E+02 -0.17674778456E+02  0.10790283431E+03  0.41800000000E+01 0. -1.
</event>
<event>
11    1  0.7577197E-009  0.1394396E+03  0.7561462E-02  0.1108186E+00
         22   -1    0    0    0    0  0.00000000000E+00  0.00000000000E+00  0.28884308393E+03  0.28884308393E+03  0.00000000000E+00 0.  1.
         22   -1    0    0    0    0 -0.00000000000E+00 -0.00000000000E+00 -0.21841213996E+04  0.21841213996E+04  0.00000000000E+00 0.  1.
        -24    2    1    2    0    0 -0.45920679964E+01  0.43710597185E+02 -0.19671369287E+04  0.19692487283E+04  0.79882127064E+02 0.  0.
         25    2    1    2    0    0  0.55127102060E+02 -0.76662848379E+02 -0.17630851015E+03  0.23589925933E+03  0.12509028779E+03 0.  0.
         24    2    1    2    0    0 -0.50535034064E+02  0.32952251193E+02  0.24816712313E+03  0.26781649596E+03  0.80617082411E+02 0.  0.
        -13    1    5    5    0    0 -0.40492735215E+02  0.38680044601E+02  0.24992588429E+03  0.25612253922E+03  0.00000000000E+00 0.  1.
         14    1    5    5    0    0 -0.10042298849E+02 -0.57277934073E+01 -0.17587611577E+01  0.11693956743E+02  0.00000000000E+00 0. -1.
         13    1    3    3    0    0  0.89801694471E+01  0.23150837549E+02 -0.15761080831E+03  0.15955491725E+03  0.00000000000E+00 0. -1.
        -14    1    3    3    0    0 -0.13572237444E+02  0.20559759637E+02 -0.18095261204E+04  0.18096938110E+04  0.00000000000E+00 0.  1.
          5    1    4    4  501    0  0.36354740511E+02  0.24994741315E+02 -0.93173971873E+02  0.10317589682E+03  0.41800000000E+01 0.  1.
         -5    1    4    4    0  501  0.18772361549E+02 -0.10165758969E+03 -0.83134538280E+02  0.13272336251E+03  0.41800000000E+01 0.  1.
</event>
<event>
11    1  0.7577197E-009  0.1907007E+03  0.7561462E-02  0.1061302E+00
         22   -1    0    0    0    0  0.00000000000E+00  0.00000000000E+00  0.76715636190E+03  0.76715636190E+03  0.00000000000E+00 0.  1.
         22   -1    0    0    0    0 -0.00000000000E+00 -0.00000000000E+00 -0.27207464465E+03  0.27207464465E+03  0.00000000000E+00 0. -1.
        -24    2    1    2    0    0  0.13309237817E+03 -0.35739739156E+02 -0.16679667673E+03  0.22902065879E+03  0.75089418031E+02 0.  0.
         25    2    1    2    0    0 -0.15526465161E+03  0.11592853491E+03  0.12740672054E+03  0.26348957357E+03  0.12509094968E+03 0.  0.
         24    2    1    2    0    0  0.22172273437E+02 -0.80188795757E+02  0.53447167345E+03  0.54672077419E+03  0.79509638068E+02 0.  0.
        -11    1    5    5    0    0  0.18957345209E+02 -0.88608662286E+02  0.52776259239E+03  0.53548504171E+03  0.00000000000E+00 0.  1.
         12    1    5    5    0    0  0.32149282278E+01  0.84198665292E+01  0.67090810600E+01  0.11235732488E+02  0.00000000000E+00 0. -1.
         13    1    3    3    0    0  0.10499872658E+03 -0.30273182935E+02 -0.74161301379E+02  0.13206474477E+03  0.00000000000E+00 0. -1.
        -14    1    3    3    0    0  0.28093651593E+02 -0.54665562208E+01 -0.92635375349E+02  0.96955914017E+02  0.00000000000E+00 0.  1.
          5    1    4    4  501    0 -0.34356949845E+02  0.74990110124E+02  0.10537353547E+03  0.13388417007E+03  0.41800000000E+01 0. -1.
         -5    1    4    4    0  501 -0.12090770177E+03  0.40938424789E+02  0.22033185075E+02  0.12960540350E+03  0.41800000000E+01 0. -1.
</event>
<event>
11    1  0.7577197E-009  0.1363197E+03  0.7561462E-02  0.1111739E+00
         22   -1    0    0    0    0  0.00000000000E+00  0.00000000000E+00  0.19863089008E+04  0.19863089008E+04  0.00000000000E+00 0. -1.
         22   -1    0    0    0    0 -0.00000000000E+00 -0.00000000000E+00 -0.35182190466E+03  0.35182190466E+03  0.00000000000E+00 0. -1.
         24    2    1    2    0    0 -0.47034206959E+02 -0.29280745447E+02 -0.32363698317E+03  0.33823463162E+03  0.81192305529E+02 0.  0.
         25    2    1    2    0    0  0.10037685343E+02  0.22557805167E+02  0.18563508516E+03  0.22519930871E+03  0.12507891150E+03 0.  0.
        -24    2    1    2    0    0  0.36996521615E+02  0.67229402795E+01  0.17724888941E+04  0.17746968651E+04  0.80113311631E+02 0.  0.
        -11    1    3    3    0    0 -0.27257015884E+02 -0.52359175352E+02 -0.13753755274E+03  0.14966965816E+03  0.00000000000E+00 0.  1.
         12    1    3    3    0    0 -0.19777191074E+02  0.23078429905E+02 -0.18609943042E+03  0.18856497346E+03  0.00000000000E+00 0. -1.
         13    1    5    5    0    0  0.29562724453E+02  0.39639830305E+02  0.13318424773E+04  0.13327601641E+04  0.00000000000E+00 0. -1.
        -14    1    5    5    0    0  0.74337971617E+01 -0.32916890025E+02  0.44064641681E+03  0.44193670094E+03  0.00000000000E+00 0.  1.
          5    1    4    4  501    0  0.48898582250E+02 -0.26649388771E+02  0.12913571022E+03  0.14069387094E+03  0.41800000000E+01 0. -1.
         -5    1    4    4    0  501 -0.38860896907E+02  0.49207193938E+02  0.56499374946E+02  0.84505437772E+02  0.41800000000E+01 0. -1.
</event>
<event>
11    1  0.7577197E-009  0.1639290E+03  0.7561462E-02  0.1083439E+00
         22   -1    0    0    0    0  0.00000000000E+00  0.00000000000E+00  0.68690432650E+03  0.68690432650E+03  0.00000000000E+00 0. -1.
         22   -1    0    0    0    0 -0.00000000000E+00 -0.00000000000E+00 -0.64101883182E+03  0.64101883182E+03  0.00000000000E+00 0.  1.
        -24    2    1    2    0    0  0.11835458704E+02  0.66450895897E+02 -0.51717404162E+03  0.52763885135E+03  0.79862184288E+02 0.  0.
         25    2    1    2    0    0 -0.52097509875E+02  0.34869155640E+02 -0.68595892244E+02  0.15583047431E+03  0.12509089392E+03 0.  0.
         24    2    1    2    0    0  0.40262051171E+02 -0.10132005154E+03  0.63165542854E+03  0.64445383266E+03  0.66673656107E+02 0.  0.
        -13    1    5    5    0    0  0.58558789059E+02 -0.77565382208E+02  0.45402371794E+03  0.46430922535E+03  0.00000000000E+00 0.  1.
         14    1    5    5    0    0 -0.18296737888E+02 -0.23754669329E+02  0.17763171061E+03  0.18014460732E+03  0.00000000000E+00 0. -1.
         13    1    3    3    0    0 -0.26661497110E+02 -0.10471852511E+01 -0.14605436959E+03  0.14847158280E+03  0.00000000000E+00 0. -1.
        -14    1    3    3    0    0  0.38496955814E+02  0.67498081148E+02 -0.37111967203E+03  0.37916726855E+03  0.00000000000E+00 0.  1.
          5    1    4    4  501    0 -0.76789480792E+02 -0.19553799877E+02 -0.31545017784E+02  0.85390491256E+02  0.41800000000E+01 0.  1.
         -5    1    4    4    0  501  0.24691970917E+02  0.54422955517E+02 -0.37050874460E+02  0.70439983058E+02  0.41800000000E+01 0.  1.
</event>
<event>
11    1  0.7577197E-009  0.1275721E+03  0.7561462E-02  0.1122289E+00
         22   -1    0    0    0    0  0.00000000000E+00  0.00000000000E+00  0.54739492092E+03  0.54739492092E+03  0.00000000000E+00 0. -1.
         22   -1    0    0    0    0 -0.00000000000E+00 -0.00000000000E+00 -0.24330439872E+03  0.24330439872E+03  0.00000000000E+00 0.  1.
         24    2    1    2    0    0 -0.64410500206E+01  0.22115823076E+02 -0.18705944027E+03  0.20484417320E+03  0.80245276148E+02 0.  0.
         25    2    1    2    0    0  0.31048953951E+02 -0.41150941374E+02  0.61254794453E+02  0.14851643006E+03  0.12509013804E+03 0.  0.
        -24    2    1    2    0    0 -0.24607903930E+02  0.19035118298E+02  0.42989516802E+03  0.43733871638E+03  0.74077072629E+02 0.  0.
        -11    1    3    3    0    0 -0.65519558900E+01  0.16983953387E+02 -0.19474944491E+03  0.19559838724E+03  0.00000000000E+00 0.  1.
         12    1    3    3    0    0  0.11090586940E+00  0.51318696885E+01  0.76900046402E+01  0.92457859578E+01  0.00000000000E+00 0. -1.
         11    1    5    5    0    0 -0.32670248132E+02  0.22451599817E+01  0.40461600734E+03  0.40593903391E+03  0.00000000000E+00 0. -1.
        -12    1    5    5    0    0  0.80623442015E+01  0.16789958317E+02  0.25279160688E+02  0.31399682473E+02  0.00000000000E+00 0.  1.
          5    1    4    4  501    0  0.64990295514E+02  0.13186168057E+02  0.11825716765E+02  0.67490247563E+02  0.41800000000E+01 0.  1.
         -5    1    4    4    0  501 -0.33941341564E+02 -0.54337109431E+02  0.49429077688E+02  0.81026182494E+02  0.41800000000E+01 0.  1.
</event>
<event>
11    1  0.7577197E-009  0.1497449E+03  0.7561462E-02  0.1097140E+00
         22   -1    0    0    0    0  0.00000000000E+00  0.00000000000E+00  0.12934833291E+03  0.12934833291E+03  0.00000000000E+00 0. -1.
         22   -1    0    0    0    0 -0.00000000000E+00 -0.00000000000E+00 -0.16486578004E+04  0.16486578004E+04  0.00000000000E+00 0. -1.
         24    2    1    2    0    0  0.15722630012E+00 -0.49828708190E+02 -0.14900888394E+04  0.14931382024E+04  0.81326609022E+02 0.  0.
         25    2    1    2    0    0 -0.26491631001E+02 -0.41862490447E+02 -0.74049103020E+02  0.15357517350E+03  0.12509112533E+03 0.  0.
        -24    2    1    2    0    0  0.26334404701E+02  0.91691198636E+02  0.44828474983E+02  0.13129275734E+03  0.78277833283E+02 0.  0.
        -11    1    3    3    0    0  0.98646420723E+00 -0.44928433263E+01 -0.33073778979E+01  0.56654656778E+01  0.00000000000E+00 0.  1.
         12    1    3    3    0    0 -0.82923790710E+00 -0.45335864863E+02 -0.14867814615E+04  0.14874727368E+04  0.00000000000E+00 0. -1.
         11    1    5    5    0    0  0.98160931759E+01  0.10037129154E+03  0.49073420542E+02  0.11215592920E+03  0.00000000000E+00 0. -1.
        -12    1    5    5    0    0  0.16518311525E+02 -0.86800929081E+01 -0.42449455591E+01  0.19136828142E+02  0.00000000000E+00 0.  1.
          5    1    4    4  501    0 -0.17914994431E+02  0.34471273847E+02 -0.65372900039E+02  0.76159728240E+02  0.41800000000E+01 0.  1.
         -5    1    4    4    0  501 -0.85766365707E+01 -0.76333764294E+02 -0.86762029803E+01  0.77415445257E+02  0.41800000000E+01 0.  1.
</event>
<event>
11    1  0.7577197E-009  0.1666928E+03  0.7561462E-02  0.1080946E+00
         22   -1    0    0    0    0  0.00000000000E+00  0.00000000000E+00  0.17265332395E+04  0.17265332395E+04  0.00000000000E+00 0. -1.
         22   -1    0    0    0    0 -0.00000000000E+00 -0.00000000000E+00 -0.39669875706E+03  0.39669875706E+03  0.00000000000E+00 0.  1.
         24    2    1    2    0    0  0.94932374835E+02 -0.50324406494E+02 -0.33479516554E+03  0.36051744122E+03  0.79626131889E+02 0.  0.
         25    2    1    2    0    0 -0.15681798871E+03  0.38866418357E+02  0.17335142352E+03  0.26795401949E+03  0.12508461322E+03 0.  0.
        -24    2    1    2    0    0  0.61885613876E+02  0.11457988137E+02  0.14912782244E+04  0.14947605358E+04  0.80232176085E+02 0.  0.
        -13    1    3    3    0    0 -0.94893573798E+00  0.11593444076E+02 -0.86097963150E+02  0.86880191547E+02  0.00000000000E+00 0.  1.
         14    1    3    3    0    0  0.95881310573E+02 -0.61917850570E+02 -0.24869720239E+03  0.27363724968E+03  0.00000000000E+00 0. -1.
         11    1    5    5    0    0  0.76546142778E+02  0.70310213345E+01  0.14072732390E+04  0.14093710358E+04  0.00000000000E+00 0. -1.
        -12    1    5    5    0    0 -0.14660528902E+02  0.44269668026E+01  0.84004985424E+02  0.85389500051E+02  0.00000000000E+00 0.  1.
          5    1    4    4  501    0 -0.47735120751E+02 -0.18249719106E+01 -0.11630951987E+02  0.49342919651E+02  0.41800000000E+01 0. -1.
         -5    1    4    4    0  501 -0.10908286796E+03  0.40691390267E+02  0.18498237551E+03  0.21861109984E+03  0.41800000000E+01 0. -1.
</event>
<event>
11    1  0.7577197E-009  0.1365505E+03  0.7561462E-02  0.1111473E+00
         22   -1    0    0    0    0  0.00000000000E+00  0.00000000000E+00  0.12690439759E+04  0.12690439759E+04  0.00000000000E+00 0. -1.
         22   -1    0    0    0    0 -0.00000000000E+00 -0.00000000000E+00 -0.13648444877E+03  0.13648444877E+03  0.00000000000E+00 0.  1.
        -24    2    1    2    0    0  0.36404462124E+01  0.89802812402E+01 -0.68661791119E+02  0.10600191811E+03  0.80175225502E+02 0.  0.
         25    2    1    2    0    0 -0.73380994773E+01  0.46028335970E+02  0.47646479817E+02  0.14173944539E+03  0.12508967953E+03 0.  0.
         24    2    1    2    0    0  0.36976532650E+01 -0.55008617210E+02  0.11535748385E+04  0.11577870612E+04  0.81831231929E+02 0.  0.
        -13    1    5    5    0    0  0.24387697016E+02 -0.71816737644E+01  0.10949881311E+03  0.11241141524E+03  0.00000000000E+00 0.  1.
         14    1    5    5    0    0 -0.20690043751E+02 -0.47826943446E+02  0.10440760254E+04  0.10453756460E+04  0.00000000000E+00 0. -1.
         11    1    3    3    0    0  0.11831483554E+01  0.39047505339E+02 -0.10452281281E+02  0.40439556096E+02  0.00000000000E+00 0. -1.
        -12    1    3    3    0    0  0.24572978569E+01 -0.30067224099E+02 -0.58209509838E+02  0.65562362017E+02  0.00000000000E+00 0.  1.
          5    1    4    4  501    0  0.38145373671E+02  0.66440225189E+02  0.50127394180E+02  0.91649337712E+02  0.41800000000E+01 0.  1.
         -5    1    4    4    0  501 -0.45483473149E+02 -0.20411889219E+02 -0.24809143630E+01  0.50090107679E+02  0.41800000000E+01 0.  1.
</event>
<event>
11    1  0.7577197E-009  0.1611855E+03  0.7561462E-02  0.1085968E+00
         22   -1    0    0    0    0  0.00000000000E+00  0.00000000000E+00  0.23232433303E+03  0.23232433303E+03  0.00000000000E+00 0.  1.
         22   -1    0    0    0    0 -0.00000000000E+00 -0.00000000000E+00 -0.19806436407E+04  0.19806436407E+04  0.00000000000E+00 0.  1.
         24    2    1    2    0    0  0.11244083272E+03 -0.13541669435E+02 -0.17466369515E+04  0.17521561306E+04  0.80524207128E+02 0.  0.
         25    2    1    2    0    0 -0.21989143241E+02 -0.21161440215E+02 -0.19293673294E+03  0.23195553362E+03  0.12508979850E+03 0.  0.
        -24    2    1    2    0    0 -0.90451689477E+02  0.34703109650E+02  0.19125437674E+03  0.22885630954E+03  0.80069718670E+02 0.  0.
        -11    1    3    3    0    0  0.85061211432E+02 -0.16995228577E+02 -0.16297048989E+04  0.16320117356E+04  0.00000000000E+00 0.  1.
         12    1    3    3    0    0  0.27379621286E+02  0.34535591420E+01 -0.11693205257E+03  0.12014439500E+03  0.00000000000E+00 0. -1.
         13    1    5    5    0    0 -0.52064536057E+02  0.50523323056E+02  0.70490723787E+02  0.10115465500E+03  0.00000000000E+00 0. -1.
        -14    1    5    5    0    0 -0.38387153419E+02 -0.15820213406E+02  0.12076365295E+03  0.12770165455E+03  0.00000000000E+00 0.  1.
          5    1    4    4  501    0  0.13496141397E+01 -0.13705396728E+02  0.16014481772E+02  0.21531265273E+02  0.41800000000E+01 0.  1.
         -5    1    4    4    0  501 -0.23338757381E+02 -0.74560434869E+01 -0.20895121471E+03  0.21042426835E+03  0.41800000000E+01 0.  1.
</event>
<event>
11    1  0.7577197E-009  0.1495495E+03  0.7561462E-02  0.1097340E+00
         22   -1    0    0    0    0  0.00000000000E+00  0.00000000000E+00  0.14731641761E+04  0.14731641761E+04  0.00000000000E+00 0.  1.
         22   -1    0    0    0    0 -0.00000000000E+00 -0.00000000000E+00 -0.39686032598E+03  0.39686032598E+03  0.00000000000E+00 0. -1.
         24    2    1    2    0    0 -0.15434437174E+02 -0.57530450050E+02 -0.30434038712E+03  0.32058102748E+03  0.81247457906E+02 0.  0.
         25    2    1    2    0    0 -0.16307397757E+02  0.13165878650E+03  0.19298883120E+02  0.18335786525E+03  0.12509073736E+03 0.  0.
        -24    2    1    2    0    0  0.31741834931E+02 -0.74128336448E+02  0.13613453541E+04  0.13660856093E+04  0.80163361688E+02 0.  0.
        -13    1    3    3    0    0  0.19264320576E+02  0.11508055566E+02 -0.50977263770E+02  0.55697673305E+02  0.00000000000E+00 0.  1.
         14    1    3    3    0    0 -0.34698757750E+02 -0.69038505615E+02 -0.25336312335E+03  0.26488335417E+03  0.00000000000E+00 0. -1.
         11    1    5    5    0    0  0.52442274786E+02 -0.31253912724E+02  0.55775667216E+03  0.56108778688E+03  0.00000000000E+00 0. -1.
        -12    1    5    5    0    0 -0.20700439856E+02 -0.42874423724E+02  0.80358868192E+03  0.80499782243E+03  0.00000000000E+00 0.  1.
          5    1    4    4  501    0 -0.68541497116E+02  0.68930013138E+02  0.27773762658E+02  0.10118368362E+03  0.41800000000E+01 0. -1.
         -5    1    4    4    0  501  0.52234099360E+02  0.62728773360E+02 -0.84748795386E+01  0.82174181629E+02  0.41800000000E+01 0. -1.
</event>
<event>
11    1  0.7577197E-009  0.1396670E+03  0.7561462E-02  0.1107931E+00
         22   -1    0    0    0    0  0.00000000000E+00  0.00000000000E+00  0.21467060273E+03  0.21467060273E+03  0.00000000000E+00 0.  1.
         22   -1    0    0    0    0 -0.00000000000E+00 -0.00000000000E+00 -0.14333597728E+04  0.14333597728E+04  0.00000000000E+00 0.  1.
         24    2    1    2    0    0  0.38155587032E+02 -0.25910414735E+02 -0.12485920935E+04  0.12521146060E+04  0.81740885789E+02 0.  0.
         25    2    1    2    0    0 -0.97137005109E+02  0.28343572219E+02 -0.13026968513E+03  0.20701449602E+03  0.12508339158E+03 0.  0.
        -24    2    1    2    0    0  0.58981418077E+02 -0.24331574841E+01  0.16017260857E+03  0.18890127342E+03  0.80893130925E+02 0.  0.
        -13    1    3    3    0    0  0.28216940558E+02  0.20993112031E+01 -0.11104999818E+04  0.11108603928E+04  0.00000000000E+00 0.  1.
         14    1    3    3    0    0  0.99386464744E+01 -0.28009725938E+02 -0.13809211168E+03  0.14125421321E+03  0.00000000000E+00 0. -1.
         13    1    5    5    0    0  0.65307796787E+02 -0.53966510679E+01  0.61142273282E+02  0.89624827732E+02  0.00000000000E+00 0. -1.
        -14    1    5    5    0    0 -0.63263787096E+01  0.29634935838E+01  0.99030335286E+02  0.99276445689E+02  0.00000000000E+00 0.  1.
          5    1    4    4  501    0 -0.10351742225E+03  0.65707368571E+02 -0.10197313112E+03  0.15952838890E+03  0.41800000000E+01 0. -1.
         -5    1    4    4    0  501  0.63804171371E+01 -0.37363796352E+02 -0.28296554012E+02  0.47486107122E+02  0.41800000000E+01 0. -1.
</event>
<event>
11    1  0.7577197E-009  0.1513458E+03  0.7561462E-02  0.1095512E+00
         22   -1    0    0    0    0  0.00000000000E+00  0.00000000000E+00  0.29775503368E+03  0.29775503368E+03  0.00000000000E+00 0.  1.
         22   -1    0    0    0    0 -0.00000000000E+00 -0.00000000000E+00 -0.36432227339E+03  0.36432227339E+03  0.00000000000E+00 0.  1.
        -24    2    1    2    0    0 -0.39970686456E+01 -0.87210563209E+02 -0.19183998075E+03  0.22497186951E+03  0.78664508920E+02 0.  0.
         25    2    1    2    0    0 -0.73268111898E+01  0.80662364981E+02 -0.11210071637E+03  0.18647836022E+03  0.12509000332E+03 0.  0.
         24    2    1    2    0    0  0.11323879835E+02  0.65481982279E+01  0.23737345741E+03  0.25062707734E+03  0.79351524608E+02 0.  0.
        -13    1    5    5    0    0  0.28516067597E+02 -0.28815373635E+02  0.10569493320E+03  0.11320296274E+03  0.00000000000E+00 0.  1.
         14    1    5    5    0    0 -0.17192187762E+02  0.35363571862E+02  0.13167852421E+03  0.13742411460E+03  0.00000000000E+00 0. -1.
         11    1    3    3    0    0 -0.36111270919E+02 -0.28858346919E+02 -0.48984659362E+02  0.67352245153E+02  0.00000000000E+00 0. -1.
        -12    1    3    3    0    0  0.32114202274E+02 -0.58352216290E+02 -0.14285532139E+03  0.15761962436E+03  0.00000000000E+00 0.  1.
          5    1    4    4  501    0  0.25443944628E+02  0.86978741781E+00  0.17186710616E+02  0.31000101131E+02  0.41800000000E+01 0.  1.
         -5    1    4    4    0  501 -0.32770755817E+02  0.79792577564E+02 -0.12928742699E+03  0.15547825909E+03  0.41800000000E+01 0.  1.
</event>
<event>
11    1  0.7577197E-009  0.1345186E+03  0.7561462E-02  0.1113838E+00
         22   -1    0    0    0    0  0.00000000000E+00  0.00000000000E+00  0.39578400485E+03  0.39578400485E+03  0.00000000000E+00 0. -1.
         22   -1    0    0    0    0 -0.00000000000E+00 -0.00000000000E+00 -0.23481742892E+03  0.23481742892E+03  0.00000000000E+00 0. -1.
         24    2    1    2    0    0 -0.37804760365E+01  0.35552719256E+01 -0.15115748197E+03  0.17018680847E+03  0.78025851259E+02 0.  0.
         25    2    1    2    0    0  0.34355346535E+02 -0.41848708068E+02  0.17060626260E+01  0.13631541871E+03  0.12508948207E+03 0.  0.
        -24    2    1    2    0    0 -0.30574870498E+02  0.38293436143E+02  0.31041799528E+03  0.32409920659E+03  0.79244898676E+02 0.  0.
        -11    1    3    3    0    0  0.29999405213E+02  0.13677072217E+02 -0.11519297334E+03  0.11981839476E+03  0.00000000000E+00 0.  1.
         12    1    3    3    0    0 -0.33779881249E+02 -0.10121800291E+02 -0.35964508638E+02  0.50368413713E+02  0.00000000000E+00 0. -1.
         13    1    5    5    0    0 -0.52901576107E+02  0.45290926963E+02  0.23965479538E+03  0.24956815856E+03  0.00000000000E+00 0. -1.
        -14    1    5    5    0    0  0.22326705609E+02 -0.69974908207E+01  0.70763199897E+02  0.74531048032E+02  0.00000000000E+00 0.  1.
          5    1    4    4  501    0  0.14954793445E+02  0.36688464689E+02 -0.29431197320E+02  0.49531374541E+02  0.41800000000E+01 0. -1.
         -5    1    4    4    0  501  0.19400553090E+02 -0.78537172758E+02  0.31137259946E+02  0.86784044166E+02  0.41800000000E+01 0. -1.
</event>
<event>
11    1  0.7577197E-009  0.2665774E+03  0.7561462E-02  0.1015421E+00
         22   -1    0    0    0    0  0.00000000000E+00  0.00000000000E+00  0.47098360774E+03  0.47098360774E+03  0.00000000000E+00 0. -1.
         22   -1    0    0    0    0 -0.00000000000E+00 -0.00000000000E+00 -0.72506133080E+03  0.72506133080E+03  0.00000000000E+00 0. -1.
        -24    2    1    2    0    0  0.26060684011E+02 -0.24053367819E+03 -0.62404553675E+03  0.67420157968E+03  0.81113059994E+02 0.  0.
         25    2    1    2    0    0  0.30668945825E+02  0.14752771197E+03  0.32471913987E+03  0.37920379465E+03  0.12509191838E+03 0.  0.
         24    2    1    2    0    0 -0.56729629836E+02  0.93005966221E+02  0.45248673831E+02  0.14263956421E+03  0.80188790613E+02 0.  0.
        -13    1    5    5    0    0 -0.15527540668E+02 -0.39127936727E+01  0.32919109344E+02  0.36607133643E+02  0.00000000000E+00 0.  1.
         14    1    5    5    0    0 -0.41202089168E+02  0.96918759894E+02  0.12329564487E+02  0.10603243057E+03  0.00000000000E+00 0. -1.
         13    1    3    3    0    0  0.32736161285E+02 -0.44369299426E+02 -0.93953580973E+02  0.10893836039E+03  0.00000000000E+00 0. -1.
        -14    1    3    3    0    0 -0.66754772746E+01 -0.19616437877E+03 -0.53009195578E+03  0.56526321929E+03  0.00000000000E+00 0.  1.
          5    1    4    4  501    0  0.22690087605E+01  0.31733002098E+02 -0.12272201453E+01  0.32110906125E+02  0.41800000000E+01 0. -1.
         -5    1    4    4    0  501  0.28399937064E+02  0.11579470987E+03  0.32594636001E+03  0.34709288852E+03  0.41800000000E+01 0. -1.
</event>
<event>
11    1  0.7577197E-009  0.1397761E+03  0.7561462E-02  0.1107809E+00
         22   -1    0    0    0    0  0.00000000000E+00  0.00000000000E+00  0.13845084935E+03  0.13845084935E+03  0.00000000000E+00 0. -1.
         22   -1    0    0    0    0 -0.00000000000E+00 -0.00000000000E+00 -0.12036528459E+04  0.12036528459E+04  0.00000000000E+00 0. -1.
        -24    2    1    2    0    0  0.16007467820E+02  0.61488174599E+02 -0.10204068636E+04  0.10253638684E+04  0.78127208332E+02 0.  0.
         25    2    1    2    0    0 -0.64324091861E+02 -0.15989237976E+02 -0.12108800729E+03  0.18629040976E+03  0.12509423143E+03 0.  0.
         24    2    1    2    0    0  0.48316624040E+02 -0.45498936623E+02  0.76292874382E+02  0.13044941705E+03  0.82412367614E+02 0.  0.
        -13    1    5    5    0    0  0.15746830693E+02 -0.59162456278E+02  0.20779273570E+02  0.64652433208E+02  0.00000000000E+00 0.  1.
         14    1    5    5    0    0  0.32569793347E+02  0.13663519655E+02  0.55513600812E+02  0.65796983846E+02  0.00000000000E+00 0. -1.
         11    1    3    3    0    0  0.25234504180E+02  0.74946621872E+02 -0.68304939740E+03  0.68761199496E+03  0.00000000000E+00 0. -1.
        -12    1    3    3    0    0 -0.92270363595E+01 -0.13458447273E+02 -0.33735746623E+03  0.33775187346E+03  0.00000000000E+00 0.  1.
          5    1    4    4  501    0 -0.15381558515E+02  0.19514474265E+02 -0.12309658098E+03  0.12564890647E+03  0.41800000000E+01 0.  1.
         -5    1    4    4    0  501 -0.48942533346E+02 -0.35503712241E+02  0.20085736956E+01  0.60641503292E+02  0.41800000000E+01 0.  1.
</event>
<event>
11    1  0.7577197E-009  0.2201208E+03  0.7561462E-02  0.1041142E+00
         22   -1    0    0    0    0  0.00000000000E+00  0.00000000000E+00  0.36194005364E+03  0.36194005364E+03  0.00000000000E+00 0.  1.
         22   -1    0    0    0    0 -0.00000000000E+00 -0.00000000000E+00 -0.64836009976E+03  0.64836009976E+03  0.00000000000E+00 0.  1.
         24    2    1    2    0    0  0.55786991853E+02 -0.73873875145E+02 -0.48763901088E+03  0.50287533745E+03  0.80760523722E+02 0.  0.
         25    2    1    2    0    0 -0.21349231907E+03  0.28379326678E+00  0.27575288785E+02  0.24897122168E+03  0.12508885576E+03 0.  0.
        -24    2    1    2    0    0  0.15770532722E+03  0.73590081878E+02  0.17364367598E+03  0.25845359427E+03  0.79747500277E+02 0.  0.
        -13    1    3    3    0    0  0.48419778425E+02 -0.27177810837E+02 -0.39487917157E+03  0.39876392576E+03  0.00000000000E+00 0.  1.
         14    1    3    3    0    0  0.73672134279E+01 -0.46696064309E+02 -0.92759839313E+02  0.10411141169E+03  0.00000000000E+00 0. -1.
         13    1    5    5    0    0 -0.65787134901E+01  0.10013351081E+02  0.25918292658E+02  0.28553538579E+02  0.00000000000E+00 0. -1.
        -14    1    5    5    0    0  0.16428404071E+03  0.63576730798E+02  0.14772538332E+03  0.22990005569E+03  0.00000000000E+00 0.  1.
          5    1    4    4  501    0  0.16518592642E+02  0.21729730439E+01  0.45213778357E+01  0.17762347037E+02  0.41800000000E+01 0. -1.
         -5    1    4    4    0  501 -0.23001091171E+03 -0.18891797771E+01  0.23053910949E+02  0.23120887465E+03  0.41800000000E+01 0. -1.
</event>
<event>
11    1  0.7577197E-009  0.1300746E+03  0.7561462E-02  0.1119177E+00
         22   -1    0    0    0    0  0.00000000000E+00  0.00000000000E+00  0.37721651561E+03  0.37721651561E+03  0.00000000000E+00 0. -1.
         22   -1    0    0    0    0 -0.00000000000E+00 -0.00000000000E+00 -0.26452583639E+03  0.26452583639E+03  0.00000000000E+00 0. -1.
         24    2    1    2    0    0 -0.77810017855E+00  0.39337413614E+02 -0.21531430538E+03  0.23279461379E+03  0.79278272931E+02 0.  0.
         25    2    1    2    0    0  0.29879688952E+02 -0.94897608873E+01  0.10480135513E+03  0.16617489552E+03  0.12509164837E+03 0.  0.
        -24    2    1    2    0    0 -0.29101588774E+02 -0.29847652726E+02  0.22320362948E+03  0.24277284268E+03  0.85912793502E+02 0.  0.
        -13    1    3    3    0    0  0.75193503211E+01  0.36262669915E+02 -0.31079024200E+02  0.48346950305E+02  0.00000000000E+00 0.  1.
         14    1    3    3    0    0 -0.82974504997E+01  0.30747436988E+01 -0.18423528118E+03  0.18444766349E+03  0.00000000000E+00 0. -1.
         11    1    5    5    0    0 -0.44757859611E+02 -0.50917412838E+02  0.14044220364E+03  0.15594826543E+03  0.00000000000E+00 0. -1.
        -12    1    5    5    0    0  0.15656270837E+02  0.21069760112E+02  0.82761425834E+02  0.86824577245E+02  0.00000000000E+00 0.  1.
          5    1    4    4  501    0 -0.13178881440E+02 -0.20044148488E+02  0.11739877612E+03  0.11989743883E+03  0.41800000000E+01 0.  1.
         -5    1    4    4    0  501  0.43058570392E+02  0.10554387601E+02 -0.12597420994E+02  0.46277456688E+02  0.41800000000E+01 0.  1.
</event>
<event>
11    1  0.7577197E-009  0.2027328E+03  0.7561462E-02  0.1052608E+00
         22   -1    0    0    0    0  0.00000000000E+00  0.00000000000E+00  0.12026554615E+04  0.12026554615E+04  0.00000000000E+00 0.  1.
         22   -1    0    0    0    0 -0.00000000000E+00 -0.00000000000E+00 -0.40086301296E+03  0.40086301296E+03  0.00000000000E+00 0.  1.
         24    2    1    2    0    0  0.17097446293E+03  0.26860384146E+02 -0.28147831017E+03  0.34009417761E+03  0.80500082857E+02 0.  0.
         25    2    1    2    0    0 -0.10312850333E+03 -0.77475638542E+02  0.59808811809E+01  0.17977996229E+03  0.12508837330E+03 0.  0.
        -24    2    1    2    0    0 -0.67845959601E+02  0.50615254395E+02  0.10772898776E+04  0.10836443346E+04  0.81034470450E+02 0.  0.
        -13    1    3    3    0    0  0.84306221616E+02  0.13269913417E+02 -0.67436168905E+02  0.10877162535E+03  0.00000000000E+00 0.  1.
         14    1    3    3    0    0  0.86668241311E+02  0.13590470729E+02 -0.21404214126E+03  0.23132255226E+03  0.00000000000E+00 0. -1.
         11    1    5    5    0    0  0.17374202942E+02  0.47911781646E+01  0.10333369287E+03  0.10489361467E+03  0.00000000000E+00 0. -1.
        -12    1    5    5    0    0 -0.85220162543E+02  0.45824076231E+02  0.97395618469E+03  0.97875071993E+03  0.00000000000E+00 0.  1.
          5    1    4    4  501    0 -0.10933490866E+03 -0.81362921336E+02  0.42090051742E+02  0.14269930650E+03  0.41800000000E+01 0.  1.
         -5    1    4    4    0  501  0.62064053352E+01  0.38872827947E+01 -0.36109170561E+02  0.37080655783E+02  0.41800000000E+01 0.  1.
</event>
<event>
11    1  0.7577197E-009  0.5742980E+03  0.7561462E-02  0.9241289E-01
         22   -1    0    0    0    0  0.00000000000E+00  0.00000000000E+00  0.88655163570E+03  0.88655163570E+03  0.00000000000E+00 0. -1.
         22   -1    0    0    0    0 -0.00000000000E+00 -0.00000000000E+00 -0.93005931749E+02  0.93005931749E+02  0.00000000000E+00 0.  1.
         24    2    1    2    0    0 -0.29621459757E+02 -0.11652490176E+03  0.13839840542E+03  0.20232555933E+03  0.85592229349E+02 0.  0.
         25    2    1    2    0    0  0.14700913762E+03  0.17820996342E+03  0.42746415015E+03  0.50174115345E+03  0.12509239703E+03 0.  0.
        -24    2    1    2    0    0 -0.11738767786E+03 -0.61685061655E+02  0.22768314838E+03  0.27549085467E+03  0.80440544556E+02 0.  0.
        -11    1    3    3    0    0 -0.33805889254E+02 -0.29677802218E+01  0.30600053382E+02  0.45694738589E+02  0.00000000000E+00 0.  1.
         12    1    3    3    0    0  0.41844294975E+01 -0.11355712154E+03  0.10779835204E+03  0.15663082074E+03  0.00000000000E+00 0. -1.
         11    1    5    5    0    0 -0.83417636644E+02  0.11994524572E+01  0.11564637856E+03  0.14259742516E+03  0.00000000000E+00 0. -1.
        -12    1    5    5    0    0 -0.33970041217E+02 -0.62884514113E+02  0.11203676982E+03  0.13289342951E+03  0.00000000000E+00 0.  1.
          5    1    4    4  501    0  0.38867330135E+02  0.90442723353E+02  0.28887479395E+03  0.30521578357E+03  0.41800000000E+01 0. -1.
         -5    1    4    4    0  501  0.10814180748E+03  0.87767240063E+02  0.13858935620E+03  0.19652536988E+03  0.41800000000E+01 0. -1.
</event>
<event>
11    1  0.7577197E-009  0.1275607E+03  0.7561462E-02  0.1122303E+00
         22   -1    0    0    0    0  0.00000000000E+00  0.00000000000E+00  0.13398331841E+04  0.13398331841E+04  0.00000000000E+00 0.  1.
         22   -1    0    0    0    0 -0.00000000000E+00 -0.00000000000E+00 -0.57921905772E+03  0.57921905772E+03  0.00000000000E+00 0.  1.
         24    2    1    2    0    0  0.59640038900E+01  0.24562862198E+02 -0.55394734151E+03  0.56037169601E+03  0.80745755184E+02 0.  0.
         25    2    1    2    0    0 -0.18863248403E+02 -0.22443487371E+01  0.17459010903E+03  0.21561649889E+03  0.12509160317E+03 0.  0.
        -24    2    1    2    0    0  0.12899244513E+02 -0.22318513461E+02  0.11399713588E+04  0.11430640469E+04  0.79976307639E+02 0.  0.
        -13    1    3    3    0    0 -0.52355733900E+00  0.17022505277E+01 -0.51318719192E+03  0.51319028218E+03  0.00000000000E+00 0.  1.
         14    1    3    3    0    0  0.64875612290E+01  0.22860611670E+02 -0.40760149586E+02  0.47181413829E+02  0.00000000000E+00 0. -1.
         13    1    5    5    0    0  0.18609931504E+02 -0.11088703341E+02  0.76237085323E+02  0.79255170626E+02  0.00000000000E+00 0. -1.
        -14    1    5    5    0    0 -0.57106869915E+01 -0.11229810120E+02  0.10637342735E+04  0.10638088763E+04  0.00000000000E+00 0.  1.
          5    1    4    4  501    0 -0.68547841951E+02  0.66953551999E+01  0.64594757356E+02  0.94517667636E+02  0.41800000000E+01 0. -1.
         -5    1    4    4    0  501  0.49684593548E+02 -0.89397039370E+01  0.10999535167E+03  0.12109883126E+03  0.41800000000E+01 0. -1.
</event>
<event>
11    1  0.7577197E-009  0.1356891E+03  0.7561462E-02  0.1112470E+00
         22   -1    0    0    0    0  0.00000000000E+00  0.00000000000E+00  0.38912748574E+02  0.38912748574E+02  0.00000000000E+00 0. -1.
         22   -1    0    0    0    0 -0.00000000000E+00 -0.00000000000E+00 -0.41524383868E+04  0.41524383868E+04  0.00000000000E+00 0. -1.
        -24    2    1    2    0    0  0.80369644067E+01 -0.49380126897E+02 -0.33433923421E+04  0.33447301516E+04  0.80277292955E+02 0.  0.
         25    2    1    2    0    0 -0.46058537506E+02  0.75389099087E+02 -0.72949509454E+03  0.74539720806E+03  0.12509596195E+03 0.  0.
         24    2    1    2    0    0  0.38021573100E+02 -0.26008972190E+02 -0.40638201567E+02  0.10122377574E+03  0.80452984359E+02 0.  0.
        -11    1    5    5    0    0  0.88893695925E+01 -0.16095924417E+02 -0.61405354608E+02  0.64099276510E+02  0.00000000000E+00 0.  1.
         12    1    5    5    0    0  0.29132203507E+02 -0.99130477734E+01  0.20767153041E+02  0.37124499226E+02  0.00000000000E+00 0. -1.
         11    1    3    3    0    0 -0.94489826013E+01 -0.68191808977E+02 -0.24887233494E+04  0.24896753435E+04  0.00000000000E+00 0. -1.
        -12    1    3    3    0    0  0.17485947008E+02  0.18811682080E+02 -0.85466899273E+03  0.85505480810E+03  0.00000000000E+00 0.  1.
          5    1    4    4  501    0 -0.72235555386E+02  0.85795670460E+01 -0.24518601615E+03  0.25578357912E+03  0.41800000000E+01 0.  1.
         -5    1    4    4    0  501  0.26177017880E+02  0.66809532041E+02 -0.48430907839E+03  0.48961362894E+03  0.41800000000E+01 0.  1.
</event>
<event>
11    1  0.7577197E-009  0.8948736E+03  0.7561462E-02  0.8785983E-01
         22   -1    0    0    0    0  0.00000000000E+00  0.00000000000E+00  0.60806067620E+03  0.60806067620E+03  0.00000000000E+00 0. -1.
         22   -1    0    0    0    0 -0.00000000000E+00 -0.00000000000E+00 -0.32924291498E+03  0.32924291498E+03  0.00000000000E+00 0. -1.
         24    2    1    2    0    0  0.63236413455E+02 -0.15985393171E+03 -0.22257535871E+02  0.19121393252E+03  0.80717077614E+02 0.  0.
         25    2    1    2    0    0 -0.10740731739E+03  0.39423968728E+03  0.15096654793E+03  0.45321083917E+03  0.12509157962E+03 0.  0.
        -24    2    1    2    0    0  0.44170903931E+02 -0.23438575557E+03  0.15010874915E+03  0.29287881949E+03  0.79734654729E+02 0.  0.
        -13    1    3    3    0    0  0.56609932348E+02 -0.74250433421E+02  0.20048375854E+02  0.95497375241E+02  0.00000000000E+00 0.  1.
         14    1    3    3    0    0  0.66264811077E+01 -0.85603498289E+02 -0.42305911725E+02  0.95716557283E+02  0.00000000000E+00 0. -1.
         11    1    5    5    0    0  0.58597817303E+02 -0.97402848570E+02  0.64310297183E+02  0.13060181249E+03  0.00000000000E+00 0. -1.
        -12    1    5    5    0    0 -0.14426913373E+02 -0.13698290700E+03  0.85798451968E+02  0.16227700700E+03  0.00000000000E+00 0.  1.
          5    1    4    4  501    0 -0.13522504384E+01  0.23419983844E+03  0.98723292525E+02  0.25419510970E+03  0.41800000000E+01 0. -1.
         -5    1    4    4    0  501 -0.10605506695E+03  0.16003984884E+03  0.52243255410E+02  0.19901572947E+03  0.41800000000E+01 0. -1.
</event>
<event>
11    1  0.7577197E-009  0.4674988E+03  0.7561462E-02  0.9469230E-01
         22   -1    0    0    0    0  0.00000000000E+00  0.00000000000E+00  0.80099044862E+03  0.80099044862E+03  0.00000000000E+00 0. -1.
         22   -1    0    0    0    0 -0.00000000000E+00 -0.00000000000E+00 -0.20078044134E+04  0.20078044134E+04  0.00000000000E+00 0. -1.
         24    2    1    2    0    0 -0.13288004090E+03 -0.22787279453E+03 -0.11644617001E+04  0.11967656847E+04  0.81816485021E+02 0.  0.
         25    2    1    2    0    0  0.38149322364E+03 -0.16032526360E+03 -0.68906218779E+03  0.81344126941E+03  0.12505490918E+03 0.  0.
        -24    2    1    2    0    0 -0.24861318273E+03  0.38819805814E+03  0.64670992316E+03  0.79858790790E+03  0.83681987062E+02 0.  0.
        -13    1    3    3    0    0 -0.17699445906E+01 -0.64362917986E+02 -0.21429438154E+03  0.22375835152E+03  0.00000000000E+00 0.  1.
         14    1    3    3    0    0 -0.13111009631E+03 -0.16350987655E+03 -0.95016731857E+03  0.97300733315E+03  0.00000000000E+00 0. -1.
         13    1    5    5    0    0 -0.21019428535E+03  0.37022540588E+03  0.57857663562E+03  0.71833099059E+03  0.00000000000E+00 0. -1.
        -14    1    5    5    0    0 -0.38418897383E+02  0.17972652255E+02  0.68133287537E+02  0.80256917308E+02  0.00000000000E+00 0.  1.
          5    1    4    4  501    0  0.25570296990E+03 -0.41274878422E+02 -0.41096001201E+03  0.48579134232E+03  0.41800000000E+01 0. -1.
         -5    1    4    4    0  501  0.12579025373E+03 -0.11905038518E+03 -0.27810217578E+03  0.32764992708E+03  0.41800000000E+01 0. -1.
</event>
<event>
11    1  0.7577197E-009  0.1417576E+03  0.7561462E-02  0.1105611E+00
         22   -1    0    0    0    0  0.00000000000E+00  0.00000000000E+00  0.30620310408E+03  0.30620310408E+03  0.00000000000E+00 0.  1.
         22   -1    0    0    0    0 -0.00000000000E+00 -0.00000000000E+00 -0.44931350277E+03  0.44931350277E+03  0.00000000000E+00 0. -1.
         24    2    1    2    0    0 -0.21580107354E+02  0.34130771301E+02 -0.31871848500E+03  0.33102732700E+03  0.79793533307E+02 0.  0.
         25    2    1    2    0    0  0.60478282148E+02 -0.83938844762E+02 -0.55371821520E+02  0.17148932111E+03  0.12505677257E+03 0.  0.
        -24    2    1    2    0    0 -0.38898174794E+02  0.49808073461E+02  0.23097990783E+03  0.25299995874E+03  0.81629339823E+02 0.  0.
        -11    1    3    3    0    0 -0.11153587171E+02  0.60534257093E+01 -0.19420600382E+01  0.12838148885E+02  0.00000000000E+00 0.  1.
         12    1    3    3    0    0 -0.10426520183E+02  0.28077345592E+02 -0.31677642496E+03  0.31818917812E+03  0.00000000000E+00 0. -1.
         13    1    5    5    0    0 -0.56013320625E+02  0.90748546589E+01  0.10282907092E+03  0.11744642566E+03  0.00000000000E+00 0. -1.
        -14    1    5    5    0    0  0.17115145831E+02  0.40733218802E+02  0.12815083690E+03  0.13555353308E+03  0.00000000000E+00 0.  1.
          5    1    4    4  501    0  0.95175461658E+02 -0.49982475010E+02 -0.58868839710E+02  0.12263616513E+03  0.41800000000E+01 0. -1.
         -5    1    4    4    0  501 -0.34697179510E+02 -0.33956369752E+02  0.34970181903E+01  0.48853155977E+02  0.41800000000E+01 0. -1.
</event>
<event>
11    1  0.7577197E-009  0.2413861E+03  0.7561462E-02  0.1028591E+00
         22   -1    0    0    0    0  0.00000000000E+00  0.00000000000E+00  0.45683365410E+03  0.45683365410E+03  0.00000000000E+00 0. -1.
         22   -1    0    0    0    0 -0.00000000000E+00 -0.00000000000E+00 -0.82529345581E+03  0.82529345581E+03  0.00000000000E+00 0.  1.
         24    2    1    2    0    0  0.28797841866E+02  0.61582858517E+02 -0.51623559808E+03  0.52696460015E+03  0.81060057494E+02 0.  0.
         25    2    1    2    0    0  0.18058591523E+03 -0.52647268395E+02 -0.22564521895E+03  0.31929420449E+03  0.12510002612E+03 0.  0.
        -24    2    1    2    0    0 -0.20938375710E+03 -0.89355901222E+01  0.37342101532E+03  0.43586830528E+03  0.81342008563E+02 0.  0.
        -11    1    3    3    0    0 -0.23597758168E+02  0.42528486949E+02 -0.28369069889E+03  0.28782970491E+03  0.00000000000E+00 0.  1.
         12    1    3    3    0    0  0.52395600034E+02  0.19054371568E+02 -0.23254489919E+03  0.23913489523E+03  0.00000000000E+00 0. -1.
         13    1    5    5    0    0 -0.16093370913E+03 -0.12706301364E+02  0.20705991798E+03  0.26255460092E+03  0.00000000000E+00 0. -1.
        -14    1    5    5    0    0 -0.48450047966E+02  0.37707112421E+01  0.16636109734E+03  0.17331370436E+03  0.00000000000E+00 0.  1.
          5    1    4    4  501    0  0.82121486265E+02 -0.87197963852E+02 -0.10144424170E+03  0.15702175002E+03  0.41800000000E+01 0.  1.
         -5    1    4    4    0  501  0.98464428967E+02  0.34550695458E+02 -0.12420097725E+03  0.16227245447E+03  0.41800000000E+01 0.  1.
</event>
<event>
11    1  0.7577197E-009  0.1349993E+03  0.7561462E-02  0.1113275E+00
         22   -1    0    0    0    0  0.00000000000E+00  0.00000000000E+00  0.11187940091E+04  0.11187940091E+04  0.00000000000E+00 0.  1.
         22   -1    0    0    0    0 -0.00000000000E+00 -0.00000000000E+00 -0.18308823662E+03  0.18308823662E+03  0.00000000000E+00 0. -1.
        -24    2    1    2    0    0  0.13928906703E+02  0.49181983665E+02 -0.15116091376E+03  0.17843901342E+03  0.79862242021E+02 0.  0.
         25    2    1    2    0    0 -0.18918941365E+02 -0.40345265776E+02  0.25315041824E+03  0.28586303944E+03  0.12508747438E+03 0.  0.
         24    2    1    2    0    0  0.49900346626E+01 -0.88367178889E+01  0.83371626800E+03  0.83758019288E+03  0.79716848539E+02 0.  0.
        -13    1    5    5    0    0 -0.60637310339E+01  0.84304602048E+01  0.78023011945E+03  0.78029922516E+03  0.00000000000E+00 0.  1.
         14    1    5    5    0    0  0.11053765696E+02 -0.17267178094E+02  0.53486148552E+02  0.57280967714E+02  0.00000000000E+00 0. -1.
         11    1    3    3    0    0 -0.61714591400E+01 -0.10341071965E+02 -0.89855038255E+02  0.90658439084E+02  0.00000000000E+00 0. -1.
        -12    1    3    3    0    0  0.20100365843E+02  0.59523055630E+02 -0.61305875506E+02  0.87780574332E+02  0.00000000000E+00 0.  1.
          5    1    4    4  501    0 -0.68462156587E+02 -0.42066503024E+02  0.12802291806E+03  0.15120845714E+03  0.41800000000E+01 0. -1.
         -5    1    4    4    0  501  0.49543215221E+02  0.17212372478E+01  0.12512750019E+03  0.13465458230E+03  0.41800000000E+01 0. -1.
</event>
<event>
11    1  0.7577197E-009  0.3187232E+03  0.7561462E-02  0.9925644E-01
         22   -1    0    0    0    0  0.00000000000E+00  0.00000000000E+00  0.10590436804E+04  0.10590436804E+04  0.00000000000E+00 0. -1.
         22   -1    0    0    0    0 -0.00000000000E+00 -0.00000000000E+00 -0.14409522227E+04  0.14409522227E+04  0.00000000000E+00 0.  1.
        -24    2    1    2    0    0  0.40435778970E+02  0.10047755653E+03 -0.61412832238E+03  0.62850035693E+03  0.78283527800E+02 0.  0.
         25    2    1    2    0    0 -0.16864274892E+03 -0.36078095460E+03 -0.74227972143E+03  0.85160288839E+03  0.12508005722E+03 0.  0.
         24    2    1    2    0    0  0.12820696995E+03  0.26030339807E+03  0.97449950151E+03  0.10198926579E+04  0.79604452894E+02 0.  0.
        -11    1    5    5    0    0 -0.43108549958E+01 -0.23274258175E+01  0.37028026875E+02  0.37350704893E+02  0.00000000000E+00 0.  1.
         12    1    5    5    0    0  0.13251782495E+03  0.26263082388E+03  0.93747147464E+03  0.98254195297E+03  0.00000000000E+00 0. -1.
         11    1    3    3    0    0 -0.10213463952E+02  0.58905398243E+02 -0.40379470159E+03  0.40819642553E+03  0.00000000000E+00 0. -1.
        -12    1    3    3    0    0  0.50649242921E+02  0.41572158291E+02 -0.21033362079E+03  0.22030393140E+03  0.00000000000E+00 0.  1.
          5    1    4    4  501    0 -0.87236492575E+02 -0.24939711334E+03 -0.37090693773E+03  0.45541031459E+03  0.41800000000E+01 0.  1.
         -5    1    4    4    0  501 -0.81406256347E+02 -0.11138384126E+03 -0.37137278369E+03  0.39619257380E+03  0.41800000000E+01 0.  1.
</event>
<event>
11    1  0.7577197E-009  0.2371064E+03  0.7561462E-02  0.1031001E+00
         22   -1    0    0    0    0  0.00000000000E+00  0.00000000000E+00  0.21187842296E+04  0.21187842296E+04  0.00000000000E+00 0.  1.
         22   -1    0    0    0    0 -0.00000000000E+00 -0.00000000000E+00 -0.29346689949E+03  0.29346689949E+03  0.00000000000E+00 0.  1.
         24    2    1    2    0    0  0.18882444386E+03 -0.59854040327E+02 -0.22265317688E+03  0.30882416638E+03  0.80998468032E+02 0.  0.
         25    2    1    2    0    0 -0.27506396344E+03  0.14045299072E+03  0.13137538452E+04  0.13553541000E+04  0.12509334144E+03 0.  0.
        -24    2    1    2    0    0  0.86239519575E+02 -0.80598950391E+02  0.73421666179E+03  0.74807286269E+03  0.81273955939E+02 0.  0.
        -11    1    3    3    0    0  0.18738588498E+03 -0.39365763623E+02 -0.21206140400E+03  0.28571519439E+03  0.00000000000E+00 0.  1.
         12    1    3    3    0    0  0.14385588800E+01 -0.20488276704E+02 -0.10591772875E+02  0.23108971993E+02  0.00000000000E+00 0. -1.
         11    1    5    5    0    0  0.49503876549E+02 -0.90413982578E+02  0.58949145759E+03  0.59843587845E+03  0.00000000000E+00 0. -1.
        -12    1    5    5    0    0  0.36735643026E+02  0.98150321876E+01  0.14472520420E+03  0.14963698425E+03  0.00000000000E+00 0.  1.
          5    1    4    4  501    0 -0.21756144189E+03  0.95747711423E+02  0.11726471461E+04  0.11965029908E+04  0.41800000000E+01 0.  1.
         -5    1    4    4    0  501 -0.57502521546E+02  0.44705279294E+02  0.14110669908E+03  0.15885110924E+03  0.41800000000E+01 0.  1.
</event>
<event>
11    1  0.7577197E-009  0.1897048E+03  0.7561462E-02  0.1062052E+00
         22   -1    0    0    0    0  0.00000000000E+00  0.00000000000E+00  0.19760643460E+03  0.19760643460E+03  0.00000000000E+00 0. -1.
         22   -1    0    0    0    0 -0.00000000000E+00 -0.00000000000E+00 -0.64767323024E+03  0.64767323024E+03  0.00000000000E+00 0.  1.
        -24    2    1    2    0    0 -0.28038267773E+02 -0.58653465479E+02 -0.46168546081E+03  0.47235275970E+03  0.75744910031E+02 0.  0.
         25    2    1    2    0    0  0.53353997991E+01  0.18122172729E+03 -0.20458801893E+02  0.22121285539E+03  0.12508710517E+03 0.  0.
         24    2    1    2    0    0  0.22702867974E+02 -0.12256826181E+03  0.32077467068E+02  0.15171404976E+03  0.80310584515E+02 0.  0.
        -11    1    5    5    0    0  0.23170756104E+02 -0.60589135167E+02 -0.22972084500E+02  0.68816014887E+02  0.00000000000E+00 0.  1.
         12    1    5    5    0    0 -0.46788812942E+00 -0.61979126643E+02  0.55049551568E+02  0.82898034877E+02  0.00000000000E+00 0. -1.
         13    1    3    3    0    0 -0.24219062410E+02  0.13044634588E+02 -0.15029996252E+03  0.15279661060E+03  0.00000000000E+00 0. -1.
        -14    1    3    3    0    0 -0.38192053634E+01 -0.71698100066E+02 -0.31138549829E+03  0.31955614910E+03  0.00000000000E+00 0.  1.
          5    1    4    4  501    0 -0.49336421249E+02  0.74268013243E+02  0.25030295957E+02  0.92702795904E+02  0.41800000000E+01 0.  1.
         -5    1    4    4    0  501  0.54671821048E+02  0.10695371405E+03 -0.45489097851E+02  0.12851005948E+03  0.41800000000E+01 0.  1.
</event>
<event>
11    1  0.7577197E-009  0.1278241E+03  0.7561462E-02  0.1121972E+00
         22   -1    0    0    0    0  0.00000000000E+00  0.00000000000E+00  0.53350143879E+03  0.53350143879E+03  0.00000000000E+00 0.  1.
         22   -1    0    0    0    0 -0.00000000000E+00 -0.00000000000E+00 -0.65875275770E+03  0.65875275770E+03  0.00000000000E+00 0. -1.
         24    2    1    2    0    0  0.15924041538E+02  0.30195952557E+02 -0.54502992367E+03  0.55182000488E+03  0.79261147126E+02 0.  0.
         25    2    1    2    0    0 -0.31625549901E+02 -0.49761267182E+02 -0.61350048786E+02  0.15128507576E+03  0.12508791526E+03 0.  0.
        -24    2    1    2    0    0  0.15701508363E+02  0.19565314625E+02  0.48112865354E+03  0.48914911584E+03  0.84573857473E+02 0.  0.
        -11    1    3    3    0    0 -0.30180210956E+01 -0.11051308526E+02 -0.11057350819E+02  0.15921836534E+02  0.00000000000E+00 0.  1.
         12    1    3    3    0    0  0.18942062634E+02  0.41247261083E+02 -0.53397257285E+03  0.53589816835E+03  0.00000000000E+00 0. -1.
         13    1    5    5    0    0  0.21144907777E+02 -0.35545363777E+01  0.27367202831E+02  0.34766444232E+02  0.00000000000E+00 0. -1.
        -14    1    5    5    0    0 -0.54433994135E+01  0.23119851002E+02  0.45376145071E+03  0.45438267161E+03  0.00000000000E+00 0.  1.
          5    1    4    4  501    0 -0.76314314306E+02 -0.52371665266E+02 -0.48218600275E+02  0.10444698035E+03  0.41800000000E+01 0.  1.
         -5    1    4    4    0  501  0.44688764405E+02  0.26103980846E+01 -0.13131448511E+02  0.46838095416E+02  0.41800000000E+01 0.  1.
</event>
<event>
11    1  0.7577197E-009  0.1501448E+03  0.7561462E-02  0.1096731E+00
         22   -1    0    0    0    0  0.00000000000E+00  0.00000000000E+00  0.26332941234E+04  0.26332941234E+04  0.00000000000E+00 0. -1.
         22   -1    0    0    0    0 -0.00000000000E+00 -0.00000000000E+00 -0.12692533674E+04  0.12692533674E+04  0.00000000000E+00 0. -1.
        -24    2    1    2    0    0  0.13984905934E+01  0.30309961513E+02 -0.12373408532E+04  0.12404067964E+04  0.81706695750E+02 0.  0.
         25    2    1    2    0    0  0.49913241792E+02 -0.94280999490E+02  0.20408453173E+03  0.26206120367E+03  0.12508133278E+03 0.  0.
         24    2    1    2    0    0 -0.51311732386E+02  0.63971037976E+02  0.23972970774E+04  0.24000794907E+04  0.81382411392E+02 0.  0.
        -13    1    5    5    0    0  0.12687986412E+02 -0.63816439470E+01  0.12709663341E+03  0.12788770309E+03  0.00000000000E+00 0.  1.
         14    1    5    5    0    0 -0.63999718797E+02  0.70352681923E+02  0.22702004440E+04  0.22721917876E+04  0.00000000000E+00 0. -1.
         13    1    3    3    0    0 -0.25733294599E+02  0.48139072043E+02 -0.80529782355E+03  0.80714568531E+03  0.00000000000E+00 0. -1.
        -14    1    3    3    0    0  0.27131785192E+02 -0.17829110530E+02 -0.43204302965E+03  0.43326111113E+03  0.00000000000E+00 0.  1.
          5    1    4    4  501    0  0.80949559713E+02 -0.94521578218E+02  0.19125609020E+03  0.22821815091E+03  0.41800000000E+01 0.  1.
         -5    1    4    4    0  501 -0.31036317921E+02  0.24057872843E+00  0.12828441526E+02  0.33843052761E+02  0.41800000000E+01 0.  1.
</event>
<event>
11    1  0.7577197E-009  0.1339248E+03  0.7561462E-02  0.1114539E+00
         22   -1    0    0    0    0  0.00000000000E+00  0.00000000000E+00  0.10942163469E+04  0.10942163469E+04  0.00000000000E+00 0. -1.
         22   -1    0    0    0    0 -0.00000000000E+00 -0.00000000000E+00 -0.16209950741E+03  0.16209950741E+03  0.00000000000E+00 0.  1.
         24    2    1    2    0    0 -0.27012051692E+02 -0.37566856199E+02 -0.12897937634E+03  0.15912979470E+03  0.80905453565E+02 0.  0.
         25    2    1    2    0    0  0.45496588915E+02  0.76393903688E+02  0.37657785550E+03  0.40664982271E+03  0.12508888412E+03 0.  0.
        -24    2    1    2    0    0 -0.18484537223E+02 -0.38827047489E+02  0.68451836038E+03  0.69053623695E+03  0.80160408565E+02 0.  0.
        -11    1    3    3    0    0 -0.38724767838E+01 -0.58598194555E+02 -0.63060911268E+02  0.86170894225E+02  0.00000000000E+00 0.  1.
         12    1    3    3    0    0 -0.23139574908E+02  0.21031338356E+02 -0.65918465076E+02  0.72958900471E+02  0.00000000000E+00 0. -1.
         11    1    5    5    0    0 -0.36408789344E+02 -0.50642075970E+02  0.60376202010E+03  0.60697512034E+03  0.00000000000E+00 0. -1.
        -12    1    5    5    0    0  0.17924252121E+02  0.11815028481E+02  0.80756340281E+02  0.83561116601E+02  0.00000000000E+00 0.  1.
          5    1    4    4  501    0  0.38452237875E+02  0.10447873647E+03  0.21198771163E+03  0.23947994332E+03  0.41800000000E+01 0.  1.
         -5    1    4    4    0  501  0.70443510408E+01 -0.28084832784E+02  0.16459014387E+03  0.16716987938E+03  0.41800000000E+01 0.  1.
</event>
<event>
11    1  0.7577197E-009  0.1567913E+03  0.7561462E-02  0.1090135E+00
         22   -1    0    0    0    0  0.00000000000E+00  0.00000000000E+00  0.17516721396E+03  0.17516721396E+03  0.00000000000E+00 0. -1.
         22   -1    0    0    0    0 -0.00000000000E+00 -0.00000000000E+00 -0.20875850402E+04  0.20875850402E+04  0.00000000000E+00 0. -1.
        -24    2    1    2    0    0 -0.64874032658E+02 -0.67710384481E+02 -0.19132777847E+04  0.19173489609E+04  0.82473149176E+02 0.  0.
         25    2    1    2    0    0  0.97975277317E+02  0.60261686082E+02 -0.11281944393E+03  0.20397653384E+03  0.12509026203E+03 0.  0.
         24    2    1    2    0    0 -0.33101244659E+02  0.74486983995E+01  0.11367940235E+03  0.14142675942E+03  0.76989260665E+02 0.  0.
        -13    1    5    5    0    0  0.68597710898E+01  0.34473648399E+02  0.57336240370E+02  0.67252757216E+02  0.00000000000E+00 0.  1.
         14    1    5    5    0    0 -0.39961015749E+02 -0.27024950000E+02  0.56343161976E+02  0.74174002208E+02  0.00000000000E+00 0. -1.
         11    1    3    3    0    0 -0.24408051674E+02 -0.61925480065E+02 -0.64770405814E+03  0.65111524710E+03  0.00000000000E+00 0. -1.
        -12    1    3    3    0    0 -0.40465980984E+02 -0.57849044165E+01 -0.12655737265E+04  0.12662337138E+04  0.00000000000E+00 0.  1.
          5    1    4    4  501    0  0.12680028809E+03  0.41661041016E+02 -0.76733546131E+02  0.15401124927E+03  0.41800000000E+01 0. -1.
         -5    1    4    4    0  501 -0.28825010774E+02  0.18600645066E+02 -0.36085897798E+02  0.49965284577E+02  0.41800000000E+01 0. -1.
</event>
<event>
11    1  0.7577197E-009  0.1581697E+03  0.7561462E-02  0.1088811E+00
         22   -1    0    0    0    0  0.00000000000E+00  0.00000000000E+00  0.79811134777E+03  0.79811134777E+03  0.00000000000E+00 0.  1.
         22   -1    0    0    0    0 -0.00000000000E+00 -0.00000000000E+00 -0.15076720084E+03  0.15076720084E+03  0.00000000000E+00 0.  1.
        -24    2    1    2    0    0  0.13710080716E+02  0.50668126647E+02 -0.95099966882E+02  0.13357336189E+03  0.77734252000E+02 0.  0.
         25    2    1    2    0    0  0.82277111911E+02 -0.66495420834E+02  0.20448462184E+03  0.26201732961E+03  0.12509179153E+03 0.  0.
         24    2    1    2    0    0 -0.95987192628E+02  0.15827294187E+02  0.53795949198E+03  0.55328785712E+03  0.85223197730E+02 0.  0.
        -11    1    5    5    0    0 -0.38485037815E+02 -0.32873868312E+02  0.28039626249E+03  0.28492780378E+03  0.00000000000E+00 0.  1.
         12    1    5    5    0    0 -0.57502154812E+02  0.48701162499E+02  0.25756322950E+03  0.26836005333E+03  0.00000000000E+00 0. -1.
         13    1    3    3    0    0  0.18930872409E+02  0.51317403656E+02 -0.19924059230E+02  0.58213589345E+02  0.00000000000E+00 0. -1.
        -14    1    3    3    0    0 -0.52207916930E+01 -0.64927700931E+00 -0.75175907652E+02  0.75359772543E+02  0.00000000000E+00 0.  1.
          5    1    4    4  501    0  0.11456211924E+03 -0.63584978433E+02  0.16103520784E+03  0.20764715074E+03  0.41800000000E+01 0. -1.
         -5    1    4    4    0  501 -0.32285007326E+02 -0.29104424005E+01  0.43449414003E+02  0.54370178869E+02  0.41800000000E+01 0. -1.
</event>
<event>
11    1  0.7577197E-009  0.1922178E+03  0.7561462E-02  0.1060167E+00
         22   -1    0    0    0    0  0.00000000000E+00  0.00000000000E+00  0.45219386370E+03  0.45219386370E+03  0.00000000000E+00 0. -1.
         22   -1    0    0    0    0 -0.00000000000E+00 -0.00000000000E+00 -0.20150979070E+03  0.20150979070E+03  0.00000000000E+00 0.  1.
        -24    2    1    2    0    0  0.14859003886E+03  0.11189136639E+03 -0.52428914947E+02  0.20850074369E+03  0.78262963634E+02 0.  0.
         25    2    1    2    0    0 -0.96064147190E+02  0.66238824555E+01  0.85654523352E+02  0.17960648332E+03  0.12509834245E+03 0.  0.
         24    2    1    2    0    0 -0.52525891669E+02 -0.11851524885E+03  0.21745846460E+03  0.26559642739E+03  0.80302209864E+02 0.  0.
        -11    1    5    5    0    0  0.43956989445E+01  0.10505435788E+02  0.14040912386E+02  0.18078538960E+02  0.00000000000E+00 0.  1.
         12    1    5    5    0    0 -0.56921590613E+02 -0.12902068464E+03  0.20341755221E+03  0.24751788843E+03  0.00000000000E+00 0. -1.
         11    1    3    3    0    0  0.12126240770E+03  0.96696256001E+02 -0.94932916531E+01  0.15538616423E+03  0.00000000000E+00 0. -1.
        -12    1    3    3    0    0  0.27327631156E+02  0.15195110394E+02 -0.42935623294E+02  0.53114579468E+02  0.00000000000E+00 0.  1.
          5    1    4    4  501    0 -0.86568956396E+02  0.41534499078E+02  0.10159515336E+03  0.13985115806E+03  0.41800000000E+01 0. -1.
         -5    1    4    4    0  501 -0.94951907941E+01 -0.34910616623E+02 -0.15940630006E+02  0.39755325256E+02  0.41800000000E+01 0. -1.
</event>
<event>
11    1  0.7577197E-009  0.1589914E+03  0.7561462E-02  0.1088030E+00
         22   -1    0    0    0    0  0.00000000000E+00  0.00000000000E+00  0.18683046941E+03  0.18683046941E+03  0.00000000000E+00 0. -1.
         22   -1    0    0    0    0 -0.00000000000E+00 -0.00000000000E+00 -0.26956482641E+04  0.26956482641E+04  0.00000000000E+00 0. -1.
        -24    2    1    2    0    0 -0.87759045568E+02 -0.40893791191E+02 -0.21726411004E+04  0.21762809123E+04  0.80344916573E+02 0.  0.
         25    2    1    2    0    0  0.83251166669E+02  0.75811856500E+02 -0.49597824989E+03  0.52375672315E+03  0.12509391009E+03 0.  0.
         24    2    1    2    0    0  0.45078788987E+01 -0.34918065309E+02  0.15980155562E+03  0.18244109810E+03  0.80676048755E+02 0.  0.
        -13    1    5    5    0    0  0.14272278467E+02  0.13163324718E+02  0.49980829448E+01  0.20048737701E+02  0.00000000000E+00 0.  1.
         14    1    5    5    0    0 -0.97643995688E+01 -0.48081390027E+02  0.15480347267E+03  0.16239236040E+03  0.00000000000E+00 0. -1.
         13    1    3    3    0    0 -0.87169791825E+02 -0.47304781645E+02 -0.21581073103E+04  0.21603850300E+04  0.00000000000E+00 0. -1.
        -14    1    3    3    0    0 -0.58925374210E+00  0.64109904546E+01 -0.14533790148E+02  0.15895882317E+02  0.00000000000E+00 0.  1.
          5    1    4    4  501    0  0.80772206241E+02  0.72816657627E+00 -0.15794233811E+03  0.17744839840E+03  0.41800000000E+01 0.  1.
         -5    1    4    4    0  501  0.24789604283E+01  0.75083689923E+02 -0.33803591178E+03  0.34630832474E+03  0.41800000000E+01 0.  1.
</event>
<event>
11    1  0.7577197E-009  0.1547593E+03  0.7561462E-02  0.1092113E+00
         22   -1    0    0    0    0  0.00000000000E+00  0.00000000000E+00  0.34520422948E+03  0.34520422948E+03  0.00000000000E+00 0.  1.
         22   -1    0    0    0    0 -0.00000000000E+00 -0.00000000000E+00 -0.15431074530E+03  0.15431074530E+03  0.00000000000E+00 0. -1.
         24    2    1    2    0    0  0.24502747898E+02  0.25067938060E+01 -0.72424911021E+02  0.11177914087E+03  0.81501778678E+02 0.  0.
         25    2    1    2    0    0 -0.55607521447E+02 -0.83516563522E+02  0.12157322426E+03  0.20123282776E+03  0.12508952509E+03 0.  0.
        -24    2    1    2    0    0  0.31104773549E+02  0.81009769716E+02  0.14174517094E+03  0.18650300615E+03  0.84626166701E+02 0.  0.
        -13    1    3    3    0    0 -0.16164246305E+02 -0.28871310108E+02 -0.21572797388E+02  0.39499632823E+02  0.00000000000E+00 0.  1.
         14    1    3    3    0    0  0.40666994203E+02  0.31378103914E+02 -0.50852113632E+02  0.72279508048E+02  0.00000000000E+00 0. -1.
         11    1    5    5    0    0  0.52807968960E+02  0.29900875903E+02  0.47288389942E+02  0.76934620222E+02  0.00000000000E+00 0. -1.
        -12    1    5    5    0    0 -0.21703195411E+02  0.51108893812E+02  0.94456781001E+02  0.10956838593E+03  0.00000000000E+00 0.  1.
          5    1    4    4  501    0 -0.89333731100E+02 -0.30169456870E+02  0.90496965253E+02  0.13075888023E+03  0.41800000000E+01 0. -1.
         -5    1    4    4    0  501  0.33726209654E+02 -0.53347106652E+02  0.31076259006E+02  0.70473947523E+02  0.41800000000E+01 0. -1.
</event>
<event>
11    1  0.7577197E-009  0.1328224E+03  0.7561462E-02  0.1115849E+00
         22   -1    0    0    0    0  0.00000000000E+00  0.00000000000E+00  0.11925418005E+03  0.11925418005E+03  0.00000000000E+00 0.  1.
         22   -1    0    0    0    0 -0.00000000000E+00 -0.00000000000E+00 -0.82422359116E+03  0.82422359116E+03  0.00000000000E+00 0.  1.
        -24    2    1    2    0    0  0.23018466492E+02  0.40254495214E+02 -0.55832772949E+03  0.56608783758E+03  0.81088298503E+02 0.  0.
         25    2    1    2    0    0 -0.44259200685E+02 -0.14532962697E+02 -0.22365678963E+03  0.26046212976E+03  0.12509227651E+03 0.  0.
         24    2    1    2    0    0  0.21240734193E+02 -0.25721532518E+02  0.77015108004E+02  0.11692780386E+03  0.81412642946E+02 0.  0.
        -13    1    5    5    0    0  0.25200670063E+01 -0.28193013385E+02  0.89779102350E+02  0.94135455383E+02  0.00000000000E+00 0.  1.
         14    1    5    5    0    0  0.18720667187E+02  0.24714808671E+01 -0.12763994346E+02  0.22792348481E+02  0.00000000000E+00 0. -1.
         11    1    3    3    0    0  0.84074138724E+00 -0.22683403737E+02 -0.81082924979E+02  0.84200263505E+02  0.00000000000E+00 0. -1.
        -12    1    3    3    0    0  0.22177725105E+02  0.62937898951E+02 -0.47724480451E+03  0.48188757407E+03  0.00000000000E+00 0.  1.
          5    1    4    4  501    0  0.17195409619E+02  0.19694395034E+02 -0.16958587537E+03  0.17164030072E+03  0.41800000000E+01 0. -1.
         -5    1    4    4    0  501 -0.61454610304E+02 -0.34227357731E+02 -0.54070914261E+02  0.88821829039E+02  0.41800000000E+01 0. -1.
</event>
<event>
11    1  0.7577197E-009  0.1279758E+03  0.7561462E-02  0.1121781E+00
         22   -1    0    0    0    0  0.00000000000E+00  0.00000000000E+00  0.31779099844E+03  0.31779099844E+03  0.00000000000E+00 0. -1.
         22   -1    0    0    0    0 -0.00000000000E+00 -0.00000000000E+00 -0.32055712493E+03  0.32055712493E+03  0.00000000000E+00 0. -1.
         24    2    1    2    0    0 -0.25063990007E+02  0.22268271277E+01 -0.26109896384E+03  0.27940496831E+03  0.96235674491E+02 0.  0.
         25    2    1    2    0    0  0.48348284286E+02 -0.27133520562E+02  0.79747682826E+02  0.15836969112E+03  0.12508989414E+03 0.  0.
        -24    2    1    2    0    0 -0.23284294279E+02  0.24906693434E+02  0.17858515453E+03  0.20057346394E+03  0.84702746597E+02 0.  0.
        -11    1    3    3    0    0 -0.47072209282E+02  0.24956378984E+02 -0.83783011270E+02  0.99288502437E+02  0.00000000000E+00 0.  1.
         12    1    3    3    0    0  0.22008219276E+02 -0.22729551856E+02 -0.17731595257E+03  0.18011646588E+03  0.00000000000E+00 0. -1.
         13    1    5    5    0    0 -0.50492443998E+02 -0.51565851006E+01  0.10032859715E+03  0.11243622493E+03  0.00000000000E+00 0. -1.
        -14    1    5    5    0    0  0.27208149718E+02  0.30063278535E+02  0.78256557379E+02  0.88137239009E+02  0.00000000000E+00 0.  1.
          5    1    4    4  501    0  0.51128917621E+02 -0.19775503577E+02  0.11207696873E+03  0.12483571636E+03  0.41800000000E+01 0.  1.
         -5    1    4    4    0  501 -0.27806333349E+01 -0.73580169845E+01 -0.32329285906E+02  0.33533974755E+02  0.41800000000E+01 0.  1.
</event>
<event>
11    1  0.7577197E-009  0.1497503E+03  0.7561462E-02  0.1097134E+00
         22   -1    0    0    0    0  0.00000000000E+00  0.00000000000E+00  0.54886223621E+03  0.54886223621E+03  0.00000000000E+00 0.  1.
         22   -1    0    0    0    0 -0.00000000000E+00 -0.00000000000E+00 -0.21067338210E+03  0.21067338210E+03  0.00000000000E+00 0.  1.
         24    2    1    2    0    0 -0.16130412498E+02  0.64040956737E+02 -0.12372647263E+03  0.16122370212E+03  0.79519857578E+02 0.  0.
         25    2    1    2    0    0  0.88889955556E+02 -0.91086502967E+02  0.72390747551E+02  0.19257754925E+03  0.12509003526E+03 0.  0.
        -24    2    1    2    0    0 -0.72759543058E+02  0.27045546230E+02  0.38952457919E+03  0.40573436694E+03  0.82858711372E+02 0.  0.
        -11    1    3    3    0    0  0.23170078935E+01  0.70634403408E+01 -0.94124966158E+02  0.94418059550E+02  0.00000000000E+00 0.  1.
         12    1    3    3    0    0 -0.18447420391E+02  0.56977516396E+02 -0.29601506468E+02  0.66805642568E+02  0.00000000000E+00 0. -1.
         11    1    5    5    0    0  0.16418783914E+01  0.67765141641E+01 -0.15390165320E+01  0.71404118057E+01  0.00000000000E+00 0. -1.
        -12    1    5    5    0    0 -0.74401421449E+02  0.20269032066E+02  0.39106359572E+03  0.39859395514E+03  0.00000000000E+00 0.  1.
          5    1    4    4  501    0 -0.77435752999E+01 -0.28006298618E+02  0.71288886971E+02  0.77096650551E+02  0.41800000000E+01 0. -1.
         -5    1    4    4    0  501  0.96633530856E+02 -0.63080204349E+02  0.11018605801E+01  0.11548089869E+03  0.41800000000E+01 0. -1.
</event>
<event>
11    1  0.7577197E-009  0.1347922E+03  0.7561462E-02  0.1113517E+00
         22   -1    0    0    0    0  0.00000000000E+00  0.00000000000E+00  0.27675743675E+03  0.27675743675E+03  0.00000000000E+00 0.  1.
         22   -1    0    0    0    0 -0.00000000000E+00 -0.00000000000E+00 -0.56694767061E+03  0.56694767061E+03  0.00000000000E+00 0.  1.
        -24    2    1    2    0    0  0.19350280038E+02 -0.94465335473E+00 -0.22983423299E+03  0.24436454490E+03  0.80715119045E+02 0.  0.
         25    2    1    2    0    0 -0.67692940505E+02 -0.10679446162E+02 -0.30520958937E+03  0.33689240308E+03  0.12508882061E+03 0.  0.
         24    2    1    2    0    0  0.48342660467E+02  0.11624099517E+02  0.24485358851E+03  0.26244815938E+03  0.80334451162E+02 0.  0.
        -11    1    5    5    0    0  0.13808127441E+02  0.38272536500E+02  0.17822719301E+03  0.18281242781E+03  0.00000000000E+00 0.  1.
         12    1    5    5    0    0  0.34534533025E+02 -0.26648436983E+02  0.66626395501E+02  0.79635731568E+02  0.00000000000E+00 0. -1.
         11    1    3    3    0    0  0.45609918218E+02 -0.18127028300E+02 -0.10932988525E+03  0.11984105141E+03  0.00000000000E+00 0. -1.
        -12    1    3    3    0    0 -0.26259638179E+02  0.17182374945E+02 -0.12050434774E+03  0.12452349349E+03  0.00000000000E+00 0.  1.
          5    1    4    4  501    0 -0.46711120223E+02  0.48415892941E+02 -0.22565620056E+03  0.23550843019E+03  0.41800000000E+01 0.  1.
         -5    1    4    4    0  501 -0.20981820282E+02 -0.59095339103E+02 -0.79553388816E+02  0.10138397289E+03  0.41800000000E+01 0.  1.
</event>
<event>
11    1  0.7577197E-009  0.1503214E+03  0.7561462E-02  0.1096551E+00
         22   -1    0    0    0    0  0.00000000000E+00  0.00000000000E+00  0.25095118484E+02  0.25095118484E+02  0.00000000000E+00 0.  1.
         22   -1    0    0    0    0 -0.00000000000E+00 -0.00000000000E+00 -0.34323222302E+04  0.34323222302E+04  0.00000000000E+00 0.  1.
        -24    2    1    2    0    0  0.24930558762E+02  0.23003906584E+02 -0.18287934507E+04  0.18316098404E+04  0.95699580074E+02 0.  0.
         25    2    1    2    0    0  0.53983230071E+02 -0.54249983974E+02 -0.14263331776E+04  0.14338518981E+04  0.12509069593E+03 0.  0.
         24    2    1    2    0    0 -0.78913788833E+02  0.31246077390E+02 -0.15210048336E+03  0.19195561016E+03  0.80676488597E+02 0.  0.
        -13    1    5    5    0    0 -0.61084988157E+02 -0.41754059503E+01 -0.40222351942E+02  0.73257405010E+02  0.00000000000E+00 0.  1.
         14    1    5    5    0    0 -0.17828800676E+02  0.35421483340E+02 -0.11187813142E+03  0.11869820515E+03  0.00000000000E+00 0. -1.
         13    1    3    3    0    0  0.66246589075E+01 -0.33692159243E+02 -0.36701316246E+03  0.36861593715E+03  0.00000000000E+00 0. -1.
        -14    1    3    3    0    0  0.18305899855E+02  0.56696065827E+02 -0.14617802882E+04  0.14629939032E+04  0.00000000000E+00 0.  1.
          5    1    4    4  501    0  0.19823399776E+02 -0.39962909737E+02 -0.13270547817E+04  0.13278109306E+04  0.41800000000E+01 0.  1.
         -5    1    4    4    0  501  0.34159830295E+02 -0.14287074237E+02 -0.99278395947E+02  0.10604096755E+03  0.41800000000E+01 0.  1.
</event>
<event>
11    1  0.7577197E-009  0.2429152E+03  0.7561462E-02  0.1027743E+00
         22   -1    0    0    0    0  0.00000000000E+00  0.00000000000E+00  0.12400719363E+04  0.12400719363E+04  0.00000000000E+00 0. -1.
         22   -1    0    0    0    0 -0.00000000000E+00 -0.00000000000E+00 -0.91201140953E+03  0.91201140953E+03  0.00000000000E+00 0.  1.
         24    2    1    2    0    0 -0.21580069840E+02  0.36603712323E+02 -0.86523841625E+03  0.87004466311E+03  0.80837291384E+02 0.  0.
         25    2    1    2    0    0  0.21771962555E+03  0.88069484305E+01  0.65014784152E+03  0.69700651123E+03  0.12508582319E+03 0.  0.
        -24    2    1    2    0    0 -0.19613955571E+03 -0.45410660753E+02  0.54315110151E+03  0.58503217149E+03  0.81955287698E+02 0.  0.
        -11    1    3    3    0    0 -0.56967542684E+01  0.32381815249E+02 -0.83484610443E+03  0.83549329923E+03  0.00000000000E+00 0.  1.
         12    1    3    3    0    0 -0.15883315571E+02  0.42218970739E+01 -0.30392311821E+02  0.34551363884E+02  0.00000000000E+00 0. -1.
         13    1    5    5    0    0 -0.83375253521E+02  0.21417728100E+02  0.22792351425E+03  0.24363760039E+03  0.00000000000E+00 0. -1.
        -14    1    5    5    0    0 -0.11276430219E+03 -0.66828388853E+02  0.31522758726E+03  0.34139457109E+03  0.00000000000E+00 0.  1.
          5    1    4    4  501    0  0.10994128650E+03  0.24670161085E+02  0.49310614344E+03  0.50583282261E+03  0.41800000000E+01 0.  1.
         -5    1    4    4    0  501  0.10777833905E+03 -0.15863212654E+02  0.15704169808E+03  0.19117368862E+03  0.41800000000E+01 0.  1.
</event>
<event>
11    1  0.7577197E-009  0.1566653E+03  0.7561462E-02  0.1090256E+00
         22   -1    0    0    0    0  0.00000000000E+00  0.00000000000E+00  0.55331654716E+03  0.55331654716E+03  0.00000000000E+00 0.  1.
         22   -1    0    0    0    0 -0.00000000000E+00 -0.00000000000E+00 -0.52982544466E+03  0.52982544466E+03  0.00000000000E+00 0. -1.
         24    2    1    2    0    0 -0.95705488417E+02 -0.35759098888E+01 -0.49616367802E+03  0.51151889369E+03  0.79377928717E+02 0.  0.
         25    2    1    2    0    0  0.44350411948E+02 -0.11063533212E+02  0.25051804454E+03  0.28371758078E+03  0.12508802579E+03 0.  0.
        -24    2    1    2    0    0  0.51355076469E+02  0.14639443101E+02  0.26913673599E+03  0.28790551735E+03  0.87197173628E+02 0.  0.
        -11    1    3    3    0    0 -0.19800157310E+01 -0.13835219338E+02 -0.12498862998E+02  0.18749808871E+02  0.00000000000E+00 0.  1.
         12    1    3    3    0    0 -0.93725472686E+02  0.10259309449E+02 -0.48366481502E+03  0.49276908482E+03  0.00000000000E+00 0. -1.
         11    1    5    5    0    0 -0.80067394107E+01  0.37538811441E+02  0.11099779595E+03  0.11744692821E+03  0.00000000000E+00 0. -1.
        -12    1    5    5    0    0  0.59361815880E+02 -0.22899368340E+02  0.15813894003E+03  0.17045858914E+03  0.00000000000E+00 0.  1.
          5    1    4    4  501    0  0.85602162440E+02 -0.71619730094E+00  0.12874938415E+03  0.15466777128E+03  0.41800000000E+01 0. -1.
         -5    1    4    4    0  501 -0.41251750492E+02 -0.10347335911E+02  0.12176866039E+03  0.12904980950E+03  0.41800000000E+01 0. -1.
</event>
<event>
11    1  0.7577197E-009  0.1742510E+03  0.7561462E-02  0.1074390E+00
         22   -1    0    0    0    0  0.00000000000E+00  0.00000000000E+00  0.16986779029E+04  0.16986779029E+04  0.00000000000E+00 0.  1.
         22   -1    0    0    0    0 -0.00000000000E+00 -0.00000000000E+00 -0.10448336695E+04  0.10448336695E+04  0.00000000000E+00 0. -1.
        -24    2    1    2    0    0 -0.11699736085E+02  0.67296461314E+02 -0.10042862496E+04  0.10097471099E+04  0.79577995345E+02 0.  0.
         25    2    1    2    0    0 -0.59980384705E+02  0.37873902144E+02  0.11713786758E+03  0.18547670101E+03  0.12509295577E+03 0.  0.
         24    2    1    2    0    0  0.71680120790E+02 -0.10517036346E+03  0.15409926154E+04  0.15482877614E+04  0.79610968400E+02 0.  0.
        -13    1    5    5    0    0  0.27601210471E+02 -0.95381026804E+02  0.12345249008E+04  0.12385116462E+04  0.00000000000E+00 0.  1.
         14    1    5    5    0    0  0.44078910319E+02 -0.97893366542E+01  0.30646771467E+03  0.30977611526E+03  0.00000000000E+00 0. -1.
         11    1    3    3    0    0  0.33750551038E+00  0.47528467607E+02 -0.94361427305E+03  0.94481054474E+03  0.00000000000E+00 0. -1.
        -12    1    3    3    0    0 -0.12037241595E+02  0.19767993707E+02 -0.60671976563E+02  0.64936565204E+02  0.00000000000E+00 0.  1.
          5    1    4    4  501    0 -0.66294445749E+02  0.24114273392E+02  0.34954056838E+01  0.70754095142E+02  0.41800000000E+01 0.  1.
         -5    1    4    4    0  501  0.63140610440E+01  0.13759628753E+02  0.11364246190E+03  0.11472260587E+03  0.41800000000E+01 0.  1.
</event>
<event>
11    1  0.7577197E-009  0.1669827E+03  0.7561462E-02  0.1080688E+00
         22   -1    0    0    0    0  0.00000000000E+00  0.00000000000E+00  0.24463516745E+03  0.24463516745E+03  0.00000000000E+00 0. -1.
         22   -1    0    0    0    0 -0.00000000000E+00 -0.00000000000E+00 -0.76294746295E+03  0.76294746295E+03  0.00000000000E+00 0. -1.
         24    2    1    2    0    0 -0.53863015812E+02  0.52623901789E+01 -0.62895204062E+03  0.63539489287E+03  0.72229379480E+02 0.  0.
         25    2    1    2    0    0  0.95411998212E+01  0.10163390114E+03 -0.38096879003E+02  0.16589246658E+03  0.12509378051E+03 0.  0.
        -24    2    1    2    0    0  0.44321815990E+02 -0.10689629132E+03  0.14873662413E+03  0.20629527095E+03  0.83928034582E+02 0.  0.
        -13    1    3    3    0    0  0.25757109059E+01 -0.18315175844E+01  0.65152530774E+00  0.32269534486E+01  0.00000000000E+00 0.  1.
         14    1    3    3    0    0 -0.56438726718E+02  0.70939077633E+01 -0.62960356593E+03  0.63216793942E+03  0.00000000000E+00 0. -1.
         11    1    5    5    0    0  0.11063218126E+02 -0.24744063152E+02  0.10310645379E+03  0.10660958807E+03  0.00000000000E+00 0. -1.
        -12    1    5    5    0    0  0.33258597864E+02 -0.82152228172E+02  0.45630170338E+02  0.99685682876E+02  0.00000000000E+00 0.  1.
          5    1    4    4  501    0 -0.34458604236E+02 -0.17795523607E+01 -0.40544893934E+02  0.53403399111E+02  0.41800000000E+01 0. -1.
         -5    1    4    4    0  501  0.43999804057E+02  0.10341345351E+03  0.24480149312E+01  0.11248906747E+03  0.41800000000E+01 0. -1.
</event>
<event>
11    1  0.7577197E-009  0.1534317E+03  0.7561462E-02  0.1093423E+00
         22   -1    0    0    0    0  0.00000000000E+00  0.00000000000E+00  0.15894098816E+04  0.15894098816E+04  0.00000000000E+00 0. -1.
         22   -1    0    0    0    0 -0.00000000000E+00 -0.00000000000E+00 -0.13421261473E+03  0.13421261473E+03  0.00000000000E+00 0. -1.
         24    2    1    2    0    0 -0.80503970631E+01 -0.87697453391E+02 -0.92310916658E+02  0.15075024847E+03  0.80303672731E+02 0.  0.
         25    2    1    2    0    0  0.64372578655E+02  0.10487168134E+03  0.82082510797E+03  0.83937127087E+03  0.12509346125E+03 0.  0.
        -24    2    1    2    0    0 -0.56322181592E+02 -0.17174227952E+02  0.72668307553E+03  0.73350097697E+03  0.80549666130E+02 0.  0.
        -11    1    3    3    0    0  0.25535812324E+02 -0.31145095279E+01 -0.86732764143E+01  0.27147810306E+02  0.00000000000E+00 0.  1.
         12    1    3    3    0    0 -0.33586209387E+02 -0.84582943863E+02 -0.83637640244E+02  0.12360243816E+03  0.00000000000E+00 0. -1.
         13    1    5    5    0    0 -0.51406824563E+02 -0.39052778959E+02  0.33423052168E+03  0.34040831773E+03  0.00000000000E+00 0. -1.
        -14    1    5    5    0    0 -0.49153570292E+01  0.21878551007E+02  0.39245255385E+03  0.39309265924E+03  0.00000000000E+00 0.  1.
          5    1    4    4  501    0  0.42247544307E+02 -0.20465548550E+02  0.26363252256E+03  0.26781201061E+03  0.41800000000E+01 0. -1.
         -5    1    4    4    0  501  0.22125034347E+02  0.12533722989E+03  0.55719258542E+03  0.57155926026E+03  0.41800000000E+01 0. -1.
</event>
<event>
11    1  0.7577197E-009  0.1444378E+03  0.7561462E-02  0.1102702E+00
         22   -1    0    0    0    0  0.00000000000E+00  0.00000000000E+00  0.41297050734E+03  0.41297050734E+03  0.00000000000E+00 0. -1.
         22   -1    0    0    0    0 -0.00000000000E+00 -0.00000000000E+00 -0.58508661041E+03  0.58508661041E+03  0.00000000000E+00 0. -1.
        -24    2    1    2    0    0  0.34501681934E+02 -0.62716915791E+02 -0.53862379665E+03  0.54909179339E+03  0.79135489337E+02 0.  0.
         25    2    1    2    0    0 -0.22192414631E+02  0.10018013874E+03  0.18692541816E+03  0.24721787688E+03  0.12508798195E+03 0.  0.
         24    2    1    2    0    0 -0.12309267303E+02 -0.37463222944E+02  0.17958227541E+03  0.20174744748E+03  0.83049550192E+02 0.  0.
        -13    1    5    5    0    0 -0.84980351741E+01 -0.25779732131E+02  0.60881910327E+01  0.27818649511E+02  0.00000000000E+00 0.  1.
         14    1    5    5    0    0 -0.38112321288E+01 -0.11683490814E+02  0.17349408438E+03  0.17392879797E+03  0.00000000000E+00 0. -1.
         13    1    3    3    0    0  0.43506047650E+02 -0.16576301765E+02 -0.40028509466E+03  0.40298350707E+03  0.00000000000E+00 0. -1.
        -14    1    3    3    0    0 -0.90043657157E+01 -0.46140614027E+02 -0.13833870198E+03  0.14610828632E+03  0.00000000000E+00 0.  1.
          5    1    4    4  501    0  0.15672918955E+02  0.11830856564E+03  0.13283895249E+03  0.17862311382E+03  0.41800000000E+01 0. -1.
         -5    1    4    4    0  501 -0.37865333586E+02 -0.18128426905E+02  0.54086465673E+02  0.68594763055E+02  0.41800000000E+01 0. -1.
</event>
<event>
11    1  0.7577197E-009  0.1500004E+03  0.7561462E-02  0.1096878E+00
         22   -1    0    0    0    0  0.00000000000E+00  0.00000000000E+00  0.31486282824E+03  0.31486282824E+03  0.00000000000E+00 0. -1.
         22   -1    0    0    0    0 -0.00000000000E+00 -0.00000000000E+00 -0.18371535865E+04  0.18371535865E+04  0.00000000000E+00 0.  1.
        -24    2    1    2    0    0  0.78844427723E+02 -0.27785095986E+02 -0.16553989778E+04  0.16594946145E+04  0.81167386703E+02 0.  0.
         25    2    1    2    0    0 -0.42653570184E+02  0.81763377308E+02 -0.13207103434E+03  0.20394287270E+03  0.12508141466E+03 0.  0.
         24    2    1    2    0    0 -0.36190857539E+02 -0.53978281322E+02  0.26517925391E+03  0.28857892748E+03  0.93457624926E+02 0.  0.
        -13    1    5    5    0    0  0.87325093011E+01 -0.29017724805E+02  0.21370032412E+03  0.21583816530E+03  0.00000000000E+00 0.  1.
         14    1    5    5    0    0 -0.44923366840E+02 -0.24960556517E+02  0.51478929788E+02  0.72740762177E+02  0.00000000000E+00 0. -1.
         13    1    3    3    0    0  0.19717047866E+01  0.60623420081E+00  0.57200813600E-02  0.20628069205E+01  0.00000000000E+00 0. -1.
        -14    1    3    3    0    0  0.76872722936E+02 -0.28391330187E+02 -0.16554046979E+04  0.16574318076E+04  0.00000000000E+00 0.  1.
          5    1    4    4  501    0 -0.71958098409E+02  0.24516715533E+02 -0.27191483356E+02  0.80844829360E+02  0.41800000000E+01 0.  1.
         -5    1    4    4    0  501  0.29304528225E+02  0.57246661775E+02 -0.10487955098E+03  0.12309804334E+03  0.41800000000E+01 0.  1.
</event>
<event>
11    1  0.7577197E-009  0.2790465E+03  0.7561462E-02  0.1009471E+00
         22   -1    0    0    0    0  0.00000000000E+00  0.00000000000E+00  0.62131337569E+03  0.62131337569E+03  0.00000000000E+00 0. -1.
         22   -1    0    0    0    0 -0.00000000000E+00 -0.00000000000E+00 -0.52240138536E+03  0.52240138536E+03  0.00000000000E+00 0.  1.
        -24    2    1    2    0    0 -0.60726439562E+02 -0.25685443549E+02 -0.31924183125E+03  0.33579176885E+03  0.80581156217E+02 0.  0.
         25    2    1    2    0    0  0.17172419098E+02  0.26831303183E+03 -0.21338142152E+02  0.29730458702E+03  0.12509167088E+03 0.  0.
         24    2    1    2    0    0  0.43554020464E+02 -0.24262758828E+03  0.43949196373E+03  0.51061840518E+03  0.82540112831E+02 0.  0.
        -13    1    5    5    0    0 -0.16241851593E+02 -0.41299149168E+02  0.42245999069E+02  0.61271052728E+02  0.00000000000E+00 0.  1.
         14    1    5    5    0    0  0.59795872056E+02 -0.20132843912E+03  0.39724596466E+03  0.44934735245E+03  0.00000000000E+00 0. -1.
         13    1    3    3    0    0 -0.55890220497E+02 -0.29466745968E+02 -0.11304508932E+03  0.12950366051E+03  0.00000000000E+00 0. -1.
        -14    1    3    3    0    0 -0.48362190643E+01  0.37813024184E+01 -0.20619674192E+03  0.20628810834E+03  0.00000000000E+00 0.  1.
          5    1    4    4  501    0  0.63333499293E+02  0.89830549900E+02 -0.25282535398E+02  0.11285981935E+03  0.41800000000E+01 0. -1.
         -5    1    4    4    0  501 -0.46161080195E+02  0.17848248193E+03  0.39443932457E+01  0.18444476767E+03  0.41800000000E+01 0. -1.
</event>
<event>
11    1  0.7577197E-009  0.4284984E+03  0.7561462E-02  0.9569223E-01
         22   -1    0    0    0    0  0.00000000000E+00  0.00000000000E+00  0.53963973954E+03  0.53963973954E+03  0.00000000000E+00 0.  1.
         22   -1    0    0    0    0 -0.00000000000E+00 -0.00000000000E+00 -0.95663215696E+03  0.95663215696E+03  0.00000000000E+00 0.  1.
         24    2    1    2    0    0 -0.38020731781E+03 -0.37933098552E+03 -0.51282169693E+03  0.74696030813E+03  0.80709404607E+02 0.  0.
         25    2    1    2    0    0  0.26642983433E+03  0.15166035933E+03 -0.17023546685E+03  0.37230866560E+03  0.12509159480E+03 0.  0.
        -24    2    1    2    0    0  0.11377748347E+03  0.22767062620E+03  0.26606474637E+03  0.37700292278E+03  0.81003239095E+02 0.  0.
        -13    1    3    3    0    0 -0.36646491955E+03 -0.38138493958E+03 -0.49551922395E+03  0.72476914304E+03  0.00000000000E+00 0.  1.
         14    1    3    3    0    0 -0.13742398253E+02  0.20539540524E+01 -0.17302472973E+02  0.22191165088E+02  0.00000000000E+00 0. -1.
         13    1    5    5    0    0  0.68695951290E+02  0.54785853567E+02  0.76389951062E+02  0.11643044318E+03  0.00000000000E+00 0. -1.
        -14    1    5    5    0    0  0.45081532182E+02  0.17288477263E+03  0.18967479530E+03  0.26057247960E+03  0.00000000000E+00 0.  1.
          5    1    4    4  501    0  0.48126537211E+02 -0.20445561189E+02 -0.18808049490E+02  0.55726113106E+02  0.41800000000E+01 0.  1.
         -5    1    4    4    0  501  0.21830329712E+03  0.17210592052E+03 -0.15142741736E+03  0.31658255249E+03  0.41800000000E+01 0.  1.
</event>
<event>
11    1  0.7577197E-009  0.1501624E+03  0.7561462E-02  0.1096713E+00
         22   -1    0    0    0    0  0.00000000000E+00  0.00000000000E+00  0.23084378328E+04  0.23084378328E+04  0.00000000000E+00 0. -1.
         22   -1    0    0    0    0 -0.00000000000E+00 -0.00000000000E+00 -0.46009556071E+02  0.46009556071E+02  0.00000000000E+00 0. -1.
        -24    2    1    2    0    0  0.11113613253E+02 -0.48287541674E+01  0.97493470597E+01  0.81815497163E+02  0.80323698505E+02 0.  0.
         25    2    1    2    0    0  0.73994760838E+02 -0.43066871591E+01  0.67008491642E+03  0.68567849932E+03  0.12508971594E+03 0.  0.
         24    2    1    2    0    0 -0.85108374091E+02  0.91354413265E+01  0.15825940133E+04  0.15869533924E+04  0.80562815251E+02 0.  0.
        -11    1    5    5    0    0 -0.16295025882E+02 -0.16301594106E+02  0.10325518136E+03  0.10579651373E+03  0.00000000000E+00 0.  1.
         12    1    5    5    0    0 -0.68813348209E+02  0.25437035433E+02  0.14793388319E+04  0.14811568787E+04  0.00000000000E+00 0. -1.
         13    1    3    3    0    0  0.12354027272E+02 -0.36663584547E+02 -0.14977255133E+02  0.41486848434E+02  0.00000000000E+00 0. -1.
        -14    1    3    3    0    0 -0.12404140185E+01  0.31834830380E+02  0.24726602193E+02  0.40328648728E+02  0.00000000000E+00 0.  1.
          5    1    4    4  501    0 -0.16724737546E+02 -0.31018520628E+02  0.73368757741E+02  0.81500383315E+02  0.41800000000E+01 0.  1.
         -5    1    4    4    0  501  0.90719498384E+02  0.26711833469E+02  0.59671615868E+03  0.60417811601E+03  0.41800000000E+01 0.  1.
</event>
<event>
11    1  0.7577197E-009  0.2055756E+03  0.7561462E-02  0.1050649E+00
         22   -1    0    0    0    0  0.00000000000E+00  0.00000000000E+00  0.90544923728E+03  0.90544923728E+03  0.00000000000E+00 0. -1.
         22   -1    0    0    0    0 -0.00000000000E+00 -0.00000000000E+00 -0.65752115895E+03  0.65752115895E+03  0.00000000000E+00 0. -1.
        -24    2    1    2    0    0  0.15021922966E+03  0.64913858212E+02 -0.60410629738E+03  0.63088383539E+03  0.79311848248E+02 0.  0.
         25    2    1    2    0    0 -0.13663254076E+03 -0.70191380772E+02  0.22712373576E+03  0.30137267627E+03  0.12508004447E+03 0.  0.
         24    2    1    2    0    0 -0.13586688899E+02  0.52775225604E+01  0.62491063995E+03  0.63071388457E+03  0.84108536508E+02 0.  0.
        -11    1    5    5    0    0 -0.23779612460E+02  0.29432997915E+02  0.13787364726E+03  0.14297172428E+03  0.00000000000E+00 0.  1.
         12    1    5    5    0    0  0.10192923560E+02 -0.24155475354E+02  0.48703699269E+03  0.48774216029E+03  0.00000000000E+00 0. -1.
         13    1    3    3    0    0  0.12760882660E+03  0.44180642762E+02 -0.35364535286E+03  0.37855115563E+03  0.00000000000E+00 0. -1.
        -14    1    3    3    0    0  0.22610403057E+02  0.20733215450E+02 -0.25046094451E+03  0.25233267976E+03  0.00000000000E+00 0.  1.
          5    1    4    4  501    0 -0.11548146970E+03 -0.27695917499E+02  0.71648439940E+02  0.13875880165E+03  0.41800000000E+01 0. -1.
         -5    1    4    4    0  501 -0.21151071060E+02 -0.42495463273E+02  0.15547529582E+03  0.16261387461E+03  0.41800000000E+01 0. -1.
</event>
<event>
11    1  0.7577197E-009  0.1370764E+03  0.7561462E-02  0.1110868E+00
         22   -1    0    0    0    0  0.00000000000E+00  0.00000000000E+00  0.88324217223E+03  0.88324217223E+03  0.00000000000E+00 0.  1.
         22   -1    0    0    0    0 -0.00000000000E+00 -0.00000000000E+00 -0.61022042552E+02  0.61022042552E+02  0.00000000000E+00 0. -1.
         24    2    1    2    0    0  0.11134676937E+02  0.23139315698E+02  0.94507907699E+01  0.95983431537E+02  0.92000503922E+02 0.  0.
         25    2    1    2    0    0 -0.59672621904E+01  0.40313131732E+02  0.34661426843E+03  0.37074206378E+03  0.12508984759E+03 0.  0.
        -24    2    1    2    0    0 -0.51674147461E+01 -0.63452447430E+02  0.46615507048E+03  0.47753871946E+03  0.81790975009E+02 0.  0.
        -13    1    3    3    0    0 -0.39290352702E+02 -0.15211814952E+01  0.56372624315E+01  0.39721839538E+02  0.00000000000E+00 0.  1.
         14    1    3    3    0    0  0.50425029638E+02  0.24660497193E+02  0.38135283384E+01  0.56261591999E+02  0.00000000000E+00 0. -1.
         11    1    5    5    0    0 -0.80399685892E+01  0.18934800929E+02  0.11604375705E+03  0.11785296488E+03  0.00000000000E+00 0. -1.
        -12    1    5    5    0    0  0.28725538431E+01 -0.82387248359E+02  0.35011131343E+03  0.35968575459E+03  0.00000000000E+00 0.  1.
          5    1    4    4  501    0 -0.17994660659E+01 -0.39420864704E+02  0.51649831053E+02  0.65133862928E+02  0.41800000000E+01 0.  1.
         -5    1    4    4    0  501 -0.41677961245E+01  0.79733996436E+02  0.29496443738E+03  0.30560820085E+03  0.41800000000E+01 0.  1.
</event>
<event>
11    1  0.7577197E-009  0.1301662E+03  0.7561462E-02  0.1119065E+00
         22   -1    0    0    0    0  0.00000000000E+00  0.00000000000E+00  0.16255037430E+03  0.16255037430E+03  0.00000000000E+00 0.  1.
         22   -1    0    0    0    0 -0.00000000000E+00 -0.00000000000E+00 -0.27185678247E+04  0.27185678247E+04  0.00000000000E+00 0.  1.
        -24    2    1    2    0    0 -0.10253524048E+02 -0.33165862777E+02 -0.23249720893E+04  0.23267544513E+04  0.84178093016E+02 0.  0.
         25    2    1    2    0    0  0.16083426731E+01  0.55332851933E+02 -0.36880867020E+03  0.39336009986E+03  0.12509205282E+03 0.  0.
         24    2    1    2    0    0  0.86451813748E+01 -0.22166989156E+02  0.13776330914E+03  0.16100364781E+03  0.79858191149E+02 0.  0.
        -11    1    5    5    0    0  0.16399771888E+02 -0.43054393540E+02  0.12914069987E+03  0.13711292311E+03  0.00000000000E+00 0.  1.
         12    1    5    5    0    0 -0.77545905136E+01  0.20887404384E+02  0.86226092657E+01  0.23890724695E+02  0.00000000000E+00 0. -1.
         11    1    3    3    0    0  0.21606578367E+02  0.62551141005E+01 -0.21496468879E+03  0.21613835408E+03  0.00000000000E+00 0. -1.
        -12    1    3    3    0    0 -0.31860102414E+02 -0.39420976877E+02 -0.21100074006E+04  0.21106160972E+04  0.00000000000E+00 0.  1.
          5    1    4    4  501    0 -0.21434173336E+02 -0.95640141873E+01 -0.27945599261E+03  0.28047106511E+03  0.41800000000E+01 0. -1.
         -5    1    4    4    0  501  0.23042516009E+02  0.64896866120E+02 -0.89352677589E+02  0.11288903476E+03  0.41800000000E+01 0. -1.
</event>
<event>
11    1  0.7577197E-009  0.1897250E+03  0.7561462E-02  0.1062037E+00
         22   -1    0    0    0    0  0.00000000000E+00  0.00000000000E+00  0.64804651390E+03  0.64804651390E+03  0.00000000000E+00 0. -1.
         22   -1    0    0    0    0 -0.00000000000E+00 -0.00000000000E+00 -0.20405729625E+04  0.20405729625E+04  0.00000000000E+00 0.  1.
        -24    2    1    2    0    0  0.84720913078E+02  0.12114240989E+03 -0.18454399355E+04  0.18532551894E+04  0.83982883351E+02 0.  0.
         25    2    1    2    0    0 -0.97019551441E+02 -0.46053192506E+02 -0.14970705759E+03  0.22269321666E+03  0.12508547378E+03 0.  0.
         24    2    1    2    0    0  0.12298638363E+02 -0.75089217379E+02  0.60262054451E+03  0.61267107037E+03  0.80154056215E+02 0.  0.
        -11    1    5    5    0    0 -0.57926778849E+01 -0.71915232963E+02  0.26784290406E+03  0.27738993692E+03  0.00000000000E+00 0.  1.
         12    1    5    5    0    0  0.18091316248E+02 -0.31739844163E+01  0.33477764045E+03  0.33528113345E+03  0.00000000000E+00 0. -1.
         11    1    3    3    0    0  0.34376406697E+02  0.23842462799E+02 -0.20863293512E+03  0.21278604744E+03  0.00000000000E+00 0. -1.
        -12    1    3    3    0    0  0.50344506381E+02  0.97299947086E+02 -0.16368070004E+04  0.16404691419E+04  0.00000000000E+00 0.  1.
          5    1    4    4  501    0 -0.41767025391E+02 -0.79984635636E+02 -0.12261827678E+03  0.15229819614E+03  0.41800000000E+01 0. -1.
         -5    1    4    4    0  501 -0.55252526051E+02  0.33931443130E+02 -0.27088780811E+02  0.70395020517E+02  0.41800000000E+01 0. -1.
</event>
<event>
11    1  0.7577197E-009  0.1587661E+03  0.7561462E-02  0.1088244E+00
         22   -1    0    0    0    0  0.00000000000E+00  0.00000000000E+00  0.40862862228E+03  0.40862862228E+03  0.00000000000E+00 0. -1.
         22   -1    0    0    0    0 -0.00000000000E+00 -0.00000000000E+00 -0.11329776209E+04  0.11329776209E+04  0.00000000000E+00 0. -1.
        -24    2    1    2    0    0  0.16849883528E+02  0.87311472783E+01 -0.10525076831E+04  0.10558225517E+04  0.81416744272E+02 0.  0.
         25    2    1    2    0    0 -0.95004277980E+02 -0.62374063032E+02  0.41263039741E+02  0.17397304870E+03  0.12509055381E+03 0.  0.
         24    2    1    2    0    0  0.78154394451E+02  0.53642915753E+02  0.28689564467E+03  0.31181064282E+03  0.77013597900E+02 0.  0.
        -13    1    5    5    0    0  0.20669320323E+02 -0.76902681593E+00  0.84669347503E+01  0.22349523237E+02  0.00000000000E+00 0.  1.
         14    1    5    5    0    0  0.57485074128E+02  0.54411942569E+02  0.27842870992E+03  0.28946111958E+03  0.00000000000E+00 0. -1.
         11    1    3    3    0    0 -0.30033687616E+02  0.43154114504E+00 -0.61471562658E+03  0.61544903134E+03  0.00000000000E+00 0. -1.
        -12    1    3    3    0    0  0.46883571144E+02  0.82996061333E+01 -0.43779205649E+03  0.44037352036E+03  0.00000000000E+00 0.  1.
          5    1    4    4  501    0 -0.18156195642E+02  0.35472030045E+02 -0.65900798378E+01  0.40605589615E+02  0.41800000000E+01 0. -1.
         -5    1    4    4    0  501 -0.76848082338E+02 -0.97846093077E+02  0.47853119578E+02  0.13336745908E+03  0.41800000000E+01 0. -1.
</event>
<event>
11    1  0.7577197E-009  0.1265451E+03  0.7561462E-02  0.1123588E+00
         22   -1    0    0    0    0  0.00000000000E+00  0.00000000000E+00  0.42293720130E+03  0.42293720130E+03  0.00000000000E+00 0.  1.
         22   -1    0    0    0    0 -0.00000000000E+00 -0.00000000000E+00 -0.37246089729E+03  0.37246089729E+03  0.00000000000E+00 0.  1.
        -24    2    1    2    0    0  0.20631911803E+02  0.13614402387E+01 -0.33226295129E+03  0.34247212422E+03  0.80380083153E+02 0.  0.
         25    2    1    2    0    0  0.10237542359E+01 -0.83854888261E+01  0.11033811972E+03  0.16701413316E+03  0.12509138866E+03 0.  0.
         24    2    1    2    0    0 -0.21655666039E+02  0.70240485873E+01  0.27240113558E+03  0.28591184120E+03  0.83814659457E+02 0.  0.
        -11    1    5    5    0    0  0.22118102278E+02  0.29424057937E+02  0.13697852885E+03  0.14183829877E+03  0.00000000000E+00 0.  1.
         12    1    5    5    0    0 -0.43773768316E+02 -0.22400009349E+02  0.13542260674E+03  0.14407354242E+03  0.00000000000E+00 0. -1.
         11    1    3    3    0    0 -0.26866420879E+02  0.18367043565E+02 -0.13129261564E+03  0.13526604815E+03  0.00000000000E+00 0. -1.
        -12    1    3    3    0    0  0.47498332681E+02 -0.17005603327E+02 -0.20097033565E+03  0.20720607608E+03  0.00000000000E+00 0.  1.
          5    1    4    4  501    0  0.55940057148E+02  0.17550003910E+02  0.79225474423E+02  0.98648065508E+02  0.41800000000E+01 0.  1.
         -5    1    4    4    0  501 -0.54916302912E+02 -0.25935492736E+02  0.31112645296E+02  0.68366067653E+02  0.41800000000E+01 0.  1.
</event>
<event>
11    1  0.7577197E-009  0.1328475E+03  0.7561462E-02  0.1115819E+00
         22   -1    0    0    0    0  0.00000000000E+00  0.00000000000E+00  0.73247295974E+03  0.73247295974E+03  0.00000000000E+00 0. -1.
         22   -1    0    0    0    0 -0.00000000000E+00 -0.00000000000E+00 -0.70819635521E+03  0.70819635521E+03  0.00000000000E+00 0.  1.
        -24    2    1    2    0    0  0.30634199054E+02  0.20436402099E+02 -0.67066075572E+03  0.67637978303E+03  0.79672209385E+02 0.  0.
         25    2    1    2    0    0 -0.13705601853E+02 -0.60846925172E+02  0.12648243890E+03  0.18851224065E+03  0.12509542638E+03 0.  0.
         24    2    1    2    0    0 -0.16928597201E+02  0.40410523073E+02  0.56845492135E+03  0.57577729127E+03  0.80367305276E+02 0.  0.
        -13    1    5    5    0    0 -0.16298243128E+02 -0.19052128839E+02  0.83296187236E+02  0.86987764371E+02  0.00000000000E+00 0.  1.
         14    1    5    5    0    0 -0.63035407246E+00  0.59462651912E+02  0.48515873411E+03  0.48878952690E+03  0.00000000000E+00 0. -1.
         13    1    3    3    0    0 -0.64887528747E+00 -0.53809378842E+01 -0.10240676241E+01  0.55158178134E+01  0.00000000000E+00 0. -1.
        -14    1    3    3    0    0  0.31283074341E+02  0.25817339983E+02 -0.66963668809E+03  0.67086396521E+03  0.00000000000E+00 0.  1.
          5    1    4    4  501    0 -0.60190833756E+02 -0.64997662606E+02  0.10357418720E+03  0.13635511456E+03  0.41800000000E+01 0.  1.
         -5    1    4    4    0  501  0.46485231902E+02  0.41507374345E+01  0.22908251706E+02  0.52157126095E+02  0.41800000000E+01 0.  1.
</event>
<event>
11    1  0.7577197E-009  0.1595977E+03  0.7561462E-02  0.1087456E+00
         22   -1    0    0    0    0  0.00000000000E+00  0.00000000000E+00  0.17780140552E+04  0.17780140552E+04  0.00000000000E+00 0.  1.
         22   -1    0    0    0    0 -0.00000000000E+00 -0.00000000000E+00 -0.75165967092E+03  0.75165967092E+03  0.00000000000E+00 0.  1.
        -24    2    1    2    0    0  0.10265595353E+03  0.94228369062E+01 -0.46818105466E+03  0.48578590073E+03  0.78532838702E+02 0.  0.
         25    2    1    2    0    0 -0.86965707228E+02  0.65960660779E+02 -0.24763110316E+03  0.29813280503E+03  0.12509261840E+03 0.  0.
         24    2    1    2    0    0 -0.15690246303E+02 -0.75383497685E+02  0.17421665421E+04  0.17457550204E+04  0.81163262173E+02 0.  0.
        -13    1    5    5    0    0 -0.16117715257E+02 -0.88881125827E+02  0.16624834777E+04  0.16649357191E+04  0.00000000000E+00 0.  1.
         14    1    5    5    0    0  0.42746895388E+00  0.13497628142E+02  0.79683064443E+02  0.80819301248E+02  0.00000000000E+00 0. -1.
         13    1    3    3    0    0  0.62182078780E+02 -0.30540832025E+02 -0.31120531919E+03  0.31882299797E+03  0.00000000000E+00 0. -1.
        -14    1    3    3    0    0  0.40473874751E+02  0.39963668931E+02 -0.15697573547E+03  0.16696290276E+03  0.00000000000E+00 0.  1.
          5    1    4    4  501    0  0.40040259269E+01  0.34652156632E+02 -0.30349343761E+01  0.35263116844E+02  0.41800000000E+01 0. -1.
         -5    1    4    4    0  501 -0.90969733155E+02  0.31308504147E+02 -0.24459616879E+03  0.26286968819E+03  0.41800000000E+01 0. -1.
</event>
<event>
11    1  0.7577197E-009  0.1528310E+03  0.7561462E-02  0.1094021E+00
         22   -1    0    0    0    0  0.00000000000E+00  0.00000000000E+00  0.74407602400E+03  0.74407602400E+03  0.00000000000E+00 0. -1.
         22   -1    0    0    0    0 -0.00000000000E+00 -0.00000000000E+00 -0.38015278463E+03  0.38015278463E+03  0.00000000000E+00 0.  1.
         24    2    1    2    0    0 -0.21380702135E+01 -0.77345887132E+02 -0.22242398449E+03  0.24878213611E+03  0.80207011978E+02 0.  0.
         25    2    1    2    0    0  0.85296689100E+02  0.46599781583E+02 -0.94305842445E+02  0.18435921054E+03  0.12509061427E+03 0.  0.
        -24    2    1    2    0    0 -0.83158618886E+02  0.30746105549E+02  0.68065306629E+03  0.69108746198E+03  0.80328105642E+02 0.  0.
        -13    1    3    3    0    0  0.98235807456E+01 -0.87399744677E+02 -0.21322084528E+03  0.23064766847E+03  0.00000000000E+00 0.  1.
         14    1    3    3    0    0 -0.11961650959E+02  0.10053857545E+02 -0.92031392045E+01  0.18134467636E+02  0.00000000000E+00 0. -1.
         13    1    5    5    0    0 -0.94423387670E+01 -0.66662737136E+01  0.35225179396E+03  0.35244137571E+03  0.00000000000E+00 0. -1.
        -14    1    5    5    0    0 -0.73716280119E+02  0.37412379263E+02  0.32840127234E+03  0.33864608627E+03  0.00000000000E+00 0.  1.
          5    1    4    4  501    0  0.11798067218E+03  0.35663209239E+02 -0.78695469601E+02  0.14629337934E+03  0.41800000000E+01 0.  1.
         -5    1    4    4    0  501 -0.32683983085E+02  0.10936572344E+02 -0.15610372844E+02  0.38065831204E+02  0.41800000000E+01 0.  1.
</event>
<event>
11    1  0.7577197E-009  0.2111604E+03  0.7561462E-02  0.1046901E+00
         22   -1    0    0    0    0  0.00000000000E+00  0.00000000000E+00  0.34117138633E+03  0.34117138633E+03  0.00000000000E+00 0.  1.
         22   -1    0    0    0    0 -0.00000000000E+00 -0.00000000000E+00 -0.11074223347E+04  0.11074223347E+04  0.00000000000E+00 0.  1.
         24    2    1    2    0    0 -0.94534791461E+02  0.95191966014E+02 -0.55745209129E+03  0.57896961532E+03  0.80340800260E+02 0.  0.
         25    2    1    2    0    0  0.20735004871E+03 -0.21257389650E+03 -0.45878978110E+03  0.56063287246E+03  0.12505778771E+03 0.  0.
        -24    2    1    2    0    0 -0.11281525725E+03  0.11738193048E+03  0.24999092408E+03  0.30899123320E+03  0.80463160504E+02 0.  0.
        -11    1    3    3    0    0 -0.81106040489E+02  0.10934368809E+03 -0.46710268951E+03  0.48653792707E+03  0.00000000000E+00 0.  1.
         12    1    3    3    0    0 -0.13428750973E+02 -0.14151722076E+02 -0.90349401786E+02  0.92431688254E+02  0.00000000000E+00 0. -1.
         11    1    5    5    0    0 -0.10986961445E+02 -0.78246216324E+01  0.27919858845E+01  0.13774367887E+02  0.00000000000E+00 0. -1.
        -12    1    5    5    0    0 -0.10182829581E+03  0.12520655212E+03  0.24719893819E+03  0.29521686531E+03  0.00000000000E+00 0.  1.
          5    1    4    4  501    0  0.16318396365E+03 -0.86760340592E+02 -0.22240922274E+03  0.28920528600E+03  0.41800000000E+01 0.  1.
         -5    1    4    4    0  501  0.44166085064E+02 -0.12581355591E+03 -0.23638055836E+03  0.27142758646E+03  0.41800000000E+01 0.  1.
</event>
<event>
11    1  0.7577197E-009  0.1316040E+03  0.7561462E-02  0.1117314E+00
         22   -1    0    0    0    0  0.00000000000E+00  0.00000000000E+00  0.98113734682E+03  0.98113734682E+03  0.00000000000E+00 0.  1.
         22   -1    0    0    0    0 -0.00000000000E+00 -0.00000000000E+00 -0.15974207321E+03  0.15974207321E+03  0.00000000000E+00 0. -1.
        -24    2    1    2    0    0 -0.21471227133E+02  0.30940637195E+02 -0.86051520693E+02  0.14236485659E+03  0.10697921085E+03 0.  0.
         25    2    1    2    0    0  0.55732101886E+02 -0.23584681119E+02  0.68794005819E+02  0.15505596023E+03  0.12508969263E+03 0.  0.
         24    2    1    2    0    0 -0.34260874753E+02 -0.73559560762E+01  0.83865278848E+03  0.84345860321E+03  0.82800954526E+02 0.  0.
        -11    1    5    5    0    0 -0.52978292518E+02  0.90604034523E+01  0.73061542715E+03  0.73258971654E+03  0.00000000000E+00 0.  1.
         12    1    5    5    0    0  0.18717417765E+02 -0.16416359528E+02  0.10803736133E+03  0.11086888667E+03  0.00000000000E+00 0. -1.
         11    1    3    3    0    0  0.37928867865E+02  0.10318940312E+02 -0.65176948644E+02  0.76112510018E+02  0.00000000000E+00 0. -1.
        -12    1    3    3    0    0 -0.59400094998E+02  0.20621696883E+02 -0.20874572049E+02  0.66252346572E+02  0.00000000000E+00 0.  1.
          5    1    4    4  501    0  0.91882459549E+02 -0.34471725234E+02  0.35184042625E+02  0.10433635737E+03  0.41800000000E+01 0.  1.
         -5    1    4    4    0  501 -0.36150357663E+02  0.10887044115E+02  0.33609963195E+02  0.50719602864E+02  0.41800000000E+01 0.  1.
</event>
<event>
11    1  0.7577197E-009  0.1570610E+03  0.7561462E-02  0.1089875E+00
         22   -1    0    0    0    0  0.00000000000E+00  0.00000000000E+00  0.93361422337E+03  0.93361422337E+03  0.00000000000E+00 0.  1.
         22   -1    0    0    0    0 -0.00000000000E+00 -0.00000000000E+00 -0.10709503107E+04  0.10709503107E+04  0.00000000000E+00 0.  1.
         24    2    1    2    0    0  0.89498695542E+01  0.17683050853E+02 -0.10312184106E+04  0.10345229792E+04  0.80209685340E+02 0.  0.
         25    2    1    2    0    0 -0.25436387097E+02  0.78044478136E+02  0.13726860965E+03  0.20304490594E+03  0.12508641923E+03 0.  0.
        -24    2    1    2    0    0  0.16486517543E+02 -0.95727528988E+02  0.75661371370E+03  0.76699664887E+03  0.79899828198E+02 0.  0.
        -13    1    3    3    0    0  0.29230367582E+02 -0.11179227246E+02 -0.80161342336E+03  0.80222407719E+03  0.00000000000E+00 0.  1.
         14    1    3    3    0    0 -0.20280498028E+02  0.28862278099E+02 -0.22960498728E+03  0.23229890203E+03  0.00000000000E+00 0. -1.
         11    1    5    5    0    0 -0.19127665213E+02  0.29256118255E+01  0.16806536135E+03  0.16917562610E+03  0.00000000000E+00 0. -1.
        -12    1    5    5    0    0  0.35614182756E+02 -0.98653140814E+02  0.58854835235E+03  0.59782102276E+03  0.00000000000E+00 0.  1.
          5    1    4    4  501    0 -0.71231959197E+02  0.17805700443E+02  0.61324815993E+02  0.95756150904E+02  0.41800000000E+01 0. -1.
         -5    1    4    4    0  501  0.45795572099E+02  0.60238777692E+02  0.75943793661E+02  0.10728875504E+03  0.41800000000E+01 0. -1.
</event>
<event>
11    1  0.7577197E-009  0.1296603E+03  0.7561462E-02  0.1119687E+00
         22   -1    0    0    0    0  0.00000000000E+00  0.00000000000E+00  0.42499529037E+03  0.42499529037E+03  0.00000000000E+00 0.  1.
         22   -1    0    0    0    0 -0.00000000000E+00 -0.00000000000E+00 -0.47230664223E+03  0.47230664223E+03  0.00000000000E+00 0. -1.
        -24    2    1    2    0    0 -0.22852817154E+02 -0.23384007584E+02 -0.37699654287E+03  0.38747877127E+03  0.83332717400E+02 0.  0.
         25    2    1    2    0    0  0.39425932216E+02  0.28948114717E+02 -0.32951639784E+02  0.13829798215E+03  0.12509246111E+03 0.  0.
         24    2    1    2    0    0 -0.16573115062E+02 -0.55641071333E+01  0.36263683079E+03  0.37152517918E+03  0.78866090897E+02 0.  0.
        -13    1    5    5    0    0 -0.38095760788E+02  0.13350304328E+02  0.29928507870E+03  0.30199515881E+03  0.00000000000E+00 0.  1.
         14    1    5    5    0    0  0.21522645726E+02 -0.18914411461E+02  0.63351752091E+02  0.69530020372E+02  0.00000000000E+00 0. -1.
         13    1    3    3    0    0 -0.39137918069E+02 -0.45544315968E+02 -0.21791177808E+03  0.22603452031E+03  0.00000000000E+00 0. -1.
        -14    1    3    3    0    0  0.16285100915E+02  0.22160308384E+02 -0.15908476479E+03  0.16144425096E+03  0.00000000000E+00 0.  1.
          5    1    4    4  501    0  0.26555537157E+02  0.73604156832E+02 -0.44656244047E+02  0.90191024991E+02  0.41800000000E+01 0.  1.
         -5    1    4    4    0  501  0.12870395059E+02 -0.44656042114E+02  0.11704604263E+02  0.48106957161E+02  0.41800000000E+01 0.  1.
</event>
<event>
11    1  0.7577197E-009  0.1691900E+03  0.7561462E-02  0.1078739E+00
         22   -1    0    0    0    0  0.00000000000E+00  0.00000000000E+00  0.21525736445E+04  0.21525736445E+04  0.00000000000E+00 0. -1.
         22   -1    0    0    0    0 -0.00000000000E+00 -0.00000000000E+00 -0.18624762806E+03  0.18624762806E+03  0.00000000000E+00 0.  1.
         24    2    1    2    0    0 -0.86354798627E+02 -0.73850253962E+02 -0.13820068740E+03  0.19627125087E+03  0.80696732664E+02 0.  0.
         25    2    1    2    0    0  0.10010051683E+03  0.64622417589E+02  0.39626582513E+03  0.43228420734E+03  0.12508741515E+03 0.  0.
        -24    2    1    2    0    0 -0.13745718204E+02  0.92278363730E+01  0.17082608787E+04  0.17102658143E+04  0.81116140390E+02 0.  0.
        -11    1    3    3    0    0 -0.57567140442E+02 -0.19485657303E+02 -0.11584390223E+03  0.13081848563E+03  0.00000000000E+00 0.  1.
         12    1    3    3    0    0 -0.28787658185E+02 -0.54364596659E+02 -0.22356785171E+02  0.65452765235E+02  0.00000000000E+00 0. -1.
         11    1    5    5    0    0 -0.94819546847E+01 -0.29396607481E+02  0.12433994112E+04  0.12437830051E+04  0.00000000000E+00 0. -1.
        -12    1    5    5    0    0 -0.42637635197E+01  0.38624443854E+02  0.46486146749E+03  0.46648280922E+03  0.00000000000E+00 0.  1.
          5    1    4    4  501    0  0.87290797057E+02 -0.34396618791E-01  0.31842623369E+03  0.33020058016E+03  0.41800000000E+01 0.  1.
         -5    1    4    4    0  501  0.12809719775E+02  0.64656814208E+02  0.77839591439E+02  0.10208362719E+03  0.41800000000E+01 0.  1.
</event>
<event>
11    1  0.7577197E-009  0.1324141E+03  0.7561462E-02  0.1116338E+00
         22   -1    0    0    0    0  0.00000000000E+00  0.00000000000E+00  0.28302371490E+03  0.28302371490E+03  0.00000000000E+00 0. -1.
         22   -1    0    0    0    0 -0.00000000000E+00 -0.00000000000E+00 -0.12756236774E+04  0.12756236774E+04  0.00000000000E+00 0. -1.
         24    2    1    2    0    0 -0.26946312366E+02 -0.28815409565E+02 -0.12011424131E+04  0.12045688882E+04  0.81772111638E+02 0.  0.
         25    2    1    2    0    0  0.30584197690E+02 -0.18015956782E+02  0.49912512793E+01  0.13012403496E+03  0.12508950410E+03 0.  0.
        -24    2    1    2    0    0 -0.36378853243E+01  0.46831366348E+02  0.20355119934E+03  0.22395446915E+03  0.80722378660E+02 0.  0.
        -11    1    3    3    0    0 -0.16109749250E+01 -0.23463334675E+02 -0.86919289741E+02  0.90044912368E+02  0.00000000000E+00 0.  1.
         12    1    3    3    0    0 -0.25335337441E+02 -0.53520748905E+01 -0.11142231234E+04  0.11145239758E+04  0.00000000000E+00 0. -1.
         13    1    5    5    0    0  0.16836367737E+02  0.61434450236E+02  0.11030768944E+03  0.12737912429E+03  0.00000000000E+00 0. -1.
        -14    1    5    5    0    0 -0.20474253061E+02 -0.14603083888E+02  0.93243509892E+02  0.96575344858E+02  0.00000000000E+00 0.  1.
          5    1    4    4  501    0  0.20876953929E+02 -0.29201309111E+02  0.61623213801E+02  0.71438480795E+02  0.41800000000E+01 0.  1.
         -5    1    4    4    0  501  0.97072437618E+01  0.11185352329E+02 -0.56631962521E+02  0.58685554161E+02  0.41800000000E+01 0.  1.
</event>
<event>
11    1  0.7577197E-009  0.1382841E+03  0.7561462E-02  0.1109490E+00
         22   -1    0    0    0    0  0.00000000000E+00  0.00000000000E+00  0.12134351186E+03  0.12134351186E+03  0.00000000000E+00 0. -1.
         22   -1    0    0    0    0 -0.00000000000E+00 -0.00000000000E+00 -0.32026156311E+04  0.32026156311E+04  0.00000000000E+00 0. -1.
         24    2    1    2    0    0  0.17471126476E+02  0.31360858446E+02 -0.25835230365E+04  0.25850292019E+04  0.80597463936E+02 0.  0.
         25    2    1    2    0    0  0.36188976832E+02 -0.44915225706E+01 -0.58891828980E+03  0.60316036784E+03  0.12509141236E+03 0.  0.
        -24    2    1    2    0    0 -0.53660103308E+02 -0.26869335876E+02  0.91169207025E+02  0.13576957320E+03  0.80747661258E+02 0.  0.
        -11    1    3    3    0    0  0.40559306889E+02 -0.27999315320E+01 -0.80271079520E+03  0.80373970770E+03  0.00000000000E+00 0.  1.
         12    1    3    3    0    0 -0.23088180413E+02  0.34160789978E+02 -0.17808122413E+04  0.17812894942E+04  0.00000000000E+00 0. -1.
         11    1    5    5    0    0 -0.55962597751E+02 -0.31141746264E+02  0.10395177051E+03  0.12209664737E+03  0.00000000000E+00 0. -1.
        -12    1    5    5    0    0  0.23024944430E+01  0.42724103883E+01 -0.12782563487E+02  0.13672925821E+02  0.00000000000E+00 0.  1.
          5    1    4    4  501    0  0.19909723381E+02 -0.24183888415E+02 -0.57053090699E+03  0.57140550030E+03  0.41800000000E+01 0. -1.
         -5    1    4    4    0  501  0.16279253451E+02  0.19692365845E+02 -0.18387382809E+02  0.31754867533E+02  0.41800000000E+01 0. -1.
</event>
<event>
11    1  0.7577197E-009  0.1439352E+03  0.7561462E-02  0.1103242E+00
         22   -1    0    0    0    0  0.00000000000E+00  0.00000000000E+00  0.75449246217E+03  0.75449246217E+03  0.00000000000E+00 0. -1.
         22   -1    0    0    0    0 -0.00000000000E+00 -0.00000000000E+00 -0.36684960154E+03  0.36684960154E+03  0.00000000000E+00 0. -1.
        -24    2    1    2    0    0 -0.75133490222E+02  0.62305209245E+01 -0.26245431468E+03  0.28490389178E+03  0.81265610869E+02 0.  0.
         25    2    1    2    0    0  0.50627296802E+02  0.50660976322E+02 -0.32389876321E+02  0.14773567918E+03  0.12508824530E+03 0.  0.
         24    2    1    2    0    0  0.24506193420E+02 -0.56891497247E+02  0.68248705164E+03  0.68870249275E+03  0.68449630255E+02 0.  0.
        -13    1    5    5    0    0 -0.13810697143E+01 -0.33239380648E+01 -0.27726502167E-01  0.35995397724E+01  0.00000000000E+00 0.  1.
         14    1    5    5    0    0  0.25887263134E+02 -0.53567559182E+02  0.68251477815E+03  0.68510295298E+03  0.00000000000E+00 0. -1.
         13    1    3    3    0    0 -0.48507445171E+02  0.37789444081E+02 -0.20586476780E+03  0.21485184882E+03  0.00000000000E+00 0. -1.
        -14    1    3    3    0    0 -0.26626045051E+02 -0.31558923156E+02 -0.56589546889E+02  0.70052042961E+02  0.00000000000E+00 0.  1.
          5    1    4    4  501    0 -0.38498791572E+02 -0.48682156820E+01 -0.77062295507E+01  0.39783348908E+02  0.41800000000E+01 0. -1.
         -5    1    4    4    0  501  0.89126088374E+02  0.55529192004E+02 -0.24683646770E+02  0.10795233027E+03  0.41800000000E+01 0. -1.
</event>
<event>
11    1  0.7577197E-009  0.1539839E+03  0.7561462E-02  0.1092876E+00
         22   -1    0    0    0    0  0.00000000000E+00  0.00000000000E+00  0.24701470467E+03  0.24701470467E+03  0.00000000000E+00 0. -1.
         22   -1    0    0    0    0 -0.00000000000E+00 -0.00000000000E+00 -0.22346336953E+04  0.22346336953E+04  0.00000000000E+00 0.  1.
        -24    2    1    2    0    0 -0.22689314723E+02  0.20583983017E+02 -0.17176108815E+04  0.17197614471E+04  0.80335480549E+02 0.  0.
         25    2    1    2    0    0  0.10792560067E+03  0.61401714019E+01 -0.48659302645E+03  0.51391145254E+03  0.12508625294E+03 0.  0.
         24    2    1    2    0    0 -0.85236285944E+02 -0.26724154419E+02  0.21658491731E+03  0.24797550030E+03  0.81261414426E+02 0.  0.
        -11    1    5    5    0    0  0.96883433305E+01  0.68322935926E+01  0.35952201305E+01  0.12388294476E+02  0.00000000000E+00 0.  1.
         12    1    5    5    0    0 -0.94924629275E+02 -0.33556448011E+02  0.21298969718E+03  0.23558720583E+03  0.00000000000E+00 0. -1.
         11    1    3    3    0    0 -0.48124760980E+02  0.22276607466E+02 -0.77821791569E+03  0.78002266900E+03  0.00000000000E+00 0. -1.
        -12    1    3    3    0    0  0.25435446257E+02 -0.16926244498E+01 -0.93939296578E+03  0.93973877810E+03  0.00000000000E+00 0.  1.
          5    1    4    4  501    0 -0.43951144831E+01  0.32965203299E+02 -0.23088961841E+03  0.23330990110E+03  0.41800000000E+01 0. -1.
         -5    1    4    4    0  501  0.11232071515E+03 -0.26825031897E+02 -0.25570340804E+03  0.28060155144E+03  0.41800000000E+01 0. -1.
</event>
<event>
11    1  0.7577197E-009  0.1412990E+03  0.7561462E-02  0.1106116E+00
         22   -1    0    0    0    0  0.00000000000E+00  0.00000000000E+00  0.28658594638E+03  0.28658594638E+03  0.00000000000E+00 0.  1.
         22   -1    0    0    0    0 -0.00000000000E+00 -0.00000000000E+00 -0.39022210623E+03  0.39022210623E+03  0.00000000000E+00 0. -1.
        -24    2    1    2    0    0  0.44080562776E+02 -0.60231877110E+02 -0.22077757639E+03  0.24767591947E+03  0.83842995025E+02 0.  0.
         25    2    1    2    0    0 -0.18930004313E+02  0.42491659968E+02 -0.11759186669E+03  0.17787485017E+03  0.12509088289E+03 0.  0.
         24    2    1    2    0    0 -0.25150558463E+02  0.17740217141E+02  0.23473328322E+03  0.25125728296E+03  0.84161999092E+02 0.  0.
        -13    1    5    5    0    0  0.29065457003E+02  0.20728206402E+01  0.11875041640E+03  0.12227329541E+03  0.00000000000E+00 0.  1.
         14    1    5    5    0    0 -0.54216015466E+02  0.15667396501E+02  0.11598286683E+03  0.12898398755E+03  0.00000000000E+00 0. -1.
         11    1    3    3    0    0  0.57551246893E+02 -0.70293006705E+02 -0.20656717783E+03  0.22566180840E+03  0.00000000000E+00 0. -1.
        -12    1    3    3    0    0 -0.13470684117E+02  0.10061129595E+02 -0.14210398558E+02  0.22014111077E+02  0.00000000000E+00 0.  1.
          5    1    4    4  501    0 -0.46591707973E+02  0.69367960233E+02 -0.43637823143E+02  0.94363304136E+02  0.41800000000E+01 0.  1.
         -5    1    4    4    0  501  0.27661703660E+02 -0.26876300265E+02 -0.73954043542E+02  0.83511546037E+02  0.41800000000E+01 0.  1.
</event>
<event>
11    1  0.7577197E-009  0.1514709E+03  0.7561462E-02  0.1095385E+00
         22   -1    0    0    0    0  0.00000000000E+00  0.00000000000E+00  0.21511309153E+04  0.21511309153E+04  0.00000000000E+00 0.  1.
         22   -1    0    0    0    0 -0.00000000000E+00 -0.00000000000E+00 -0.37481177006E+03  0.37481177006E+03  0.00000000000E+00 0. -1.
        -24    2    1    2    0    0  0.52883530792E+02  0.64355020511E+02 -0.29166626062E+03  0.31444961393E+03  0.82892192768E+02 0.  0.
         25    2    1    2    0    0 -0.55135355708E+02 -0.87566431199E+02  0.21915833196E+02  0.16381186229E+03  0.12508491180E+03 0.  0.
         24    2    1    2    0    0  0.22518249168E+01  0.23211410688E+02  0.20460695726E+04  0.20476812091E+04  0.77806154770E+02 0.  0.
        -13    1    5    5    0    0  0.21534606784E+01  0.51639674675E+02  0.14737592984E+04  0.14746653054E+04  0.00000000000E+00 0.  1.
         14    1    5    5    0    0  0.98364238318E-01 -0.28428263987E+02  0.57231027422E+03  0.57301590366E+03  0.00000000000E+00 0. -1.
         11    1    3    3    0    0  0.58618022467E+02  0.64454179153E+02 -0.29514937628E+03  0.30773944837E+03  0.00000000000E+00 0. -1.
        -12    1    3    3    0    0 -0.57344916756E+01 -0.99158642119E-01  0.34831156513E+01  0.67101655609E+01  0.00000000000E+00 0.  1.
          5    1    4    4  501    0  0.30812921247E+02 -0.23278446691E+02 -0.25430094137E+02  0.46427193367E+02  0.41800000000E+01 0. -1.
         -5    1    4    4    0  501 -0.85948276955E+02 -0.64287984508E+02  0.47345927333E+02  0.11738466893E+03  0.41800000000E+01 0. -1.
</event>
<event>
11    1  0.7577197E-009  0.1527317E+03  0.7561462E-02  0.1094120E+00
         22   -1    0    0    0    0  0.00000000000E+00  0.00000000000E+00  0.56069099330E+03  0.56069099330E+03  0.00000000000E+00 0. -1.
         22   -1    0    0    0    0 -0.00000000000E+00 -0.00000000000E+00 -0.14896615447E+03  0.14896615447E+03  0.00000000000E+00 0.  1.
         24    2    1    2    0    0  0.56364293358E+02  0.69216069397E+02 -0.71136702114E+02  0.13922850460E+03  0.79726709940E+02 0.  0.
         25    2    1    2    0    0 -0.91694606978E+02 -0.24402045269E+02  0.12967711996E+03  0.20362154446E+03  0.12506884969E+03 0.  0.
        -24    2    1    2    0    0  0.35330313620E+02 -0.44814024128E+02  0.35318442098E+03  0.36680709872E+03  0.80942477252E+02 0.  0.
        -11    1    3    3    0    0  0.62624172869E+02  0.16584127407E+02 -0.26725905465E+02  0.70079200426E+02  0.00000000000E+00 0.  1.
         12    1    3    3    0    0 -0.62598795111E+01  0.52631941991E+02 -0.44410796649E+02  0.69149304178E+02  0.00000000000E+00 0. -1.
         13    1    5    5    0    0  0.40011216439E+02  0.83697140251E+01  0.21113786019E+03  0.21505847010E+03  0.00000000000E+00 0. -1.
        -14    1    5    5    0    0 -0.46809028188E+01 -0.53183738153E+02  0.14204656079E+03  0.15174862862E+03  0.00000000000E+00 0.  1.
          5    1    4    4  501    0 -0.22508534513E+02 -0.57209439957E+02  0.11407716896E+02  0.62667077089E+02  0.41800000000E+01 0.  1.
         -5    1    4    4    0  501 -0.69186072466E+02  0.32807394687E+02  0.11826940307E+03  0.14095446737E+03  0.41800000000E+01 0.  1.
</event>
<event>
11    1  0.7577197E-009  0.1373277E+03  0.7561462E-02  0.1110580E+00
         22   -1    0    0    0    0  0.00000000000E+00  0.00000000000E+00  0.68386512271E+02  0.68386512271E+02  0.00000000000E+00 0.  1.
         22   -1    0    0    0    0 -0.00000000000E+00 -0.00000000000E+00 -0.64540965252E+03  0.64540965252E+03  0.00000000000E+00 0.  1.
        -24    2    1    2    0    0  0.62335164105E+02 -0.92891733499E+01 -0.41961250399E+03  0.43183132902E+03  0.80197766740E+02 0.  0.
         25    2    1    2    0    0 -0.25440741284E+02 -0.42915503837E+02 -0.10128528032E+03  0.16850692893E+03  0.12508759052E+03 0.  0.
         24    2    1    2    0    0 -0.36894422820E+02  0.52204677186E+02 -0.56125355944E+02  0.11345790685E+03  0.75074058706E+02 0.  0.
        -11    1    5    5    0    0  0.52964925224E+01  0.53618649243E+02 -0.18670969827E+02  0.57022955851E+02  0.00000000000E+00 0.  1.
         12    1    5    5    0    0 -0.42190915343E+02 -0.14139720565E+01 -0.37454386117E+02  0.56434950995E+02  0.00000000000E+00 0. -1.
         13    1    3    3    0    0 -0.74340009108E+01 -0.44453558064E+01 -0.26699310794E+01  0.90638893283E+01  0.00000000000E+00 0. -1.
        -14    1    3    3    0    0  0.69769165015E+02 -0.48438175435E+01 -0.41694257291E+03  0.42276743969E+03  0.00000000000E+00 0.  1.
          5    1    4    4  501    0 -0.11729542716E+02  0.73798951710E+01 -0.11381257710E+03  0.11472933422E+03  0.41800000000E+01 0.  1.
         -5    1    4    4    0  501 -0.13711198569E+02 -0.50295399008E+02  0.12527296785E+02  0.53777594705E+02  0.41800000000E+01 0.  1.
</event>
<event>
11    1  0.7577197E-009  0.1705941E+03  0.7561462E-02  0.1077516E+00
         22   -1    0    0    0    0  0.00000000000E+00  0.00000000000E+00  0.28384530138E+04  0.28384530138E+04  0.00000000000E+00 0.  1.
         22   -1    0    0    0    0 -0.00000000000E+00 -0.00000000000E+00 -0.17912345401E+03  0.17912345401E+03  0.00000000000E+00 0. -1.
         24    2    1    2    0    0  0.97825986246E+02 -0.74240803139E+02 -0.86653267819E+02  0.17071431945E+03  0.80950414479E+02 0.  0.
         25    2    1    2    0    0 -0.10748107600E+03  0.72922651662E+01  0.89230505578E+02  0.18765698831E+03  0.12509078026E+03 0.  0.
        -24    2    1    2    0    0  0.96550897502E+01  0.66948537972E+02  0.26567523221E+04  0.26592051601E+04  0.91999212958E+02 0.  0.
        -13    1    3    3    0    0  0.39032097601E+01 -0.53038000980E+01  0.14817395343E+02  0.16214824904E+02  0.00000000000E+00 0.  1.
         14    1    3    3    0    0  0.93922776486E+02 -0.68937003041E+02 -0.10147066316E+03  0.15449949454E+03  0.00000000000E+00 0. -1.
         13    1    5    5    0    0 -0.37943968119E+02  0.97751947503E+01  0.10517736940E+04  0.10525033029E+04  0.00000000000E+00 0. -1.
        -14    1    5    5    0    0  0.47599057870E+02  0.57173343222E+02  0.16049786280E+04  0.16067018572E+04  0.00000000000E+00 0.  1.
          5    1    4    4  501    0 -0.60555826555E+02 -0.18454271243E+02  0.11249024843E+03  0.12914757702E+03  0.41800000000E+01 0.  1.
         -5    1    4    4    0  501 -0.46925249441E+02  0.25746536409E+02 -0.23259742854E+02  0.58509411293E+02  0.41800000000E+01 0.  1.
</event>
<event>
11    1  0.7577197E-009  0.1461255E+03  0.7561462E-02  0.1100905E+00
         22   -1    0    0    0    0  0.00000000000E+00  0.00000000000E+00  0.90242438699E+02  0.90242438699E+02  0.00000000000E+00 0.  1.
         22   -1    0    0    0    0 -0.00000000000E+00 -0.00000000000E+00 -0.28071836786E+04  0.28071836786E+04  0.00000000000E+00 0. -1.
         24    2    1    2    0    0 -0.17390878209E+02 -0.73353742809E+02 -0.25591207926E+04  0.25614468285E+04  0.78913941316E+02 0.  0.
         25    2    1    2    0    0  0.26849339387E+02 -0.17414883385E+02 -0.16987144412E+03  0.21337195094E+03  0.12508843564E+03 0.  0.
        -24    2    1    2    0    0 -0.94584611777E+01  0.90768626194E+02  0.12050996830E+02  0.12260733780E+03  0.80987201265E+02 0.  0.
        -11    1    3    3    0    0  0.68698091413E+01  0.19131244474E+01 -0.22705037190E+02  0.23798593164E+02  0.00000000000E+00 0.  1.
         12    1    3    3    0    0 -0.24260687350E+02 -0.75266867256E+02 -0.25364157554E+04  0.25376482354E+04  0.00000000000E+00 0. -1.
         11    1    5    5    0    0 -0.13602112493E+02  0.95086939421E+02 -0.12928368431E+02  0.96921030861E+02  0.00000000000E+00 0. -1.
        -12    1    5    5    0    0  0.41436513148E+01 -0.43183132276E+01  0.24979365261E+02  0.25686306939E+02  0.00000000000E+00 0.  1.
          5    1    4    4  501    0 -0.19357304877E+02 -0.51047409601E+02 -0.13647008657E+03  0.14704455178E+03  0.41800000000E+01 0. -1.
         -5    1    4    4    0  501  0.46206644264E+02  0.33632526216E+02 -0.33401357557E+02  0.66327399168E+02  0.41800000000E+01 0. -1.
</event>
<event>
11    1  0.7577197E-009  0.1944646E+03  0.7561462E-02  0.1058509E+00
         22   -1    0    0    0    0  0.00000000000E+00  0.00000000000E+00  0.17500450153E+03  0.17500450153E+03  0.00000000000E+00 0. -1.
         22   -1    0    0    0    0 -0.00000000000E+00 -0.00000000000E+00 -0.11872487433E+04  0.11872487433E+04  0.00000000000E+00 0.  1.
         24    2    1    2    0    0 -0.30619212797E+02 -0.14863677313E+02 -0.79732713040E+03  0.80210959551E+03  0.80565409755E+02 0.  0.
         25    2    1    2    0    0  0.29836578298E+02 -0.13593361062E+03 -0.31099590975E+03  0.36295182737E+03  0.12508958875E+03 0.  0.
        -24    2    1    2    0    0  0.78263449852E+00  0.15079728794E+03  0.96078798347E+02  0.19719182198E+03  0.83144720799E+02 0.  0.
        -11    1    3    3    0    0 -0.47379936664E+02  0.16084408482E+02 -0.37592131834E+03  0.37923660711E+03  0.00000000000E+00 0.  1.
         12    1    3    3    0    0  0.16760723867E+02 -0.30948085795E+02 -0.42140581206E+03  0.42287298840E+03  0.00000000000E+00 0. -1.
         11    1    5    5    0    0 -0.26568397087E+02  0.13468724512E+03  0.62044489143E+02  0.15065209044E+03  0.00000000000E+00 0. -1.
        -12    1    5    5    0    0  0.27351031586E+02  0.16110042820E+02  0.34034309204E+02  0.46539731536E+02  0.00000000000E+00 0.  1.
          5    1    4    4  501    0  0.42051999647E+02 -0.25772003493E+02 -0.20000993366E+03  0.20604371575E+03  0.41800000000E+01 0.  1.
         -5    1    4    4    0  501 -0.12215421349E+02 -0.11016160713E+03 -0.11098597609E+03  0.15690811162E+03  0.41800000000E+01 0.  1.
</event>
<event>
11    1  0.7577197E-009  0.2461238E+03  0.7561462E-02  0.1025985E+00
         22   -1    0    0    0    0  0.00000000000E+00  0.00000000000E+00  0.76805175222E+03  0.76805175222E+03  0.00000000000E+00 0.  1.
         22   -1    0    0    0    0 -0.00000000000E+00 -0.00000000000E+00 -0.11565156797E+04  0.11565156797E+04  0.00000000000E+00 0.  1.
        -24    2    1    2    0    0  0.21107229565E+03 -0.90332466768E+01 -0.10702262844E+04  0.10940976761E+04  0.83858879447E+02 0.  0.
         25    2    1    2    0    0 -0.22509932962E+03  0.20463460167E+02  0.16460104750E+03  0.30631582215E+03  0.12508963452E+03 0.  0.
         24    2    1    2    0    0  0.14027033973E+02 -0.11430213490E+02  0.51716130935E+03  0.52415393365E+03  0.83391359308E+02 0.  0.
        -13    1    5    5    0    0  0.28118340588E+02 -0.23307431383E+02  0.48983072291E+03  0.49119040559E+03  0.00000000000E+00 0.  1.
         14    1    5    5    0    0 -0.14091306615E+02  0.11877217892E+02  0.27330586438E+02  0.32963528058E+02  0.00000000000E+00 0. -1.
         11    1    3    3    0    0  0.19790001677E+02  0.21809137175E+02 -0.22673690905E+03  0.22864144103E+03  0.00000000000E+00 0. -1.
        -12    1    3    3    0    0  0.19128229397E+03 -0.30842383851E+02 -0.84348937532E+03  0.86545623512E+03  0.00000000000E+00 0.  1.
          5    1    4    4  501    0 -0.21313820070E+03  0.28975257890E+02  0.95209590189E+02  0.23526537491E+03  0.41800000000E+01 0. -1.
         -5    1    4    4    0  501 -0.11961128922E+02 -0.85117977228E+01  0.69391457311E+02  0.71050447242E+02  0.41800000000E+01 0. -1.
</event>
<event>
11    1  0.7577197E-009  0.1360321E+03  0.7561462E-02  0.1112072E+00
         22   -1    0    0    0    0  0.00000000000E+00  0.00000000000E+00  0.71864335915E+03  0.71864335915E+03  0.00000000000E+00 0.  1.
         22   -1    0    0    0    0 -0.00000000000E+00 -0.00000000000E+00 -0.19858696182E+04  0.19858696182E+04  0.00000000000E+00 0.  1.
         24    2    1    2    0    0 -0.68298075213E+01  0.14823815975E+01 -0.18384250722E+04  0.18401619342E+04  0.79626340367E+02 0.  0.
         25    2    1    2    0    0  0.55926699237E+02  0.19323811615E+02 -0.10977688893E+03  0.17663368044E+03  0.12508911359E+03 0.  0.
        -24    2    1    2    0    0 -0.49096891716E+02 -0.20806193212E+02  0.68097570207E+03  0.68771736277E+03  0.79899072556E+02 0.  0.
        -13    1    3    3    0    0  0.26763864787E+01 -0.32925707770E+01 -0.18066190166E+04  0.18066239994E+04  0.00000000000E+00 0.  1.
         14    1    3    3    0    0 -0.95061940000E+01  0.47749523746E+01 -0.31806055595E+02  0.33537934746E+02  0.00000000000E+00 0. -1.
         13    1    5    5    0    0 -0.35707088432E+02 -0.63890986327E+01  0.99451143815E+02  0.10586003378E+03  0.00000000000E+00 0. -1.
        -14    1    5    5    0    0 -0.13389803284E+02 -0.14417094579E+02  0.58152455826E+03  0.58185732900E+03  0.00000000000E+00 0.  1.
          5    1    4    4  501    0  0.54175575467E+02 -0.41713069430E+02 -0.26871408484E+02  0.73583409356E+02  0.41800000000E+01 0. -1.
         -5    1    4    4    0  501  0.17511237703E+01  0.61036881045E+02 -0.82905480448E+02  0.10305027108E+03  0.41800000000E+01 0. -1.
</event>
<event>
11    1  0.7577197E-009  0.1542216E+03  0.7561462E-02  0.1092642E+00
         22   -1    0    0    0    0  0.00000000000E+00  0.00000000000E+00  0.13178897214E+04  0.13178897214E+04  0.00000000000E+00 0. -1.
         22   -1    0    0    0    0 -0.00000000000E+00 -0.00000000000E+00 -0.22704610050E+03  0.22704610050E+03  0.00000000000E+00 0. -1.
        -24    2    1    2    0    0 -0.19359873531E+02 -0.69394775415E+02 -0.18866084598E+03  0.21935482896E+03  0.85634027259E+02 0.  0.
         25    2    1    2    0    0  0.91960601898E+02  0.10661202513E+03  0.44321451211E+03  0.48156769413E+03  0.12508182952E+03 0.  0.
         24    2    1    2    0    0 -0.72600728368E+02 -0.37217249715E+02  0.83628995482E+03  0.84401329886E+03  0.79508305749E+02 0.  0.
        -11    1    5    5    0    0 -0.14301674772E+01 -0.19150412563E+02  0.40276993686E+02  0.44620846033E+02  0.00000000000E+00 0.  1.
         12    1    5    5    0    0 -0.71170560890E+02 -0.18066837152E+02  0.79601296113E+03  0.79939245282E+03  0.00000000000E+00 0. -1.
         13    1    3    3    0    0 -0.80800732849E+01 -0.81699895543E+02 -0.10119142473E+03  0.13030681085E+03  0.00000000000E+00 0. -1.
        -14    1    3    3    0    0 -0.11279800246E+02  0.12305120128E+02 -0.87469421250E+02  0.89048018106E+02  0.00000000000E+00 0.  1.
          5    1    4    4  501    0  0.42608400916E+02  0.36245692679E+02  0.39061568555E+02  0.68355721080E+02  0.41800000000E+01 0. -1.
         -5    1    4    4    0  501  0.49352200983E+02  0.70366332451E+02  0.40415294356E+03  0.41321197305E+03  0.41800000000E+01 0. -1.
</event>
<event>
11    1  0.7577197E-009  0.1309569E+03  0.7561462E-02  0.1118099E+00
         22   -1    0    0    0    0  0.00000000000E+00  0.00000000000E+00  0.17303950525E+03  0.17303950525E+03  0.00000000000E+00 0. -1.
         22   -1    0    0    0    0 -0.00000000000E+00 -0.00000000000E+00 -0.90583310308E+03  0.90583310308E+03  0.00000000000E+00 0. -1.
        -24    2    1    2    0    0  0.27222608415E+01 -0.35312409824E+02 -0.60899567591E+03  0.61528280990E+03  0.80267215502E+02 0.  0.
         25    2    1    2    0    0  0.20117090859E+01  0.72263165572E+02 -0.26239894356E+03  0.29954445753E+03  0.12509062468E+03 0.  0.
         24    2    1    2    0    0 -0.47339699275E+01 -0.36950755748E+02  0.13860102163E+03  0.16404534091E+03  0.79453520093E+02 0.  0.
        -13    1    5    5    0    0  0.13046380036E+02 -0.71404946229E+01 -0.54741151771E+01  0.15848048223E+02  0.00000000000E+00 0.  1.
         14    1    5    5    0    0 -0.17780349963E+02 -0.29810261125E+02  0.14407513681E+03  0.14819729269E+03  0.00000000000E+00 0. -1.
         11    1    3    3    0    0 -0.13400828388E+02 -0.17059860941E+02 -0.56139329040E+03  0.56181228855E+03  0.00000000000E+00 0. -1.
        -12    1    3    3    0    0  0.16123089229E+02 -0.18252548883E+02 -0.47602385511E+02  0.53470521349E+02  0.00000000000E+00 0.  1.
          5    1    4    4  501    0  0.42279304475E+02  0.68887165607E+01 -0.18686245759E+03  0.19175516801E+03  0.41800000000E+01 0. -1.
         -5    1    4    4    0  501 -0.40267595389E+02  0.65374449011E+02 -0.75536485967E+02  0.10778928952E+03  0.41800000000E+01 0. -1.
</event>
<event>
11    1  0.7577197E-009  0.2732734E+03  0.7561462E-02  0.1012183E+00
         22   -1    0    0    0    0  0.00000000000E+00  0.00000000000E+00  0.21453410670E+03  0.21453410670E+03  0.00000000000E+00 0. -1.
         22   -1    0    0    0    0 -0.00000000000E+00 -0.00000000000E+00 -0.82999735034E+03  0.82999735034E+03  0.00000000000E+00 0. -1.
         24    2    1    2    0    0 -0.62029569072E+02  0.85673797012E+02 -0.27869331021E+03  0.30898100259E+03  0.81311941759E+02 0.  0.
         25    2    1    2    0    0  0.21135858920E+03  0.11284035470E+03 -0.38506545170E+03  0.47045341106E+03  0.12508241688E+03 0.  0.
        -24    2    1    2    0    0 -0.14932902013E+03 -0.19851415171E+03  0.48295518263E+02  0.26509704339E+03  0.78974430356E+02 0.  0.
        -11    1    3    3    0    0 -0.74332724597E+02  0.57128961023E+02 -0.24871283100E+03  0.26579530552E+03  0.00000000000E+00 0.  1.
         12    1    3    3    0    0  0.12303155525E+02  0.28544835989E+02 -0.29980479203E+02  0.43185697062E+02  0.00000000000E+00 0. -1.
         13    1    5    5    0    0 -0.13905074082E+03 -0.14009596835E+03  0.17228928662E+02  0.19813839823E+03  0.00000000000E+00 0. -1.
        -14    1    5    5    0    0 -0.10278279310E+02 -0.58418183361E+02  0.31066589600E+02  0.66958645164E+02  0.00000000000E+00 0.  1.
          5    1    4    4  501    0  0.16448785921E+03  0.11557763051E+03 -0.36975539546E+03  0.42089306168E+03  0.41800000000E+01 0.  1.
         -5    1    4    4    0  501  0.46870729991E+02 -0.27372758113E+01 -0.15310056238E+02  0.49560349381E+02  0.41800000000E+01 0.  1.
</event>
<event>
11    1  0.7577197E-009  0.1351738E+03  0.7561462E-02  0.1113071E+00
         22   -1    0    0    0    0  0.00000000000E+00  0.00000000000E+00  0.14337938256E+03  0.14337938256E+03  0.00000000000E+00 0. -1.
         22   -1    0    0    0    0 -0.00000000000E+00 -0.00000000000E+00 -0.35938318011E+03  0.35938318011E+03  0.00000000000E+00 0. -1.
         24    2    1    2    0    0  0.59469925840E+02  0.50147958361E+01 -0.17751823685E+03  0.20345390514E+03  0.79491803652E+02 0.  0.
         25    2    1    2    0    0 -0.33552042911E+02  0.95144715246E+01 -0.12417791150E+03  0.17968073137E+03  0.12509495102E+03 0.  0.
        -24    2    1    2    0    0 -0.25917882929E+02 -0.14529267361E+02  0.85692350810E+02  0.11962792615E+03  0.78005291244E+02 0.  0.
        -13    1    3    3    0    0  0.44899833015E+02 -0.17277075361E+02 -0.37697230976E+02  0.61119338684E+02  0.00000000000E+00 0.  1.
         14    1    3    3    0    0  0.14570092825E+02  0.22291871198E+02 -0.13982100587E+03  0.14233456646E+03  0.00000000000E+00 0. -1.
         13    1    5    5    0    0 -0.10794829815E+02 -0.46304630118E+02  0.56968589091E+02  0.74202879082E+02  0.00000000000E+00 0. -1.
        -14    1    5    5    0    0 -0.15123053114E+02  0.31775362757E+02  0.28723761719E+02  0.45425047068E+02  0.00000000000E+00 0.  1.
          5    1    4    4  501    0  0.17153445418E+02 -0.43940983477E+02 -0.18619964718E+02  0.50884439712E+02  0.41800000000E+01 0.  1.
         -5    1    4    4    0  501 -0.50705488329E+02  0.53455455002E+02 -0.10555794679E+03  0.12879629166E+03  0.41800000000E+01 0.  1.
</event>
<event>
11    1  0.7577197E-009  0.1501656E+03  0.7561462E-02  0.1096710E+00
         22   -1    0    0    0    0  0.00000000000E+00  0.00000000000E+00  0.66394984800E+03  0.66394984800E+03  0.00000000000E+00 0.  1.
         22   -1    0    0    0    0 -0.00000000000E+00 -0.00000000000E+00 -0.35367569077E+03  0.35367569077E+03  0.00000000000E+00 0.  1.
        -24    2    1    2    0    0 -0.40555406257E+02 -0.84626893928E+02 -0.24576883100E+03  0.27506774832E+03  0.80333652489E+02 0.  0.
         25    2    1    2    0    0 -0.45110714273E+01  0.51234175871E+02 -0.37005459322E+02  0.14022117595E+03  0.12508910273E+03 0.  0.
         24    2    1    2    0    0  0.45066477685E+02  0.33392718057E+02  0.59304844755E+03  0.60233661450E+03  0.89201317229E+02 0.  0.
        -11    1    5    5    0    0  0.55598429107E+02  0.36583780182E+01  0.51716465668E+03  0.52015752534E+03  0.00000000000E+00 0.  1.
         12    1    5    5    0    0 -0.10531951422E+02  0.29734340039E+02  0.75883790869E+02  0.82179089158E+02  0.00000000000E+00 0. -1.
         11    1    3    3    0    0 -0.21227750893E+02 -0.67336222599E+01 -0.72681720252E+01  0.23426169155E+02  0.00000000000E+00 0. -1.
        -12    1    3    3    0    0 -0.19327655364E+02 -0.77893271668E+02 -0.23850065898E+03  0.25164157917E+03  0.00000000000E+00 0.  1.
          5    1    4    4  501    0 -0.48124986333E+02  0.60548594539E+01 -0.56266481352E+02  0.74404737459E+02  0.41800000000E+01 0.  1.
         -5    1    4    4    0  501  0.43613914906E+02  0.45179316417E+02  0.19261022030E+02  0.65816438486E+02  0.41800000000E+01 0.  1.
</event>
<event>
11    1  0.7577197E-009  0.1744118E+03  0.7561462E-02  0.1074255E+00
         22   -1    0    0    0    0  0.00000000000E+00  0.00000000000E+00  0.26678643488E+04  0.26678643488E+04  0.00000000000E+00 0.  1.
         22   -1    0    0    0    0 -0.00000000000E+00 -0.00000000000E+00 -0.15320509790E+03  0.15320509790E+03  0.00000000000E+00 0. -1.
        -24    2    1    2    0    0 -0.13758559355E+02  0.48548678564E+02 -0.10559285246E+03  0.14350381652E+03  0.83049519677E+02 0.  0.
         25    2    1    2    0    0 -0.10885043027E+03 -0.43473597002E+02  0.25203247627E+03  0.30481064120E+03  0.12510310982E+03 0.  0.
         24    2    1    2    0    0  0.12260898963E+03 -0.50750815620E+01  0.23682196271E+04  0.23727549890E+04  0.80270260960E+02 0.  0.
        -13    1    5    5    0    0  0.11600998728E+03 -0.30787494566E+02  0.19115958664E+04  0.19153602646E+04  0.00000000000E+00 0.  1.
         14    1    5    5    0    0  0.65990023501E+01  0.25712413004E+02  0.45662376071E+03  0.45739472434E+03  0.00000000000E+00 0. -1.
         11    1    3    3    0    0  0.31954378433E+02  0.25814015815E+02 -0.70355503586E+02  0.81469887679E+02  0.00000000000E+00 0. -1.
        -12    1    3    3    0    0 -0.45712937788E+02  0.22734662749E+02 -0.35237348877E+02  0.62033928841E+02  0.00000000000E+00 0.  1.
          5    1    4    4  501    0 -0.46418625723E+02 -0.81946795185E+02  0.17227506023E+03  0.19638262355E+03  0.41800000000E+01 0.  1.
         -5    1    4    4    0  501 -0.62431804550E+02  0.38473198183E+02  0.79757416044E+02  0.10842801765E+03  0.41800000000E+01 0.  1.
</event>
<event>
11    1  0.7577197E-009  0.1850634E+03  0.7561462E-02  0.1065619E+00
         22   -1    0    0    0    0  0.00000000000E+00  0.00000000000E+00  0.13999912611E+04  0.13999912611E+04  0.00000000000E+00 0.  1.
         22   -1    0    0    0    0 -0.00000000000E+00 -0.00000000000E+00 -0.36431360236E+03  0.36431360236E+03  0.00000000000E+00 0. -1.
        -24    2    1    2    0    0  0.79025727786E+02  0.85570527806E+01 -0.22250451116E+03  0.24930648310E+03  0.79543549243E+02 0.  0.
         25    2    1    2    0    0  0.52446171253E+02  0.37434030430E+02 -0.83567796090E+02  0.16364951414E+03  0.12508269034E+03 0.  0.
         24    2    1    2    0    0 -0.13147189904E+03 -0.45991083211E+02  0.13417499659E+04  0.13513488662E+04  0.80316542687E+02 0.  0.
        -11    1    5    5    0    0 -0.85570019851E+02 -0.17940686557E+02  0.11099764170E+04  0.11134144524E+04  0.00000000000E+00 0.  1.
         12    1    5    5    0    0 -0.45901879187E+02 -0.28050396654E+02  0.23177354896E+03  0.23793441379E+03  0.00000000000E+00 0. -1.
         11    1    3    3    0    0  0.28781058345E+02 -0.28276197003E+02 -0.41498963013E+02  0.57879673181E+02  0.00000000000E+00 0. -1.
        -12    1    3    3    0    0  0.50244669441E+02  0.36833249783E+02 -0.18100554815E+03  0.19142680992E+03  0.00000000000E+00 0.  1.
          5    1    4    4  501    0  0.13742776740E+02  0.80751196101E+02 -0.42407975292E+02  0.92333787708E+02  0.41800000000E+01 0.  1.
         -5    1    4    4    0  501  0.38703394512E+02 -0.43317165670E+02 -0.41159820798E+02  0.71315726432E+02  0.41800000000E+01 0.  1.
</event>
<event>
11    1  0.7577197E-009  0.1385012E+03  0.7561462E-02  0.1109244E+00
         22   -1    0    0    0    0  0.00000000000E+00  0.00000000000E+00  0.35917653568E+03  0.35917653568E+03  0.00000000000E+00 0.  1.
         22   -1    0    0    0    0 -0.00000000000E+00 -0.00000000000E+00 -0.13276610599E+04  0.13276610599E+04  0.00000000000E+00 0.  1.
        -24    2    1    2    0    0 -0.32639869932E+01 -0.14914315424E+02 -0.10241115314E+04  0.10273970847E+04  0.80667531346E+02 0.  0.
         25    2    1    2    0    0  0.62566391980E+02  0.17663731090E+02 -0.27809035390E+03  0.31178211379E+03  0.12508909122E+03 0.  0.
         24    2    1    2    0    0 -0.59302404986E+02 -0.27494156659E+01  0.33371736101E+03  0.34765839711E+03  0.77296503884E+02 0.  0.
        -11    1    5    5    0    0 -0.64606910661E+02  0.24851625343E+02  0.22884966443E+03  0.23908957546E+03  0.00000000000E+00 0.  1.
         12    1    5    5    0    0  0.53045056749E+01 -0.27601041009E+02  0.10486769659E+03  0.10856882164E+03  0.00000000000E+00 0. -1.
         11    1    3    3    0    0  0.62145450560E+01 -0.33234277599E+02 -0.18703021919E+03  0.19006167595E+03  0.00000000000E+00 0. -1.
        -12    1    3    3    0    0 -0.94785320492E+01  0.18319962175E+02 -0.83708131219E+03  0.83733540878E+03  0.00000000000E+00 0.  1.
          5    1    4    4  501    0  0.34090668616E+02  0.18707316566E+02 -0.76983540149E+01  0.39860687830E+02  0.41800000000E+01 0.  1.
         -5    1    4    4    0  501  0.28475723364E+02 -0.10435854751E+01 -0.27039199989E+03  0.27192142596E+03  0.41800000000E+01 0.  1.
</event>
<event>
11    1  0.7577197E-009  0.1841139E+03  0.7561462E-02  0.1066363E+00
         22   -1    0    0    0    0  0.00000000000E+00  0.00000000000E+00  0.30675984436E+03  0.30675984436E+03  0.00000000000E+00 0.  1.
         22   -1    0    0    0    0 -0.00000000000E+00 -0.00000000000E+00 -0.62498086707E+03  0.62498086707E+03  0.00000000000E+00 0. -1.
        -24    2    1    2    0    0 -0.13617695203E+03 -0.26570645187E+01 -0.46815474690E+03  0.49405761686E+03  0.79830066240E+02 0.  0.
         25    2    1    2    0    0  0.12950000026E+03  0.17520491780E+02 -0.76721976525E+02  0.19649706764E+03  0.12509044013E+03 0.  0.
         24    2    1    2    0    0  0.66769517736E+01 -0.14863427261E+02  0.22665570071E+03  0.24118602693E+03  0.80823200666E+02 0.  0.
        -11    1    5    5    0    0 -0.11830570196E+02 -0.65761657950E+01  0.21914338311E+03  0.21956099542E+03  0.00000000000E+00 0.  1.
         12    1    5    5    0    0  0.18507521969E+02 -0.82872614661E+01  0.75123175979E+01  0.21625031508E+02  0.00000000000E+00 0. -1.
         13    1    3    3    0    0 -0.11394163412E+03  0.23581530023E+02 -0.41282752956E+03  0.42891182509E+03  0.00000000000E+00 0. -1.
        -14    1    3    3    0    0 -0.22235317906E+02 -0.26238594542E+02 -0.55327217346E+02  0.65145791768E+02  0.00000000000E+00 0.  1.
          5    1    4    4  501    0  0.12183323800E+03  0.60367042045E+02 -0.67281496198E+02  0.15176228049E+03  0.41800000000E+01 0.  1.
         -5    1    4    4    0  501  0.76667622541E+01 -0.42846550265E+02 -0.94404803267E+01  0.44734787156E+02  0.41800000000E+01 0.  1.
</event>
<event>
11    1  0.7577197E-009  0.1472484E+03  0.7561462E-02  0.1099724E+00
         22   -1    0    0    0    0  0.00000000000E+00  0.00000000000E+00  0.32062058362E+03  0.32062058362E+03  0.00000000000E+00 0.  1.
         22   -1    0    0    0    0 -0.00000000000E+00 -0.00000000000E+00 -0.24703591678E+03  0.24703591678E+03  0.00000000000E+00 0.  1.
        -24    2    1    2    0    0 -0.50420457136E+01 -0.52986876567E+02 -0.15018436974E+03  0.17874688498E+03  0.81006621102E+02 0.  0.
         25    2    1    2    0    0  0.71449541032E+02  0.51966817450E+01  0.70413008507E+01  0.14432790252E+03  0.12509564786E+03 0.  0.
         24    2    1    2    0    0 -0.66407495319E+02  0.47790194822E+02  0.21672773573E+03  0.24458171289E+03  0.78456642117E+02 0.  0.
        -11    1    5    5    0    0 -0.64333688915E+01  0.34656458636E+02  0.14923873320E+03  0.15334489835E+03  0.00000000000E+00 0.  1.
         12    1    5    5    0    0 -0.59974126427E+02  0.13133736186E+02  0.67489002522E+02  0.91236814545E+02  0.00000000000E+00 0. -1.
         11    1    3    3    0    0 -0.16727998492E+02  0.12167839648E+02 -0.85026684189E+01  0.22364651249E+02  0.00000000000E+00 0. -1.
        -12    1    3    3    0    0  0.11685952779E+02 -0.65154716214E+02 -0.14168170132E+03  0.15638223373E+03  0.00000000000E+00 0.  1.
          5    1    4    4  501    0  0.61154319041E+02  0.17437691705E+02 -0.52478159385E+02  0.82555153939E+02  0.41800000000E+01 0. -1.
         -5    1    4    4    0  501  0.10295221991E+02 -0.12241009960E+02  0.59519460236E+02  0.61772748583E+02  0.41800000000E+01 0. -1.
</event>
<event>
11    1  0.7577197E-009  0.1444624E+03  0.7561462E-02  0.1102675E+00
         22   -1    0    0    0    0  0.00000000000E+00  0.00000000000E+00  0.64161117470E+02  0.64161117470E+02  0.00000000000E+00 0.  1.
         22   -1    0    0    0    0 -0.00000000000E+00 -0.00000000000E+00 -0.79025102412E+03  0.79025102412E+03  0.00000000000E+00 0.  1.
         24    2    1    2    0    0 -0.38728373004E+02 -0.61557648067E+02 -0.40327726313E+03  0.41801744688E+03  0.82563939049E+02 0.  0.
         25    2    1    2    0    0  0.69612048668E+01  0.76650866052E+02 -0.31830604469E+03  0.35055660769E+03  0.12508950184E+03 0.  0.
        -24    2    1    2    0    0  0.31767168137E+02 -0.15093217985E+02 -0.45065988411E+01  0.85838087023E+02  0.78172306798E+02 0.  0.
        -11    1    3    3    0    0 -0.48751576370E+02 -0.84410126831E+01 -0.26443985989E+03  0.26902863489E+03  0.00000000000E+00 0.  1.
         12    1    3    3    0    0  0.10023203366E+02 -0.53116635384E+02 -0.13883740323E+03  0.14898881199E+03  0.00000000000E+00 0. -1.
         13    1    5    5    0    0  0.23241286815E+02  0.24239196006E+02 -0.23846247577E+02  0.41186642972E+02  0.00000000000E+00 0. -1.
        -14    1    5    5    0    0  0.85258813221E+01 -0.39332413990E+02  0.19339648736E+02  0.44651444051E+02  0.00000000000E+00 0.  1.
          5    1    4    4  501    0  0.23537976800E+02 -0.13489694346E+02 -0.19467852450E+03  0.19660419249E+03  0.41800000000E+01 0.  1.
         -5    1    4    4    0  501 -0.16576771933E+02  0.90140560398E+02 -0.12362752019E+03  0.15395241520E+03  0.41800000000E+01 0.  1.
</event>
<event>
11    1  0.7577197E-009  0.1422136E+03  0.7561462E-02  0.1105111E+00
         22   -1    0    0    0    0  0.00000000000E+00  0.00000000000E+00  0.90988319897E+03  0.90988319897E+03  0.00000000000E+00 0. -1.
         22   -1    0    0    0    0 -0.00000000000E+00 -0.00000000000E+00 -0.31034150503E+03  0.31034150503E+03  0.00000000000E+00 0. -1.
        -24    2    1    2    0    0 -0.53259173303E+02 -0.40073880704E+02 -0.26926897762E+03  0.28880946087E+03  0.80390714151E+02 0.  0.
         25    2    1    2    0    0  0.80985438634E+02  0.40738599314E+02  0.18221320972E+03  0.23888770011E+03  0.12508958678E+03 0.  0.
         24    2    1    2    0    0 -0.27726265331E+02 -0.66471861009E+00  0.68659746185E+03  0.69252754303E+03  0.86076335880E+02 0.  0.
        -13    1    5    5    0    0  0.43376804733E+01  0.10313436393E+02  0.97750344194E+01  0.14857110756E+02  0.00000000000E+00 0.  1.
         14    1    5    5    0    0 -0.32063945805E+02 -0.10978155003E+02  0.67682242743E+03  0.67767043227E+03  0.00000000000E+00 0. -1.
         11    1    3    3    0    0 -0.59514315547E+02 -0.40861121545E+02 -0.27237628512E+03  0.28178081146E+03  0.00000000000E+00 0. -1.
        -12    1    3    3    0    0  0.62551422443E+01  0.78724084126E+00  0.31073074996E+01  0.70286494105E+01  0.00000000000E+00 0.  1.
          5    1    4    4  501    0  0.92676056158E+02  0.70989784273E+02  0.16432477670E+03  0.20161474523E+03  0.41800000000E+01 0. -1.
         -5    1    4    4    0  501 -0.11690617524E+02 -0.30251184959E+02  0.17888433021E+02  0.37272954880E+02  0.41800000000E+01 0. -1.
</event>
<event>
11    1  0.7577197E-009  0.1492994E+03  0.7561462E-02  0.1097597E+00
         22   -1    0    0    0    0  0.00000000000E+00  0.00000000000E+00  0.98314815866E+03  0.98314815866E+03  0.00000000000E+00 0. -1.
         22   -1    0    0    0    0 -0.00000000000E+00 -0.00000000000E+00 -0.63031094236E+03  0.63031094236E+03  0.00000000000E+00 0.  1.
         24    2    1    2    0    0  0.30321587219E+02 -0.65025610755E+02 -0.54272678595E+03  0.55332398495E+03  0.80419770165E+02 0.  0.
         25    2    1    2    0    0 -0.95760417164E+02  0.10878091578E+03  0.38027474148E+02  0.19518569988E+03  0.12509206016E+03 0.  0.
        -24    2    1    2    0    0  0.65438829945E+02 -0.43755305024E+02  0.85753652811E+03  0.86494941619E+03  0.81066814060E+02 0.  0.
        -11    1    3    3    0    0  0.13850099861E+01 -0.41541148549E+02 -0.46777984138E+03  0.46962279041E+03  0.00000000000E+00 0.  1.
         12    1    3    3    0    0  0.28936577233E+02 -0.23484462205E+02 -0.74946944566E+02  0.83701194536E+02  0.00000000000E+00 0. -1.
         13    1    5    5    0    0  0.58596517091E+02 -0.56071896501E+02  0.83060339958E+03  0.83455354339E+03  0.00000000000E+00 0. -1.
        -14    1    5    5    0    0  0.68423128535E+01  0.12316591477E+02  0.26933128528E+02  0.30395872797E+02  0.00000000000E+00 0.  1.
          5    1    4    4  501    0 -0.11551598208E+03  0.83601488115E+02 -0.33667312177E+01  0.14269533353E+03  0.41800000000E+01 0.  1.
         -5    1    4    4    0  501  0.19755564915E+02  0.25179427663E+02  0.41394205365E+02  0.52490366358E+02  0.41800000000E+01 0.  1.
</event>
<event>
11    1  0.7577197E-009  0.1990719E+03  0.7561462E-02  0.1055182E+00
         22   -1    0    0    0    0  0.00000000000E+00  0.00000000000E+00  0.23521082107E+03  0.23521082107E+03  0.00000000000E+00 0. -1.
         22   -1    0    0    0    0 -0.00000000000E+00 -0.00000000000E+00 -0.18349964530E+04  0.18349964530E+04  0.00000000000E+00 0. -1.
         24    2    1    2    0    0 -0.94077029627E+01 -0.20840914161E+02 -0.13054879829E+04  0.13081177755E+04  0.79689349489E+02 0.  0.
         25    2    1    2    0    0 -0.80198498165E+01  0.17339844782E+03 -0.46975877563E+03  0.51619017318E+03  0.12509055885E+03 0.  0.
        -24    2    1    2    0    0  0.17427552779E+02 -0.15255753366E+03  0.17546112665E+03  0.24589932538E+03  0.78117543381E+02 0.  0.
        -11    1    3    3    0    0 -0.16885805565E+01  0.30146228619E+02 -0.59136585121E+03  0.59213614683E+03  0.00000000000E+00 0.  1.
         12    1    3    3    0    0 -0.77191224062E+01 -0.50987142780E+02 -0.71412213173E+03  0.71598162868E+03  0.00000000000E+00 0. -1.
         11    1    5    5    0    0  0.22115425515E+02 -0.15137946602E+03  0.13168112207E+03  0.20185329497E+03  0.00000000000E+00 0. -1.
        -12    1    5    5    0    0 -0.46878727358E+01 -0.11780676362E+01  0.43780004573E+02  0.44046030407E+02  0.00000000000E+00 0.  1.
          5    1    4    4  501    0  0.33799972323E+02  0.51357679283E+02 -0.27994939322E+03  0.28665167802E+03  0.41800000000E+01 0. -1.
         -5    1    4    4    0  501 -0.41819822140E+02  0.12204076854E+03 -0.18980938241E+03  0.22953849516E+03  0.41800000000E+01 0. -1.
</event>
<event>
11    1  0.7577197E-009  0.1456031E+03  0.7561462E-02  0.1101458E+00
         22   -1    0    0    0    0  0.00000000000E+00  0.00000000000E+00  0.19952880902E+04  0.19952880902E+04  0.00000000000E+00 0.  1.
         22   -1    0    0    0    0 -0.00000000000E+00 -0.00000000000E+00 -0.18390856736E+03  0.18390856736E+03  0.00000000000E+00 0.  1.
        -24    2    1    2    0    0 -0.27104726005E+01 -0.10552013084E+02 -0.12255750545E+03  0.14710098916E+03  0.80620513690E+02 0.  0.
         25    2    1    2    0    0  0.75878881377E+02 -0.34493039091E+01  0.65293200584E+02  0.16024942549E+03  0.12508866452E+03 0.  0.
         24    2    1    2    0    0 -0.73168408776E+02  0.14001316993E+02  0.18686438277E+04  0.18718462429E+04  0.80180729203E+02 0.  0.
        -11    1    5    5    0    0 -0.82148691977E+01  0.38029016986E+02  0.81568965302E+03  0.81661698504E+03  0.00000000000E+00 0.  1.
         12    1    5    5    0    0 -0.64953539579E+02 -0.24027699994E+02  0.10529541747E+04  0.10552292579E+04  0.00000000000E+00 0. -1.
         13    1    3    3    0    0 -0.58822956488E+01  0.26837800106E+01  0.11049689461E+02  0.12802332382E+02  0.00000000000E+00 0. -1.
        -14    1    3    3    0    0  0.31718230483E+01 -0.13235793094E+02 -0.13360719491E+03  0.13429865677E+03  0.00000000000E+00 0.  1.
          5    1    4    4  501    0  0.22888864838E+01  0.50505949675E+02  0.42304808158E+02  0.66054970647E+02  0.41800000000E+01 0.  1.
         -5    1    4    4    0  501  0.73589994893E+02 -0.53955253584E+02  0.22988392426E+02  0.94194454847E+02  0.41800000000E+01 0.  1.
</event>
<event>
11    1  0.7577197E-009  0.3930158E+03  0.7561462E-02  0.9670593E-01
         22   -1    0    0    0    0  0.00000000000E+00  0.00000000000E+00  0.21287213842E+04  0.21287213842E+04  0.00000000000E+00 0.  1.
         22   -1    0    0    0    0 -0.00000000000E+00 -0.00000000000E+00 -0.10575639020E+04  0.10575639020E+04  0.00000000000E+00 0. -1.
        -24    2    1    2    0    0  0.28230229420E+03 -0.20648814323E+03 -0.42118794188E+03  0.55356139212E+03  0.81847381473E+02 0.  0.
         25    2    1    2    0    0 -0.19893541156E+03  0.37547973086E+03 -0.47798225856E+03  0.65168156195E+03  0.12514588460E+03 0.  0.
         24    2    1    2    0    0 -0.83366882641E+02 -0.16899158763E+03  0.19703276826E+04  0.19810423322E+04  0.82639888421E+02 0.  0.
        -11    1    5    5    0    0 -0.98194814740E+02 -0.12300328018E+03  0.14887685029E+04  0.14970650232E+04  0.00000000000E+00 0.  1.
         12    1    5    5    0    0  0.14827932099E+02 -0.45988307453E+02  0.48155917976E+03  0.48397730898E+03  0.00000000000E+00 0. -1.
         13    1    3    3    0    0  0.15061659993E+03 -0.13809101503E+03 -0.29450352777E+03  0.35845057745E+03  0.00000000000E+00 0. -1.
        -14    1    3    3    0    0  0.13168569427E+03 -0.68397128193E+02 -0.12668441411E+03  0.19511081467E+03  0.00000000000E+00 0.  1.
          5    1    4    4  501    0 -0.94850238253E+02  0.29531624412E+03 -0.31212150350E+03  0.44005176637E+03  0.41800000000E+01 0. -1.
         -5    1    4    4    0  501 -0.10408517331E+03  0.80163486734E+02 -0.16586075506E+03  0.21162979558E+03  0.41800000000E+01 0. -1.
</event>
<event>
11    1  0.7577197E-009  0.2936937E+03  0.7561462E-02  0.1002896E+00
         22   -1    0    0    0    0  0.00000000000E+00  0.00000000000E+00  0.17226444231E+04  0.17226444231E+04  0.00000000000E+00 0.  1.
         22   -1    0    0    0    0 -0.00000000000E+00 -0.00000000000E+00 -0.18236845903E+03  0.18236845903E+03  0.00000000000E+00 0. -1.
         24    2    1    2    0    0  0.41496295347E+02 -0.23043364909E+03  0.13172072959E+02  0.24776014402E+03  0.79937327332E+02 0.  0.
         25    2    1    2    0    0  0.22838036014E+03  0.22449860804E+03  0.64120788767E+03  0.72755860779E+03  0.12504702576E+03 0.  0.
        -24    2    1    2    0    0 -0.26987665548E+03  0.59350410456E+01  0.88589600348E+03  0.92969413035E+03  0.81552517733E+02 0.  0.
        -11    1    3    3    0    0  0.44821759963E+02 -0.79221009094E+02 -0.19345588098E+02  0.93054877502E+02  0.00000000000E+00 0.  1.
         12    1    3    3    0    0 -0.33254646157E+01 -0.15121264000E+03  0.32517661057E+02  0.15470526652E+03  0.00000000000E+00 0. -1.
         11    1    5    5    0    0 -0.45352669124E+02  0.32174484433E+02  0.15752461776E+03  0.16705109172E+03  0.00000000000E+00 0. -1.
        -12    1    5    5    0    0 -0.22452398636E+03 -0.26239443387E+02  0.72837138572E+03  0.76264303863E+03  0.00000000000E+00 0.  1.
          5    1    4    4  501    0  0.44419192487E+02  0.11516354152E+03  0.30431700018E+03  0.32842352984E+03  0.41800000000E+01 0.  1.
         -5    1    4    4    0  501  0.18396116765E+03  0.10933506653E+03  0.33689088749E+03  0.39913507795E+03  0.41800000000E+01 0.  1.
</event>
<event>
11    1  0.7577197E-009  0.4660915E+03  0.7561462E-02  0.9472655E-01
         22   -1    0    0    0    0  0.00000000000E+00  0.00000000000E+00  0.55763592996E+03  0.55763592996E+03  0.00000000000E+00 0.  1.
         22   -1    0    0    0    0 -0.00000000000E+00 -0.00000000000E+00 -0.91835018540E+03  0.91835018540E+03  0.00000000000E+00 0. -1.
         24    2    1    2    0    0  0.35446822664E+03  0.27697435525E+03 -0.65848288417E+03  0.80144998811E+03  0.79748714961E+02 0.  0.
         25    2    1    2    0    0 -0.40489543788E+03 -0.20065636380E+03  0.29310574909E+03  0.55295720043E+03  0.12508954153E+03 0.  0.
        -24    2    1    2    0    0  0.50427211246E+02 -0.76317991442E+02  0.46628796347E+01  0.12157892682E+03  0.79952195398E+02 0.  0.
        -11    1    3    3    0    0  0.12051374954E+03  0.50095267146E+02 -0.17243742142E+03  0.21625855804E+03  0.00000000000E+00 0.  1.
         12    1    3    3    0    0  0.23395447710E+03  0.22687908810E+03 -0.48604546275E+03  0.58519143008E+03  0.00000000000E+00 0. -1.
         13    1    5    5    0    0 -0.14666974340E+02  0.53605387043E+01  0.69892078434E+01  0.17108610048E+02  0.00000000000E+00 0. -1.
        -14    1    5    5    0    0  0.65094185587E+02 -0.81678530146E+02 -0.23263282087E+01  0.10447031677E+03  0.00000000000E+00 0.  1.
          5    1    4    4  501    0 -0.30144605989E+03 -0.84969765864E+02  0.20679037616E+03  0.37532561890E+03  0.41800000000E+01 0.  1.
         -5    1    4    4    0  501 -0.10344937800E+03 -0.11568659794E+03  0.86315372924E+02  0.17763158152E+03  0.41800000000E+01 0.  1.
</event>
<event>
11    1  0.7577197E-009  0.2342207E+03  0.7561462E-02  0.1032658E+00
         22   -1    0    0    0    0  0.00000000000E+00  0.00000000000E+00  0.66081515754E+03  0.66081515754E+03  0.00000000000E+00 0. -1.
         22   -1    0    0    0    0 -0.00000000000E+00 -0.00000000000E+00 -0.16189347746E+04  0.16189347746E+04  0.00000000000E+00 0. -1.
         24    2    1    2    0    0 -0.13397397415E+03  0.13611323679E+03 -0.13455035227E+04  0.13605486018E+04  0.65091699193E+02 0.  0.
         25    2    1    2    0    0  0.24094405992E+03 -0.17172114029E+03 -0.15661155046E+03  0.35737534869E+03  0.12509105515E+03 0.  0.
        -24    2    1    2    0    0 -0.10697008577E+03  0.35607903496E+02  0.54399545611E+03  0.56182598164E+03  0.83706961133E+02 0.  0.
        -11    1    3    3    0    0 -0.43756361474E+02  0.32890224374E+02 -0.21915650402E+03  0.22588926332E+03  0.00000000000E+00 0.  1.
         12    1    3    3    0    0 -0.90217612676E+02  0.10322301242E+03 -0.11263470186E+04  0.11346593385E+04  0.00000000000E+00 0. -1.
         11    1    5    5    0    0 -0.44736882476E+02  0.58876184918E+02  0.29263001537E+03  0.30182796375E+03  0.00000000000E+00 0. -1.
        -12    1    5    5    0    0 -0.62233203294E+02 -0.23268281422E+02  0.25136544074E+03  0.25999801790E+03  0.00000000000E+00 0.  1.
          5    1    4    4  501    0  0.16199419220E+03 -0.13416952090E+03 -0.16784277229E+03  0.26913239726E+03  0.41800000000E+01 0.  1.
         -5    1    4    4    0  501  0.78949867723E+02 -0.37551619386E+02  0.11231221839E+02  0.88242951424E+02  0.41800000000E+01 0.  1.
</event>
<event>
11    1  0.7577197E-009  0.1449772E+03  0.7561462E-02  0.1102124E+00
         22   -1    0    0    0    0  0.00000000000E+00  0.00000000000E+00  0.73444053998E+03  0.73444053998E+03  0.00000000000E+00 0.  1.
         22   -1    0    0    0    0 -0.00000000000E+00 -0.00000000000E+00 -0.69409989776E+03  0.69409989776E+03  0.00000000000E+00 0.  1.
         24    2    1    2    0    0 -0.73886834351E+02 -0.17805224463E+02 -0.62950800650E+03  0.63904276131E+03  0.79492328056E+02 0.  0.
         25    2    1    2    0    0  0.33652250401E+02 -0.93592715077E+01  0.18211117561E+02  0.13114932766E+03  0.12509369058E+03 0.  0.
        -24    2    1    2    0    0  0.40234583950E+02  0.27164495971E+02  0.65163753116E+03  0.65834834878E+03  0.80214367359E+02 0.  0.
        -11    1    3    3    0    0 -0.83087690276E+02 -0.18743721005E+02 -0.61983461272E+03  0.62565952281E+03  0.00000000000E+00 0.  1.
         12    1    3    3    0    0  0.92008559252E+01  0.93849654161E+00 -0.96733937851E+01  0.13383238503E+02  0.00000000000E+00 0. -1.
         11    1    5    5    0    0 -0.21992122974E+02  0.62389674621E+01  0.88813809854E+02  0.91708620143E+02  0.00000000000E+00 0. -1.
        -12    1    5    5    0    0  0.62226706924E+02  0.20925528509E+02  0.56282372131E+03  0.56663972864E+03  0.00000000000E+00 0.  1.
          5    1    4    4  501    0 -0.39779050834E+02 -0.16881463831E+02  0.34486860595E+02  0.55445222157E+02  0.41800000000E+01 0.  1.
         -5    1    4    4    0  501  0.73431301235E+02  0.75221923229E+01 -0.16275743034E+02  0.75704105501E+02  0.41800000000E+01 0.  1.
</event>
<event>
11    1  0.7577197E-009  0.1847882E+03  0.7561462E-02  0.1065834E+00
         22   -1    0    0    0    0  0.00000000000E+00  0.00000000000E+00  0.22243402347E+03  0.22243402347E+03  0.00000000000E+00 0.  1.
         22   -1    0    0    0    0 -0.00000000000E+00 -0.00000000000E+00 -0.77883498348E+03  0.77883498348E+03  0.00000000000E+00 0. -1.
        -24    2    1    2    0    0 -0.12524160633E+03  0.72730985670E+02 -0.62759310823E+03  0.64904651723E+03  0.80081307466E+02 0.  0.
         25    2    1    2    0    0  0.67679771043E+02 -0.70529008496E+02 -0.73913008529E+02  0.17511649042E+03  0.12509100662E+03 0.  0.
         24    2    1    2    0    0  0.57561835283E+02 -0.22019771740E+01  0.14510515674E+03  0.17710599930E+03  0.83623052397E+02 0.  0.
        -11    1    5    5    0    0  0.38520488280E+01 -0.65939057179E+01  0.11524371070E+03  0.11549645331E+03  0.00000000000E+00 0.  1.
         12    1    5    5    0    0  0.53709786455E+02  0.43919285440E+01  0.29861446044E+02  0.61609545991E+02  0.00000000000E+00 0. -1.
         13    1    3    3    0    0 -0.46570685394E+02  0.71462558661E+02 -0.28245200038E+03  0.29505060336E+03  0.00000000000E+00 0. -1.
        -14    1    3    3    0    0 -0.78670920931E+02  0.12684270085E+01 -0.34514110785E+03  0.35399591387E+03  0.00000000000E+00 0.  1.
          5    1    4    4  501    0  0.10065267624E+03 -0.35134177485E+02 -0.33154975544E+02  0.11172330314E+03  0.41800000000E+01 0.  1.
         -5    1    4    4    0  501 -0.32972905199E+02 -0.35394831011E+02 -0.40758032985E+02  0.63393187271E+02  0.41800000000E+01 0.  1.
</event>
<event>
11    1  0.7577197E-009  0.1925241E+03  0.7561462E-02  0.1059940E+00
         22   -1    0    0    0    0  0.00000000000E+00  0.00000000000E+00  0.17674645177E+04  0.17674645177E+04  0.00000000000E+00 0. -1.
         22   -1    0    0    0    0 -0.00000000000E+00 -0.00000000000E+00 -0.54198848150E+03  0.54198848150E+03  0.00000000000E+00 0. -1.
        -24    2    1    2    0    0  0.14195192895E+03 -0.41587816551E+02 -0.47705725644E+03  0.50549971344E+03  0.77887340059E+02 0.  0.
         25    2    1    2    0    0 -0.13962732568E+03 -0.33179808974E+02  0.13693320142E+03  0.23450799899E+03  0.12508641068E+03 0.  0.
         24    2    1    2    0    0 -0.23246032698E+01  0.74767625525E+02  0.15656000912E+04  0.15694452868E+04  0.80369527594E+02 0.  0.
        -11    1    5    5    0    0  0.30539223143E+02  0.58122139198E+02  0.70313052293E+03  0.70618932270E+03  0.00000000000E+00 0.  1.
         12    1    5    5    0    0 -0.32863826413E+02  0.16645486327E+02  0.86246956827E+03  0.86325596407E+03  0.00000000000E+00 0. -1.
         13    1    3    3    0    0  0.15074581421E+03 -0.44492714325E+02 -0.45968633936E+03  0.48581419568E+03  0.00000000000E+00 0. -1.
        -14    1    3    3    0    0 -0.87938852598E+01  0.29048977739E+01 -0.17370917080E+02  0.19685517754E+02  0.00000000000E+00 0.  1.
          5    1    4    4  501    0 -0.34172611895E+01 -0.16047809397E+02  0.86582989111E+02  0.88222991697E+02  0.41800000000E+01 0. -1.
         -5    1    4    4    0  501 -0.13621006449E+03 -0.17131999577E+02  0.50350212312E+02  0.14628500729E+03  0.41800000000E+01 0. -1.
</event>
<event>
11    1  0.7577197E-009  0.3575886E+03  0.7561462E-02  0.9783912E-01
         22   -1    0    0    0    0  0.00000000000E+00  0.00000000000E+00  0.42562958132E+03  0.42562958132E+03  0.00000000000E+00 0.  1.
         22   -1    0    0    0    0 -0.00000000000E+00 -0.00000000000E+00 -0.64811456654E+03  0.64811456654E+03  0.00000000000E+00 0. -1.
        -24    2    1    2    0    0 -0.25442969439E+02 -0.30563394862E+02 -0.32651154215E+03  0.33847415754E+03  0.79834218042E+02 0.  0.
         25    2    1    2    0    0 -0.19429265592E+03  0.27979480690E+03 -0.21381924886E+02  0.36350905566E+03  0.12508747626E+03 0.  0.
         24    2    1    2    0    0  0.21973562536E+03 -0.24923141204E+03  0.12540848180E+03  0.37176093466E+03  0.10990388269E+03 0.  0.
        -13    1    5    5    0    0  0.19004029065E+03 -0.25460284394E+03  0.10236327194E+03  0.33379059252E+03  0.00000000000E+00 0.  1.
         14    1    5    5    0    0  0.29695334713E+02  0.53714319032E+01  0.23045209867E+02  0.37970342140E+02  0.00000000000E+00 0. -1.
         11    1    3    3    0    0  0.16086993491E+02 -0.45846336064E+01 -0.22643249857E+03  0.22704952462E+03  0.00000000000E+00 0. -1.
        -12    1    3    3    0    0 -0.41529962931E+02 -0.25978761255E+02 -0.10007904358E+03  0.11142463292E+03  0.00000000000E+00 0.  1.
          5    1    4    4  501    0 -0.19694938716E+03  0.25728566949E+03  0.10450146604E+02  0.32420927623E+03  0.41800000000E+01 0.  1.
         -5    1    4    4    0  501  0.26567312347E+01  0.22509137409E+02 -0.31832071490E+02  0.39299779428E+02  0.41800000000E+01 0.  1.
</event>
<event>
11    1  0.7577197E-009  0.2291527E+03  0.7561462E-02  0.1035631E+00
         22   -1    0    0    0    0  0.00000000000E+00  0.00000000000E+00  0.64686611895E+03  0.64686611895E+03  0.00000000000E+00 0. -1.
         22   -1    0    0    0    0 -0.00000000000E+00 -0.00000000000E+00 -0.23292772048E+04  0.23292772048E+04  0.00000000000E+00 0. -1.
        -24    2    1    2    0    0  0.14294171861E+03  0.12873729507E+03 -0.18907054028E+04  0.19021160279E+04  0.79201244948E+02 0.  0.
         25    2    1    2    0    0 -0.96225859416E+02 -0.17452231313E+03 -0.39613721460E+03  0.46074531878E+03  0.12507638540E+03 0.  0.
         24    2    1    2    0    0 -0.46715859197E+02  0.45785018054E+02  0.60443153158E+03  0.61328197709E+03  0.80614314336E+02 0.  0.
        -13    1    5    5    0    0 -0.46511968448E+02  0.86017610112E+01  0.14883227636E+03  0.15616785837E+03  0.00000000000E+00 0.  1.
         14    1    5    5    0    0 -0.20389074982E+00  0.37183257042E+02  0.45559925522E+03  0.45711411872E+03  0.00000000000E+00 0. -1.
         13    1    3    3    0    0  0.10790782530E+03  0.93898796506E+02 -0.16614956070E+04  0.16676416686E+04  0.00000000000E+00 0. -1.
        -14    1    3    3    0    0  0.35033893314E+02  0.34838498568E+02 -0.22920979581E+03  0.23447435928E+03  0.00000000000E+00 0.  1.
          5    1    4    4  501    0 -0.79769604648E+02 -0.14395096963E+03 -0.18886768792E+03  0.25054649753E+03  0.41800000000E+01 0.  1.
         -5    1    4    4    0  501 -0.16456254768E+02 -0.30571343497E+02 -0.20726952668E+03  0.21019882125E+03  0.41800000000E+01 0.  1.
</event>
<event>
11    1  0.7577197E-009  0.2491969E+03  0.7561462E-02  0.1024328E+00
         22   -1    0    0    0    0  0.00000000000E+00  0.00000000000E+00  0.33672338904E+04  0.33672338904E+04  0.00000000000E+00 0.  1.
         22   -1    0    0    0    0 -0.00000000000E+00 -0.00000000000E+00 -0.59185048991E+02  0.59185048991E+02  0.00000000000E+00 0. -1.
         24    2    1    2    0    0 -0.21565769086E+03 -0.26411671222E+02  0.21870576017E+03  0.31846407110E+03  0.79883283896E+02 0.  0.
         25    2    1    2    0    0  0.19653854070E+03  0.61727307094E+02  0.19230839893E+04  0.19381274937E+04  0.12509393890E+03 0.  0.
        -24    2    1    2    0    0  0.19119150163E+02 -0.35315635871E+02  0.11662590919E+04  0.11698273746E+04  0.81994394584E+02 0.  0.
        -11    1    3    3    0    0 -0.15576622176E+03 -0.10987409336E+02  0.20022311956E+03  0.25391560923E+03  0.00000000000E+00 0.  1.
         12    1    3    3    0    0 -0.59891469100E+02 -0.15424261887E+02  0.18482640611E+02  0.64548461869E+02  0.00000000000E+00 0. -1.
         13    1    5    5    0    0 -0.21520738924E+02 -0.64595065289E+01  0.78532224256E+03  0.78564361646E+03  0.00000000000E+00 0. -1.
        -14    1    5    5    0    0  0.40639889087E+02 -0.28856129342E+02  0.38093684939E+03  0.38418375813E+03  0.00000000000E+00 0.  1.
          5    1    4    4  501    0  0.19138649252E+03  0.81218777567E+02  0.14768038979E+04  0.14913726914E+04  0.41800000000E+01 0. -1.
         -5    1    4    4    0  501  0.51520481759E+01 -0.19491470474E+02  0.44628009143E+03  0.44675480235E+03  0.41800000000E+01 0. -1.
</event>
<event>
11    1  0.7577197E-009  0.1251181E+03  0.7561462E-02  0.1125417E+00
         22   -1    0    0    0    0  0.00000000000E+00  0.00000000000E+00  0.12628032095E+04  0.12628032095E+04  0.00000000000E+00 0.  1.
         22   -1    0    0    0    0 -0.00000000000E+00 -0.00000000000E+00 -0.34074750244E+03  0.34074750244E+03  0.00000000000E+00 0. -1.
         24    2    1    2    0    0  0.37937017263E+01  0.10296231368E+02 -0.30730904099E+03  0.31679255015E+03  0.76146363034E+02 0.  0.
         25    2    1    2    0    0 -0.11279525840E+01 -0.94838448913E+01  0.11702601886E+03  0.17156516819E+03  0.12509317429E+03 0.  0.
        -24    2    1    2    0    0 -0.26657491423E+01 -0.81238647708E+00  0.11123387292E+04  0.11151929936E+04  0.79688131766E+02 0.  0.
        -11    1    3    3    0    0  0.23972217719E+02 -0.49180261403E+01 -0.31795434317E+02  0.40122360933E+02  0.00000000000E+00 0.  1.
         12    1    3    3    0    0 -0.20178515993E+02  0.15214257509E+02 -0.27551360667E+03  0.27667018922E+03  0.00000000000E+00 0. -1.
         13    1    5    5    0    0 -0.61272999985E+01  0.15647994025E+02  0.50531972938E+02  0.53253016922E+02  0.00000000000E+00 0. -1.
        -14    1    5    5    0    0  0.34615508562E+01 -0.16460380502E+02  0.10618067562E+04  0.10619399766E+04  0.00000000000E+00 0.  1.
          5    1    4    4  501    0  0.45847808865E+02 -0.21094458951E+02  0.11177631676E+03  0.12271273432E+03  0.41800000000E+01 0. -1.
         -5    1    4    4    0  501 -0.46975761449E+02  0.11610614060E+02  0.52497021011E+01  0.48852433866E+02  0.41800000000E+01 0. -1.
</event>
<event>
11    1  0.7577197E-009  0.1411292E+03  0.7561462E-02  0.1106304E+00
         22   -1    0    0    0    0  0.00000000000E+00  0.00000000000E+00  0.24789271588E+04  0.24789271588E+04  0.00000000000E+00 0. -1.
         22   -1    0    0    0    0 -0.00000000000E+00 -0.00000000000E+00 -0.10797227228E+03  0.10797227228E+03  0.00000000000E+00 0. -1.
         24    2    1    2    0    0 -0.60929247993E+02 -0.25453020566E+02 -0.71862140690E+02  0.12669495240E+03  0.80791176383E+02 0.  0.
         25    2    1    2    0    0  0.53282278438E+02  0.29213262242E+01  0.59187345415E+03  0.60729626982E+03  0.12508812200E+03 0.  0.
        -24    2    1    2    0    0  0.76469695547E+01  0.22531694342E+02  0.18509435731E+04  0.18529082089E+04  0.81918047005E+02 0.  0.
        -11    1    3    3    0    0 -0.52254987835E+02 -0.42595521366E+02 -0.18395066325E+02  0.69880903394E+02  0.00000000000E+00 0.  1.
         12    1    3    3    0    0 -0.86742601585E+01  0.17142500800E+02 -0.53467074365E+02  0.56814049003E+02  0.00000000000E+00 0. -1.
         11    1    5    5    0    0 -0.26686218706E+02  0.18490284801E+02  0.33477641891E+03  0.33634698684E+03  0.00000000000E+00 0. -1.
        -12    1    5    5    0    0  0.34333188261E+02  0.40414095411E+01  0.15161671542E+04  0.15165612220E+04  0.00000000000E+00 0.  1.
          5    1    4    4  501    0  0.46496199088E+02 -0.49971602808E+02  0.19106667921E+03  0.20293596508E+03  0.41800000000E+01 0.  1.
         -5    1    4    4    0  501  0.67860793501E+01  0.52892929032E+02  0.40080677494E+03  0.40436030474E+03  0.41800000000E+01 0.  1.
</event>
<event>
11    1  0.7577197E-009  0.3254093E+03  0.7561462E-02  0.9899762E-01
         22   -1    0    0    0    0  0.00000000000E+00  0.00000000000E+00  0.60096595998E+03  0.60096595998E+03  0.00000000000E+00 0.  1.
         22   -1    0    0    0    0 -0.00000000000E+00 -0.00000000000E+00 -0.10539730024E+04  0.10539730024E+04  0.00000000000E+00 0.  1.
         24    2    1    2    0    0 -0.10846231176E+03 -0.17261392488E+02 -0.71654874010E+03  0.72935723941E+03  0.80360792627E+02 0.  0.
         25    2    1    2    0    0  0.38151768047E+03  0.94554254919E+02 -0.12899846660E+03  0.43218598804E+03  0.12509147149E+03 0.  0.
        -24    2    1    2    0    0 -0.27305536871E+03 -0.77292862432E+02  0.39254016425E+03  0.49339573496E+03  0.93905003933E+02 0.  0.
        -13    1    3    3    0    0 -0.68313211708E+02 -0.49136763713E+02 -0.47961039156E+03  0.48693659149E+03  0.00000000000E+00 0.  1.
         14    1    3    3    0    0 -0.40149100048E+02  0.31875371226E+02 -0.23693834854E+03  0.24242064791E+03  0.00000000000E+00 0. -1.
         11    1    5    5    0    0 -0.13884651723E+03  0.74249854791E+01  0.20508792455E+03  0.24777922139E+03  0.00000000000E+00 0. -1.
        -12    1    5    5    0    0 -0.13420885148E+03 -0.84717847911E+02  0.18745223970E+03  0.24561651357E+03  0.00000000000E+00 0.  1.
          5    1    4    4  501    0  0.16825942818E+03  0.23890874010E+02  0.59040530934E+01  0.17010096788E+03  0.41800000000E+01 0.  1.
         -5    1    4    4    0  501  0.21325825229E+03  0.70663380909E+02 -0.13490251969E+03  0.26208502016E+03  0.41800000000E+01 0.  1.
</event>
<event>
11    1  0.7577197E-009  0.1543503E+03  0.7561462E-02  0.1092515E+00
         22   -1    0    0    0    0  0.00000000000E+00  0.00000000000E+00  0.17559167901E+04  0.17559167901E+04  0.00000000000E+00 0. -1.
         22   -1    0    0    0    0 -0.00000000000E+00 -0.00000000000E+00 -0.99144837216E+03  0.99144837216E+03  0.00000000000E+00 0. -1.
         24    2    1    2    0    0  0.61572457267E+02 -0.65993657373E+02 -0.97378879706E+03  0.98125526482E+03  0.80317763613E+02 0.  0.
         25    2    1    2    0    0 -0.14139486303E+03  0.55568078509E+02  0.10032064639E+04  0.10223258233E+04  0.12508621488E+03 0.  0.
        -24    2    1    2    0    0  0.79822405762E+02  0.10425578864E+02  0.73505075115E+03  0.74378407418E+03  0.80217411344E+02 0.  0.
        -13    1    3    3    0    0  0.26387706720E+02 -0.15628541482E+02 -0.69941209479E+03  0.70008416688E+03  0.00000000000E+00 0.  1.
         14    1    3    3    0    0  0.35184750547E+02 -0.50365115891E+02 -0.27437670227E+03  0.28117109794E+03  0.00000000000E+00 0. -1.
         11    1    5    5    0    0  0.93231208426E+02  0.15965180054E+02  0.69004508153E+03  0.69649778158E+03  0.00000000000E+00 0. -1.
        -12    1    5    5    0    0 -0.13408802665E+02 -0.55396011897E+01  0.45005669625E+02  0.47286292609E+02  0.00000000000E+00 0.  1.
          5    1    4    4  501    0 -0.11241833220E+03  0.94852158801E+02  0.78696580784E+03  0.80060443950E+03  0.41800000000E+01 0. -1.
         -5    1    4    4    0  501 -0.28976530833E+02 -0.39284080292E+02  0.21624065602E+03  0.22172138377E+03  0.41800000000E+01 0. -1.
</event>
<event>
11    1  0.7577197E-009  0.1608948E+03  0.7561462E-02  0.1086239E+00
         22   -1    0    0    0    0  0.00000000000E+00  0.00000000000E+00  0.24119038845E+04  0.24119038845E+04  0.00000000000E+00 0.  1.
         22   -1    0    0    0    0 -0.00000000000E+00 -0.00000000000E+00 -0.48982885856E+03  0.48982885856E+03  0.00000000000E+00 0. -1.
         24    2    1    2    0    0 -0.32373377705E+02  0.15186847234E+02 -0.40791317727E+03  0.41729055771E+03  0.80371471633E+02 0.  0.
         25    2    1    2    0    0  0.74009870037E+02  0.77050961124E+02  0.14292907388E+02  0.16512449006E+03  0.12508996180E+03 0.  0.
        -24    2    1    2    0    0 -0.41636492332E+02 -0.92237808358E+02  0.23156952958E+04  0.23193176953E+04  0.80922541961E+02 0.  0.
        -13    1    3    3    0    0  0.27108136111E+02  0.40322065050E+01 -0.12121102188E+03  0.12427075907E+03  0.00000000000E+00 0.  1.
         14    1    3    3    0    0 -0.59481513816E+02  0.11154640729E+02 -0.28670215538E+03  0.29301979864E+03  0.00000000000E+00 0. -1.
         11    1    5    5    0    0  0.14760772680E+02 -0.10007430222E+02  0.11592631261E+03  0.11728997837E+03  0.00000000000E+00 0. -1.
        -12    1    5    5    0    0 -0.56397265012E+02 -0.82230378136E+02  0.21997689832E+04  0.22020277169E+04  0.00000000000E+00 0.  1.
          5    1    4    4  501    0  0.57829683702E+02  0.74979834713E+02 -0.43964274819E+02  0.10448242815E+03  0.41800000000E+01 0.  1.
         -5    1    4    4    0  501  0.16180186335E+02  0.20711264114E+01  0.58257182207E+02  0.60642061913E+02  0.41800000000E+01 0.  1.
</event>
<event>
11    1  0.7577197E-009  0.1307095E+03  0.7561462E-02  0.1118400E+00
         22   -1    0    0    0    0  0.00000000000E+00  0.00000000000E+00  0.94424547150E+03  0.94424547150E+03  0.00000000000E+00 0. -1.
         22   -1    0    0    0    0 -0.00000000000E+00 -0.00000000000E+00 -0.69647312783E+02  0.69647312783E+02  0.00000000000E+00 0. -1.
         24    2    1    2    0    0 -0.34607859981E+02  0.21222226756E+01 -0.84389035579E+01  0.88008167905E+02  0.80448832951E+02 0.  0.
         25    2    1    2    0    0  0.59522378002E+02  0.15154400426E+02  0.24163860314E+03  0.27894350014E+03  0.12509073671E+03 0.  0.
        -24    2    1    2    0    0 -0.24914518021E+02 -0.17276623102E+02  0.64139845914E+03  0.64694111624E+03  0.78877180350E+02 0.  0.
        -11    1    3    3    0    0  0.91862930958E+01 -0.25540830611E+02  0.15156800014E+02  0.31087788532E+02  0.00000000000E+00 0.  1.
         12    1    3    3    0    0 -0.43794153076E+02  0.27663053287E+02 -0.23595703572E+02  0.56920379372E+02  0.00000000000E+00 0. -1.
         13    1    5    5    0    0 -0.80667737015E+01  0.30179462335E+02  0.33256130356E+03  0.33402528858E+03  0.00000000000E+00 0. -1.
        -14    1    5    5    0    0 -0.16847744320E+02 -0.47456085437E+02  0.30883715558E+03  0.31291582766E+03  0.00000000000E+00 0.  1.
          5    1    4    4  501    0  0.97889993027E+01 -0.48956063237E+00  0.22324685612E+03  0.22350099630E+03  0.41800000000E+01 0.  1.
         -5    1    4    4    0  501  0.49733378699E+02  0.15643961059E+02  0.18391747016E+02  0.55442503846E+02  0.41800000000E+01 0.  1.
</event>
<event>
11    1  0.7577197E-009  0.1401787E+03  0.7561462E-02  0.1107359E+00
         22   -1    0    0    0    0  0.00000000000E+00  0.00000000000E+00  0.77217780457E+02  0.77217780457E+02  0.00000000000E+00 0. -1.
         22   -1    0    0    0    0 -0.00000000000E+00 -0.00000000000E+00 -0.17435478238E+04  0.17435478238E+04  0.00000000000E+00 0. -1.
         24    2    1    2    0    0 -0.78241731633E+01  0.56497497204E+02 -0.11394713595E+04  0.11437790873E+04  0.81132216702E+02 0.  0.
         25    2    1    2    0    0  0.19888079778E+01 -0.94915230102E+02 -0.56096979368E+03  0.58253536655E+03  0.12508991806E+03 0.  0.
        -24    2    1    2    0    0  0.58353651856E+01  0.38417732898E+02  0.34111109888E+02  0.94451150337E+02  0.79040991227E+02 0.  0.
        -13    1    3    3    0    0 -0.14520505837E+02 -0.67298922388E+01 -0.50996880955E+02  0.53449213338E+02  0.00000000000E+00 0.  1.
         14    1    3    3    0    0  0.66963326741E+01  0.63227389443E+02 -0.10884744786E+04  0.10903298740E+04  0.00000000000E+00 0. -1.
         11    1    5    5    0    0 -0.32080271571E+02  0.11375413912E+02 -0.40026227457E+01  0.34271925166E+02  0.00000000000E+00 0. -1.
        -12    1    5    5    0    0  0.37915636757E+02  0.27042318986E+02  0.38113732634E+02  0.60179225171E+02  0.00000000000E+00 0.  1.
          5    1    4    4  501    0  0.24240974840E+02 -0.29306880583E+02 -0.34527784974E+02  0.51537932107E+02  0.41800000000E+01 0. -1.
         -5    1    4    4    0  501 -0.22252166862E+02 -0.65608349519E+02 -0.52644200870E+03  0.53099743444E+03  0.41800000000E+01 0. -1.
</event>
<event>
11    1  0.7577197E-009  0.1355635E+03  0.7561462E-02  0.1112616E+00
         22   -1    0    0    0    0  0.00000000000E+00  0.00000000000E+00  0.20355556428E+03  0.20355556428E+03  0.00000000000E+00 0. -1.
         22   -1    0    0    0    0 -0.00000000000E+00 -0.00000000000E+00 -0.93533071124E+03  0.93533071124E+03  0.00000000000E+00 0. -1.
        -24    2    1    2    0    0  0.52481990521E+02  0.35930961629E+01 -0.73114474132E+03  0.73762276579E+03  0.82142815786E+02 0.  0.
         25    2    1    2    0    0 -0.48866822864E+02 -0.11469206315E+02 -0.16787490006E+03  0.21528915806E+03  0.12509168811E+03 0.  0.
         24    2    1    2    0    0 -0.36151676575E+01  0.78761101524E+01  0.16724449441E+03  0.18597435167E+03  0.80874198735E+02 0.  0.
        -13    1    5    5    0    0  0.46146546013E+01  0.42116953769E+01 -0.81943241492E+01  0.10304385634E+02  0.00000000000E+00 0.  1.
         14    1    5    5    0    0 -0.82298222589E+01  0.36644147755E+01  0.17543881856E+03  0.17566996604E+03  0.00000000000E+00 0. -1.
         11    1    3    3    0    0  0.68700087027E+02  0.43279220242E+01 -0.68946557125E+03  0.69289335890E+03  0.00000000000E+00 0. -1.
        -12    1    3    3    0    0 -0.16218096505E+02 -0.73482586130E+00 -0.41679170069E+02  0.44729406893E+02  0.00000000000E+00 0.  1.
          5    1    4    4  501    0  0.16886918479E+02  0.25754783062E+02 -0.12395677631E+03  0.12779370743E+03  0.41800000000E+01 0. -1.
         -5    1    4    4    0  501 -0.65753741343E+02 -0.37223989378E+02 -0.43918123752E+02  0.87495450623E+02  0.41800000000E+01 0. -1.
</event>
<event>
11    1  0.7577197E-009  0.1382765E+03  0.7561462E-02  0.1109498E+00
         22   -1    0    0    0    0  0.00000000000E+00  0.00000000000E+00  0.12048654250E+03  0.12048654250E+03  0.00000000000E+00 0. -1.
         22   -1    0    0    0    0 -0.00000000000E+00 -0.00000000000E+00 -0.80078043771E+03  0.80078043771E+03  0.00000000000E+00 0. -1.
         24    2    1    2    0    0  0.39725022904E+01 -0.58573315233E+02 -0.68050204981E+03  0.68766064620E+03  0.79671265266E+02 0.  0.
         25    2    1    2    0    0  0.60034702551E+01  0.62807639931E+02 -0.36977305155E+02  0.14489841578E+03  0.12508952199E+03 0.  0.
        -24    2    1    2    0    0 -0.99759725455E+01 -0.42343246981E+01  0.37185459754E+02  0.88707918228E+02  0.79805305621E+02 0.  0.
        -11    1    3    3    0    0  0.61717922551E+01 -0.56939357992E+02 -0.22579717983E+03  0.23294752183E+03  0.00000000000E+00 0.  1.
         12    1    3    3    0    0 -0.21992899647E+01 -0.16339572419E+01 -0.45470486998E+03  0.45471312437E+03  0.00000000000E+00 0. -1.
         11    1    5    5    0    0  0.12276983637E+02  0.12653188005E+02  0.53518890900E+02  0.56348018395E+02  0.00000000000E+00 0. -1.
        -12    1    5    5    0    0 -0.22252956183E+02 -0.16887512703E+02 -0.16333431146E+02  0.32359899832E+02  0.00000000000E+00 0.  1.
          5    1    4    4  501    0  0.10439430373E+01  0.78107197972E+02 -0.71883759497E+02  0.10623827687E+03  0.41800000000E+01 0.  1.
         -5    1    4    4    0  501  0.49595272179E+01 -0.15299558040E+02  0.34906454342E+02  0.38660138918E+02  0.41800000000E+01 0.  1.
</event>
<event>
11    1  0.7577197E-009  0.1447514E+03  0.7561462E-02  0.1102366E+00
         22   -1    0    0    0    0  0.00000000000E+00  0.00000000000E+00  0.13683282592E+04  0.13683282592E+04  0.00000000000E+00 0.  1.
         22   -1    0    0    0    0 -0.00000000000E+00 -0.00000000000E+00 -0.84329884189E+03  0.84329884189E+03  0.00000000000E+00 0.  1.
         24    2    1    2    0    0  0.72764541942E+02  0.18845969003E+01 -0.82200052686E+03  0.82908495894E+03  0.79992329117E+02 0.  0.
         25    2    1    2    0    0 -0.77014924126E+02  0.15503125670E+00  0.31639071481E+03  0.34883048091E+03  0.12509315497E+03 0.  0.
        -24    2    1    2    0    0  0.42503821835E+01 -0.20396281570E+01  0.10306392293E+04  0.10337116612E+04  0.79500639510E+02 0.  0.
        -13    1    3    3    0    0  0.79711829504E+02 -0.14718168820E+02 -0.49530458252E+03  0.50189364383E+03  0.00000000000E+00 0.  1.
         14    1    3    3    0    0 -0.69472875618E+01  0.16602765720E+02 -0.32669594434E+03  0.32719131511E+03  0.00000000000E+00 0. -1.
         11    1    5    5    0    0 -0.34713894839E+02  0.84777208481E+01  0.63901111162E+03  0.64000947417E+03  0.00000000000E+00 0. -1.
        -12    1    5    5    0    0  0.38964277022E+02 -0.10517349005E+02  0.39162811769E+03  0.39370218704E+03  0.00000000000E+00 0.  1.
          5    1    4    4  501    0 -0.10032245094E+03 -0.11862075173E+02  0.30231904201E+03  0.31877825922E+03  0.41800000000E+01 0.  1.
         -5    1    4    4    0  501  0.23307526812E+02  0.12017106430E+02  0.14071672800E+02  0.30052221689E+02  0.41800000000E+01 0.  1.
</event>
<event>
11    1  0.7577197E-009  0.3523391E+03  0.7561462E-02  0.9801898E-01
         22   -1    0    0    0    0  0.00000000000E+00  0.00000000000E+00  0.11198559409E+03  0.11198559409E+03  0.00000000000E+00 0. -1.
         22   -1    0    0    0    0 -0.00000000000E+00 -0.00000000000E+00 -0.24143773026E+04  0.24143773026E+04  0.00000000000E+00 0. -1.
         24    2    1    2    0    0 -0.28810938534E+03  0.16052445773E+03 -0.11331383426E+04  0.11829568354E+04  0.81297302874E+02 0.  0.
         25    2    1    2    0    0  0.37372041655E+03  0.56987218422E+02 -0.85532036786E+03  0.94346890110E+03  0.12508454281E+03 0.  0.
        -24    2    1    2    0    0 -0.85611031213E+02 -0.21751167615E+03 -0.31393299800E+03  0.39993716016E+03  0.82190187461E+02 0.  0.
        -11    1    3    3    0    0 -0.12754270990E+03  0.55038705506E+02 -0.34906110004E+03  0.37568611036E+03  0.00000000000E+00 0.  1.
         12    1    3    3    0    0 -0.16056667544E+03  0.10548575222E+03 -0.78407724257E+03  0.80727072504E+03  0.00000000000E+00 0. -1.
         11    1    5    5    0    0 -0.49383160910E+01 -0.11981927063E+03 -0.17205351623E+03  0.20972233316E+03  0.00000000000E+00 0. -1.
        -12    1    5    5    0    0 -0.80672715122E+02 -0.97692405519E+02 -0.14187948177E+03  0.19021482700E+03  0.00000000000E+00 0.  1.
          5    1    4    4  501    0  0.13674063641E+03  0.37556676062E+02 -0.46740614742E+03  0.48846134402E+03  0.41800000000E+01 0. -1.
         -5    1    4    4    0  501  0.23697978014E+03  0.19430542360E+02 -0.38791422045E+03  0.45500755708E+03  0.41800000000E+01 0. -1.
</event>
<event>
11    1  0.7577197E-009  0.2400403E+03  0.7561462E-02  0.1029343E+00
         22   -1    0    0    0    0  0.00000000000E+00  0.00000000000E+00  0.96914743169E+03  0.96914743169E+03  0.00000000000E+00 0.  1.
         22   -1    0    0    0    0 -0.00000000000E+00 -0.00000000000E+00 -0.39491306870E+03  0.39491306870E+03  0.00000000000E+00 0. -1.
         24    2    1    2    0    0 -0.16883688354E+03  0.59187956715E+02 -0.13988309344E+03  0.24048930930E+03  0.79112076159E+02 0.  0.
         25    2    1    2    0    0  0.24354715584E+03 -0.83732421059E+02 -0.98754296444E+02  0.30286346939E+03  0.12509010581E+03 0.  0.
        -24    2    1    2    0    0 -0.74710272298E+02  0.24544464344E+02  0.81287175287E+03  0.82070772169E+03  0.81342622974E+02 0.  0.
        -13    1    3    3    0    0 -0.28369039392E+02  0.20396017260E+02  0.46445941975E+01  0.35247300199E+02  0.00000000000E+00 0.  1.
         14    1    3    3    0    0 -0.14046784415E+03  0.38791939455E+02 -0.14452768764E+03  0.20524200910E+03  0.00000000000E+00 0. -1.
         11    1    5    5    0    0 -0.78070393675E+02  0.68978727873E+01  0.40928962530E+03  0.41672600638E+03  0.00000000000E+00 0. -1.
        -12    1    5    5    0    0  0.33601213769E+01  0.17646591556E+02  0.40358212758E+03  0.40398171531E+03  0.00000000000E+00 0.  1.
          5    1    4    4  501    0  0.18865780563E+02 -0.27963442347E+02  0.23218649622E+02  0.41163696074E+02  0.41800000000E+01 0. -1.
         -5    1    4    4    0  501  0.22468137527E+03 -0.55768978711E+02 -0.12197294607E+03  0.26169977331E+03  0.41800000000E+01 0. -1.
</event>
<event>
11    1  0.7577197E-009  0.1714778E+03  0.7561462E-02  0.1076753E+00
         22   -1    0    0    0    0  0.00000000000E+00  0.00000000000E+00  0.82293081928E+03  0.82293081928E+03  0.00000000000E+00 0.  1.
         22   -1    0    0    0    0 -0.00000000000E+00 -0.00000000000E+00 -0.16013779639E+04  0.16013779639E+04  0.00000000000E+00 0.  1.
        -24    2    1    2    0    0  0.42910939530E+02 -0.10769957125E+02 -0.14917165317E+04  0.14945893338E+04  0.81373983238E+02 0.  0.
         25    2    1    2    0    0 -0.14629175115E+03 -0.39950296715E+02 -0.61635513107E+01  0.19667992807E+03  0.12509077535E+03 0.  0.
         24    2    1    2    0    0  0.10338081162E+03  0.50720253840E+02  0.71943293844E+03  0.73303952122E+03  0.80641493078E+02 0.  0.
        -13    1    5    5    0    0  0.80661655843E+02  0.39115360499E+02  0.68122043522E+03  0.68709358571E+03  0.00000000000E+00 0.  1.
         14    1    5    5    0    0  0.22719155781E+02  0.11604893341E+02  0.38212503212E+02  0.45945935518E+02  0.00000000000E+00 0. -1.
         11    1    3    3    0    0  0.30932925343E+01  0.13733230281E+02 -0.45742357409E+02  0.47859516650E+02  0.00000000000E+00 0. -1.
        -12    1    3    3    0    0  0.39817646996E+02 -0.24503187406E+02 -0.14459741743E+04  0.14467298172E+04  0.00000000000E+00 0.  1.
          5    1    4    4  501    0 -0.15564060593E+03 -0.28097070729E+02  0.26536471779E+02  0.16042163299E+03  0.41800000000E+01 0.  1.
         -5    1    4    4    0  501  0.93488547741E+01 -0.11853225986E+02 -0.32700023090E+02  0.36258295078E+02  0.41800000000E+01 0.  1.
</event>
<event>
11    1  0.7577197E-009  0.1924335E+03  0.7561462E-02  0.1060007E+00
         22   -1    0    0    0    0  0.00000000000E+00  0.00000000000E+00  0.56922900831E+03  0.56922900831E+03  0.00000000000E+00 0. -1.
         22   -1    0    0    0    0 -0.00000000000E+00 -0.00000000000E+00 -0.23015660826E+04  0.23015660826E+04  0.00000000000E+00 0.  1.
        -24    2    1    2    0    0  0.67748260374E+02  0.76793268537E+02 -0.21865251781E+04  0.21903153839E+04  0.78115898551E+02 0.  0.
         25    2    1    2    0    0 -0.17740243197E+03  0.18745807065E+02  0.24652048682E+02  0.21926782711E+03  0.12509048064E+03 0.  0.
         24    2    1    2    0    0  0.10965417160E+03 -0.95539075602E+02  0.42953605514E+03  0.46121187989E+03  0.84044173969E+02 0.  0.
        -11    1    5    5    0    0  0.27738942580E+02 -0.75565154441E+02  0.16544757325E+03  0.18399032854E+03  0.00000000000E+00 0.  1.
         12    1    5    5    0    0  0.81915229020E+02 -0.19973921161E+02  0.26408848188E+03  0.27722155136E+03  0.00000000000E+00 0. -1.
         11    1    3    3    0    0  0.32753444929E+02  0.11778002670E+01 -0.27032465423E+03  0.27230423069E+03  0.00000000000E+00 0. -1.
        -12    1    3    3    0    0  0.34994815445E+02  0.75615468270E+02 -0.19162005238E+04  0.19180111532E+04  0.00000000000E+00 0.  1.
          5    1    4    4  501    0 -0.14522609966E+03  0.62905164759E+02 -0.19991918670E+01  0.15833240017E+03  0.41800000000E+01 0. -1.
         -5    1    4    4    0  501 -0.32176332314E+02 -0.44159357694E+02  0.26651240549E+02  0.60935426936E+02  0.41800000000E+01 0. -1.
</event>
<event>
11    1  0.7577197E-009  0.7959240E+03  0.7561462E-02  0.8901778E-01
         22   -1    0    0    0    0  0.00000000000E+00  0.00000000000E+00  0.24263659901E+04  0.24263659901E+04  0.00000000000E+00 0. -1.
         22   -1    0    0    0    0 -0.00000000000E+00 -0.00000000000E+00 -0.31908616073E+03  0.31908616073E+03  0.00000000000E+00 0. -1.
         24    2    1    2    0    0 -0.81365298492E+01  0.19467586527E+02  0.47842762204E+02  0.99226280073E+02  0.84331101728E+02 0.  0.
         25    2    1    2    0    0  0.48408482917E+02  0.77218210987E+03  0.61340752818E+03  0.99525049049E+03  0.12508457612E+03 0.  0.
        -24    2    1    2    0    0 -0.40271953068E+02 -0.79164969639E+03  0.14460295390E+04  0.16509753803E+04  0.79920001322E+02 0.  0.
        -13    1    3    3    0    0 -0.22404699331E+02 -0.85788320187E+01 -0.15455137359E+02  0.28538188129E+02  0.00000000000E+00 0.  1.
         14    1    3    3    0    0  0.14268169481E+02  0.28046418546E+02  0.63297899563E+02  0.70688091944E+02  0.00000000000E+00 0. -1.
         11    1    5    5    0    0 -0.39568991379E+02 -0.39173928561E+03  0.64528683141E+03  0.75592358593E+03  0.00000000000E+00 0. -1.
        -12    1    5    5    0    0 -0.70296168916E+00 -0.39991041079E+03  0.80074270762E+03  0.89505179438E+03  0.00000000000E+00 0.  1.
          5    1    4    4  501    0  0.42223761521E+02  0.14349619707E+03  0.74457351559E+02  0.16713878728E+03  0.41800000000E+01 0. -1.
         -5    1    4    4    0  501  0.61847213963E+01  0.62868591280E+03  0.53895017662E+03  0.82811170321E+03  0.41800000000E+01 0. -1.
</event>
<event>
11    1  0.7577197E-009  0.1389027E+03  0.7561462E-02  0.1108790E+00
         22   -1    0    0    0    0  0.00000000000E+00  0.00000000000E+00  0.11177838583E+03  0.11177838583E+03  0.00000000000E+00 0. -1.
         22   -1    0    0    0    0 -0.00000000000E+00 -0.00000000000E+00 -0.13144235458E+04  0.13144235458E+04  0.00000000000E+00 0. -1.
        -24    2    1    2    0    0 -0.27607527741E+01 -0.36607230695E+02 -0.86197612138E+03  0.86642178705E+03  0.79600051255E+02 0.  0.
         25    2    1    2    0    0  0.56429915966E+02  0.69301996588E+01 -0.41024627240E+03  0.43264495005E+03  0.12508911107E+03 0.  0.
         24    2    1    2    0    0 -0.53669163192E+02  0.29677031037E+02  0.69577233766E+02  0.12713519456E+03  0.86955511548E+02 0.  0.
        -13    1    5    5    0    0 -0.25288656367E+01 -0.24539866738E+02  0.39905645244E+02  0.46915463797E+02  0.00000000000E+00 0.  1.
         14    1    5    5    0    0 -0.51140297555E+02  0.54216897775E+02  0.29671588522E+02  0.80219730764E+02  0.00000000000E+00 0. -1.
         13    1    3    3    0    0  0.16508185563E+02  0.29927381279E+00 -0.65964223207E+03  0.65984883427E+03  0.00000000000E+00 0. -1.
        -14    1    3    3    0    0 -0.19268938337E+02 -0.36906504508E+02 -0.20233388931E+03  0.20657295278E+03  0.00000000000E+00 0.  1.
          5    1    4    4  501    0  0.96557747712E+02  0.79342674277E+01 -0.28319681565E+03  0.29933970675E+03  0.41800000000E+01 0. -1.
         -5    1    4    4    0  501 -0.40127831746E+02 -0.10040677689E+01 -0.12704945675E+03  0.13330524330E+03  0.41800000000E+01 0. -1.
</event>
<event>
11    1  0.7577197E-009  0.4361977E+03  0.7561462E-02  0.9548606E-01
         22   -1    0    0    0    0  0.00000000000E+00  0.00000000000E+00  0.49897292232E+03  0.49897292232E+03  0.00000000000E+00 0. -1.
         22   -1    0    0    0    0 -0.00000000000E+00 -0.00000000000E+00 -0.69795544512E+03  0.69795544512E+03  0.00000000000E+00 0. -1.
        -24    2    1    2    0    0 -0.18077758446E+03  0.35314434802E+03 -0.53245728768E+02  0.40811165164E+03  0.79552165197E+02 0.  0.
         25    2    1    2    0    0  0.41006744573E+03 -0.23704942838E+03 -0.16883691763E+03  0.51817123257E+03  0.12509108669E+03 0.  0.
         24    2    1    2    0    0 -0.22928986126E+03 -0.11609491964E+03  0.23100123594E+02  0.27064548323E+03  0.81630209124E+02 0.  0.
        -13    1    5    5    0    0 -0.81280759313E+02  0.58772888404E-01  0.12135241488E+02  0.82181685154E+02  0.00000000000E+00 0.  1.
         14    1    5    5    0    0 -0.14800910195E+03 -0.11615369253E+03  0.10964882106E+02  0.18846379808E+03  0.00000000000E+00 0. -1.
         11    1    3    3    0    0 -0.15408107437E+03  0.33239301610E+03 -0.31088136085E+02  0.36768541831E+03  0.00000000000E+00 0. -1.
        -12    1    3    3    0    0 -0.26696510098E+02  0.20751331919E+02 -0.22157592683E+02  0.40426233331E+02  0.00000000000E+00 0.  1.
          5    1    4    4  501    0  0.23368928819E+03 -0.63703325557E+02 -0.74419308322E+02  0.25342553729E+03  0.41800000000E+01 0. -1.
         -5    1    4    4    0  501  0.17637815753E+03 -0.17334610283E+03 -0.94417609304E+02  0.26474569528E+03  0.41800000000E+01 0. -1.
</event>
<event>
11    1  0.7577197E-009  0.1304217E+03  0.7561462E-02  0.1118752E+00
         22   -1    0    0    0    0  0.00000000000E+00  0.00000000000E+00  0.13224352795E+04  0.13224352795E+04  0.00000000000E+00 0. -1.
         22   -1    0    0    0    0 -0.00000000000E+00 -0.00000000000E+00 -0.39697145911E+03  0.39697145911E+03  0.00000000000E+00 0.  1.
        -24    2    1    2    0    0  0.29939347069E+02 -0.21611056440E+02 -0.38280180003E+03  0.39306714775E+03  0.81247537002E+02 0.  0.
         25    2    1    2    0    0 -0.42877339503E+02  0.57565119993E+01  0.68592696134E+03  0.69857937385E+03  0.12508293889E+03 0.  0.
         24    2    1    2    0    0  0.12937992434E+02  0.15854544441E+02  0.62233865910E+03  0.62776021703E+03  0.79741615517E+02 0.  0.
        -13    1    5    5    0    0  0.97554424993E+01  0.27902235283E+02  0.80123093295E+02  0.85401484011E+02  0.00000000000E+00 0.  1.
         14    1    5    5    0    0  0.31825499347E+01 -0.12047690842E+02  0.54221556580E+03  0.54235873301E+03  0.00000000000E+00 0. -1.
         13    1    3    3    0    0  0.18244407136E+02 -0.31911165534E+01 -0.13014417721E+02  0.22636622655E+02  0.00000000000E+00 0. -1.
        -14    1    3    3    0    0  0.11694939933E+02 -0.18419939886E+02 -0.36978738231E+03  0.37043052509E+03  0.00000000000E+00 0.  1.
          5    1    4    4  501    0  0.15391862789E+02 -0.16121577062E+02  0.21562396968E+02  0.31292555825E+02  0.41800000000E+01 0.  1.
         -5    1    4    4    0  501 -0.58269202292E+02  0.21878089061E+02  0.66436456437E+03  0.66728681803E+03  0.41800000000E+01 0.  1.
</event>
<event>
11    1  0.7577197E-009  0.1796071E+03  0.7561462E-02  0.1069961E+00
         22   -1    0    0    0    0  0.00000000000E+00  0.00000000000E+00  0.11617200969E+04  0.11617200969E+04  0.00000000000E+00 0. -1.
         22   -1    0    0    0    0 -0.00000000000E+00 -0.00000000000E+00 -0.33979833043E+03  0.33979833043E+03  0.00000000000E+00 0.  1.
         24    2    1    2    0    0 -0.28635377383E+02 -0.35845404084E+02 -0.15729096522E+03  0.18261335986E+03  0.80636924697E+02 0.  0.
         25    2    1    2    0    0 -0.41147828182E+02 -0.74148054971E+02 -0.13004589629E+03  0.19937599828E+03  0.12509106974E+03 0.  0.
        -24    2    1    2    0    0  0.69783205564E+02  0.10999345906E+03  0.11092586280E+04  0.11195290692E+04  0.76956976112E+02 0.  0.
        -13    1    3    3    0    0 -0.99756046142E+01 -0.19427909324E+02 -0.15621697116E+03  0.15773616714E+03  0.00000000000E+00 0.  1.
         14    1    3    3    0    0 -0.18659772768E+02 -0.16417494760E+02 -0.10739940687E+01  0.24877192712E+02  0.00000000000E+00 0. -1.
         11    1    5    5    0    0  0.56272496659E+02  0.78819252753E+02  0.49814467397E+03  0.50747136342E+03  0.00000000000E+00 0. -1.
        -12    1    5    5    0    0  0.13510708905E+02  0.31174206302E+02  0.61111395405E+03  0.61205770580E+03  0.00000000000E+00 0.  1.
          5    1    4    4  501    0 -0.57031957279E+02 -0.73406545082E+02 -0.29677454298E+02  0.97669794233E+02  0.41800000000E+01 0. -1.
         -5    1    4    4    0  501  0.15884129098E+02 -0.74150988887E+00 -0.10036844199E+03  0.10170620405E+03  0.41800000000E+01 0. -1.
</event>
<event>
11    1  0.7577197E-009  0.1660855E+03  0.7561462E-02  0.1081489E+00
         22   -1    0    0    0    0  0.00000000000E+00  0.00000000000E+00  0.97701616803E+03  0.97701616803E+03  0.00000000000E+00 0. -1.
         22   -1    0    0    0    0 -0.00000000000E+00 -0.00000000000E+00 -0.85429706466E+03  0.85429706466E+03  0.00000000000E+00 0. -1.
         24    2    1    2    0    0 -0.49839917190E+02  0.17422049567E+02 -0.79053289002E+03  0.79634175638E+03  0.80189759928E+02 0.  0.
         25    2    1    2    0    0  0.45398088691E+02 -0.12513903240E+03  0.94852924959E+02  0.20582915159E+03  0.12509116031E+03 0.  0.
        -24    2    1    2    0    0  0.44418284985E+01  0.10771698283E+03  0.81839906843E+03  0.82914232472E+03  0.77956918961E+02 0.  0.
        -13    1    3    3    0    0 -0.13098869004E+02  0.15420807392E+01 -0.15825594565E+02  0.20601160781E+02  0.00000000000E+00 0.  1.
         14    1    3    3    0    0 -0.36741048185E+02  0.15879968828E+02 -0.77470729545E+03  0.77574059560E+03  0.00000000000E+00 0. -1.
         11    1    5    5    0    0 -0.38858029719E+00  0.12896168299E+02  0.39575725776E+03  0.39596751031E+03  0.00000000000E+00 0. -1.
        -12    1    5    5    0    0  0.48304087957E+01  0.94820814531E+02  0.42264181067E+03  0.43317481441E+03  0.00000000000E+00 0.  1.
          5    1    4    4  501    0  0.24382227046E+02 -0.14255597327E+03  0.10233630646E+03  0.17721989315E+03  0.41800000000E+01 0. -1.
         -5    1    4    4    0  501  0.21015861645E+02  0.17416940869E+02 -0.74833815001E+01  0.28609258442E+02  0.41800000000E+01 0. -1.
</event>
<event>
11    1  0.7577197E-009  0.6990287E+03  0.7561462E-02  0.9033737E-01
         22   -1    0    0    0    0  0.00000000000E+00  0.00000000000E+00  0.99580977973E+02  0.99580977973E+02  0.00000000000E+00 0. -1.
         22   -1    0    0    0    0 -0.00000000000E+00 -0.00000000000E+00 -0.12267432021E+04  0.12267432021E+04  0.00000000000E+00 0. -1.
        -24    2    1    2    0    0 -0.31229074333E+02  0.24359847476E+02 -0.14130667743E+03  0.17110014119E+03  0.87971722589E+02 0.  0.
         25    2    1    2    0    0  0.21799852594E+03 -0.19988387892E+03 -0.41595389656E+03  0.52549247177E+03  0.12509105266E+03 0.  0.
         24    2    1    2    0    0 -0.18676945161E+03  0.17552403144E+03 -0.56990165012E+03  0.62973156710E+03  0.77990012996E+02 0.  0.
        -11    1    5    5    0    0 -0.20800329674E+02 -0.62600616920E+01 -0.43617451376E+02  0.48727037171E+02  0.00000000000E+00 0.  1.
         12    1    5    5    0    0 -0.16596912194E+03  0.18178409313E+03 -0.52628419874E+03  0.58100452993E+03  0.00000000000E+00 0. -1.
         13    1    3    3    0    0 -0.17917769974E+02 -0.26120716500E+02 -0.16285776422E+02  0.35616917680E+02  0.00000000000E+00 0. -1.
        -14    1    3    3    0    0 -0.13311304359E+02  0.50480563977E+02 -0.12502090101E+03  0.13548322351E+03  0.00000000000E+00 0.  1.
          5    1    4    4  501    0  0.10871256593E+02  0.75938365876E+01 -0.72900051386E+02  0.74214152734E+02  0.41800000000E+01 0.  1.
         -5    1    4    4    0  501  0.20712726935E+03 -0.20747771551E+03 -0.34305384518E+03  0.45127831903E+03  0.41800000000E+01 0.  1.
</event>
<event>
11    1  0.7577197E-009  0.1341202E+03  0.7561462E-02  0.1114308E+00
         22   -1    0    0    0    0  0.00000000000E+00  0.00000000000E+00  0.68147092639E+02  0.68147092639E+02  0.00000000000E+00 0.  1.
         22   -1    0    0    0    0 -0.00000000000E+00 -0.00000000000E+00 -0.10811181243E+04  0.10811181243E+04  0.00000000000E+00 0.  1.
         24    2    1    2    0    0 -0.33101745714E+02 -0.37431837487E+02 -0.54011507870E+03  0.54824836751E+03  0.79718920027E+02 0.  0.
         25    2    1    2    0    0  0.10731576448E+02 -0.95378641812E+01 -0.48796198821E+03  0.50394600470E+03  0.12509410910E+03 0.  0.
        -24    2    1    2    0    0  0.22370169266E+02  0.46969701668E+02  0.15106035276E+02  0.97070844699E+02  0.80547993402E+02 0.  0.
        -13    1    3    3    0    0  0.73381907902E+01  0.20853203223E+02 -0.16614068755E+03  0.16760499153E+03  0.00000000000E+00 0.  1.
         14    1    3    3    0    0 -0.40439936504E+02 -0.58285040710E+02 -0.37397439115E+03  0.38064337597E+03  0.00000000000E+00 0. -1.
         13    1    5    5    0    0 -0.23308241934E+02  0.43737975726E+02  0.27334772505E+01  0.49636242410E+02  0.00000000000E+00 0. -1.
        -14    1    5    5    0    0  0.45678411199E+02  0.32317259416E+01  0.12372558026E+02  0.47434602290E+02  0.00000000000E+00 0.  1.
          5    1    4    4  501    0  0.44743120839E+02 -0.53659193045E+02 -0.27900063681E+03  0.28764576062E+03  0.41800000000E+01 0. -1.
         -5    1    4    4    0  501 -0.34011544390E+02  0.44121328864E+02 -0.20896135140E+03  0.21630024409E+03  0.41800000000E+01 0. -1.
</event>
<event>
11    1  0.7577197E-009  0.1584280E+03  0.7561462E-02  0.1088565E+00
         22   -1    0    0    0    0  0.00000000000E+00  0.00000000000E+00  0.38008225746E+03  0.38008225746E+03  0.00000000000E+00 0.  1.
         22   -1    0    0    0    0 -0.00000000000E+00 -0.00000000000E+00 -0.72554840746E+03  0.72554840746E+03  0.00000000000E+00 0. -1.
        -24    2    1    2    0    0  0.59600078695E+02  0.74166152553E+02 -0.62578905000E+03  0.63807229090E+03  0.80445793880E+02 0.  0.
         25    2    1    2    0    0 -0.97084419950E+02 -0.87459349075E+02  0.73153286874E+01  0.18103725262E+03  0.12508577244E+03 0.  0.
         24    2    1    2    0    0  0.37484341255E+02  0.13293196522E+02  0.27300757130E+03  0.28652112140E+03  0.77326800700E+02 0.  0.
        -13    1    5    5    0    0  0.16960418676E+02 -0.15038299006E+02  0.22985009173E+03  0.23096508590E+03  0.00000000000E+00 0.  1.
         14    1    5    5    0    0  0.20523922579E+02  0.28331495528E+02  0.43157479574E+02  0.55556035496E+02  0.00000000000E+00 0. -1.
         13    1    3    3    0    0  0.47216551032E+02  0.77332795394E+02 -0.61410954071E+03  0.62075783678E+03  0.00000000000E+00 0. -1.
        -14    1    3    3    0    0  0.12383527663E+02 -0.31666428410E+01 -0.11679509290E+02  0.17314454121E+02  0.00000000000E+00 0.  1.
          5    1    4    4  501    0 -0.64800309337E+01  0.17051368180E+02 -0.32096700938E+02  0.37153876902E+02  0.41800000000E+01 0. -1.
         -5    1    4    4    0  501 -0.90604389016E+02 -0.10451071725E+03  0.39412029625E+02  0.14388337572E+03  0.41800000000E+01 0. -1.
</event>
<event>
11    1  0.7577197E-009  0.1432464E+03  0.7561462E-02  0.1103987E+00
         22   -1    0    0    0    0  0.00000000000E+00  0.00000000000E+00  0.87868133272E+03  0.87868133272E+03  0.00000000000E+00 0.  1.
         22   -1    0    0    0    0 -0.00000000000E+00 -0.00000000000E+00 -0.74232909144E+03  0.74232909144E+03  0.00000000000E+00 0. -1.
         24    2    1    2    0    0 -0.35637469590E+00  0.70738394314E+02 -0.69197722677E+03  0.70039032733E+03  0.81915082970E+02 0.  0.
         25    2    1    2    0    0 -0.22771762249E+02 -0.46312440450E+02  0.60952575525E+02  0.14841338557E+03  0.12509165143E+03 0.  0.
        -24    2    1    2    0    0  0.23128136945E+02 -0.24425953864E+02  0.76737689252E+03  0.77220671126E+03  0.79400074252E+02 0.  0.
        -13    1    3    3    0    0  0.20608225464E+01  0.51238973956E+02 -0.15929160694E+03  0.16734244973E+03  0.00000000000E+00 0.  1.
         14    1    3    3    0    0 -0.24171972423E+01  0.19499420358E+02 -0.53268561983E+03  0.53304787760E+03  0.00000000000E+00 0. -1.
         11    1    5    5    0    0 -0.19369643568E+02  0.17343712258E+02  0.19198364024E+03  0.19373617517E+03  0.00000000000E+00 0. -1.
        -12    1    5    5    0    0  0.42497780513E+02 -0.41769666122E+02  0.57539325228E+03  0.57847053609E+03  0.00000000000E+00 0.  1.
          5    1    4    4  501    0 -0.52302899108E+02 -0.57071116322E+02  0.80019770171E+02  0.11141517667E+03  0.41800000000E+01 0.  1.
         -5    1    4    4    0  501  0.29531136859E+02  0.10758675872E+02 -0.19067194645E+02  0.36998208907E+02  0.41800000000E+01 0.  1.
</event>
<event>
11    1  0.7577197E-009  0.1450195E+03  0.7561462E-02  0.1102079E+00
         22   -1    0    0    0    0  0.00000000000E+00  0.00000000000E+00  0.58568955461E+02  0.58568955461E+02  0.00000000000E+00 0. -1.
         22   -1    0    0    0    0 -0.00000000000E+00 -0.00000000000E+00 -0.24796004675E+04  0.24796004675E+04  0.00000000000E+00 0. -1.
         24    2    1    2    0    0 -0.14278556772E+02 -0.43162739073E+02 -0.17890744056E+04  0.17914533000E+04  0.80316860340E+02 0.  0.
         25    2    1    2    0    0 -0.18970934472E+02  0.10531340305E+03 -0.61644168418E+03  0.63804314776E+03  0.12509156323E+03 0.  0.
        -24    2    1    2    0    0  0.33249491244E+02 -0.62150663977E+02 -0.15515422225E+02  0.10867297518E+03  0.81245636842E+02 0.  0.
        -11    1    3    3    0    0 -0.29568084182E+01 -0.48549774053E+02 -0.50927154802E+03  0.51158902734E+03  0.00000000000E+00 0.  1.
         12    1    3    3    0    0 -0.11321748354E+02  0.53870349802E+01 -0.12798028576E+04  0.12798642727E+04  0.00000000000E+00 0. -1.
         13    1    5    5    0    0 -0.72246562514E+00  0.19042479291E+02 -0.67817343238E+01  0.20226959598E+02  0.00000000000E+00 0. -1.
        -14    1    5    5    0    0  0.33971956870E+02 -0.81193143268E+02 -0.87336879016E+01  0.88446015578E+02  0.00000000000E+00 0.  1.
          5    1    4    4  501    0 -0.28398617884E+01  0.12734154451E+03 -0.39910877385E+03  0.41896207410E+03  0.41800000000E+01 0.  1.
         -5    1    4    4    0  501 -0.16131072684E+02 -0.22028141456E+02 -0.21733291033E+03  0.21908107366E+03  0.41800000000E+01 0.  1.
</event>
<event>
11    1  0.7577197E-009  0.1373013E+03  0.7561462E-02  0.1110610E+00
         22   -1    0    0    0    0  0.00000000000E+00  0.00000000000E+00  0.12272586411E+03  0.12272586411E+03  0.00000000000E+00 0. -1.
         22   -1    0    0    0    0 -0.00000000000E+00 -0.00000000000E+00 -0.10905671183E+04  0.10905671183E+04  0.00000000000E+00 0.  1.
        -24    2    1    2    0    0 -0.58826513509E+01 -0.55003241663E+02 -0.89305033389E+03  0.89833669957E+03  0.80062255481E+02 0.  0.
         25    2    1    2    0    0 -0.55771079244E+01  0.72236278942E+02 -0.14537604436E+03  0.20500933452E+03  0.12508176861E+03 0.  0.
         24    2    1    2    0    0  0.11459759275E+02 -0.17233037279E+02  0.70585124102E+02  0.10994694828E+03  0.81717611541E+02 0.  0.
        -11    1    5    5    0    0  0.20424403345E+02  0.15024763139E+02 -0.62671671789E+01  0.26118521088E+02  0.00000000000E+00 0.  1.
         12    1    5    5    0    0 -0.89646440692E+01 -0.32257800418E+02  0.76852291281E+02  0.83828427196E+02  0.00000000000E+00 0. -1.
         13    1    3    3    0    0 -0.15498067806E+02  0.12269775124E+02 -0.78277157117E+02  0.80734446264E+02  0.00000000000E+00 0. -1.
        -14    1    3    3    0    0  0.96154164552E+01 -0.67273016787E+02 -0.81477317678E+03  0.81760225331E+03  0.00000000000E+00 0.  1.
          5    1    4    4  501    0  0.30796870780E+02 -0.25307445943E+02 -0.46240255584E+02  0.61192709586E+02  0.41800000000E+01 0.  1.
         -5    1    4    4    0  501 -0.36373978705E+02  0.97543724885E+02 -0.99135788774E+02  0.14381662493E+03  0.41800000000E+01 0.  1.
</event>
<event>
11    1  0.7577197E-009  0.1341315E+03  0.7561462E-02  0.1114294E+00
         22   -1    0    0    0    0  0.00000000000E+00  0.00000000000E+00  0.22175375852E+03  0.22175375852E+03  0.00000000000E+00 0. -1.
         22   -1    0    0    0    0 -0.00000000000E+00 -0.00000000000E+00 -0.26656227786E+03  0.26656227786E+03  0.00000000000E+00 0. -1.
         24    2    1    2    0    0  0.24871963792E+02  0.44940957775E+02 -0.19731642741E+03  0.21950684319E+03  0.81309147147E+02 0.  0.
         25    2    1    2    0    0 -0.32001498128E+02 -0.84560173473E+00  0.82791922959E+02  0.15338670546E+03  0.12509263759E+03 0.  0.
        -24    2    1    2    0    0  0.71295343361E+01 -0.44095356040E+02  0.69715985114E+02  0.11542248773E+03  0.80416425000E+02 0.  0.
        -11    1    3    3    0    0  0.41469120107E+02  0.53655248089E+02 -0.10281784406E+03  0.12316688933E+03  0.00000000000E+00 0.  1.
         12    1    3    3    0    0 -0.16597156314E+02 -0.87142903136E+01 -0.94498583354E+02  0.96339953858E+02  0.00000000000E+00 0. -1.
         11    1    5    5    0    0 -0.35252852591E+02 -0.32515426198E+02  0.33761960871E+02  0.58650546106E+02  0.00000000000E+00 0. -1.
        -12    1    5    5    0    0  0.42382386927E+02 -0.11579929842E+02  0.35954024243E+02  0.56771941627E+02  0.00000000000E+00 0.  1.
          5    1    4    4  501    0  0.24495896795E+02 -0.16395506528E+02  0.89439827020E+02  0.94264609751E+02  0.41800000000E+01 0. -1.
         -5    1    4    4    0  501 -0.56497394924E+02  0.15549904793E+02 -0.66479040612E+01  0.59122095706E+02  0.41800000000E+01 0. -1.
</event>
<event>
11    1  0.7577197E-009  0.1690594E+03  0.7561462E-02  0.1078853E+00
         22   -1    0    0    0    0  0.00000000000E+00  0.00000000000E+00  0.68531519329E+03  0.68531519329E+03  0.00000000000E+00 0.  1.
         22   -1    0    0    0    0 -0.00000000000E+00 -0.00000000000E+00 -0.63064224060E+03  0.63064224060E+03  0.00000000000E+00 0.  1.
         24    2    1    2    0    0  0.92496283349E+02 -0.77187274501E+02 -0.57199132360E+03  0.58991749802E+03  0.79467870357E+02 0.  0.
         25    2    1    2    0    0 -0.49183029321E+02 -0.49139146096E+01  0.61190319535E+02  0.14776908206E+03  0.12509328310E+03 0.  0.
        -24    2    1    2    0    0 -0.43313254028E+02  0.82101189111E+02  0.56547395676E+03  0.57827085381E+03  0.77586992244E+02 0.  0.
        -13    1    3    3    0    0  0.87880952901E+02 -0.53434510245E+02 -0.30588669077E+03  0.32271500796E+03  0.00000000000E+00 0.  1.
         14    1    3    3    0    0  0.46153304486E+01 -0.23752764256E+02 -0.26610463283E+03  0.26720249007E+03  0.00000000000E+00 0. -1.
         11    1    5    5    0    0 -0.17833805145E+02  0.56129074462E+02  0.14909695645E+03  0.16030726754E+03  0.00000000000E+00 0. -1.
        -12    1    5    5    0    0 -0.25479448883E+02  0.25972114649E+02  0.41637700031E+03  0.41796358627E+03  0.00000000000E+00 0.  1.
          5    1    4    4  501    0 -0.80750686017E+02  0.21698888525E+02  0.13924037697E+02  0.84869701786E+02  0.41800000000E+01 0. -1.
         -5    1    4    4    0  501  0.31567656696E+02 -0.26612803135E+02  0.47266281838E+02  0.62899380273E+02  0.41800000000E+01 0. -1.
</event>
<event>
11    1  0.7577197E-009  0.1610400E+03  0.7561462E-02  0.1086103E+00
         22   -1    0    0    0    0  0.00000000000E+00  0.00000000000E+00  0.14150580191E+03  0.14150580191E+03  0.00000000000E+00 0. -1.
         22   -1    0    0    0    0 -0.00000000000E+00 -0.00000000000E+00 -0.10509055173E+04  0.10509055173E+04  0.00000000000E+00 0. -1.
         24    2    1    2    0    0 -0.87111793874E+02 -0.66460750852E+02 -0.86993641776E+03  0.88049780229E+03  0.80507843488E+02 0.  0.
         25    2    1    2    0    0  0.29582287241E+02  0.48991522507E+02 -0.12067006688E+03  0.18297102133E+03  0.12506737628E+03 0.  0.
        -24    2    1    2    0    0  0.57529506633E+02  0.17469228344E+02  0.81206769291E+02  0.12894249555E+03  0.80104991771E+02 0.  0.
        -13    1    3    3    0    0  0.20780319276E+01  0.57096801181E+01 -0.46842111380E+01  0.76720595493E+01  0.00000000000E+00 0.  1.
         14    1    3    3    0    0 -0.89189825801E+02 -0.72170430970E+02 -0.86525220662E+03  0.87282574274E+03  0.00000000000E+00 0. -1.
         11    1    5    5    0    0  0.36119600217E+02  0.23389693161E+02  0.93948229234E+02  0.10333427816E+03  0.00000000000E+00 0. -1.
        -12    1    5    5    0    0  0.21409906416E+02 -0.59204648163E+01 -0.12741459943E+02  0.25608217389E+02  0.00000000000E+00 0.  1.
          5    1    4    4  501    0 -0.12068606485E+02 -0.20795449795E+02 -0.94329951264E+02  0.97435692127E+02  0.41800000000E+01 0.  1.
         -5    1    4    4    0  501  0.41650893726E+02  0.69786972303E+02 -0.26340115613E+02  0.85535329203E+02  0.41800000000E+01 0.  1.
</event>
<event>
11    1  0.7577197E-009  0.2884283E+03  0.7561462E-02  0.1005211E+00
         22   -1    0    0    0    0  0.00000000000E+00  0.00000000000E+00  0.16701251572E+04  0.16701251572E+04  0.00000000000E+00 0.  1.
         22   -1    0    0    0    0 -0.00000000000E+00 -0.00000000000E+00 -0.71598805366E+03  0.71598805366E+03  0.00000000000E+00 0. -1.
        -24    2    1    2    0    0 -0.25963840826E+02  0.43824167650E+02 -0.59571826788E+03  0.60271594085E+03  0.76102378211E+02 0.  0.
         25    2    1    2    0    0  0.27355380704E+03 -0.10868452185E+03  0.14141373548E+03  0.34969917721E+03  0.12509060447E+03 0.  0.
         24    2    1    2    0    0 -0.24758996621E+03  0.64860354196E+02  0.14084416359E+04  0.14336980928E+04  0.79213146436E+02 0.  0.
        -13    1    5    5    0    0 -0.21035366897E+03  0.23060842729E+02  0.10839077354E+04  0.11043715169E+04  0.00000000000E+00 0.  1.
         14    1    5    5    0    0 -0.37236297236E+02  0.41799511467E+02  0.32453390051E+03  0.32932657587E+03  0.00000000000E+00 0. -1.
         11    1    3    3    0    0 -0.39368125933E+02  0.56389354029E+02 -0.37652968430E+03  0.38275868605E+03  0.00000000000E+00 0. -1.
        -12    1    3    3    0    0  0.13404285107E+02 -0.12565186379E+02 -0.21918858358E+03  0.21995725480E+03  0.00000000000E+00 0.  1.
          5    1    4    4  501    0  0.20695620404E+03 -0.12688998760E+03  0.14051804073E+03  0.28052581256E+03  0.41800000000E+01 0. -1.
         -5    1    4    4    0  501  0.66597602994E+02  0.18205465751E+02  0.89569475366E+00  0.69173364649E+02  0.41800000000E+01 0. -1.
</event>
<event>
11    1  0.7577197E-009  0.1658964E+03  0.7561462E-02  0.1081659E+00
         22   -1    0    0    0    0  0.00000000000E+00  0.00000000000E+00  0.30949482129E+03  0.30949482129E+03  0.00000000000E+00 0.  1.
         22   -1    0    0    0    0 -0.00000000000E+00 -0.00000000000E+00 -0.36519236841E+03  0.36519236841E+03  0.00000000000E+00 0. -1.
        -24    2    1    2    0    0  0.45150945195E+02 -0.10487224584E+03 -0.26011531254E+03  0.29496701259E+03  0.79427746415E+02 0.  0.
         25    2    1    2    0    0  0.18094853030E+02  0.96807976414E+02  0.61650414878E+01  0.15933224933E+03  0.12509816120E+03 0.  0.
         24    2    1    2    0    0 -0.63245798226E+02  0.80642694304E+01  0.19825272393E+03  0.22038792778E+03  0.72122345554E+02 0.  0.
        -13    1    5    5    0    0 -0.54550794887E+02 -0.20852805125E+02  0.16706068055E+03  0.17697429105E+03  0.00000000000E+00 0.  1.
         14    1    5    5    0    0 -0.86950033383E+01  0.28917074556E+02  0.31192043378E+02  0.43413636729E+02  0.00000000000E+00 0. -1.
         11    1    3    3    0    0  0.19748724683E+02 -0.10316642287E+03 -0.24172325070E+03  0.26355920182E+03  0.00000000000E+00 0. -1.
        -12    1    3    3    0    0  0.25402220512E+02 -0.17058229775E+01 -0.18392061836E+02  0.31407810773E+02  0.00000000000E+00 0.  1.
          5    1    4    4  501    0 -0.28075209730E+02  0.10420585215E+03  0.21148489740E+02  0.11005365983E+03  0.41800000000E+01 0. -1.
         -5    1    4    4    0  501  0.46170062760E+02 -0.73978757408E+01 -0.14983448252E+02  0.49278589492E+02  0.41800000000E+01 0. -1.
</event>
<event>
11    1  0.7577197E-009  0.1620458E+03  0.7561462E-02  0.1085169E+00
         22   -1    0    0    0    0  0.00000000000E+00  0.00000000000E+00  0.28875243903E+03  0.28875243903E+03  0.00000000000E+00 0.  1.
         22   -1    0    0    0    0 -0.00000000000E+00 -0.00000000000E+00 -0.49829026653E+03  0.49829026653E+03  0.00000000000E+00 0.  1.
        -24    2    1    2    0    0  0.94850631892E+02  0.32137699932E+01 -0.30884798708E+03  0.33271536944E+03  0.79406972309E+02 0.  0.
         25    2    1    2    0    0 -0.14021845732E+03 -0.78423948755E+02 -0.95759392588E+02  0.22500874292E+03  0.12509013395E+03 0.  0.
         24    2    1    2    0    0  0.45367825431E+02  0.75210178762E+02  0.19506955216E+03  0.22931859320E+03  0.82583754045E+02 0.  0.
        -13    1    5    5    0    0  0.23818532013E+02  0.34770986623E+02  0.17373280499E+03  0.17877200986E+03  0.00000000000E+00 0.  1.
         14    1    5    5    0    0  0.21549293418E+02  0.40439192139E+02  0.21336747169E+02  0.50546583341E+02  0.00000000000E+00 0. -1.
         11    1    3    3    0    0 -0.74359938474E+01  0.21718895298E+01 -0.41005345273E+00  0.77575287600E+01  0.00000000000E+00 0. -1.
        -12    1    3    3    0    0  0.10228662574E+03  0.10418804634E+01 -0.30843793362E+03  0.32495784068E+03  0.00000000000E+00 0.  1.
          5    1    4    4  501    0 -0.11621020985E+03 -0.52810846218E+01 -0.22305648212E+02  0.11852306556E+03  0.41800000000E+01 0.  1.
         -5    1    4    4    0  501 -0.24008247473E+02 -0.73142864133E+02 -0.73453744376E+02  0.10648567736E+03  0.41800000000E+01 0.  1.
</event>
<event>
11    1  0.7577197E-009  0.1860741E+03  0.7561462E-02  0.1064833E+00
         22   -1    0    0    0    0  0.00000000000E+00  0.00000000000E+00  0.26605018968E+03  0.26605018968E+03  0.00000000000E+00 0.  1.
         22   -1    0    0    0    0 -0.00000000000E+00 -0.00000000000E+00 -0.82434379714E+03  0.82434379714E+03  0.00000000000E+00 0.  1.
         24    2    1    2    0    0  0.12150514129E+02  0.70692956494E+01 -0.58899445502E+03  0.59497793327E+03  0.82985921089E+02 0.  0.
         25    2    1    2    0    0 -0.72197773732E+02  0.11704683261E+03 -0.16076448755E+03  0.24577370042E+03  0.12508801624E+03 0.  0.
        -24    2    1    2    0    0  0.60047259603E+02 -0.12411612826E+03  0.19146533511E+03  0.24964235313E+03  0.81558833044E+02 0.  0.
        -11    1    3    3    0    0  0.13026159799E+02 -0.36002465767E+02 -0.20229856426E+03  0.20588969737E+03  0.00000000000E+00 0.  1.
         12    1    3    3    0    0 -0.87564567030E+00  0.43071761416E+02 -0.38669589076E+03  0.38908823590E+03  0.00000000000E+00 0. -1.
         11    1    5    5    0    0  0.29633573047E+02 -0.57245235607E+02  0.27710525514E+02  0.70164370414E+02  0.00000000000E+00 0. -1.
        -12    1    5    5    0    0  0.30413686556E+02 -0.66870892655E+02  0.16375480960E+03  0.17947798272E+03  0.00000000000E+00 0.  1.
          5    1    4    4  501    0  0.42412626301E+01 -0.20291177184E+02 -0.47494922761E+02  0.51990001618E+02  0.41800000000E+01 0. -1.
         -5    1    4    4    0  501 -0.76439036362E+02  0.13733800980E+03 -0.11326956479E+03  0.19378369880E+03  0.41800000000E+01 0. -1.
</event>
<event>
11    1  0.7577197E-009  0.1435164E+03  0.7561462E-02  0.1103694E+00
         22   -1    0    0    0    0  0.00000000000E+00  0.00000000000E+00  0.76034351180E+03  0.76034351180E+03  0.00000000000E+00 0. -1.
         22   -1    0    0    0    0 -0.00000000000E+00 -0.00000000000E+00 -0.89794068816E+03  0.89794068816E+03  0.00000000000E+00 0. -1.
         24    2    1    2    0    0 -0.31512937135E+02  0.23706210253E+02 -0.46121659502E+03  0.46989593858E+03  0.80786112444E+02 0.  0.
         25    2    1    2    0    0  0.42527174907E+02 -0.92917622300E+02 -0.41315782695E+03  0.44361036025E+03  0.12509403109E+03 0.  0.
        -24    2    1    2    0    0 -0.11014237771E+02  0.69211412048E+02  0.73677724561E+03  0.74477790112E+03  0.83317941404E+02 0.  0.
        -11    1    3    3    0    0 -0.72094106766E+01  0.13065465847E+02 -0.10144300148E+02  0.18044080071E+02  0.00000000000E+00 0.  1.
         12    1    3    3    0    0 -0.24303526459E+02  0.10640744405E+02 -0.45107229487E+03  0.45185185851E+03  0.00000000000E+00 0. -1.
         13    1    5    5    0    0 -0.38431467132E+02  0.66337441590E+02  0.43143940979E+03  0.43819812658E+03  0.00000000000E+00 0. -1.
        -14    1    5    5    0    0  0.27417229360E+02  0.28739704576E+01  0.30533783582E+03  0.30657977454E+03  0.00000000000E+00 0.  1.
          5    1    4    4  501    0 -0.26019838799E+02 -0.50536496758E+02 -0.66032292615E+02  0.87227894527E+02  0.41800000000E+01 0. -1.
         -5    1    4    4    0  501  0.68547013705E+02 -0.42381125542E+02 -0.34712553433E+03  0.35638246573E+03  0.41800000000E+01 0. -1.
</event>
<event>
11    1  0.7577197E-009  0.1551699E+03  0.7561462E-02  0.1091710E+00
         22   -1    0    0    0    0  0.00000000000E+00  0.00000000000E+00  0.10727894089E+03  0.10727894089E+03  0.00000000000E+00 0.  1.
         22   -1    0    0    0    0 -0.00000000000E+00 -0.00000000000E+00 -0.17550170121E+04  0.17550170121E+04  0.00000000000E+00 0. -1.
        -24    2    1    2    0    0 -0.55567416352E+02  0.39185683935E+02 -0.12960471930E+04  0.13002777603E+04  0.79753819897E+02 0.  0.
         25    2    1    2    0    0  0.10952676511E+03 -0.10597015598E+03 -0.39194675238E+03  0.43874294954E+03  0.12508929944E+03 0.  0.
         24    2    1    2    0    0 -0.53959348761E+02  0.66784472040E+02  0.40255874132E+02  0.12327524321E+03  0.78768478229E+02 0.  0.
        -11    1    5    5    0    0 -0.70307732041E+02  0.61772851869E+02  0.47201548497E+02  0.10481912322E+03  0.00000000000E+00 0.  1.
         12    1    5    5    0    0  0.16348383281E+02  0.50116201707E+01 -0.69456743651E+01  0.18456119988E+02  0.00000000000E+00 0. -1.
         11    1    3    3    0    0 -0.57722516944E+02  0.56083986184E+02 -0.12026351749E+04  0.12053251289E+04  0.00000000000E+00 0. -1.
        -12    1    3    3    0    0  0.21551005921E+01 -0.16898302248E+02 -0.93412018085E+02  0.94952631350E+02  0.00000000000E+00 0.  1.
          5    1    4    4  501    0  0.13699992366E+03 -0.97157954830E+02 -0.33488632244E+03  0.37466647652E+03  0.41800000000E+01 0.  1.
         -5    1    4    4    0  501 -0.27473158547E+02 -0.88122011453E+01 -0.57060429935E+02  0.64076473014E+02  0.41800000000E+01 0.  1.
</event>
<event>
11    1  0.7577197E-009  0.1840227E+03  0.7561462E-02  0.1066435E+00
         22   -1    0    0    0    0  0.00000000000E+00  0.00000000000E+00  0.49399467415E+03  0.49399467415E+03  0.00000000000E+00 0. -1.
         22   -1    0    0    0    0 -0.00000000000E+00 -0.00000000000E+00 -0.14707535137E+04  0.14707535137E+04  0.00000000000E+00 0. -1.
        -24    2    1    2    0    0  0.68719930302E+02  0.11392657967E+03 -0.13487985581E+04  0.13579560004E+04  0.84173953182E+02 0.  0.
         25    2    1    2    0    0 -0.41008576681E+02 -0.19564220777E+03  0.22417036504E+02  0.23687312500E+03  0.12509507184E+03 0.  0.
         24    2    1    2    0    0 -0.27711353622E+02  0.81715628102E+02  0.34962268199E+03  0.36991906247E+03  0.84609278585E+02 0.  0.
        -11    1    5    5    0    0 -0.41520388085E+02  0.10964524312E+02  0.79662080836E+02  0.90499782007E+02  0.00000000000E+00 0.  1.
         12    1    5    5    0    0  0.13809034464E+02  0.70751103790E+02  0.26996060115E+03  0.27941928046E+03  0.00000000000E+00 0. -1.
         13    1    3    3    0    0  0.42869711291E+02  0.53931463119E+01 -0.27452697011E+03  0.27790637900E+03  0.00000000000E+00 0. -1.
        -14    1    3    3    0    0  0.25850219011E+02  0.10853343336E+03 -0.10742715880E+04  0.10800496214E+04  0.00000000000E+00 0.  1.
          5    1    4    4  501    0 -0.51449689174E+02 -0.12536097427E+03 -0.40902875759E+02  0.14160848150E+03  0.41800000000E+01 0.  1.
         -5    1    4    4    0  501  0.10441112494E+02 -0.70281233500E+02  0.63319912264E+02  0.95264643502E+02  0.41800000000E+01 0.  1.
</event>
<event>
11    1  0.7577197E-009  0.2067795E+03  0.7561462E-02  0.1049830E+00
         22   -1    0    0    0    0  0.00000000000E+00  0.00000000000E+00  0.15531378215E+04  0.15531378215E+04  0.00000000000E+00 0. -1.
         22   -1    0    0    0    0 -0.00000000000E+00 -0.00000000000E+00 -0.22192187282E+04  0.22192187282E+04  0.00000000000E+00 0. -1.
        -24    2    1    2    0    0 -0.78891635691E+02  0.32487936810E+01 -0.20412049203E+04  0.20442257007E+04  0.78145658877E+02 0.  0.
         25    2    1    2    0    0  0.23146970736E+03 -0.58387602990E+02 -0.64555335057E+02  0.27713229020E+03  0.12509027692E+03 0.  0.
         24    2    1    2    0    0 -0.15257807167E+03  0.55138809309E+02  0.14396793486E+04  0.14509985588E+04  0.79998966041E+02 0.  0.
        -11    1    5    5    0    0 -0.13956094817E+02 -0.86454910451E+01  0.43321040256E+02  0.46327417658E+02  0.00000000000E+00 0.  1.
         12    1    5    5    0    0 -0.13862197685E+03  0.63784300354E+02  0.13963583083E+04  0.14046711411E+04  0.00000000000E+00 0. -1.
         13    1    3    3    0    0 -0.30928073691E+02  0.30601516362E+02 -0.13911025193E+04  0.13917827480E+04  0.00000000000E+00 0. -1.
        -14    1    3    3    0    0 -0.47963562001E+02 -0.27352722681E+02 -0.65010240099E+03  0.65244295267E+03  0.00000000000E+00 0.  1.
          5    1    4    4  501    0  0.16356421580E+03 -0.97818402921E+02 -0.40298774441E+02  0.19484136178E+03  0.41800000000E+01 0.  1.
         -5    1    4    4    0  501  0.67905491564E+02  0.39430799931E+02 -0.24256560616E+02  0.82290928422E+02  0.41800000000E+01 0.  1.
</event>
<event>
11    1  0.7577197E-009  0.1896763E+03  0.7561462E-02  0.1062074E+00
         22   -1    0    0    0    0  0.00000000000E+00  0.00000000000E+00  0.75674393491E+03  0.75674393491E+03  0.00000000000E+00 0. -1.
         22   -1    0    0    0    0 -0.00000000000E+00 -0.00000000000E+00 -0.20455419263E+04  0.20455419263E+04  0.00000000000E+00 0.  1.
        -24    2    1    2    0    0 -0.16142280138E+03  0.27820565324E+02 -0.18795242650E+04  0.18884613085E+04  0.82724520793E+02 0.  0.
         25    2    1    2    0    0  0.50897254852E+01  0.40880190279E+02 -0.12017539822E+03  0.17828817879E+03  0.12508978015E+03 0.  0.
         24    2    1    2    0    0  0.15633307590E+03 -0.68700755603E+02  0.71090167184E+03  0.73553637391E+03  0.80453377075E+02 0.  0.
        -13    1    5    5    0    0  0.80436504872E+01  0.14555901758E+02  0.38048239689E+02  0.41524006702E+02  0.00000000000E+00 0.  1.
         14    1    5    5    0    0  0.14828942541E+03 -0.83256657360E+02  0.67285343215E+03  0.69401236721E+03  0.00000000000E+00 0. -1.
         13    1    3    3    0    0 -0.90432389850E+02  0.13621296451E+02 -0.60401000206E+03  0.61089413112E+03  0.00000000000E+00 0. -1.
        -14    1    3    3    0    0 -0.70990411533E+02  0.14199268873E+02 -0.12755142629E+04  0.12775671774E+04  0.00000000000E+00 0.  1.
          5    1    4    4  501    0  0.43551006161E+01  0.27993538464E+02  0.21597084542E+02  0.35867973986E+02  0.41800000000E+01 0.  1.
         -5    1    4    4    0  501  0.73462486916E+00  0.12886651814E+02 -0.14177248276E+03  0.14242020480E+03  0.41800000000E+01 0.  1.
</event>
<event>
11    1  0.7577197E-009  0.2217826E+03  0.7561462E-02  0.1040107E+00
         22   -1    0    0    0    0  0.00000000000E+00  0.00000000000E+00  0.12170200108E+04  0.12170200108E+04  0.00000000000E+00 0.  1.
         22   -1    0    0    0    0 -0.00000000000E+00 -0.00000000000E+00 -0.20779157742E+03  0.20779157742E+03  0.00000000000E+00 0. -1.
        -24    2    1    2    0    0  0.43673610416E+02  0.30082143065E+02 -0.14379941672E+03  0.17301385017E+03  0.80269549158E+02 0.  0.
         25    2    1    2    0    0  0.12170169678E+03  0.74264896928E+02  0.19994728077E+03  0.27559534917E+03  0.12508918211E+03 0.  0.
         24    2    1    2    0    0 -0.16537530720E+03 -0.10434703999E+03  0.95308056936E+03  0.97620238891E+03  0.79820019014E+02 0.  0.
        -13    1    5    5    0    0 -0.12761806656E+03 -0.42544188802E+02  0.70706098986E+03  0.71974413669E+03  0.00000000000E+00 0.  1.
         14    1    5    5    0    0 -0.37757240644E+02 -0.61802851191E+02  0.24601957950E+03  0.25645825222E+03  0.00000000000E+00 0. -1.
         11    1    3    3    0    0  0.38926867247E+01 -0.24877649160E+02 -0.60834084686E+02  0.65839473701E+02  0.00000000000E+00 0. -1.
        -12    1    3    3    0    0  0.39780923691E+02  0.54959792225E+02 -0.82965332037E+02  0.10717437647E+03  0.00000000000E+00 0.  1.
          5    1    4    4  501    0  0.13695102474E+03  0.62500383658E+02  0.20581893158E+03  0.25503095132E+03  0.41800000000E+01 0. -1.
         -5    1    4    4    0  501 -0.15249327957E+02  0.11764513271E+02 -0.58716508098E+01  0.20564397848E+02  0.41800000000E+01 0. -1.
</event>
<event>
11    1  0.7577197E-009  0.1865811E+03  0.7561462E-02  0.1064440E+00
         22   -1    0    0    0    0  0.00000000000E+00  0.00000000000E+00  0.39211866363E+04  0.39211866363E+04  0.00000000000E+00 0. -1.
         22   -1    0    0    0    0 -0.00000000000E+00 -0.00000000000E+00 -0.64093988652E+03  0.64093988652E+03  0.00000000000E+00 0. -1.
         24    2    1    2    0    0 -0.13841797188E+03 -0.73703594179E+01 -0.62288199794E+03  0.64278188095E+03  0.77283283938E+02 0.  0.
         25    2    1    2    0    0  0.10849897266E+03  0.88737131898E+02  0.13695711063E+04  0.13823966245E+04  0.12509638940E+03 0.  0.
        -24    2    1    2    0    0  0.29918999218E+02 -0.81366772481E+02  0.25335576415E+04  0.25369480174E+04  0.98362706768E+02 0.  0.
        -11    1    3    3    0    0 -0.25098839474E+02  0.26744480498E+02 -0.95877024025E+02  0.10265292356E+03  0.00000000000E+00 0.  1.
         12    1    3    3    0    0 -0.11331913240E+03 -0.34114839916E+02 -0.52700497392E+03  0.54012895739E+03  0.00000000000E+00 0. -1.
         11    1    5    5    0    0  0.38663911188E+02 -0.37899984264E+02  0.21730169414E+04  0.21736913153E+04  0.00000000000E+00 0. -1.
        -12    1    5    5    0    0 -0.87449119696E+01 -0.43466788216E+02  0.36054070012E+03  0.36325670208E+03  0.00000000000E+00 0.  1.
          5    1    4    4  501    0  0.11103436564E+03  0.20308384504E+02  0.10136748307E+04  0.10199486240E+04  0.41800000000E+01 0.  1.
         -5    1    4    4    0  501 -0.25353929807E+01  0.68428747394E+02  0.35589627554E+03  0.36244800045E+03  0.41800000000E+01 0.  1.
</event>
<event>
11    1  0.7577197E-009  0.1733575E+03  0.7561462E-02  0.1075146E+00
         22   -1    0    0    0    0  0.00000000000E+00  0.00000000000E+00  0.12070941239E+04  0.12070941239E+04  0.00000000000E+00 0. -1.
         22   -1    0    0    0    0 -0.00000000000E+00 -0.00000000000E+00 -0.11764930928E+03  0.11764930928E+03  0.00000000000E+00 0.  1.
        -24    2    1    2    0    0 -0.39998079282E+02 -0.62790144231E+02 -0.42001006148E+02  0.11700827619E+03  0.79902463178E+02 0.  0.
         25    2    1    2    0    0  0.63046368575E+02  0.16974230973E+03  0.34159329295E+03  0.40635003393E+03  0.12508827277E+03 0.  0.
         24    2    1    2    0    0 -0.23048289293E+02 -0.10695216550E+03  0.78985252786E+03  0.80138512311E+03  0.79881852924E+02 0.  0.
        -13    1    5    5    0    0  0.37701366958E+01 -0.29893272083E+02  0.61576975027E+02  0.68553231142E+02  0.00000000000E+00 0.  1.
         14    1    5    5    0    0 -0.26818425989E+02 -0.77058893413E+02  0.72827555283E+03  0.73283189197E+03  0.00000000000E+00 0. -1.
         11    1    3    3    0    0  0.23940930740E+02 -0.19880617001E+02 -0.19740997854E+02  0.36852599547E+02  0.00000000000E+00 0. -1.
        -12    1    3    3    0    0 -0.63939010022E+02 -0.42909527230E+02 -0.22260008293E+02  0.80155676648E+02  0.00000000000E+00 0.  1.
          5    1    4    4  501    0  0.37933918313E+02  0.18548846238E+03  0.30580747480E+03  0.35969519857E+03  0.41800000000E+01 0. -1.
         -5    1    4    4    0  501  0.25112450262E+02 -0.15746152650E+02  0.35785818155E+02  0.46654835360E+02  0.41800000000E+01 0. -1.
</event>
<event>
11    1  0.7577197E-009  0.1943789E+03  0.7561462E-02  0.1058571E+00
         22   -1    0    0    0    0  0.00000000000E+00  0.00000000000E+00  0.21610426479E+03  0.21610426479E+03  0.00000000000E+00 0.  1.
         22   -1    0    0    0    0 -0.00000000000E+00 -0.00000000000E+00 -0.15066306983E+04  0.15066306983E+04  0.00000000000E+00 0. -1.
        -24    2    1    2    0    0  0.71629191750E+02 -0.12954629943E+03 -0.13969648180E+04  0.14071658014E+04  0.81804065257E+02 0.  0.
         25    2    1    2    0    0 -0.10016731645E+03  0.14291783282E+03  0.10126252453E+03  0.23740594320E+03  0.12509390380E+03 0.  0.
         24    2    1    2    0    0  0.28538124705E+02 -0.13371533396E+02  0.51758600094E+01  0.78163218442E+02  0.71340568567E+02 0.  0.
        -11    1    5    5    0    0  0.13605925544E+02 -0.41208246784E+02 -0.76580625997E+01  0.44066843949E+02  0.00000000000E+00 0.  1.
         12    1    5    5    0    0  0.14932199161E+02  0.27836713388E+02  0.12833922609E+02  0.34096374493E+02  0.00000000000E+00 0. -1.
         13    1    3    3    0    0  0.85974988137E+02 -0.11007690323E+03 -0.12879132696E+04  0.12954648638E+04  0.00000000000E+00 0. -1.
        -14    1    3    3    0    0 -0.14345796387E+02 -0.19469396198E+02 -0.10905154837E+03  0.11170093762E+03  0.00000000000E+00 0.  1.
          5    1    4    4  501    0 -0.27405882545E+01  0.86864705780E+02  0.88663179178E+02  0.12422407044E+03  0.41800000000E+01 0. -1.
         -5    1    4    4    0  501 -0.97426728200E+02  0.56053127045E+02  0.12599345353E+02  0.11318187277E+03  0.41800000000E+01 0. -1.
</event>
<event>
11    1  0.7577197E-009  0.1525616E+03  0.7561462E-02  0.1094290E+00
         22   -1    0    0    0    0  0.00000000000E+00  0.00000000000E+00  0.41883139250E+03  0.41883139250E+03  0.00000000000E+00 0.  1.
         22   -1    0    0    0    0 -0.00000000000E+00 -0.00000000000E+00 -0.91289575152E+03  0.91289575152E+03  0.00000000000E+00 0. -1.
        -24    2    1    2    0    0 -0.23733936311E+02 -0.85024673376E+02 -0.83445475489E+03  0.84309187854E+03  0.81833262676E+02 0.  0.
         25    2    1    2    0    0  0.19422092205E+02  0.68140020867E+02  0.74564324265E+01  0.14395671570E+03  0.12509059717E+03 0.  0.
         24    2    1    2    0    0  0.43118441060E+01  0.16884652510E+02  0.33293396344E+03  0.34467854979E+03  0.87490543389E+02 0.  0.
        -11    1    5    5    0    0  0.33990052263E+02 -0.21851642879E+02  0.15209824916E+03  0.15737437958E+03  0.00000000000E+00 0.  1.
         12    1    5    5    0    0 -0.29678208157E+02  0.38736295389E+02  0.18083571428E+03  0.18730417021E+03  0.00000000000E+00 0. -1.
         13    1    3    3    0    0 -0.49489828930E+02 -0.30288799552E+02 -0.48250937347E+03  0.48598554508E+03  0.00000000000E+00 0. -1.
        -14    1    3    3    0    0  0.25755892618E+02 -0.54735873824E+02 -0.35194538142E+03  0.35710633345E+03  0.00000000000E+00 0.  1.
          5    1    4    4  501    0 -0.52938216363E+02  0.30954853021E+02  0.10879086516E+02  0.62421827919E+02  0.41800000000E+01 0. -1.
         -5    1    4    4    0  501  0.72360308568E+02  0.37185167845E+02 -0.34226540900E+01  0.81534887777E+02  0.41800000000E+01 0. -1.
</event>
<event>
11    1  0.7577197E-009  0.2252050E+03  0.7561462E-02  0.1038005E+00
         22   -1    0    0    0    0  0.00000000000E+00  0.00000000000E+00  0.27613628365E+03  0.27613628365E+03  0.00000000000E+00 0.  1.
         22   -1    0    0    0    0 -0.00000000000E+00 -0.00000000000E+00 -0.69734121172E+03  0.69734121172E+03  0.00000000000E+00 0.  1.
        -24    2    1    2    0    0 -0.31753154903E+02  0.32087220420E+02 -0.42174675913E+03  0.43153305939E+03  0.79451871908E+02 0.  0.
         25    2    1    2    0    0 -0.91012104528E+02  0.11988662957E+03 -0.17863119468E+03  0.26498715541E+03  0.12511227638E+03 0.  0.
         24    2    1    2    0    0  0.12276525943E+03 -0.15197384999E+03  0.17917302574E+03  0.27695728058E+03  0.80218464884E+02 0.  0.
        -13    1    5    5    0    0  0.12598469049E+03 -0.15551407488E+03  0.18271723532E+03  0.27100250517E+03  0.00000000000E+00 0.  1.
         14    1    5    5    0    0 -0.32194310583E+01  0.35402248930E+01 -0.35442095801E+01  0.59547754097E+01  0.00000000000E+00 0. -1.
         11    1    3    3    0    0 -0.71265611724E+01  0.77377286744E+01 -0.24403111513E+01  0.10798862797E+02  0.00000000000E+00 0. -1.
        -12    1    3    3    0    0 -0.24626593730E+02  0.24349491745E+02 -0.41930644798E+03  0.42073419660E+03  0.00000000000E+00 0.  1.
          5    1    4    4  501    0  0.25245676472E+02  0.36746644156E+01 -0.59268591868E+01  0.26522582810E+02  0.41800000000E+01 0. -1.
         -5    1    4    4    0  501 -0.11625778100E+03  0.11621196515E+03 -0.17270433549E+03  0.23846457260E+03  0.41800000000E+01 0. -1.
</event>
<event>
11    1  0.7577197E-009  0.1362486E+03  0.7561462E-02  0.1111821E+00
         22   -1    0    0    0    0  0.00000000000E+00  0.00000000000E+00  0.84245396727E+02  0.84245396727E+02  0.00000000000E+00 0.  1.
         22   -1    0    0    0    0 -0.00000000000E+00 -0.00000000000E+00 -0.70974761701E+03  0.70974761701E+03  0.00000000000E+00 0.  1.
         24    2    1    2    0    0 -0.10639959295E+02 -0.59330178156E+02 -0.51820295461E+03  0.52799439558E+03  0.81304986455E+02 0.  0.
         25    2    1    2    0    0 -0.86990623864E+01  0.21658667564E+02 -0.12627785478E+03  0.17927337237E+03  0.12509226142E+03 0.  0.
        -24    2    1    2    0    0  0.19339021681E+02  0.37671510592E+02  0.18978589100E+02  0.86725245793E+02  0.73266233313E+02 0.  0.
        -13    1    3    3    0    0 -0.82550328624E+01 -0.78877524778E+02 -0.45273279719E+03  0.45962679984E+03  0.00000000000E+00 0.  1.
         14    1    3    3    0    0 -0.23849264327E+01  0.19547346622E+02 -0.65470157417E+02  0.68367595733E+02  0.00000000000E+00 0. -1.
         11    1    5    5    0    0  0.13493732268E+02  0.33220360941E+01 -0.26208312198E+02  0.29664665219E+02  0.00000000000E+00 0. -1.
        -12    1    5    5    0    0  0.58452894137E+01  0.34349474498E+02  0.45186901297E+02  0.57060580574E+02  0.00000000000E+00 0.  1.
          5    1    4    4  501    0 -0.52460927576E+02 -0.50066747068E+01 -0.12361002882E+02  0.54290722098E+02  0.41800000000E+01 0. -1.
         -5    1    4    4    0  501  0.43761865189E+02  0.26665342271E+02 -0.11391685190E+03  0.12498265027E+03  0.41800000000E+01 0. -1.
</event>
<event>
11    1  0.7577197E-009  0.1285684E+03  0.7561462E-02  0.1121041E+00
         22   -1    0    0    0    0  0.00000000000E+00  0.00000000000E+00  0.33569280113E+03  0.33569280113E+03  0.00000000000E+00 0.  1.
         22   -1    0    0    0    0 -0.00000000000E+00 -0.00000000000E+00 -0.42524121633E+03  0.42524121633E+03  0.00000000000E+00 0. -1.
         24    2    1    2    0    0 -0.10535712425E+02 -0.54163705816E+00 -0.33696779558E+03  0.34634753348E+03  0.79360091265E+02 0.  0.
         25    2    1    2    0    0  0.31708351778E+02  0.20454951760E+02 -0.21552657445E+02  0.13242262964E+03  0.12508961257E+03 0.  0.
        -24    2    1    2    0    0 -0.21172639353E+02 -0.19913314702E+02  0.26897203782E+03  0.28216385434E+03  0.80160232085E+02 0.  0.
        -13    1    3    3    0    0  0.21368467663E+02 -0.17303101582E+02 -0.49452315607E+02  0.56582154903E+02  0.00000000000E+00 0.  1.
         14    1    3    3    0    0 -0.31904180088E+02  0.16761464524E+02 -0.28751547997E+03  0.28976537858E+03  0.00000000000E+00 0. -1.
         11    1    5    5    0    0 -0.38506927166E+01  0.30355107500E+02  0.12491561052E+03  0.12860859279E+03  0.00000000000E+00 0. -1.
        -12    1    5    5    0    0 -0.17321946636E+02 -0.50268422202E+02  0.14405642730E+03  0.15355526156E+03  0.00000000000E+00 0.  1.
          5    1    4    4  501    0 -0.12638001948E+02 -0.31498293623E+02  0.30986502527E+02  0.46146476932E+02  0.41800000000E+01 0.  1.
         -5    1    4    4    0  501  0.44346353726E+02  0.51953245383E+02 -0.52539159972E+02  0.86276152703E+02  0.41800000000E+01 0.  1.
</event>
<event>
11    1  0.7577197E-009  0.1554910E+03  0.7561462E-02  0.1091397E+00
         22   -1    0    0    0    0  0.00000000000E+00  0.00000000000E+00  0.70189192536E+03  0.70189192536E+03  0.00000000000E+00 0.  1.
         22   -1    0    0    0    0 -0.00000000000E+00 -0.00000000000E+00 -0.41895369273E+03  0.41895369273E+03  0.00000000000E+00 0.  1.
        -24    2    1    2    0    0  0.68868937511E+02  0.41276715916E+01 -0.35262895971E+03  0.36805975068E+03  0.79754803086E+02 0.  0.
         25    2    1    2    0    0 -0.94474032747E+02 -0.89688748139E+02  0.10551739340E+03  0.20916653352E+03  0.12508918430E+03 0.  0.
         24    2    1    2    0    0  0.25605095235E+02  0.85561076547E+02  0.53004979894E+03  0.54361933389E+03  0.81196503001E+02 0.  0.
        -11    1    5    5    0    0  0.49856219747E+02  0.82183147595E+02  0.43083900639E+03  0.44143171819E+03  0.00000000000E+00 0.  1.
         12    1    5    5    0    0 -0.24251124512E+02  0.33779289527E+01  0.99210792546E+02  0.10218761570E+03  0.00000000000E+00 0. -1.
         11    1    3    3    0    0 -0.87689876022E+00 -0.19718822483E+02 -0.23085039252E+02  0.30373013496E+02  0.00000000000E+00 0. -1.
        -12    1    3    3    0    0  0.69745836272E+02  0.23846494075E+02 -0.32954392046E+03  0.33768673718E+03  0.00000000000E+00 0.  1.
          5    1    4    4  501    0 -0.10954232223E+02 -0.95371053250E+02  0.47186308704E+02  0.10704976941E+03  0.41800000000E+01 0. -1.
         -5    1    4    4    0  501 -0.83519800523E+02  0.56823051109E+01  0.58331084700E+02  0.10211676411E+03  0.41800000000E+01 0. -1.
</event>
<event>
11    1  0.7577197E-009  0.1263603E+03  0.7561462E-02  0.1123824E+00
         22   -1    0    0    0    0  0.00000000000E+00  0.00000000000E+00  0.16095974073E+03  0.16095974073E+03  0.00000000000E+00 0. -1.
         22   -1    0    0    0    0 -0.00000000000E+00 -0.00000000000E+00 -0.93390126151E+03  0.93390126151E+03  0.00000000000E+00 0. -1.
        -24    2    1    2    0    0  0.17173972381E+02  0.13008901377E+02 -0.84380997026E+03  0.84760803327E+03  0.77200617276E+02 0.  0.
         25    2    1    2    0    0 -0.30948540047E+02 -0.56467005118E+01 -0.12149752433E+02  0.12956474508E+03  0.12509879826E+03 0.  0.
         24    2    1    2    0    0  0.13774567666E+02 -0.73622008652E+01  0.83018201911E+02  0.11768822389E+03  0.81942391212E+02 0.  0.
        -13    1    5    5    0    0 -0.95986876252E+00 -0.38010691906E+02  0.72880693615E+02  0.82202977738E+02  0.00000000000E+00 0.  1.
         14    1    5    5    0    0  0.14734436428E+02  0.30648491040E+02  0.10137508296E+02  0.35485246151E+02  0.00000000000E+00 0. -1.
         11    1    3    3    0    0  0.15745681768E+02 -0.29798908020E+02 -0.50105839526E+03  0.50219061806E+03  0.00000000000E+00 0. -1.
        -12    1    3    3    0    0  0.14282906138E+01  0.42807809397E+02 -0.34275157500E+03  0.34541741520E+03  0.00000000000E+00 0.  1.
          5    1    4    4  501    0 -0.48196884814E+02 -0.24626174371E+02  0.42571830662E+02  0.68987109925E+02  0.41800000000E+01 0. -1.
         -5    1    4    4    0  501  0.17248344766E+02  0.18979473859E+02 -0.54721583095E+02  0.60577635160E+02  0.41800000000E+01 0. -1.
</event>
<event>
11    1  0.7577197E-009  0.1515888E+03  0.7561462E-02  0.1095266E+00
         22   -1    0    0    0    0  0.00000000000E+00  0.00000000000E+00  0.38765385663E+03  0.38765385663E+03  0.00000000000E+00 0.  1.
         22   -1    0    0    0    0 -0.00000000000E+00 -0.00000000000E+00 -0.58082978523E+03  0.58082978523E+03  0.00000000000E+00 0.  1.
         24    2    1    2    0    0  0.54079662898E+02 -0.70250484135E+02 -0.51818972666E+03  0.53245228270E+03  0.84410307915E+02 0.  0.
         25    2    1    2    0    0 -0.76227495001E+02 -0.29259589967E+02  0.11706547275E+03  0.18978624024E+03  0.12509091683E+03 0.  0.
        -24    2    1    2    0    0  0.22147832103E+02  0.99510074102E+02  0.20794832531E+03  0.24624511893E+03  0.83674197220E+02 0.  0.
        -11    1    3    3    0    0  0.32579498624E+02 -0.84874913039E+02 -0.45719323860E+03  0.46614464709E+03  0.00000000000E+00 0.  1.
         12    1    3    3    0    0  0.21500164274E+02  0.14624428905E+02 -0.60996488059E+02  0.66307635610E+02  0.00000000000E+00 0. -1.
         13    1    5    5    0    0 -0.29623626143E+02  0.59424819494E+02  0.10633100897E+03  0.12536008881E+03  0.00000000000E+00 0. -1.
        -14    1    5    5    0    0  0.51771458246E+02  0.40085254608E+02  0.10161731634E+03  0.12088503011E+03  0.00000000000E+00 0.  1.
          5    1    4    4  501    0 -0.85525548642E+02 -0.22823946825E+02  0.18552725294E+02  0.90538544471E+02  0.41800000000E+01 0.  1.
         -5    1    4    4    0  501  0.92980536406E+01 -0.64356431424E+01  0.98512747451E+02  0.99247695764E+02  0.41800000000E+01 0.  1.
</event>
<event>
11    1  0.7577197E-009  0.1636757E+03  0.7561462E-02  0.1083670E+00
         22   -1    0    0    0    0  0.00000000000E+00  0.00000000000E+00  0.58714354402E+03  0.58714354402E+03  0.00000000000E+00 0. -1.
         22   -1    0    0    0    0 -0.00000000000E+00 -0.00000000000E+00 -0.33731912658E+04  0.33731912658E+04  0.00000000000E+00 0.  1.
         24    2    1    2    0    0  0.27895462123E+02 -0.88045484961E+02 -0.30695649634E+04  0.30719892007E+04  0.79739703911E+02 0.  0.
         25    2    1    2    0    0  0.68982715706E+02  0.12931611992E+03 -0.26298590347E+03  0.32602053731E+03  0.12508609591E+03 0.  0.
        -24    2    1    2    0    0 -0.96878177829E+02 -0.41270634958E+02  0.54650314509E+03  0.56232507183E+03  0.80343961578E+02 0.  0.
        -13    1    3    3    0    0  0.31253924740E+02 -0.10180744324E+03 -0.28325374398E+04  0.28345387475E+04  0.00000000000E+00 0.  1.
         14    1    3    3    0    0 -0.33584626171E+01  0.13761958275E+02 -0.23702752359E+03  0.23745045316E+03  0.00000000000E+00 0. -1.
         13    1    5    5    0    0 -0.86684651112E+02 -0.52678039822E+02  0.53078734552E+03  0.54039283006E+03  0.00000000000E+00 0. -1.
        -14    1    5    5    0    0 -0.10193526717E+02  0.11407404865E+02  0.15715799568E+02  0.21932241763E+02  0.00000000000E+00 0.  1.
          5    1    4    4  501    0  0.74681428101E+02  0.65368892094E+02 -0.23637056659E+03  0.25639603138E+03  0.41800000000E+01 0. -1.
         -5    1    4    4    0  501 -0.56987123943E+01  0.63947227825E+02 -0.26615336879E+02  0.69624505935E+02  0.41800000000E+01 0. -1.
</event>
<event>
11    1  0.7577197E-009  0.1463707E+03  0.7561462E-02  0.1100646E+00
         22   -1    0    0    0    0  0.00000000000E+00  0.00000000000E+00  0.16753545885E+04  0.16753545885E+04  0.00000000000E+00 0. -1.
         22   -1    0    0    0    0 -0.00000000000E+00 -0.00000000000E+00 -0.85183977425E+02  0.85183977425E+02  0.00000000000E+00 0. -1.
         24    2    1    2    0    0  0.16799544604E+02  0.71472430064E+02 -0.62258460976E+01  0.10914162504E+03  0.80514596185E+02 0.  0.
         25    2    1    2    0    0 -0.81842511367E+02 -0.28714445626E+02  0.20385660186E+03  0.25441636506E+03  0.12508979428E+03 0.  0.
        -24    2    1    2    0    0  0.65042966763E+02 -0.42757984437E+02  0.13925398553E+04  0.13969805758E+04  0.79552799109E+02 0.  0.
        -11    1    3    3    0    0 -0.76768097758E+00  0.11731545673E+02  0.33348476910E+02  0.35360138718E+02  0.00000000000E+00 0.  1.
         12    1    3    3    0    0  0.17567225582E+02  0.59740884391E+02 -0.39574323008E+02  0.73781486323E+02  0.00000000000E+00 0. -1.
         11    1    5    5    0    0  0.12475330261E+02 -0.23917043248E+01  0.88980272692E+03  0.88989339078E+03  0.00000000000E+00 0. -1.
        -12    1    5    5    0    0  0.52567636502E+02 -0.40366280113E+02  0.50273712840E+03  0.50708718505E+03  0.00000000000E+00 0.  1.
          5    1    4    4  501    0 -0.87366230221E+02 -0.22445196153E+02  0.55978946181E+02  0.10624386961E+03  0.41800000000E+01 0.  1.
         -5    1    4    4    0  501  0.55237188539E+01 -0.62692494734E+01  0.14787765568E+03  0.14817249545E+03  0.41800000000E+01 0.  1.
</event>
<event>
11    1  0.7577197E-009  0.1301471E+03  0.7561462E-02  0.1119088E+00
         22   -1    0    0    0    0  0.00000000000E+00  0.00000000000E+00  0.14857993904E+03  0.14857993904E+03  0.00000000000E+00 0.  1.
         22   -1    0    0    0    0 -0.00000000000E+00 -0.00000000000E+00 -0.11763519634E+04  0.11763519634E+04  0.00000000000E+00 0.  1.
        -24    2    1    2    0    0  0.10520181650E+02 -0.33016637668E+02 -0.10509550899E+04  0.10545224678E+04  0.79437153784E+02 0.  0.
         25    2    1    2    0    0 -0.27408072186E+02 -0.28502508910E+01 -0.65456447088E+02  0.14384391480E+03  0.12508876452E+03 0.  0.
         24    2    1    2    0    0  0.16887890535E+02  0.35866888559E+02  0.88639512668E+02  0.12656551986E+03  0.81180250486E+02 0.  0.
        -13    1    5    5    0    0  0.30578001435E+02  0.56263731998E+02  0.52186120913E+02  0.82607583950E+02  0.00000000000E+00 0.  1.
         14    1    5    5    0    0 -0.13690110900E+02 -0.20396843439E+02  0.36453391755E+02  0.43957935907E+02  0.00000000000E+00 0. -1.
         11    1    3    3    0    0 -0.62419535344E+00  0.12909692626E+02 -0.32560528458E+02  0.35031953942E+02  0.00000000000E+00 0. -1.
        -12    1    3    3    0    0  0.11144377004E+02 -0.45926330294E+02 -0.10183945615E+04  0.10194905138E+04  0.00000000000E+00 0.  1.
          5    1    4    4  501    0 -0.50425648938E+02  0.48499490845E+02 -0.25007754352E+02  0.74416442140E+02  0.41800000000E+01 0.  1.
         -5    1    4    4    0  501  0.23017576752E+02 -0.51349741736E+02 -0.40448692736E+02  0.69427472660E+02  0.41800000000E+01 0.  1.
</event>
<event>
11    1  0.7577197E-009  0.1458179E+03  0.7561462E-02  0.1101230E+00
         22   -1    0    0    0    0  0.00000000000E+00  0.00000000000E+00  0.19428442492E+03  0.19428442492E+03  0.00000000000E+00 0.  1.
         22   -1    0    0    0    0 -0.00000000000E+00 -0.00000000000E+00 -0.10394578609E+04  0.10394578609E+04  0.00000000000E+00 0. -1.
        -24    2    1    2    0    0  0.12776473692E+02  0.40651983298E+01 -0.51227217419E+03  0.51932764326E+03  0.84253525074E+02 0.  0.
         25    2    1    2    0    0 -0.74990507361E+02  0.37221240639E+02 -0.49578732440E+03  0.51813280471E+03  0.12509010886E+03 0.  0.
         24    2    1    2    0    0  0.62214033668E+02 -0.41286438969E+02  0.16288606255E+03  0.19628183791E+03  0.80121997534E+02 0.  0.
        -13    1    5    5    0    0  0.48267465992E+02 -0.45830391473E+02  0.16803423622E+03  0.18073648663E+03  0.00000000000E+00 0.  1.
         14    1    5    5    0    0  0.13946567676E+02  0.45439525049E+01 -0.51481736649E+01  0.15545351279E+02  0.00000000000E+00 0. -1.
         11    1    3    3    0    0 -0.25346903665E+02 -0.26334289450E+02 -0.21731224302E+03  0.22036463258E+03  0.00000000000E+00 0. -1.
        -12    1    3    3    0    0  0.38123377358E+02  0.30399487780E+02 -0.29495993117E+03  0.29896301068E+03  0.00000000000E+00 0.  1.
          5    1    4    4  501    0 -0.13671952843E+02 -0.39051481850E+02 -0.71766970852E+02  0.82945229124E+02  0.41800000000E+01 0.  1.
         -5    1    4    4    0  501 -0.61318554518E+02  0.76272722489E+02 -0.42402035354E+03  0.43518757559E+03  0.41800000000E+01 0.  1.
</event>
<event>
11    1  0.7577197E-009  0.1511560E+03  0.7561462E-02  0.1095703E+00
         22   -1    0    0    0    0  0.00000000000E+00  0.00000000000E+00  0.61344715705E+03  0.61344715705E+03  0.00000000000E+00 0.  1.
         22   -1    0    0    0    0 -0.00000000000E+00 -0.00000000000E+00 -0.17229614020E+04  0.17229614020E+04  0.00000000000E+00 0.  1.
        -24    2    1    2    0    0 -0.19814381385E+02  0.82042910909E+02 -0.16657540200E+04  0.16695978808E+04  0.75478337311E+02 0.  0.
         25    2    1    2    0    0  0.42752948153E+02 -0.11357833166E+03  0.99983288963E+02  0.20092787968E+03  0.12508997866E+03 0.  0.
         24    2    1    2    0    0 -0.22938566768E+02  0.31535420750E+02  0.45625648605E+03  0.46588279862E+03  0.85767944939E+02 0.  0.
        -11    1    5    5    0    0  0.19898287280E+02  0.26729598653E+02  0.34439461835E+03  0.34600298616E+03  0.00000000000E+00 0.  1.
         12    1    5    5    0    0 -0.42836854047E+02  0.48058220964E+01  0.11186186770E+03  0.11987981247E+03  0.00000000000E+00 0. -1.
         13    1    3    3    0    0 -0.14531752417E+02  0.30605012907E+02 -0.19402427641E+03  0.19696004285E+03  0.00000000000E+00 0. -1.
        -14    1    3    3    0    0 -0.52826289681E+01  0.51437898002E+02 -0.14717297436E+04  0.14726378379E+04  0.00000000000E+00 0.  1.
          5    1    4    4  501    0  0.58218382272E+02 -0.48555476237E+02 -0.53463152056E+01  0.76112218423E+02  0.41800000000E+01 0.  1.
         -5    1    4    4    0  501 -0.15465434120E+02 -0.65022855422E+02  0.10532960417E+03  0.12481566125E+03  0.41800000000E+01 0.  1.
</event>
<event>
11    1  0.7577197E-009  0.1523620E+03  0.7561462E-02  0.1094489E+00
         22   -1    0    0    0    0  0.00000000000E+00  0.00000000000E+00  0.23812688417E+03  0.23812688417E+03  0.00000000000E+00 0. -1.
         22   -1    0    0    0    0 -0.00000000000E+00 -0.00000000000E+00 -0.20237589826E+04  0.20237589826E+04  0.00000000000E+00 0.  1.
         24    2    1    2    0    0 -0.13806793373E+02  0.83421683939E+02 -0.18020080421E+04  0.18064307608E+04  0.93857898270E+02 0.  0.
         25    2    1    2    0    0  0.52632360569E+02 -0.12423055285E+03 -0.16854239936E+03  0.24951480891E+03  0.12509078240E+03 0.  0.
        -24    2    1    2    0    0 -0.38825567196E+02  0.40808868915E+02  0.18491834301E+03  0.20594029702E+03  0.71019883874E+02 0.  0.
        -13    1    3    3    0    0 -0.14498014281E+02  0.10167612280E+03 -0.12841164069E+04  0.12882170519E+04  0.00000000000E+00 0.  1.
         14    1    3    3    0    0  0.69122090847E+00 -0.18254438863E+02 -0.51789163513E+03  0.51821370888E+03  0.00000000000E+00 0. -1.
         11    1    5    5    0    0 -0.59182449953E+02  0.31433993074E+02  0.12267334112E+03  0.13978342864E+03  0.00000000000E+00 0. -1.
        -12    1    5    5    0    0  0.20356882758E+02  0.93748758413E+01  0.62245001897E+02  0.66156868380E+02  0.00000000000E+00 0.  1.
          5    1    4    4  501    0  0.54382466153E+02 -0.11998568885E+03 -0.18771307233E+03  0.22936365902E+03  0.41800000000E+01 0.  1.
         -5    1    4    4    0  501 -0.17501055842E+01 -0.42448640033E+01  0.19170672969E+02  0.20151149894E+02  0.41800000000E+01 0.  1.
</event>
<event>
11    1  0.7577197E-009  0.1330542E+03  0.7561462E-02  0.1115572E+00
         22   -1    0    0    0    0  0.00000000000E+00  0.00000000000E+00  0.86073651629E+03  0.86073651629E+03  0.00000000000E+00 0.  1.
         22   -1    0    0    0    0 -0.00000000000E+00 -0.00000000000E+00 -0.15534509640E+04  0.15534509640E+04  0.00000000000E+00 0.  1.
         24    2    1    2    0    0 -0.16974518820E+02  0.39483035398E+02 -0.12400960437E+04  0.12437550519E+04  0.85096340490E+02 0.  0.
         25    2    1    2    0    0  0.54631040594E+02 -0.48481722046E+02 -0.29225293093E+03  0.32618301028E+03  0.12509417487E+03 0.  0.
        -24    2    1    2    0    0 -0.37656521774E+02  0.89986866486E+01  0.83963452693E+03  0.84424941811E+03  0.79195651155E+02 0.  0.
        -13    1    3    3    0    0 -0.27127157822E+01 -0.82927308036E+01 -0.89822511111E+03  0.89826748713E+03  0.00000000000E+00 0.  1.
         14    1    3    3    0    0 -0.14261803038E+02  0.47775766201E+02 -0.34187093256E+03  0.34548756474E+03  0.00000000000E+00 0. -1.
         13    1    5    5    0    0 -0.85718425307E+01 -0.13581432116E+02  0.32269013932E+02  0.36044708944E+02  0.00000000000E+00 0. -1.
        -14    1    5    5    0    0 -0.29084679243E+02  0.22580118764E+02  0.80736551300E+03  0.80820470916E+03  0.00000000000E+00 0.  1.
          5    1    4    4  501    0  0.23158270128E+02  0.29359624846E+02 -0.19056766787E+03  0.19424675411E+03  0.41800000000E+01 0.  1.
         -5    1    4    4    0  501  0.31472770467E+02 -0.77841346893E+02 -0.10168526307E+03  0.13193625617E+03  0.41800000000E+01 0.  1.
</event>
<event>
11    1  0.7577197E-009  0.1307176E+03  0.7561462E-02  0.1118390E+00
         22   -1    0    0    0    0  0.00000000000E+00  0.00000000000E+00  0.70448192609E+03  0.70448192609E+03  0.00000000000E+00 0.  1.
         22   -1    0    0    0    0 -0.00000000000E+00 -0.00000000000E+00 -0.45495069044E+03  0.45495069044E+03  0.00000000000E+00 0. -1.
        -24    2    1    2    0    0  0.72021202368E+01  0.41193570252E+02 -0.25264079500E+03  0.26737203359E+03  0.76887269937E+02 0.  0.
         25    2    1    2    0    0 -0.31226047297E+02 -0.18703529426E+02 -0.17003990506E+03  0.21420992581E+03  0.12508970765E+03 0.  0.
         24    2    1    2    0    0  0.24023927060E+02 -0.22490040827E+02  0.67221193571E+03  0.67785065713E+03  0.80806409747E+02 0.  0.
        -11    1    5    5    0    0  0.30342440984E+02  0.12058765563E+02  0.54208017837E+03  0.54306260904E+03  0.00000000000E+00 0.  1.
         12    1    5    5    0    0 -0.63185139235E+01 -0.34548806390E+02  0.13013175734E+03  0.13478804809E+03  0.00000000000E+00 0. -1.
         13    1    3    3    0    0 -0.19411135115E+02  0.39890541096E+02 -0.22360560127E+03  0.22796384001E+03  0.00000000000E+00 0. -1.
        -14    1    3    3    0    0  0.26613255352E+02  0.13030291566E+01 -0.29035193734E+02  0.39408193572E+02  0.00000000000E+00 0.  1.
          5    1    4    4  501    0  0.99675275603E+01  0.45612289962E+02 -0.10023808797E+03  0.11065703449E+03  0.41800000000E+01 0.  1.
         -5    1    4    4    0  501 -0.41193574857E+02 -0.64315819388E+02 -0.69801817092E+02  0.10355289133E+03  0.41800000000E+01 0.  1.
</event>
<event>
11    1  0.7577197E-009  0.1680156E+03  0.7561462E-02  0.1079772E+00
         22   -1    0    0    0    0  0.00000000000E+00  0.00000000000E+00  0.60168821026E+02  0.60168821026E+02  0.00000000000E+00 0. -1.
         22   -1    0    0    0    0 -0.00000000000E+00 -0.00000000000E+00 -0.36632885082E+04  0.36632885082E+04  0.00000000000E+00 0.  1.
         24    2    1    2    0    0 -0.25718447825E+02  0.11117761096E+02 -0.15520574445E+04  0.15547408954E+04  0.86901654615E+02 0.  0.
         25    2    1    2    0    0  0.33445548970E+02 -0.12247307879E+03 -0.20190521461E+04  0.20269039551E+04  0.12509922050E+03 0.  0.
        -24    2    1    2    0    0 -0.77271011449E+01  0.11135531769E+03 -0.32010096563E+02  0.14181247868E+03  0.81402812957E+02 0.  0.
        -11    1    3    3    0    0 -0.10183050600E+02  0.49146220340E+02 -0.87557130059E+03  0.87700863617E+03  0.00000000000E+00 0.  1.
         12    1    3    3    0    0 -0.15535397225E+02 -0.38028459244E+02 -0.67648614394E+03  0.67773225924E+03  0.00000000000E+00 0. -1.
         11    1    5    5    0    0  0.22911811009E+02  0.24818262381E+02  0.16928352986E+02  0.37781825871E+02  0.00000000000E+00 0. -1.
        -12    1    5    5    0    0 -0.30638912153E+02  0.86537055310E+02 -0.48938449550E+02  0.10403065281E+03  0.00000000000E+00 0.  1.
          5    1    4    4  501    0  0.16188420444E+02 -0.10101472282E+03 -0.68956506607E+03  0.69712516231E+03  0.41800000000E+01 0.  1.
         -5    1    4    4    0  501  0.17257128526E+02 -0.21458355967E+02 -0.13294870800E+04  0.13297787928E+04  0.41800000000E+01 0.  1.
</event>
<event>
11    1  0.7577197E-009  0.1302014E+03  0.7561462E-02  0.1119022E+00
         22   -1    0    0    0    0  0.00000000000E+00  0.00000000000E+00  0.21638849059E+03  0.21638849059E+03  0.00000000000E+00 0. -1.
         22   -1    0    0    0    0 -0.00000000000E+00 -0.00000000000E+00 -0.62246063428E+03  0.62246063428E+03  0.00000000000E+00 0.  1.
        -24    2    1    2    0    0 -0.19967790412E+02  0.37419657301E+02 -0.52366837974E+03  0.53026559917E+03  0.71791993388E+02 0.  0.
         25    2    1    2    0    0 -0.74675803248E+01 -0.58859763095E+02 -0.25805575905E+02  0.14082626824E+03  0.12508346658E+03 0.  0.
         24    2    1    2    0    0  0.27435370736E+02  0.21440105794E+02  0.14340181196E+03  0.16775725745E+03  0.79787468015E+02 0.  0.
        -13    1    5    5    0    0 -0.19886227277E+02  0.86783553641E+00  0.57001666893E+01  0.20705242672E+02  0.00000000000E+00 0.  1.
         14    1    5    5    0    0  0.47321598013E+02  0.20572270257E+02  0.13770164527E+03  0.14705201478E+03  0.00000000000E+00 0. -1.
         11    1    3    3    0    0  0.21538419808E+02 -0.34137326236E+01 -0.21903127047E+03  0.22011418524E+03  0.00000000000E+00 0. -1.
        -12    1    3    3    0    0 -0.41506210220E+02  0.40833389925E+02 -0.30463710926E+03  0.31015141393E+03  0.00000000000E+00 0.  1.
          5    1    4    4  501    0 -0.65387080657E+02 -0.20436682889E+02 -0.16368525980E+02  0.70558694482E+02  0.41800000000E+01 0.  1.
         -5    1    4    4    0  501  0.57919500332E+02 -0.38423080206E+02 -0.94370499246E+01  0.70267573763E+02  0.41800000000E+01 0.  1.
</event>
<event>
11    1  0.7577197E-009  0.1789991E+03  0.7561462E-02  0.1070455E+00
         22   -1    0    0    0    0  0.00000000000E+00  0.00000000000E+00  0.35605594669E+03  0.35605594669E+03  0.00000000000E+00 0. -1.
         22   -1    0    0    0    0 -0.00000000000E+00 -0.00000000000E+00 -0.22199719422E+04  0.22199719422E+04  0.00000000000E+00 0. -1.
         24    2    1    2    0    0  0.39275900388E+02 -0.11641069334E+03 -0.17711727939E+04  0.17772650444E+04  0.80770825725E+02 0.  0.
         25    2    1    2    0    0 -0.23227605958E+02  0.17456105262E+03 -0.41134480670E+03  0.46461144250E+03  0.12509260462E+03 0.  0.
        -24    2    1    2    0    0 -0.16048294430E+02 -0.58150359283E+02  0.31860160508E+03  0.33415140202E+03  0.80691788135E+02 0.  0.
        -13    1    3    3    0    0  0.40487020720E+02 -0.16705965761E+02 -0.73563618641E+03  0.73693886239E+03  0.00000000000E+00 0.  1.
         14    1    3    3    0    0 -0.12111203321E+01 -0.99704727576E+02 -0.10355366075E+04  0.10403261820E+04  0.00000000000E+00 0. -1.
         13    1    5    5    0    0  0.19371424388E+02 -0.35724367246E+02  0.25338247654E+03  0.25662065762E+03  0.00000000000E+00 0. -1.
        -14    1    5    5    0    0 -0.35419718818E+02 -0.22425992037E+02  0.65219128539E+02  0.77530744401E+02  0.00000000000E+00 0.  1.
          5    1    4    4  501    0 -0.24803441849E+02  0.12457458113E+02 -0.69546008381E+01  0.28917777629E+02  0.41800000000E+01 0.  1.
         -5    1    4    4    0  501  0.15758358911E+01  0.16210359451E+03 -0.40439020586E+03  0.43569366487E+03  0.41800000000E+01 0.  1.
</event>
<event>
11    1  0.7577197E-009  0.1393533E+03  0.7561462E-02  0.1108283E+00
         22   -1    0    0    0    0  0.00000000000E+00  0.00000000000E+00  0.35602667908E+03  0.35602667908E+03  0.00000000000E+00 0.  1.
         22   -1    0    0    0    0 -0.00000000000E+00 -0.00000000000E+00 -0.21059488784E+04  0.21059488784E+04  0.00000000000E+00 0.  1.
         24    2    1    2    0    0  0.57207291444E+02  0.35750139786E+02 -0.18023574088E+04  0.18054077865E+04  0.80338658601E+02 0.  0.
         25    2    1    2    0    0 -0.14358953796E+02  0.82242532745E+01 -0.28116105511E+03  0.30817459771E+03  0.12508487466E+03 0.  0.
        -24    2    1    2    0    0 -0.42848337648E+02 -0.43974393060E+02  0.33359626459E+03  0.34839317320E+03  0.79508541069E+02 0.  0.
        -13    1    3    3    0    0  0.19396494243E+02  0.24242947218E+02 -0.15179328736E+04  0.15182503592E+04  0.00000000000E+00 0.  1.
         14    1    3    3    0    0  0.37810797201E+02  0.11507192568E+02 -0.28442453511E+03  0.28715742728E+03  0.00000000000E+00 0. -1.
         13    1    5    5    0    0 -0.55000035607E+02 -0.27997480274E+00  0.17498203680E+03  0.18342245093E+03  0.00000000000E+00 0. -1.
        -14    1    5    5    0    0  0.12151697959E+02 -0.43694418258E+02  0.15861422779E+03  0.16497072227E+03  0.00000000000E+00 0.  1.
          5    1    4    4  501    0 -0.44018215723E+02  0.43465360721E+02 -0.23417650499E+03  0.24224563729E+03  0.41800000000E+01 0. -1.
         -5    1    4    4    0  501  0.29659261927E+02 -0.35241107446E+02 -0.46984550121E+02  0.65928960421E+02  0.41800000000E+01 0. -1.
</event>
<event>
11    1  0.7577197E-009  0.1289932E+03  0.7561462E-02  0.1120512E+00
         22   -1    0    0    0    0  0.00000000000E+00  0.00000000000E+00  0.79593806368E+03  0.79593806368E+03  0.00000000000E+00 0. -1.
         22   -1    0    0    0    0 -0.00000000000E+00 -0.00000000000E+00 -0.16657950006E+04  0.16657950006E+04  0.00000000000E+00 0.  1.
         24    2    1    2    0    0  0.23286548143E+02  0.82605830141E+01 -0.15995719995E+04  0.16017655922E+04  0.80074529717E+02 0.  0.
         25    2    1    2    0    0 -0.28547130822E+02  0.22941243184E+02  0.54923658458E+01  0.13045843733E+03  0.12509196005E+03 0.  0.
        -24    2    1    2    0    0  0.52605826782E+01 -0.31201826198E+02  0.72422269674E+03  0.72950903472E+03  0.81753835240E+02 0.  0.
        -11    1    3    3    0    0  0.31785745464E+02 -0.65485547564E+01 -0.15215944791E+04  0.15219405297E+04  0.00000000000E+00 0.  1.
         12    1    3    3    0    0 -0.84991973205E+01  0.14809137771E+02 -0.77977520421E+02  0.79825062528E+02  0.00000000000E+00 0. -1.
         11    1    5    5    0    0 -0.12860338870E+02 -0.28701484131E+02  0.68989568575E+03  0.69061220719E+03  0.00000000000E+00 0. -1.
        -12    1    5    5    0    0  0.18120921548E+02 -0.25003420669E+01  0.34327010993E+02  0.38896827531E+02  0.00000000000E+00 0.  1.
          5    1    4    4  501    0 -0.25044327377E+02  0.72398055893E+02 -0.12127926316E+02  0.77674035736E+02  0.41800000000E+01 0.  1.
         -5    1    4    4    0  501 -0.35028034446E+01 -0.49456812709E+02  0.17620292162E+02  0.52784401590E+02  0.41800000000E+01 0.  1.
</event>
<event>
11    1  0.7577197E-009  0.4090715E+03  0.7561462E-02  0.9623365E-01
         22   -1    0    0    0    0  0.00000000000E+00  0.00000000000E+00  0.89108830633E+03  0.89108830633E+03  0.00000000000E+00 0. -1.
         22   -1    0    0    0    0 -0.00000000000E+00 -0.00000000000E+00 -0.13571318189E+04  0.13571318189E+04  0.00000000000E+00 0. -1.
         24    2    1    2    0    0 -0.17179925480E+02  0.16391984676E+02 -0.87975198868E+03  0.88359827079E+03  0.78857438145E+02 0.  0.
         25    2    1    2    0    0 -0.27052416980E+03 -0.27915869387E+03 -0.32742522307E+03  0.52341874651E+03  0.12508798779E+03 0.  0.
        -24    2    1    2    0    0  0.28770409528E+03  0.26276670919E+03  0.74113369916E+03  0.84120310795E+03  0.80768303768E+02 0.  0.
        -13    1    3    3    0    0 -0.47791172866E+02  0.13020615075E+01 -0.55639182245E+03  0.55844207547E+03  0.00000000000E+00 0.  1.
         14    1    3    3    0    0  0.30611247386E+02  0.15089923169E+02 -0.32336016623E+03  0.32515619532E+03  0.00000000000E+00 0. -1.
         11    1    5    5    0    0  0.23035802338E+03  0.22787205292E+03  0.66474027194E+03  0.73950667379E+03  0.00000000000E+00 0. -1.
        -12    1    5    5    0    0  0.57346071905E+02  0.34894656272E+02  0.76393427221E+02  0.10169643416E+03  0.00000000000E+00 0.  1.
          5    1    4    4  501    0 -0.33866358305E+02 -0.11547376922E+03 -0.89701010181E+02  0.15014947629E+03  0.41800000000E+01 0.  1.
         -5    1    4    4    0  501 -0.23665781150E+03 -0.16368492465E+03 -0.23772421289E+03  0.37326927022E+03  0.41800000000E+01 0.  1.
</event>
<event>
11    1  0.7577197E-009  0.3136726E+03  0.7561462E-02  0.9945652E-01
         22   -1    0    0    0    0  0.00000000000E+00  0.00000000000E+00  0.77185979875E+03  0.77185979875E+03  0.00000000000E+00 0.  1.
         22   -1    0    0    0    0 -0.00000000000E+00 -0.00000000000E+00 -0.34337704391E+03  0.34337704391E+03  0.00000000000E+00 0.  1.
         24    2    1    2    0    0 -0.99513659367E+02 -0.10116432690E+03 -0.17639190969E+03  0.24148289045E+03  0.84039818775E+02 0.  0.
         25    2    1    2    0    0  0.12899687787E+03  0.32356035504E+03  0.47519119318E+03  0.60231759488E+03  0.12509323394E+03 0.  0.
        -24    2    1    2    0    0 -0.29483218501E+02 -0.22239602814E+03  0.12968347136E+03  0.27143635733E+03  0.80812374238E+02 0.  0.
        -11    1    3    3    0    0 -0.10319488935E+02 -0.60555262983E+02 -0.99418023135E+02  0.11686477250E+03  0.00000000000E+00 0.  1.
         12    1    3    3    0    0 -0.89194170433E+02 -0.40609063915E+02 -0.76973886556E+02  0.12461811796E+03  0.00000000000E+00 0. -1.
         11    1    5    5    0    0 -0.11763213521E+01 -0.33916492679E+02 -0.97213763410E+01  0.35301803998E+02  0.00000000000E+00 0. -1.
        -12    1    5    5    0    0 -0.28306897149E+02 -0.18847953546E+03  0.13940484770E+03  0.23613455333E+03  0.00000000000E+00 0.  1.
          5    1    4    4  501    0  0.10186329443E+03  0.17842224379E+03  0.18413091682E+03  0.27592081248E+03  0.41800000000E+01 0.  1.
         -5    1    4    4    0  501  0.27133583437E+02  0.14513811124E+03  0.29106027636E+03  0.32639678240E+03  0.41800000000E+01 0.  1.
</event>
<event>
11    1  0.7577197E-009  0.2058422E+03  0.7561462E-02  0.1050468E+00
         22   -1    0    0    0    0  0.00000000000E+00  0.00000000000E+00  0.21221782962E+03  0.21221782962E+03  0.00000000000E+00 0. -1.
         22   -1    0    0    0    0 -0.00000000000E+00 -0.00000000000E+00 -0.74880403556E+03  0.74880403556E+03  0.00000000000E+00 0. -1.
        -24    2    1    2    0    0  0.19452172263E+02 -0.40140344276E+01 -0.40274979678E+03  0.41038908679E+03  0.76271254560E+02 0.  0.
         25    2    1    2    0    0 -0.16185723119E+03  0.78889374569E+02 -0.25548908661E+03  0.33666901167E+03  0.12510017320E+03 0.  0.
         24    2    1    2    0    0  0.14240505892E+03 -0.74875340141E+02  0.12165267745E+03  0.21396376672E+03  0.71383486667E+02 0.  0.
        -13    1    5    5    0    0  0.38582439743E+02 -0.52019632359E+02  0.22416738710E+02  0.68535808025E+02  0.00000000000E+00 0.  1.
         14    1    5    5    0    0  0.10382261918E+03 -0.22855707782E+02  0.99235938738E+02  0.14542795869E+03  0.00000000000E+00 0. -1.
         13    1    3    3    0    0  0.40399946476E+02 -0.11343571371E+02 -0.35787102242E+03  0.36032277332E+03  0.00000000000E+00 0. -1.
        -14    1    3    3    0    0 -0.20947774213E+02  0.73295369435E+01 -0.44878774366E+02  0.50066313474E+02  0.00000000000E+00 0.  1.
          5    1    4    4  501    0 -0.12978187240E+03  0.37343981413E+02 -0.24942360655E+03  0.28366796657E+03  0.41800000000E+01 0. -1.
         -5    1    4    4    0  501 -0.32075358787E+02  0.41545393156E+02 -0.60654800595E+01  0.53001045105E+02  0.41800000000E+01 0. -1.
</event>
<event>
11    1  0.7577197E-009  0.1654206E+03  0.7561462E-02  0.1082087E+00
         22   -1    0    0    0    0  0.00000000000E+00  0.00000000000E+00  0.87642286607E+03  0.87642286607E+03  0.00000000000E+00 0.  1.
         22   -1    0    0    0    0 -0.00000000000E+00 -0.00000000000E+00 -0.11718488503E+04  0.11718488503E+04  0.00000000000E+00 0.  1.
         24    2    1    2    0    0  0.17417037563E+02 -0.45777678494E+02 -0.10129482735E+04  0.10174005191E+04  0.81490259698E+02 0.  0.
         25    2    1    2    0    0 -0.16319005404E+02  0.15241525910E+03 -0.86458710559E+02  0.21591541515E+03  0.12509051413E+03 0.  0.
        -24    2    1    2    0    0 -0.10980321591E+01 -0.10663758061E+03  0.80398099986E+03  0.81495578209E+03  0.79966864162E+02 0.  0.
        -13    1    3    3    0    0 -0.15767285215E+02 -0.57539100403E+02 -0.60382824461E+03  0.60676841081E+03  0.00000000000E+00 0.  1.
         14    1    3    3    0    0  0.33184322778E+02  0.11761421910E+02 -0.40912002887E+03  0.41063210827E+03  0.00000000000E+00 0. -1.
         11    1    5    5    0    0 -0.14652970475E+02  0.87658525182E+01  0.10818321252E+03  0.10952240494E+03  0.00000000000E+00 0. -1.
        -12    1    5    5    0    0  0.13554938316E+02 -0.11540343312E+03  0.69579778734E+03  0.70543337715E+03  0.00000000000E+00 0.  1.
          5    1    4    4  501    0  0.47078339682E+02  0.30106005314E+02 -0.45348350597E+02  0.72088049808E+02  0.41800000000E+01 0.  1.
         -5    1    4    4    0  501 -0.63397345087E+02  0.12230925379E+03 -0.41110359961E+02  0.14382736534E+03  0.41800000000E+01 0.  1.
</event>
<event>
11    1  0.7577197E-009  0.1919096E+03  0.7561462E-02  0.1060397E+00
         22   -1    0    0    0    0  0.00000000000E+00  0.00000000000E+00  0.15308407829E+04  0.15308407829E+04  0.00000000000E+00 0.  1.
         22   -1    0    0    0    0 -0.00000000000E+00 -0.00000000000E+00 -0.58371310500E+02  0.58371310500E+02  0.00000000000E+00 0. -1.
        -24    2    1    2    0    0  0.12928158572E+02  0.17366861750E+02  0.49050026076E+02  0.97160714485E+02  0.81028107531E+02 0.  0.
         25    2    1    2    0    0 -0.15253359937E+03 -0.45938866758E+02  0.33955795121E+03  0.39537876882E+03  0.12509152723E+03 0.  0.
         24    2    1    2    0    0  0.13960544080E+03  0.28572005008E+02  0.10838614951E+04  0.10966726101E+04  0.87344344848E+02 0.  0.
        -13    1    5    5    0    0  0.12186819870E+03  0.49402718551E+02  0.72957895610E+03  0.74133524106E+03  0.00000000000E+00 0.  1.
         14    1    5    5    0    0  0.17737242102E+02 -0.20830713543E+02  0.35428253903E+03  0.35533736905E+03  0.00000000000E+00 0. -1.
         11    1    3    3    0    0  0.38778315411E+02 -0.12123572290E+02  0.39785481732E+02  0.56864956764E+02  0.00000000000E+00 0. -1.
        -12    1    3    3    0    0 -0.25850156838E+02  0.29490434039E+02  0.92645443445E+01  0.40295757721E+02  0.00000000000E+00 0.  1.
          5    1    4    4  501    0 -0.11688959196E+03 -0.59806701718E+01  0.11372724354E+03  0.16324920657E+03  0.41800000000E+01 0. -1.
         -5    1    4    4    0  501 -0.35644007410E+02 -0.39958196586E+02  0.22583070768E+03  0.23212956225E+03  0.41800000000E+01 0. -1.
</event>
<event>
11    1  0.7577197E-009  0.2578245E+03  0.7561462E-02  0.1019812E+00
         22   -1    0    0    0    0  0.00000000000E+00  0.00000000000E+00  0.12501388876E+04  0.12501388876E+04  0.00000000000E+00 0. -1.
         22   -1    0    0    0    0 -0.00000000000E+00 -0.00000000000E+00 -0.39075866765E+03  0.39075866765E+03  0.00000000000E+00 0.  1.
         24    2    1    2    0    0 -0.13829474120E+03  0.17476154166E+03 -0.31491640258E+03  0.39397058126E+03  0.79833867455E+02 0.  0.
         25    2    1    2    0    0  0.14094610951E+03 -0.24224951401E+03  0.76819400747E+03  0.82723678543E+03  0.12509209904E+03 0.  0.
        -24    2    1    2    0    0 -0.26513683057E+01  0.67487972356E+02  0.40610261511E+03  0.41969018861E+03  0.81601864257E+02 0.  0.
        -11    1    3    3    0    0 -0.10792552234E+03  0.12861823462E+03 -0.28594301803E+03  0.33159309132E+03  0.00000000000E+00 0.  1.
         12    1    3    3    0    0 -0.30369218862E+02  0.46143307034E+02 -0.28973384551E+02  0.62377489936E+02  0.00000000000E+00 0. -1.
         11    1    5    5    0    0 -0.42050279136E+02  0.34946710513E+02  0.19871490163E+03  0.20609975905E+03  0.00000000000E+00 0. -1.
        -12    1    5    5    0    0  0.39398910831E+02  0.32541261843E+02  0.20738771348E+03  0.21359042956E+03  0.00000000000E+00 0.  1.
          5    1    4    4  501    0  0.14533827722E+02 -0.10137086907E+03  0.40367595037E+03  0.41648413001E+03  0.41800000000E+01 0. -1.
         -5    1    4    4    0  501  0.12641228179E+03 -0.14087864494E+03  0.36451805710E+03  0.41075265542E+03  0.41800000000E+01 0. -1.
</event>
<event>
11    1  0.7577197E-009  0.1429859E+03  0.7561462E-02  0.1104269E+00
         22   -1    0    0    0    0  0.00000000000E+00  0.00000000000E+00  0.53916514410E+03  0.53916514410E+03  0.00000000000E+00 0. -1.
         22   -1    0    0    0    0 -0.00000000000E+00 -0.00000000000E+00 -0.13058343146E+03  0.13058343146E+03  0.00000000000E+00 0. -1.
         24    2    1    2    0    0 -0.40584227347E+02  0.56255635475E+02 -0.75724356826E+02  0.13014025813E+03  0.79940806454E+02 0.  0.
         25    2    1    2    0    0  0.28990246343E+02 -0.63251482579E+02  0.21481689683E+03  0.25813681231E+03  0.12508848977E+03 0.  0.
        -24    2    1    2    0    0  0.11593981004E+02  0.69958471039E+01  0.26948917264E+03  0.28147150513E+03  0.80115115654E+02 0.  0.
        -13    1    3    3    0    0 -0.25245073175E+02 -0.15348990515E+02 -0.36852157552E+02  0.47233322408E+02  0.00000000000E+00 0.  1.
         14    1    3    3    0    0 -0.15339154172E+02  0.71604625990E+02 -0.38872199274E+02  0.82906935719E+02  0.00000000000E+00 0. -1.
         11    1    5    5    0    0  0.44002121962E+02  0.15397191454E+02  0.17954617128E+03  0.18549956297E+03  0.00000000000E+00 0. -1.
        -12    1    5    5    0    0 -0.32408140958E+02 -0.84013443505E+01  0.89943001360E+02  0.95971942155E+02  0.00000000000E+00 0.  1.
          5    1    4    4  501    0  0.77867452845E+02 -0.47863024067E+02  0.13045052237E+03  0.15933932494E+03  0.41800000000E+01 0.  1.
         -5    1    4    4    0  501 -0.48877206501E+02 -0.15388458512E+02  0.84366374466E+02  0.98797487373E+02  0.41800000000E+01 0.  1.
</event>
<event>
11    1  0.7577197E-009  0.1294319E+03  0.7561462E-02  0.1119969E+00
         22   -1    0    0    0    0  0.00000000000E+00  0.00000000000E+00  0.16890500818E+03  0.16890500818E+03  0.00000000000E+00 0. -1.
         22   -1    0    0    0    0 -0.00000000000E+00 -0.00000000000E+00 -0.64064541301E+03  0.64064541301E+03  0.00000000000E+00 0. -1.
         24    2    1    2    0    0  0.27581253391E+02  0.17064376436E+02 -0.56018623805E+03  0.56688126162E+03  0.80584272611E+02 0.  0.
         25    2    1    2    0    0 -0.57134875686E+02 -0.11180676075E+02  0.36701689095E+02  0.14277445812E+03  0.12509248727E+03 0.  0.
        -24    2    1    2    0    0  0.29553622294E+02 -0.58837003604E+01  0.51744144126E+02  0.99894701451E+02  0.79959117091E+02 0.  0.
        -11    1    3    3    0    0 -0.16517075664E+02  0.34705377765E+02 -0.20994577650E+03  0.21343501612E+03  0.00000000000E+00 0.  1.
         12    1    3    3    0    0  0.44098329055E+02 -0.17641001329E+02 -0.35024046155E+03  0.35344624550E+03  0.00000000000E+00 0. -1.
         11    1    5    5    0    0 -0.16374620386E+02 -0.25496914807E+02  0.36995947276E+02  0.47821762539E+02  0.00000000000E+00 0. -1.
        -12    1    5    5    0    0  0.45928242680E+02  0.19613214447E+02  0.14748196850E+02  0.52072938912E+02  0.00000000000E+00 0.  1.
          5    1    4    4  501    0 -0.72515657626E+02  0.12480506933E+02  0.68103389929E+02  0.10034853150E+03  0.41800000000E+01 0.  1.
         -5    1    4    4    0  501  0.15380781941E+02 -0.23661183009E+02 -0.31401700833E+02  0.42425926622E+02  0.41800000000E+01 0.  1.
</event>
<event>
11    1  0.7577197E-009  0.1445975E+03  0.7561462E-02  0.1102530E+00
         22   -1    0    0    0    0  0.00000000000E+00  0.00000000000E+00  0.52325392196E+03  0.52325392196E+03  0.00000000000E+00 0.  1.
         22   -1    0    0    0    0 -0.00000000000E+00 -0.00000000000E+00 -0.38577156246E+03  0.38577156246E+03  0.00000000000E+00 0.  1.
         24    2    1    2    0    0 -0.63882589798E+01  0.71997564472E+02 -0.34607252149E+03  0.36266807612E+03  0.80854710209E+02 0.  0.
         25    2    1    2    0    0  0.56981684308E+02 -0.78227911915E+02  0.33432502191E+03  0.36984698904E+03  0.12508819478E+03 0.  0.
        -24    2    1    2    0    0 -0.50593425328E+02  0.62303474436E+01  0.14922985909E+03  0.17651041926E+03  0.79296061376E+02 0.  0.
        -11    1    3    3    0    0 -0.36868543362E+02  0.25324173016E+02 -0.88835494633E+02  0.99460285216E+02  0.00000000000E+00 0.  1.
         12    1    3    3    0    0  0.30480284382E+02  0.46673391456E+02 -0.25723702686E+03  0.26320779091E+03  0.00000000000E+00 0. -1.
         13    1    5    5    0    0  0.21548912382E+02 -0.58287967742E+00  0.39805440052E+02  0.45267741619E+02  0.00000000000E+00 0. -1.
        -14    1    5    5    0    0 -0.72142337710E+02  0.68132271210E+01  0.10942441903E+03  0.13124267764E+03  0.00000000000E+00 0.  1.
          5    1    4    4  501    0 -0.31048875558E+02 -0.59605262071E+02  0.16096972549E+03  0.17448651772E+03  0.41800000000E+01 0.  1.
         -5    1    4    4    0  501  0.88030559866E+02 -0.18622649844E+02  0.17335529642E+03  0.19536047132E+03  0.41800000000E+01 0.  1.
</event>
<event>
11    1  0.7577197E-009  0.1355490E+03  0.7561462E-02  0.1112633E+00
         22   -1    0    0    0    0  0.00000000000E+00  0.00000000000E+00  0.29443317393E+04  0.29443317393E+04  0.00000000000E+00 0.  1.
         22   -1    0    0    0    0 -0.00000000000E+00 -0.00000000000E+00 -0.10676449941E+03  0.10676449941E+03  0.00000000000E+00 0.  1.
         24    2    1    2    0    0  0.52652351621E+02 -0.11072679575E+02 -0.63533115068E+02  0.10691495776E+03  0.67078141885E+02 0.  0.
         25    2    1    2    0    0 -0.34839299012E+02  0.15092618806E+02  0.18325218553E+03  0.22510017742E+03  0.12508861849E+03 0.  0.
        -24    2    1    2    0    0 -0.17813052609E+02 -0.40199392306E+01  0.27178481695E+04  0.27190811036E+04  0.79811720554E+02 0.  0.
        -13    1    3    3    0    0  0.38071463841E+02 -0.73811963798E+01 -0.77327038590E+02  0.86506585392E+02  0.00000000000E+00 0.  1.
         14    1    3    3    0    0  0.14580887780E+02 -0.36914831950E+01  0.13793923523E+02  0.20408372370E+02  0.00000000000E+00 0. -1.
         13    1    5    5    0    0  0.96491348209E+01 -0.13744743622E+02  0.13139236218E+03  0.13246122685E+03  0.00000000000E+00 0. -1.
        -14    1    5    5    0    0 -0.27462187430E+02  0.97248043914E+01  0.25864558073E+04  0.25866198767E+04  0.00000000000E+00 0.  1.
          5    1    4    4  501    0 -0.78520341948E+02  0.18685199886E+02  0.14827035597E+03  0.16886726046E+03  0.41800000000E+01 0.  1.
         -5    1    4    4    0  501  0.43681042937E+02 -0.35925810800E+01  0.34981829561E+02  0.56232916964E+02  0.41800000000E+01 0.  1.
</event>
<event>
11    1  0.7577197E-009  0.1623964E+03  0.7561462E-02  0.1084845E+00
         22   -1    0    0    0    0  0.00000000000E+00  0.00000000000E+00  0.26745390089E+04  0.26745390089E+04  0.00000000000E+00 0. -1.
         22   -1    0    0    0    0 -0.00000000000E+00 -0.00000000000E+00 -0.48441511638E+02  0.48441511638E+02  0.00000000000E+00 0.  1.
        -24    2    1    2    0    0  0.10268335594E+03  0.97247272275E+01  0.69643639450E+02  0.14893387395E+03  0.81808437144E+02 0.  0.
         25    2    1    2    0    0 -0.99126728497E+02 -0.83749306356E+02  0.12835299195E+04  0.12961228073E+04  0.12508086449E+03 0.  0.
         24    2    1    2    0    0 -0.35566274434E+01  0.74024579128E+02  0.12729239383E+04  0.12779238393E+04  0.85215599764E+02 0.  0.
        -11    1    5    5    0    0  0.18513676294E+02 -0.12969676997E+02  0.20804244874E+03  0.20926688512E+03  0.00000000000E+00 0.  1.
         12    1    5    5    0    0 -0.22070303738E+02  0.86994256125E+02  0.10648814896E+04  0.10686569542E+04  0.00000000000E+00 0. -1.
         13    1    3    3    0    0 -0.59174175562E+01 -0.40463394088E+01  0.32579939879E+02  0.33359274208E+02  0.00000000000E+00 0. -1.
        -14    1    3    3    0    0  0.10860077350E+03  0.13771066636E+02  0.37063699570E+02  0.11557459975E+03  0.00000000000E+00 0.  1.
          5    1    4    4  501    0 -0.69299772640E+02 -0.38897141236E+02  0.11397943503E+04  0.11425690699E+04  0.41800000000E+01 0. -1.
         -5    1    4    4    0  501 -0.29826955857E+02 -0.44852165120E+02  0.14373556918E+03  0.15355373736E+03  0.41800000000E+01 0. -1.
</event>
<event>
11    1  0.7577197E-009  0.1421954E+03  0.7561462E-02  0.1105131E+00
         22   -1    0    0    0    0  0.00000000000E+00  0.00000000000E+00  0.23954133240E+04  0.23954133240E+04  0.00000000000E+00 0. -1.
         22   -1    0    0    0    0 -0.00000000000E+00 -0.00000000000E+00 -0.12697773559E+04  0.12697773559E+04  0.00000000000E+00 0.  1.
         24    2    1    2    0    0  0.14082718182E+02  0.42102975077E+02 -0.50568675789E+03  0.51378314189E+03  0.79265606183E+02 0.  0.
         25    2    1    2    0    0  0.53483566829E+02 -0.45040855109E+02 -0.75211702778E+03  0.76564835674E+03  0.12509281413E+03 0.  0.
        -24    2    1    2    0    0 -0.67566285010E+02  0.29378800318E+01  0.23834397537E+04  0.23857591813E+04  0.80547982043E+02 0.  0.
        -13    1    3    3    0    0  0.30063332156E+02  0.38948764089E+02 -0.48482597436E+03  0.48731615567E+03  0.00000000000E+00 0.  1.
         14    1    3    3    0    0 -0.15980613975E+02  0.31542109882E+01 -0.20860783526E+02  0.26466986215E+02  0.00000000000E+00 0. -1.
         11    1    5    5    0    0 -0.76347221814E+02  0.84648959619E+01  0.23329548470E+04  0.23342191138E+04  0.00000000000E+00 0. -1.
        -12    1    5    5    0    0  0.87809368033E+01 -0.55270159300E+01  0.50484906669E+02  0.51540067497E+02  0.00000000000E+00 0.  1.
          5    1    4    4  501    0  0.93756907931E+02 -0.34178804795E+02 -0.47590221614E+03  0.48627043938E+03  0.41800000000E+01 0.  1.
         -5    1    4    4    0  501 -0.40273341102E+02 -0.10862050314E+02 -0.27621481164E+03  0.27937791736E+03  0.41800000000E+01 0.  1.
</event>
<event>
11    1  0.7577197E-009  0.7775066E+03  0.7561462E-02  0.8925286E-01
         22   -1    0    0    0    0  0.00000000000E+00  0.00000000000E+00  0.10737288341E+04  0.10737288341E+04  0.00000000000E+00 0. -1.
         22   -1    0    0    0    0 -0.00000000000E+00 -0.00000000000E+00 -0.10639696341E+04  0.10639696341E+04  0.00000000000E+00 0. -1.
        -24    2    1    2    0    0  0.65916306644E+03 -0.29897707168E+03 -0.37160542816E+03  0.81767044825E+03  0.81308856622E+02 0.  0.
         25    2    1    2    0    0 -0.84532864460E+03  0.18296133780E+03  0.89353483069E-01  0.87390099978E+03  0.12509029106E+03 0.  0.
         24    2    1    2    0    0  0.18616557816E+03  0.11601573388E+03  0.38127527467E+03  0.44612702018E+03  0.74439304585E+02 0.  0.
        -13    1    5    5    0    0  0.62171664344E+02  0.17737560582E+02  0.60927290384E+02  0.88837332334E+02  0.00000000000E+00 0.  1.
         14    1    5    5    0    0  0.12399391382E+03  0.98278173297E+02  0.32034798428E+03  0.35728968785E+03  0.00000000000E+00 0. -1.
         11    1    3    3    0    0  0.57239195544E+03 -0.27336428582E+03 -0.29700864504E+03  0.70041039301E+03  0.00000000000E+00 0. -1.
        -12    1    3    3    0    0  0.86771111002E+02 -0.25612785860E+02 -0.74596783117E+02  0.11726005524E+03  0.00000000000E+00 0.  1.
          5    1    4    4  501    0 -0.50886993925E+03  0.15481930507E+03 -0.42277778035E+02  0.53359396099E+03  0.41800000000E+01 0. -1.
         -5    1    4    4    0  501 -0.33645870535E+03  0.28142032731E+02  0.42367131519E+02  0.34030703878E+03  0.41800000000E+01 0. -1.
</event>
<event>
11    1  0.7577197E-009  0.1333970E+03  0.7561462E-02  0.1115164E+00
         22   -1    0    0    0    0  0.00000000000E+00  0.00000000000E+00  0.51897713056E+03  0.51897713056E+03  0.00000000000E+00 0. -1.
         22   -1    0    0    0    0 -0.00000000000E+00 -0.00000000000E+00 -0.14187366321E+03  0.14187366321E+03  0.00000000000E+00 0. -1.
         24    2    1    2    0    0  0.11295519938E+02 -0.23054266850E+01 -0.79911197798E+02  0.11353677976E+03  0.79824163394E+02 0.  0.
         25    2    1    2    0    0  0.36147327701E+02  0.24692301367E+01  0.63230637420E+02  0.14476687523E+03  0.12508640317E+03 0.  0.
        -24    2    1    2    0    0 -0.47442847639E+02 -0.16380345177E+00  0.39378402773E+03  0.40254713878E+03  0.68756729268E+02 0.  0.
        -11    1    3    3    0    0  0.47420029922E+01  0.30672915203E+02 -0.50154463564E+01  0.31439927188E+02  0.00000000000E+00 0.  1.
         12    1    3    3    0    0  0.65535169461E+01 -0.32978341888E+02 -0.74895751441E+02  0.82096852571E+02  0.00000000000E+00 0. -1.
         11    1    5    5    0    0 -0.49310087707E+02 -0.22281842238E+02  0.34129294256E+03  0.34555583902E+03  0.00000000000E+00 0. -1.
        -12    1    5    5    0    0  0.18672400682E+01  0.22118038786E+02  0.52491085175E+02  0.56991299758E+02  0.00000000000E+00 0.  1.
          5    1    4    4  501    0  0.50186698941E+02 -0.86039846752E+01 -0.23412524992E+02  0.56199217338E+02  0.41800000000E+01 0.  1.
         -5    1    4    4    0  501 -0.14039371240E+02  0.11073214812E+02  0.86643162413E+02  0.88567657889E+02  0.41800000000E+01 0.  1.
</event>
<event>
11    1  0.7577197E-009  0.2123821E+03  0.7561462E-02  0.1046097E+00
         22   -1    0    0    0    0  0.00000000000E+00  0.00000000000E+00  0.37270566755E+03  0.37270566755E+03  0.00000000000E+00 0. -1.
         22   -1    0    0    0    0 -0.00000000000E+00 -0.00000000000E+00 -0.19854699563E+04  0.19854699563E+04  0.00000000000E+00 0.  1.
         24    2    1    2    0    0 -0.75942932083E+02  0.13978657208E+02 -0.81318556635E+03  0.82072248080E+03  0.79698766504E+02 0.  0.
         25    2    1    2    0    0  0.97791101468E+02  0.15636604311E+03 -0.11325485098E+04  0.11542613752E+04  0.12505901145E+03 0.  0.
        -24    2    1    2    0    0 -0.21848169386E+02 -0.17034470032E+03  0.33296978735E+03  0.38319176786E+03  0.80451179220E+02 0.  0.
        -13    1    3    3    0    0 -0.65661209409E+02 -0.23700621783E+02 -0.44065937022E+03  0.44615445135E+03  0.00000000000E+00 0.  1.
         14    1    3    3    0    0 -0.10281722674E+02  0.37679278991E+02 -0.37252619613E+03  0.37456802946E+03  0.00000000000E+00 0. -1.
         13    1    5    5    0    0  0.18529953140E+02 -0.98404696120E+02  0.23281215876E+03  0.25343311671E+03  0.00000000000E+00 0. -1.
        -14    1    5    5    0    0 -0.40378122526E+02 -0.71940004195E+02  0.10015762859E+03  0.12975865114E+03  0.00000000000E+00 0.  1.
          5    1    4    4  501    0  0.11039215965E+03  0.16157567290E+03 -0.88883364271E+03  0.91012957528E+03  0.41800000000E+01 0. -1.
         -5    1    4    4    0  501 -0.12601058179E+02 -0.52096297880E+01 -0.24371486705E+03  0.24413179991E+03  0.41800000000E+01 0. -1.
</event>
<event>
11    1  0.7577197E-009  0.1380983E+03  0.7561462E-02  0.1109701E+00
         22   -1    0    0    0    0  0.00000000000E+00  0.00000000000E+00  0.45147281561E+03  0.45147281561E+03  0.00000000000E+00 0.  1.
         22   -1    0    0    0    0 -0.00000000000E+00 -0.00000000000E+00 -0.99767873248E+03  0.99767873248E+03  0.00000000000E+00 0. -1.
         24    2    1    2    0    0  0.32842061095E+02 -0.43820026084E+02 -0.94510429166E+03  0.94995720399E+03  0.78725927379E+02 0.  0.
         25    2    1    2    0    0  0.23118647653E+02  0.79631452770E+01  0.53810489223E+02  0.13836101875E+03  0.12510123583E+03 0.  0.
        -24    2    1    2    0    0 -0.55960708748E+02  0.35856880807E+02  0.34508788556E+03  0.36083332535E+03  0.81839618118E+02 0.  0.
        -11    1    3    3    0    0  0.52145090546E+01  0.17663202265E+02 -0.74317022672E+02  0.76565002957E+02  0.00000000000E+00 0.  1.
         12    1    3    3    0    0  0.27627552041E+02 -0.61483228349E+02 -0.87078726898E+03  0.87339220103E+03  0.00000000000E+00 0. -1.
         11    1    5    5    0    0 -0.11025453643E+02 -0.25872019992E+01  0.63690398447E+00  0.11342834254E+02  0.00000000000E+00 0. -1.
        -12    1    5    5    0    0 -0.44935255105E+02  0.38444082806E+02  0.34445098158E+03  0.34949049109E+03  0.00000000000E+00 0.  1.
          5    1    4    4  501    0  0.50760837093E+02 -0.22767661909E+02 -0.15188469819E+02  0.57820334024E+02  0.41800000000E+01 0.  1.
         -5    1    4    4    0  501 -0.27642189440E+02  0.30730807186E+02  0.68998959042E+02  0.80540684727E+02  0.41800000000E+01 0.  1.
</event>
<event>
11    1  0.7577197E-009  0.1293994E+03  0.7561462E-02  0.1120009E+00
         22   -1    0    0    0    0  0.00000000000E+00  0.00000000000E+00  0.41867341084E+03  0.41867341084E+03  0.00000000000E+00 0.  1.
         22   -1    0    0    0    0 -0.00000000000E+00 -0.00000000000E+00 -0.18552737591E+03  0.18552737591E+03  0.00000000000E+00 0. -1.
        -24    2    1    2    0    0  0.34637629718E+02 -0.15932268080E+02 -0.10789650848E+03  0.14382279789E+03  0.87119102912E+02 0.  0.
         25    2    1    2    0    0 -0.18525592200E+02 -0.14676929483E+02  0.21882965869E+02  0.12917340235E+03  0.12509314072E+03 0.  0.
         24    2    1    2    0    0 -0.16112037517E+02  0.30609197562E+02  0.31915957754E+03  0.33120458650E+03  0.81468530447E+02 0.  0.
        -11    1    5    5    0    0  0.31752380938E+02  0.21238141840E+02  0.11036625532E+03  0.11679033640E+03  0.00000000000E+00 0.  1.
         12    1    5    5    0    0 -0.47864418455E+02  0.93710557218E+01  0.20879332223E+03  0.21441425010E+03  0.00000000000E+00 0. -1.
         13    1    3    3    0    0  0.45785677992E+02 -0.11529197097E+02 -0.11866298575E+03  0.12771121674E+03  0.00000000000E+00 0. -1.
        -14    1    3    3    0    0 -0.11148048274E+02 -0.44030709831E+01  0.10766477267E+02  0.16111581150E+02  0.00000000000E+00 0.  1.
          5    1    4    4  501    0 -0.46257619070E+02 -0.56931877833E+02 -0.11258701232E+01  0.73482964142E+02  0.41800000000E+01 0. -1.
         -5    1    4    4    0  501  0.27732026869E+02  0.42254948350E+02  0.23008835992E+02  0.55690438210E+02  0.41800000000E+01 0. -1.
</event>
<event>
11    1  0.7577197E-009  0.1454543E+03  0.7561462E-02  0.1101616E+00
         22   -1    0    0    0    0  0.00000000000E+00  0.00000000000E+00  0.83159896712E+03  0.83159896712E+03  0.00000000000E+00 0. -1.
         22   -1    0    0    0    0 -0.00000000000E+00 -0.00000000000E+00 -0.22320205076E+03  0.22320205076E+03  0.00000000000E+00 0. -1.
         24    2    1    2    0    0  0.40320939131E+02  0.59477125573E+02 -0.17164167811E+03  0.20233876004E+03  0.79478308669E+02 0.  0.
         25    2    1    2    0    0 -0.78924702273E+02 -0.74960336441E+02  0.17671814912E+03  0.24233213454E+03  0.12508956204E+03 0.  0.
        -24    2    1    2    0    0  0.38603763141E+02  0.15483210868E+02  0.60332044534E+03  0.61013012331E+03  0.80828381494E+02 0.  0.
        -11    1    3    3    0    0  0.53902734676E+01 -0.19796328906E+02 -0.32768105812E+02  0.38661330095E+02  0.00000000000E+00 0.  1.
         12    1    3    3    0    0  0.34930665664E+02  0.79273454478E+02 -0.13887357230E+03  0.16367742994E+03  0.00000000000E+00 0. -1.
         11    1    5    5    0    0  0.14150340174E+02  0.10406664411E+02  0.55885473662E+03  0.55913070694E+03  0.00000000000E+00 0. -1.
        -12    1    5    5    0    0  0.24453422967E+02  0.50765464571E+01  0.44465708720E+02  0.50999416376E+02  0.00000000000E+00 0.  1.
          5    1    4    4  501    0 -0.68072799424E+02 -0.37368714815E+02  0.19377129744E+02  0.80145320671E+02  0.41800000000E+01 0. -1.
         -5    1    4    4    0  501 -0.10851902849E+02 -0.37591621626E+02  0.15734101938E+03  0.16218681386E+03  0.41800000000E+01 0. -1.
</event>
<event>
11    1  0.7577197E-009  0.1621838E+03  0.7561462E-02  0.1085041E+00
         22   -1    0    0    0    0  0.00000000000E+00  0.00000000000E+00  0.11133392582E+04  0.11133392582E+04  0.00000000000E+00 0. -1.
         22   -1    0    0    0    0 -0.00000000000E+00 -0.00000000000E+00 -0.29365397978E+04  0.29365397978E+04  0.00000000000E+00 0. -1.
        -24    2    1    2    0    0 -0.39738617449E+02 -0.12090385371E+02 -0.10557287493E+04  0.10596139230E+04  0.80580012976E+02 0.  0.
         25    2    1    2    0    0  0.48811011137E+02 -0.90754299279E+02 -0.18715158399E+04  0.18785202284E+04  0.12509137348E+03 0.  0.
         24    2    1    2    0    0 -0.90723936885E+01  0.10284468465E+03  0.11040440496E+04  0.11117449047E+04  0.80025821854E+02 0.  0.
        -13    1    5    5    0    0  0.34619687225E+01  0.46784480117E+02  0.18320934742E+03  0.18912016759E+03  0.00000000000E+00 0.  1.
         14    1    5    5    0    0 -0.12534362411E+02  0.56060204533E+02  0.92083470218E+03  0.92262473710E+03  0.00000000000E+00 0. -1.
         11    1    3    3    0    0 -0.38915161771E+02 -0.36818556603E+02 -0.92590522831E+03  0.92745376582E+03  0.00000000000E+00 0. -1.
        -12    1    3    3    0    0 -0.82345567742E+00  0.24728171233E+02 -0.12982352100E+03  0.13216015714E+03  0.00000000000E+00 0.  1.
          5    1    4    4  501    0  0.81892614582E+02 -0.81021275067E+02 -0.16746934217E+04  0.16786561221E+04  0.41800000000E+01 0. -1.
         -5    1    4    4    0  501 -0.33081603445E+02 -0.97330242127E+01 -0.19682241825E+03  0.19986410627E+03  0.41800000000E+01 0. -1.
</event>
<event>
11    1  0.7577197E-009  0.1770595E+03  0.7561462E-02  0.1072046E+00
         22   -1    0    0    0    0  0.00000000000E+00  0.00000000000E+00  0.84745537435E+03  0.84745537435E+03  0.00000000000E+00 0. -1.
         22   -1    0    0    0    0 -0.00000000000E+00 -0.00000000000E+00 -0.91316169462E+03  0.91316169462E+03  0.00000000000E+00 0. -1.
         24    2    1    2    0    0 -0.36926297078E+02 -0.11951525347E+03 -0.82356539878E+03  0.83695797249E+03  0.81186417695E+02 0.  0.
         25    2    1    2    0    0  0.34426103532E+02  0.12342255364E+03  0.18697724169E+02  0.18006424851E+03  0.12512092292E+03 0.  0.
        -24    2    1    2    0    0  0.25001935461E+01 -0.39073001690E+01  0.73916135434E+03  0.74359484797E+03  0.80946106860E+02 0.  0.
        -13    1    3    3    0    0 -0.93030798468E+01  0.11620122895E+02 -0.69427450343E+02  0.71005249185E+02  0.00000000000E+00 0.  1.
         14    1    3    3    0    0 -0.27623217231E+02 -0.13113537637E+03 -0.75413794844E+03  0.76595272330E+03  0.00000000000E+00 0. -1.
         13    1    5    5    0    0 -0.25811488409E+02  0.11428324195E+02  0.60369202922E+03  0.60435164075E+03  0.00000000000E+00 0. -1.
        -14    1    5    5    0    0  0.28311681955E+02 -0.15335624364E+02  0.13546932512E+03  0.13924320722E+03  0.00000000000E+00 0.  1.
          5    1    4    4  501    0  0.47020155335E+02  0.12042694192E+03 -0.27213417339E+02  0.13218012646E+03  0.41800000000E+01 0. -1.
         -5    1    4    4    0  501 -0.12594051803E+02  0.29956117235E+01  0.45911141508E+02  0.47884122055E+02  0.41800000000E+01 0. -1.
</event>
<event>
11    1  0.7577197E-009  0.1804948E+03  0.7561462E-02  0.1069243E+00
         22   -1    0    0    0    0  0.00000000000E+00  0.00000000000E+00  0.74160022508E+03  0.74160022508E+03  0.00000000000E+00 0.  1.
         22   -1    0    0    0    0 -0.00000000000E+00 -0.00000000000E+00 -0.81895575676E+03  0.81895575676E+03  0.00000000000E+00 0. -1.
        -24    2    1    2    0    0  0.90214963709E+02  0.89425160446E+02 -0.73085502134E+03  0.74609127879E+03  0.79796836220E+02 0.  0.
         25    2    1    2    0    0 -0.15661883901E+03 -0.14966707709E+03  0.13930628758E+03  0.28632619954E+03  0.12508699407E+03 0.  0.
         24    2    1    2    0    0  0.66403875303E+02  0.60241916641E+02  0.51419320208E+03  0.52813850351E+03  0.80604383542E+02 0.  0.
        -11    1    5    5    0    0  0.76657644124E+02  0.58933577231E+02  0.33574815320E+03  0.34939430921E+03  0.00000000000E+00 0.  1.
         12    1    5    5    0    0 -0.10253768821E+02  0.13083394102E+01  0.17844504887E+03  0.17874419430E+03  0.00000000000E+00 0. -1.
         13    1    3    3    0    0  0.98039496212E+02  0.94366535691E+02 -0.71410876759E+03  0.72695812660E+03  0.00000000000E+00 0. -1.
        -14    1    3    3    0    0 -0.78245325031E+01 -0.49413752455E+01 -0.16746253754E+02  0.19133152197E+02  0.00000000000E+00 0.  1.
          5    1    4    4  501    0 -0.17735402760E+03 -0.14020782001E+03  0.13291030453E+03  0.26228859172E+03  0.41800000000E+01 0. -1.
         -5    1    4    4    0  501  0.20735188589E+02 -0.94592570790E+01  0.63959830474E+01  0.24037607814E+02  0.41800000000E+01 0. -1.
</event>
<event>
11    1  0.7577197E-009  0.1449922E+03  0.7561462E-02  0.1102108E+00
         22   -1    0    0    0    0  0.00000000000E+00  0.00000000000E+00  0.10856243828E+03  0.10856243828E+03  0.00000000000E+00 0.  1.
         22   -1    0    0    0    0 -0.00000000000E+00 -0.00000000000E+00 -0.65801219541E+03  0.65801219541E+03  0.00000000000E+00 0.  1.
         24    2    1    2    0    0  0.53956372819E+02  0.59923116834E+02 -0.44479850626E+03  0.45911644056E+03  0.80250387727E+02 0.  0.
         25    2    1    2    0    0 -0.66182558246E+02  0.83734897455E+01 -0.13293453291E+03  0.19434133369E+03  0.12508684022E+03 0.  0.
        -24    2    1    2    0    0  0.12226185427E+02 -0.68296606579E+02  0.28283282032E+02  0.11311685943E+03  0.84744166548E+02 0.  0.
        -13    1    3    3    0    0  0.68321454206E+02  0.20002589748E+02 -0.26723172828E+03  0.27655148038E+03  0.00000000000E+00 0.  1.
         14    1    3    3    0    0 -0.14365081387E+02  0.39920527086E+02 -0.17756677798E+03  0.18256496018E+03  0.00000000000E+00 0. -1.
         13    1    5    5    0    0 -0.15570455475E+02 -0.65074395495E+02 -0.78995184504E+01  0.67375948412E+02  0.00000000000E+00 0. -1.
        -14    1    5    5    0    0  0.27796640903E+02 -0.32222110847E+01  0.36182800483E+02  0.45740911015E+02  0.00000000000E+00 0.  1.
          5    1    4    4  501    0 -0.10232400989E+03 -0.31566859584E+01 -0.10732997290E+03  0.14838248936E+03  0.41800000000E+01 0. -1.
         -5    1    4    4    0  501  0.36141451648E+02  0.11530175704E+02 -0.25604560007E+02  0.45958844330E+02  0.41800000000E+01 0. -1.
</event>
<event>
11    1  0.7577197E-009  0.1618624E+03  0.7561462E-02  0.1085339E+00
         22   -1    0    0    0    0  0.00000000000E+00  0.00000000000E+00  0.77521061494E+03  0.77521061494E+03  0.00000000000E+00 0.  1.
         22   -1    0    0    0    0 -0.00000000000E+00 -0.00000000000E+00 -0.24616645761E+03  0.24616645761E+03  0.00000000000E+00 0. -1.
         24    2    1    2    0    0  0.47231173915E+01  0.82921897054E+01 -0.19205707321E+03  0.20878334115E+03  0.81323403316E+02 0.  0.
         25    2    1    2    0    0 -0.89265815957E+01  0.95546062298E+02  0.12086560517E+03  0.19866162429E+03  0.12509681280E+03 0.  0.
        -24    2    1    2    0    0  0.42034642042E+01 -0.10383825200E+03  0.60023562536E+03  0.61393210711E+03  0.76352959933E+02 0.  0.
        -11    1    3    3    0    0 -0.31359141120E+02  0.13295254838E+02 -0.40543138284E+02  0.52951917764E+02  0.00000000000E+00 0.  1.
         12    1    3    3    0    0  0.36082258511E+02 -0.50030651329E+01 -0.15151393492E+03  0.15583142339E+03  0.00000000000E+00 0. -1.
         11    1    5    5    0    0  0.47504011034E+01 -0.42261631789E+01  0.24258386402E+03  0.24266717505E+03  0.00000000000E+00 0. -1.
        -12    1    5    5    0    0 -0.54693689919E+00 -0.99612088824E+02  0.35765176134E+03  0.37126493205E+03  0.00000000000E+00 0.  1.
          5    1    4    4  501    0 -0.65873748590E+02  0.37032468133E+02  0.52849521144E+02  0.92310880911E+02  0.41800000000E+01 0.  1.
         -5    1    4    4    0  501  0.56947166995E+02  0.58513594165E+02  0.68016084025E+02  0.10635074338E+03  0.41800000000E+01 0.  1.
</event>
<event>
11    1  0.7577197E-009  0.1283443E+03  0.7561462E-02  0.1121320E+00
         22   -1    0    0    0    0  0.00000000000E+00  0.00000000000E+00  0.41735977495E+04  0.41735977495E+04  0.00000000000E+00 0. -1.
         22   -1    0    0    0    0 -0.00000000000E+00 -0.00000000000E+00 -0.12093538296E+04  0.12093538296E+04  0.00000000000E+00 0.  1.
        -24    2    1    2    0    0  0.42338195178E+01  0.17637807369E+02 -0.11269321158E+04  0.11299112138E+04  0.79964616966E+02 0.  0.
         25    2    1    2    0    0  0.10463720731E+02  0.71578917858E+01 -0.31405429433E+02  0.12959087479E+03  0.12508704555E+03 0.  0.
         24    2    1    2    0    0 -0.14697540248E+02 -0.24795699155E+02  0.41225814652E+04  0.41234494904E+04  0.79541928941E+02 0.  0.
        -11    1    5    5    0    0  0.49729058321E+01 -0.57756207261E+01  0.37020089459E+02  0.37796489397E+02  0.00000000000E+00 0.  1.
         12    1    5    5    0    0 -0.19670446081E+02 -0.19020078429E+02  0.40855613757E+04  0.40856530010E+04  0.00000000000E+00 0. -1.
         13    1    3    3    0    0 -0.10452473726E+01 -0.18379466457E+02 -0.89075652431E+03  0.89094673406E+03  0.00000000000E+00 0. -1.
        -14    1    3    3    0    0  0.52790668905E+01  0.36017273826E+02 -0.23617559153E+03  0.23896447977E+03  0.00000000000E+00 0.  1.
          5    1    4    4  501    0  0.43215409655E+02  0.13951895162E+02 -0.66690533777E+02  0.80791872770E+02  0.41800000000E+01 0. -1.
         -5    1    4    4    0  501 -0.32751688925E+02 -0.67940033758E+01  0.35285104344E+02  0.48799002017E+02  0.41800000000E+01 0. -1.
</event>
<event>
11    1  0.7577197E-009  0.1510065E+03  0.7561462E-02  0.1095855E+00
         22   -1    0    0    0    0  0.00000000000E+00  0.00000000000E+00  0.95697680287E+02  0.95697680287E+02  0.00000000000E+00 0. -1.
         22   -1    0    0    0    0 -0.00000000000E+00 -0.00000000000E+00 -0.10816108866E+04  0.10816108866E+04  0.00000000000E+00 0. -1.
         24    2    1    2    0    0  0.47615373802E+02 -0.63027484772E+02 -0.79863367325E+03  0.80650273342E+03  0.79945151802E+02 0.  0.
         25    2    1    2    0    0 -0.97808400570E+02  0.99698915619E+02 -0.19302447994E+03  0.26909604623E+03  0.12509146751E+03 0.  0.
        -24    2    1    2    0    0  0.50193026768E+02 -0.36671430847E+02  0.57449469161E+01  0.10170978720E+03  0.80297836962E+02 0.  0.
        -11    1    3    3    0    0 -0.27472032926E+00 -0.58734172813E+02 -0.31047560234E+03  0.31598240169E+03  0.00000000000E+00 0.  1.
         12    1    3    3    0    0  0.47890094131E+02 -0.42933119597E+01 -0.48815807091E+03  0.49052033173E+03  0.00000000000E+00 0. -1.
         13    1    5    5    0    0 -0.12246863602E+01 -0.46944886516E+02 -0.76793155760E+01  0.47584599550E+02  0.00000000000E+00 0. -1.
        -14    1    5    5    0    0  0.51417713128E+02  0.10273455669E+02  0.13424262492E+02  0.54125187650E+02  0.00000000000E+00 0.  1.
          5    1    4    4  501    0 -0.99609105739E+02  0.52922815620E+02 -0.59611195379E+02  0.12764703433E+03  0.41800000000E+01 0. -1.
         -5    1    4    4    0  501  0.18007051694E+01  0.46776099999E+02 -0.13341328456E+03  0.14144901190E+03  0.41800000000E+01 0. -1.
</event>
<event>
11    1  0.7577197E-009  0.1977122E+03  0.7561462E-02  0.1056153E+00
         22   -1    0    0    0    0  0.00000000000E+00  0.00000000000E+00  0.95161147117E+03  0.95161147117E+03  0.00000000000E+00 0.  1.
         22   -1    0    0    0    0 -0.00000000000E+00 -0.00000000000E+00 -0.29928751388E+03  0.29928751388E+03  0.00000000000E+00 0.  1.
        -24    2    1    2    0    0 -0.33690998541E+02  0.27774374597E+02 -0.24395822369E+03  0.26108633082E+03  0.82121604758E+02 0.  0.
         25    2    1    2    0    0  0.22335303097E+00 -0.17205285265E+03  0.28380720359E+03  0.35467613429E+03  0.12508556044E+03 0.  0.
         24    2    1    2    0    0  0.33467645510E+02  0.14427847806E+03  0.61247497739E+03  0.63513651995E+03  0.79601749500E+02 0.  0.
        -13    1    5    5    0    0 -0.11163289558E+02  0.10160626295E+03  0.44640638481E+03  0.45795972760E+03  0.00000000000E+00 0.  1.
         14    1    5    5    0    0  0.44630935068E+02  0.42672215103E+02  0.16606859258E+03  0.17717679235E+03  0.00000000000E+00 0. -1.
         11    1    3    3    0    0 -0.54005158033E+02  0.24623326669E+02 -0.10498967947E+03  0.12060554758E+03  0.00000000000E+00 0. -1.
        -12    1    3    3    0    0  0.20314159492E+02  0.31510479280E+01 -0.13896854421E+03  0.14048078324E+03  0.00000000000E+00 0.  1.
          5    1    4    4  501    0 -0.29305916968E+02 -0.38035143480E+02  0.16889369973E+03  0.17563616688E+03  0.41800000000E+01 0.  1.
         -5    1    4    4    0  501  0.29529269999E+02 -0.13401770917E+03  0.11491350387E+03  0.17903996741E+03  0.41800000000E+01 0.  1.
</event>
<event>
11    1  0.7577197E-009  0.1797743E+03  0.7561462E-02  0.1069826E+00
         22   -1    0    0    0    0  0.00000000000E+00  0.00000000000E+00  0.20802453026E+04  0.20802453026E+04  0.00000000000E+00 0.  1.
         22   -1    0    0    0    0 -0.00000000000E+00 -0.00000000000E+00 -0.27905306381E+04  0.27905306381E+04  0.00000000000E+00 0. -1.
        -24    2    1    2    0    0  0.10897675415E+03  0.69176583576E+02 -0.27102208316E+04  0.27144691117E+04  0.79901625507E+02 0.  0.
         25    2    1    2    0    0 -0.91478184228E+02 -0.98368886743E+02  0.31887261111E+02  0.18631759594E+03  0.12511096301E+03 0.  0.
         24    2    1    2    0    0 -0.17498569917E+02  0.29192303167E+02  0.19680482351E+04  0.19699892330E+04  0.80531559211E+02 0.  0.
        -11    1    5    5    0    0  0.22997066159E+01  0.15126608546E+01  0.16703338157E+04  0.16703360837E+04  0.00000000000E+00 0.  1.
         12    1    5    5    0    0 -0.19798276533E+02  0.27679642312E+02  0.29771441939E+03  0.29965314927E+03  0.00000000000E+00 0. -1.
         13    1    3    3    0    0  0.84181579059E+02  0.79328827146E+02 -0.24797151002E+04  0.24824114444E+04  0.00000000000E+00 0. -1.
        -14    1    3    3    0    0  0.24795175086E+02 -0.10152243569E+02 -0.23050573138E+03  0.23205766731E+03  0.00000000000E+00 0.  1.
          5    1    4    4  501    0 -0.34348658009E+02 -0.21938533458E+02  0.71906003234E+02  0.82759140029E+02  0.41800000000E+01 0. -1.
         -5    1    4    4    0  501 -0.57129526219E+02 -0.76430353285E+02 -0.40018742123E+02  0.10355845591E+03  0.41800000000E+01 0. -1.
</event>
<event>
11    1  0.7577197E-009  0.1551238E+03  0.7561462E-02  0.1091755E+00
         22   -1    0    0    0    0  0.00000000000E+00  0.00000000000E+00  0.47697506105E+03  0.47697506105E+03  0.00000000000E+00 0.  1.
         22   -1    0    0    0    0 -0.00000000000E+00 -0.00000000000E+00 -0.62762103951E+03  0.62762103951E+03  0.00000000000E+00 0. -1.
        -24    2    1    2    0    0  0.54526882724E+02  0.67707214966E+02 -0.47466233495E+03  0.48920662734E+03  0.80382486392E+02 0.  0.
         25    2    1    2    0    0 -0.69049584586E+02 -0.11135309943E+03 -0.82333603621E+02  0.19898580026E+03  0.12509663679E+03 0.  0.
         24    2    1    2    0    0  0.14522701862E+02  0.43645884461E+02  0.40634996012E+03  0.41640367296E+03  0.78459267574E+02 0.  0.
        -13    1    5    5    0    0 -0.19205520961E+02  0.45602232076E+02  0.15278471000E+03  0.16059758160E+03  0.00000000000E+00 0.  1.
         14    1    5    5    0    0  0.33728222824E+02 -0.19563476150E+01  0.25356525011E+03  0.25580609136E+03  0.00000000000E+00 0. -1.
         13    1    3    3    0    0 -0.15538292538E+02  0.39553539423E+02 -0.19054496686E+03  0.19522629283E+03  0.00000000000E+00 0. -1.
        -14    1    3    3    0    0  0.70065175262E+02  0.28153675542E+02 -0.28411736809E+03  0.29398033451E+03  0.00000000000E+00 0.  1.
          5    1    4    4  501    0 -0.20865927596E+02 -0.12676457895E+03 -0.71484167509E+02  0.14707856409E+03  0.41800000000E+01 0.  1.
         -5    1    4    4    0  501 -0.48183656990E+02  0.15411479526E+02 -0.10849436112E+02  0.51907236163E+02  0.41800000000E+01 0.  1.
</event>
<event>
11    1  0.7577197E-009  0.1440425E+03  0.7561462E-02  0.1103126E+00
         22   -1    0    0    0    0  0.00000000000E+00  0.00000000000E+00  0.36578497267E+03  0.36578497267E+03  0.00000000000E+00 0.  1.
         22   -1    0    0    0    0 -0.00000000000E+00 -0.00000000000E+00 -0.38671168821E+03  0.38671168821E+03  0.00000000000E+00 0.  1.
        -24    2    1    2    0    0 -0.13418116793E+02  0.61873997231E+01 -0.26847400552E+03  0.28055699775E+03  0.80097487930E+02 0.  0.
         25    2    1    2    0    0  0.33185088156E+02  0.62635538235E+02 -0.52542046639E+02  0.15307310178E+03  0.12508495951E+03 0.  0.
         24    2    1    2    0    0 -0.19766971363E+02 -0.68822937958E+02  0.30008933662E+03  0.31886656136E+03  0.80591215740E+02 0.  0.
        -13    1    5    5    0    0  0.11264966922E+02 -0.13579463252E+02  0.19750420453E+03  0.19829072623E+03  0.00000000000E+00 0.  1.
         14    1    5    5    0    0 -0.31031938285E+02 -0.55243474706E+02  0.10258513209E+03  0.12057583513E+03  0.00000000000E+00 0. -1.
         11    1    3    3    0    0 -0.43366542214E+02 -0.42425061202E+01 -0.99349124486E+02  0.10848458129E+03  0.00000000000E+00 0. -1.
        -12    1    3    3    0    0  0.29948425421E+02  0.10429905843E+02 -0.16912488103E+03  0.17207241646E+03  0.00000000000E+00 0.  1.
          5    1    4    4  501    0  0.72754524778E+02  0.68785123753E+02 -0.51794683072E+02  0.11280414762E+03  0.41800000000E+01 0.  1.
         -5    1    4    4    0  501 -0.39569436622E+02 -0.61495855186E+01 -0.74736356717E+00  0.40268954157E+02  0.41800000000E+01 0.  1.
</event>
<event>
11    1  0.7577197E-009  0.1531806E+03  0.7561462E-02  0.1093672E+00
         22   -1    0    0    0    0  0.00000000000E+00  0.00000000000E+00  0.12367072846E+04  0.12367072846E+04  0.00000000000E+00 0. -1.
         22   -1    0    0    0    0 -0.00000000000E+00 -0.00000000000E+00 -0.52587350025E+03  0.52587350025E+03  0.00000000000E+00 0. -1.
        -24    2    1    2    0    0  0.73325432247E+02  0.43294451684E+02 -0.40901800026E+03  0.42397251406E+03  0.72152197322E+02 0.  0.
         25    2    1    2    0    0 -0.93428296476E+02 -0.75072888786E+02 -0.37999107809E+02  0.17735938974E+03  0.12509051012E+03 0.  0.
         24    2    1    2    0    0  0.20102864229E+02  0.31778437102E+02  0.11578508924E+04  0.11612488811E+04  0.80413185871E+02 0.  0.
        -11    1    5    5    0    0  0.22494244648E+02  0.53445634721E+01  0.85538901466E+02  0.88608459331E+02  0.00000000000E+00 0.  1.
         12    1    5    5    0    0 -0.23913804192E+01  0.26433873629E+02  0.10723119909E+04  0.10726404217E+04  0.00000000000E+00 0. -1.
         13    1    3    3    0    0  0.60990779603E+02 -0.52989676751E+01 -0.23904875255E+03  0.24676357177E+03  0.00000000000E+00 0. -1.
        -14    1    3    3    0    0  0.12334652645E+02  0.48593419359E+02 -0.16996924771E+03  0.17720894229E+03  0.00000000000E+00 0.  1.
          5    1    4    4  501    0 -0.11905146065E+03 -0.78497309188E+02 -0.46137119065E+02  0.14993726684E+03  0.41800000000E+01 0. -1.
         -5    1    4    4    0  501  0.25623164170E+02  0.34244204017E+01  0.81380112562E+01  0.27422122901E+02  0.41800000000E+01 0. -1.
</event>
<event>
11    1  0.7577197E-009  0.1646989E+03  0.7561462E-02  0.1082739E+00
         22   -1    0    0    0    0  0.00000000000E+00  0.00000000000E+00  0.42329349357E+03  0.42329349357E+03  0.00000000000E+00 0.  1.
         22   -1    0    0    0    0 -0.00000000000E+00 -0.00000000000E+00 -0.51193332731E+03  0.51193332731E+03  0.00000000000E+00 0. -1.
        -24    2    1    2    0    0 -0.32036525269E+02  0.67981667148E+01 -0.42107263200E+03  0.42978510188E+03  0.79627371919E+02 0.  0.
         25    2    1    2    0    0  0.11146061152E+03 -0.71599810607E+02  0.41168243022E+02  0.18679203216E+03  0.12508572359E+03 0.  0.
         24    2    1    2    0    0 -0.79424086249E+02  0.64801643892E+02  0.29126455523E+03  0.31864968684E+03  0.78709232363E+02 0.  0.
        -11    1    5    5    0    0 -0.78094475793E+02  0.52084515839E+02  0.29110160218E+03  0.30586220219E+03  0.00000000000E+00 0.  1.
         12    1    5    5    0    0 -0.13296104560E+01  0.12717128053E+02  0.16295305633E+00  0.12787484646E+02  0.00000000000E+00 0. -1.
         13    1    3    3    0    0 -0.81364764713E+01  0.77647031581E+01 -0.39189369731E+03  0.39205505079E+03  0.00000000000E+00 0. -1.
        -14    1    3    3    0    0 -0.23900048798E+02 -0.96653644325E+00 -0.29178934689E+02  0.37730051085E+02  0.00000000000E+00 0.  1.
          5    1    4    4  501    0  0.54696035930E+02  0.89145563324E+01  0.64830753909E+02  0.85391010730E+02  0.41800000000E+01 0.  1.
         -5    1    4    4    0  501  0.56764575587E+02 -0.80514366939E+02 -0.23662510887E+02  0.10140102143E+03  0.41800000000E+01 0.  1.
</event>
<event>
11    1  0.7577197E-009  0.1377455E+03  0.7561462E-02  0.1110102E+00
         22   -1    0    0    0    0  0.00000000000E+00  0.00000000000E+00  0.72562011114E+03  0.72562011114E+03  0.00000000000E+00 0. -1.
         22   -1    0    0    0    0 -0.00000000000E+00 -0.00000000000E+00 -0.10703321124E+03  0.10703321124E+03  0.00000000000E+00 0. -1.
        -24    2    1    2    0    0 -0.41738247325E+02  0.40970519380E+02 -0.84832719005E+01  0.88339137986E+02  0.65659520634E+02 0.  0.
         25    2    1    2    0    0  0.58715327736E+02 -0.16621768779E+02  0.31569796452E+02  0.14271719194E+03  0.12509105451E+03 0.  0.
         24    2    1    2    0    0 -0.16977080411E+02 -0.24348750601E+02  0.59550037535E+03  0.60159699246E+03  0.80107186842E+02 0.  0.
        -13    1    5    5    0    0 -0.49072148142E+02 -0.18514434972E+02  0.33972952675E+03  0.34375428925E+03  0.00000000000E+00 0.  1.
         14    1    5    5    0    0  0.32095067732E+02 -0.58343156291E+01  0.25577084859E+03  0.25784270322E+03  0.00000000000E+00 0. -1.
         13    1    3    3    0    0 -0.57027507343E+02  0.43721575318E+02 -0.10685223241E+02  0.72649065636E+02  0.00000000000E+00 0. -1.
        -14    1    3    3    0    0  0.15289260017E+02 -0.27510559380E+01  0.22019513404E+01  0.15690072350E+02  0.00000000000E+00 0.  1.
          5    1    4    4  501    0  0.64434331731E+02 -0.63181001648E+02  0.31343256761E+02  0.95621620041E+02  0.41800000000E+01 0. -1.
         -5    1    4    4    0  501 -0.57190039945E+01  0.46559232869E+02  0.22653969114E+00  0.47095571896E+02  0.41800000000E+01 0. -1.
</event>
<event>
11    1  0.7577197E-009  0.1683080E+03  0.7561462E-02  0.1079514E+00
         22   -1    0    0    0    0  0.00000000000E+00  0.00000000000E+00  0.21147657348E+03  0.21147657348E+03  0.00000000000E+00 0. -1.
         22   -1    0    0    0    0 -0.00000000000E+00 -0.00000000000E+00 -0.41000367117E+03  0.41000367117E+03  0.00000000000E+00 0.  1.
        -24    2    1    2    0    0  0.11850584769E+02 -0.31173374249E+02 -0.28093668619E+03  0.29386317089E+03  0.79485381889E+02 0.  0.
         25    2    1    2    0    0 -0.49278584111E+02 -0.83915951887E+02 -0.51795508053E+01  0.15857026829E+03  0.12508971342E+03 0.  0.
         24    2    1    2    0    0  0.37427999342E+02  0.11508932614E+03  0.87589139309E+02  0.16904680548E+03  0.79111042165E+02 0.  0.
        -13    1    5    5    0    0 -0.90272086312E+01  0.29108826830E+02 -0.88617867474E+01  0.31738707589E+02  0.00000000000E+00 0.  1.
         14    1    5    5    0    0  0.46455207973E+02  0.85980499306E+02  0.96450926057E+02  0.13730809789E+03  0.00000000000E+00 0. -1.
         11    1    3    3    0    0 -0.25923279591E+02  0.12195807914E+02 -0.89427362932E+02  0.93904245891E+02  0.00000000000E+00 0. -1.
        -12    1    3    3    0    0  0.37773864360E+02 -0.43369182163E+02 -0.19150932326E+03  0.19995892500E+03  0.00000000000E+00 0.  1.
          5    1    4    4  501    0 -0.60354341161E+02 -0.24733301874E+02 -0.50909759820E+02  0.82847201302E+02  0.41800000000E+01 0. -1.
         -5    1    4    4    0  501  0.11075757051E+02 -0.59182650013E+02  0.45730209015E+02  0.75723066983E+02  0.41800000000E+01 0. -1.
</event>
<event>
11    1  0.7577197E-009  0.3424546E+03  0.7561462E-02  0.9836694E-01
         22   -1    0    0    0    0  0.00000000000E+00  0.00000000000E+00  0.10099259945E+04  0.10099259945E+04  0.00000000000E+00 0. -1.
         22   -1    0    0    0    0 -0.00000000000E+00 -0.00000000000E+00 -0.60201933330E+03  0.60201933330E+03  0.00000000000E+00 0.  1.
        -24    2    1    2    0    0  0.12830917751E+03 -0.29241207730E+03 -0.36223152573E+03  0.48950789673E+03  0.80238611348E+02 0.  0.
         25    2    1    2    0    0 -0.64090621345E+01  0.33637238610E+03  0.22812954413E+02  0.35966587915E+03  0.12510657667E+03 0.  0.
         24    2    1    2    0    0 -0.12190011537E+03 -0.43960308807E+02  0.74732523254E+03  0.76277155194E+03  0.80828772003E+02 0.  0.
        -11    1    5    5    0    0 -0.50061472929E+02 -0.17975471590E+02  0.12599558161E+03  0.13676313552E+03  0.00000000000E+00 0.  1.
         12    1    5    5    0    0 -0.71838642446E+02 -0.25984837217E+02  0.62132965093E+03  0.62600841642E+03  0.00000000000E+00 0. -1.
         11    1    3    3    0    0  0.14199823457E+02 -0.92916976534E+00 -0.64422547905E+01  0.15620531024E+02  0.00000000000E+00 0. -1.
        -12    1    3    3    0    0  0.11410935405E+03 -0.29148290753E+03 -0.35578927094E+03  0.47388736571E+03  0.00000000000E+00 0.  1.
          5    1    4    4  501    0  0.16229992495E+02  0.29772934187E+03  0.56452738761E+02  0.30349721215E+03  0.41800000000E+01 0.  1.
         -5    1    4    4    0  501 -0.22639054629E+02  0.38643044234E+02 -0.33639784348E+02  0.56168667005E+02  0.41800000000E+01 0.  1.
</event>
<event>
11    1  0.7577197E-009  0.2782826E+03  0.7561462E-02  0.1009826E+00
         22   -1    0    0    0    0  0.00000000000E+00  0.00000000000E+00  0.72009723981E+03  0.72009723981E+03  0.00000000000E+00 0.  1.
         22   -1    0    0    0    0 -0.00000000000E+00 -0.00000000000E+00 -0.29268795854E+03  0.29268795854E+03  0.00000000000E+00 0.  1.
        -24    2    1    2    0    0  0.62333100826E+02  0.23376126993E+03 -0.13348989576E+02  0.25520456739E+03  0.80133818825E+02 0.  0.
         25    2    1    2    0    0  0.13405966709E+03 -0.27413291032E+03  0.83765165251E+02  0.34026890192E+03  0.12508187656E+03 0.  0.
         24    2    1    2    0    0 -0.19639276792E+03  0.40371640391E+02  0.35699310560E+03  0.41731172903E+03  0.80653661455E+02 0.  0.
        -13    1    5    5    0    0 -0.18057187953E+03  0.54661101400E+02  0.34401784024E+03  0.39235483186E+03  0.00000000000E+00 0.  1.
         14    1    5    5    0    0 -0.15820888385E+02 -0.14289461009E+02  0.12975265361E+02  0.24956897171E+02  0.00000000000E+00 0. -1.
         13    1    3    3    0    0  0.59749552189E+01  0.12162111546E+03 -0.37469114841E+02  0.12740223853E+03  0.00000000000E+00 0. -1.
        -14    1    3    3    0    0  0.56358145607E+02  0.11214015447E+03  0.24120125265E+02  0.12780232886E+03  0.00000000000E+00 0.  1.
          5    1    4    4  501    0 -0.17669874774E+02 -0.26571027122E+02 -0.12223536151E+02  0.34425734457E+02  0.41800000000E+01 0.  1.
         -5    1    4    4    0  501  0.15172954187E+03 -0.24756188319E+03  0.95988701402E+02  0.30584316746E+03  0.41800000000E+01 0.  1.
</event>
<event>
11    1  0.7577197E-009  0.1432014E+03  0.7561462E-02  0.1104035E+00
         22   -1    0    0    0    0  0.00000000000E+00  0.00000000000E+00  0.24938249220E+04  0.24938249220E+04  0.00000000000E+00 0. -1.
         22   -1    0    0    0    0 -0.00000000000E+00 -0.00000000000E+00 -0.57712936115E+03  0.57712936115E+03  0.00000000000E+00 0. -1.
         24    2    1    2    0    0  0.68940256545E+02 -0.17199970258E+01 -0.55060024004E+03  0.56084733695E+03  0.81445648553E+02 0.  0.
         25    2    1    2    0    0 -0.13134947709E+03 -0.29103685220E+02  0.39959704350E+03  0.43980135844E+03  0.12509087929E+03 0.  0.
        -24    2    1    2    0    0  0.62409220548E+02  0.30823682246E+02  0.20676987574E+04  0.20703055878E+04  0.77084792506E+02 0.  0.
        -13    1    3    3    0    0  0.29701948568E+02 -0.34034728066E+02 -0.13987126733E+03  0.14698482877E+03  0.00000000000E+00 0.  1.
         14    1    3    3    0    0  0.39238307977E+02  0.32314731040E+02 -0.41072897271E+03  0.41386250818E+03  0.00000000000E+00 0. -1.
         13    1    5    5    0    0  0.26454104917E+01  0.47832023840E+01  0.12501108174E+04  0.12501227672E+04  0.00000000000E+00 0. -1.
        -14    1    5    5    0    0  0.59763810056E+02  0.26040479862E+02  0.81758794000E+03  0.82018282061E+03  0.00000000000E+00 0.  1.
          5    1    4    4  501    0 -0.14777112505E+03 -0.28101269844E+02  0.39427059873E+03  0.42201038398E+03  0.41800000000E+01 0. -1.
         -5    1    4    4    0  501  0.16421647957E+02 -0.10024153761E+01  0.53264447716E+01  0.17790974456E+02  0.41800000000E+01 0. -1.
</event>
<event>
11    1  0.7577197E-009  0.1817236E+03  0.7561462E-02  0.1068257E+00
         22   -1    0    0    0    0  0.00000000000E+00  0.00000000000E+00  0.50278827292E+03  0.50278827292E+03  0.00000000000E+00 0. -1.
         22   -1    0    0    0    0 -0.00000000000E+00 -0.00000000000E+00 -0.46606946514E+03  0.46606946514E+03  0.00000000000E+00 0.  1.
         24    2    1    2    0    0 -0.18459588666E+02  0.13165147930E+03 -0.39310417094E+03  0.42259930490E+03  0.79915047850E+02 0.  0.
         25    2    1    2    0    0 -0.26180903663E+01 -0.12176306252E+03  0.10044788416E+03  0.20142045648E+03  0.12508926838E+03 0.  0.
        -24    2    1    2    0    0  0.21077679032E+02 -0.98884167855E+01  0.32937509455E+03  0.34483797668E+03  0.99414425055E+02 0.  0.
        -13    1    3    3    0    0  0.20562035103E+02  0.36503938718E+02 -0.54622257514E+02  0.68839856518E+02  0.00000000000E+00 0.  1.
         14    1    3    3    0    0 -0.39021623769E+02  0.95147540586E+02 -0.33848191343E+03  0.35375944838E+03  0.00000000000E+00 0. -1.
         13    1    5    5    0    0  0.57232098653E+02 -0.23331629936E+02  0.23226921948E+03  0.24035155167E+03  0.00000000000E+00 0. -1.
        -14    1    5    5    0    0 -0.36154419621E+02  0.13443213151E+02  0.97105875076E+02  0.10448642501E+03  0.00000000000E+00 0.  1.
          5    1    4    4  501    0 -0.17183049509E+02 -0.34715779719E+01  0.78016771244E+02  0.80071206057E+02  0.41800000000E+01 0. -1.
         -5    1    4    4    0  501  0.14564959143E+02 -0.11829148455E+03  0.22431112920E+02  0.12134925042E+03  0.41800000000E+01 0. -1.
</event>
<event>
11    1  0.7577197E-009  0.1429913E+03  0.7561462E-02  0.1104263E+00
         22   -1    0    0    0    0  0.00000000000E+00  0.00000000000E+00  0.36422304481E+03  0.36422304481E+03  0.00000000000E+00 0.  1.
         22   -1    0    0    0    0 -0.00000000000E+00 -0.00000000000E+00 -0.14465641486E+03  0.14465641486E+03  0.00000000000E+00 0. -1.
        -24    2    1    2    0    0  0.50553377403E+02 -0.52072980108E+02 -0.59385743586E+02  0.12552669085E+03  0.83444858142E+02 0.  0.
         25    2    1    2    0    0 -0.21760527555E+02  0.57908464972E+02  0.74912508962E+02  0.15838168388E+03  0.12508382356E+03 0.  0.
         24    2    1    2    0    0 -0.28792849848E+02 -0.58354848639E+01  0.20403986457E+03  0.22497108493E+03  0.90092406093E+02 0.  0.
        -13    1    5    5    0    0 -0.51316293717E+02 -0.19417641203E+02  0.18370972589E+03  0.19172811525E+03  0.00000000000E+00 0.  1.
         14    1    5    5    0    0  0.22523443869E+02  0.13582156339E+02  0.20330138682E+02  0.33242969683E+02  0.00000000000E+00 0. -1.
         11    1    3    3    0    0  0.60742250163E+02 -0.36068760878E+02 -0.73450576021E+02  0.10190958534E+03  0.00000000000E+00 0. -1.
        -12    1    3    3    0    0 -0.10188872760E+02 -0.16004219230E+02  0.14064832435E+02  0.23617105511E+02  0.00000000000E+00 0.  1.
          5    1    4    4  501    0 -0.37800288051E+02  0.85197516888E+02  0.20860648936E+02  0.95603962965E+02  0.41800000000E+01 0. -1.
         -5    1    4    4    0  501  0.16039760496E+02 -0.27289051916E+02  0.54051860026E+02  0.62777720917E+02  0.41800000000E+01 0. -1.
</event>
<event>
11    1  0.7577197E-009  0.2154139E+03  0.7561462E-02  0.1044129E+00
         22   -1    0    0    0    0  0.00000000000E+00  0.00000000000E+00  0.30370146606E+03  0.30370146606E+03  0.00000000000E+00 0.  1.
         22   -1    0    0    0    0 -0.00000000000E+00 -0.00000000000E+00 -0.12899821751E+04  0.12899821751E+04  0.00000000000E+00 0. -1.
        -24    2    1    2    0    0 -0.68626103150E+02  0.16495974433E+03 -0.89919049521E+03  0.92006989101E+03  0.77870394752E+02 0.  0.
         25    2    1    2    0    0  0.75249137149E+02 -0.14860893149E+03 -0.34528620516E+03  0.40325848505E+03  0.12509114728E+03 0.  0.
         24    2    1    2    0    0 -0.66230339991E+01 -0.16350812836E+02  0.25819599138E+03  0.27035526507E+03  0.78202210473E+02 0.  0.
        -11    1    5    5    0    0 -0.37687475999E+02  0.10022678806E+02  0.11247636420E+03  0.11904508575E+03  0.00000000000E+00 0.  1.
         12    1    5    5    0    0  0.31064442000E+02 -0.26373491642E+02  0.14571962719E+03  0.15131017932E+03  0.00000000000E+00 0. -1.
         13    1    3    3    0    0 -0.69433524524E+02  0.12019280159E+03 -0.78922479228E+03  0.80133831597E+03  0.00000000000E+00 0. -1.
        -14    1    3    3    0    0  0.80742137431E+00  0.44766942736E+02 -0.10996570293E+03  0.11873157504E+03  0.00000000000E+00 0.  1.
          5    1    4    4  501    0 -0.12685955632E+02 -0.33776492433E+02 -0.93798407086E+01  0.37513180658E+02  0.41800000000E+01 0. -1.
         -5    1    4    4    0  501  0.87935092781E+02 -0.11483243906E+03 -0.33590636445E+03  0.36574530439E+03  0.41800000000E+01 0. -1.
</event>
<event>
11    1  0.7577197E-009  0.1351277E+03  0.7561462E-02  0.1113124E+00
         22   -1    0    0    0    0  0.00000000000E+00  0.00000000000E+00  0.11161770472E+04  0.11161770472E+04  0.00000000000E+00 0.  1.
         22   -1    0    0    0    0 -0.00000000000E+00 -0.00000000000E+00 -0.29756117305E+03  0.29756117305E+03  0.00000000000E+00 0. -1.
         24    2    1    2    0    0 -0.25595402298E+02 -0.44167901467E+02 -0.27426322527E+03  0.29059414292E+03  0.81355460945E+02 0.  0.
         25    2    1    2    0    0  0.57425366239E+02  0.28724923456E+02  0.38333562791E+03  0.40830956546E+03  0.12509078185E+03 0.  0.
        -24    2    1    2    0    0 -0.31829963940E+02  0.15442978012E+02  0.70954347147E+03  0.71483451184E+03  0.79276788791E+02 0.  0.
        -11    1    3    3    0    0  0.19427423035E+02  0.12874346461E+02 -0.61968539742E+02  0.66206294869E+02  0.00000000000E+00 0.  1.
         12    1    3    3    0    0 -0.45022825334E+02 -0.57042247928E+02 -0.21229468552E+03  0.22438784805E+03  0.00000000000E+00 0. -1.
         13    1    5    5    0    0 -0.16652146911E+01 -0.29108873338E+02  0.15755294434E+03  0.16022805534E+03  0.00000000000E+00 0. -1.
        -14    1    5    5    0    0 -0.30164749249E+02  0.44551851350E+02  0.55199052712E+03  0.55460645650E+03  0.00000000000E+00 0.  1.
          5    1    4    4  501    0  0.92347841465E+02  0.60765362586E+01  0.20230034041E+03  0.22250381625E+03  0.41800000000E+01 0.  1.
         -5    1    4    4    0  501 -0.34922475226E+02  0.22648387197E+02  0.18103528750E+03  0.18580574921E+03  0.41800000000E+01 0.  1.
</event>
<event>
11    1  0.7577197E-009  0.1377693E+03  0.7561462E-02  0.1110075E+00
         22   -1    0    0    0    0  0.00000000000E+00  0.00000000000E+00  0.94812963927E+03  0.94812963927E+03  0.00000000000E+00 0.  1.
         22   -1    0    0    0    0 -0.00000000000E+00 -0.00000000000E+00 -0.65783740889E+03  0.65783740889E+03  0.00000000000E+00 0.  1.
         24    2    1    2    0    0  0.36586251322E+01  0.58059495353E+02 -0.61684741528E+03  0.62492062633E+03  0.81490888646E+02 0.  0.
         25    2    1    2    0    0  0.35459261440E+02 -0.44533605142E+02  0.10265881473E+03  0.17154367978E+03  0.12509116924E+03 0.  0.
        -24    2    1    2    0    0 -0.39117886572E+02 -0.13525890211E+02  0.80448083093E+03  0.80950274205E+03  0.79950755410E+02 0.  0.
        -13    1    3    3    0    0  0.66058411784E+01  0.72149694490E+02 -0.59022870336E+03  0.59465884154E+03  0.00000000000E+00 0.  1.
         14    1    3    3    0    0 -0.29472160462E+01 -0.14090199137E+02 -0.26618711921E+02  0.30261784787E+02  0.00000000000E+00 0. -1.
         13    1    5    5    0    0 -0.18214922163E+01 -0.14825795655E+02  0.24953568299E+02  0.29082685941E+02  0.00000000000E+00 0. -1.
        -14    1    5    5    0    0 -0.37296394356E+02  0.12999054442E+01  0.77952726264E+03  0.78042005611E+03  0.00000000000E+00 0.  1.
          5    1    4    4  501    0 -0.39741771203E+01 -0.81957789111E+02  0.70354270752E+02  0.10816685765E+03  0.41800000000E+01 0. -1.
         -5    1    4    4    0  501  0.39433438561E+02  0.37424183969E+02  0.32304543976E+02  0.63376822135E+02  0.41800000000E+01 0. -1.
</event>
<event>
11    1  0.7577197E-009  0.3090735E+03  0.7561462E-02  0.9964226E-01
         22   -1    0    0    0    0  0.00000000000E+00  0.00000000000E+00  0.47768925025E+03  0.47768925025E+03  0.00000000000E+00 0.  1.
         22   -1    0    0    0    0 -0.00000000000E+00 -0.00000000000E+00 -0.72763426394E+03  0.72763426394E+03  0.00000000000E+00 0. -1.
         24    2    1    2    0    0  0.22194991786E+03  0.14642643008E+03 -0.45720483380E+03  0.53490143479E+03  0.79880031506E+02 0.  0.
         25    2    1    2    0    0 -0.30058880111E+03 -0.18663136623E+03 -0.48257614396E+02  0.37836553084E+03  0.12508710314E+03 0.  0.
        -24    2    1    2    0    0  0.78638883251E+02  0.40204936144E+02  0.25551743450E+03  0.29205654855E+03  0.11048691041E+03 0.  0.
        -11    1    3    3    0    0  0.94802084300E+02  0.46978802607E+02 -0.11343118781E+03  0.15511633522E+03  0.00000000000E+00 0.  1.
         12    1    3    3    0    0  0.12714783356E+03  0.99447627475E+02 -0.34377364598E+03  0.37978509958E+03  0.00000000000E+00 0. -1.
         13    1    5    5    0    0  0.43820166899E+02 -0.19150780970E+02  0.19382319941E+03  0.19963564829E+03  0.00000000000E+00 0. -1.
        -14    1    5    5    0    0  0.34818716352E+02  0.59355717114E+02  0.61694235083E+02  0.92420900261E+02  0.00000000000E+00 0.  1.
          5    1    4    4  501    0 -0.19992113643E+03 -0.65520448765E+02 -0.64246746894E+02  0.22001478788E+03  0.41800000000E+01 0. -1.
         -5    1    4    4    0  501 -0.10066766468E+03 -0.12111091746E+03  0.15989132498E+02  0.15835074297E+03  0.41800000000E+01 0. -1.
</event>
<event>
11    1  0.7577197E-009  0.1564172E+03  0.7561462E-02  0.1090496E+00
         22   -1    0    0    0    0  0.00000000000E+00  0.00000000000E+00  0.18434377615E+03  0.18434377615E+03  0.00000000000E+00 0. -1.
         22   -1    0    0    0    0 -0.00000000000E+00 -0.00000000000E+00 -0.23498311185E+03  0.23498311185E+03  0.00000000000E+00 0.  1.
        -24    2    1    2    0    0  0.23807254861E+02 -0.30903246113E+01 -0.79365813217E+02  0.11511882127E+03  0.79856591539E+02 0.  0.
         25    2    1    2    0    0  0.57365322231E+02  0.58729106041E+02 -0.47646928964E+02  0.15703090968E+03  0.12509431907E+03 0.  0.
         24    2    1    2    0    0 -0.81172577093E+02 -0.55638781429E+02  0.76373406477E+02  0.14717715705E+03  0.78380846322E+02 0.  0.
        -11    1    5    5    0    0  0.10584534974E+02 -0.18525698839E+02 -0.12770093435E+01  0.21374392411E+02  0.00000000000E+00 0.  1.
         12    1    5    5    0    0 -0.91757112066E+02 -0.37113082590E+02  0.77650415821E+02  0.12580276464E+03  0.00000000000E+00 0. -1.
         13    1    3    3    0    0  0.46532824605E+02 -0.89097706517E+01 -0.20260696356E+02  0.51528473639E+02  0.00000000000E+00 0. -1.
        -14    1    3    3    0    0 -0.22725569743E+02  0.58194460404E+01 -0.59105116862E+02  0.63590347629E+02  0.00000000000E+00 0.  1.
          5    1    4    4  501    0  0.92064661532E+02  0.19266066657E+02 -0.44726259890E+02  0.10423528170E+03  0.41800000000E+01 0. -1.
         -5    1    4    4    0  501 -0.34699339301E+02  0.39463039384E+02 -0.29206690740E+01  0.52795627974E+02  0.41800000000E+01 0. -1.
</event>
<event>
11    1  0.7577197E-009  0.1267255E+03  0.7561462E-02  0.1123359E+00
         22   -1    0    0    0    0  0.00000000000E+00  0.00000000000E+00  0.37214822870E+03  0.37214822870E+03  0.00000000000E+00 0.  1.
         22   -1    0    0    0    0 -0.00000000000E+00 -0.00000000000E+00 -0.34406683049E+03  0.34406683049E+03  0.00000000000E+00 0.  1.
        -24    2    1    2    0    0 -0.28305226850E+01 -0.19100595867E+02 -0.26722136611E+03  0.28013024276E+03  0.81809839141E+02 0.  0.
         25    2    1    2    0    0 -0.19363160110E+02  0.32482960277E+02  0.24364068060E+00  0.13067752262E+03  0.12508589401E+03 0.  0.
         24    2    1    2    0    0  0.22193682795E+02 -0.13382364410E+02  0.29505912363E+03  0.30540729381E+03  0.74445157273E+02 0.  0.
        -11    1    5    5    0    0  0.31629740092E+02 -0.39665545730E+02  0.19968653424E+03  0.20603035682E+03  0.00000000000E+00 0.  1.
         12    1    5    5    0    0 -0.94360572977E+01  0.26283181319E+02  0.95372589394E+02  0.99376936989E+02  0.00000000000E+00 0. -1.
         11    1    3    3    0    0 -0.24659787591E+02  0.24765837259E+02 -0.11839307724E+03  0.12344380324E+03  0.00000000000E+00 0. -1.
        -12    1    3    3    0    0  0.21829264906E+02 -0.43866433126E+02 -0.14882828887E+03  0.15668643952E+03  0.00000000000E+00 0.  1.
          5    1    4    4  501    0  0.39323203518E+02  0.15689615150E+02 -0.39225386657E+02  0.57866931117E+02  0.41800000000E+01 0. -1.
         -5    1    4    4    0  501 -0.58686363628E+02  0.16793345127E+02  0.39469027338E+02  0.72810591505E+02  0.41800000000E+01 0. -1.
</event>
<event>
11    1  0.7577197E-009  0.2096121E+03  0.7561462E-02  0.1047927E+00
         22   -1    0    0    0    0  0.00000000000E+00  0.00000000000E+00  0.54686607865E+03  0.54686607865E+03  0.00000000000E+00 0.  1.
         22   -1    0    0    0    0 -0.00000000000E+00 -0.00000000000E+00 -0.28151695415E+03  0.28151695415E+03  0.00000000000E+00 0. -1.
         24    2    1    2    0    0 -0.14062753789E+03 -0.94953130880E+02 -0.15516043775E+03  0.24427274784E+03  0.82475526169E+02 0.  0.
         25    2    1    2    0    0  0.14752583345E+03  0.73179504052E+02  0.60644216373E+02  0.21551389898E+03  0.12509759520E+03 0.  0.
        -24    2    1    2    0    0 -0.68982955561E+01  0.21773626828E+02  0.35986534587E+03  0.36859638598E+03  0.76410413517E+02 0.  0.
        -11    1    3    3    0    0 -0.69321091392E+02 -0.44583653927E+02 -0.22453112607E+02  0.85423990629E+02  0.00000000000E+00 0.  1.
         12    1    3    3    0    0 -0.71306446503E+02 -0.50369476953E+02 -0.13270732514E+03  0.15884875721E+03  0.00000000000E+00 0. -1.
         13    1    5    5    0    0 -0.12361756782E+02  0.33896517158E+01  0.58980741588E+01  0.14109927295E+02  0.00000000000E+00 0. -1.
        -14    1    5    5    0    0  0.54634612257E+01  0.18383975113E+02  0.35396727171E+03  0.35448645869E+03  0.00000000000E+00 0.  1.
          5    1    4    4  501    0  0.59561913884E+02  0.88847496496E+02 -0.70756538021E+00  0.10704892465E+03  0.41800000000E+01 0. -1.
         -5    1    4    4    0  501  0.87963919567E+02 -0.15667992444E+02  0.61351781754E+02  0.10846497433E+03  0.41800000000E+01 0. -1.
</event>
<event>
11    1  0.7577197E-009  0.1456381E+03  0.7561462E-02  0.1101421E+00
         22   -1    0    0    0    0  0.00000000000E+00  0.00000000000E+00  0.20056308654E+03  0.20056308654E+03  0.00000000000E+00 0.  1.
         22   -1    0    0    0    0 -0.00000000000E+00 -0.00000000000E+00 -0.15875653180E+04  0.15875653180E+04  0.00000000000E+00 0. -1.
         24    2    1    2    0    0 -0.32716803878E+02  0.35975197276E+01 -0.10639910211E+04  0.10674851220E+04  0.79776321330E+02 0.  0.
         25    2    1    2    0    0  0.54602129373E+02  0.67500289830E+02 -0.49445122820E+03  0.51736562512E+03  0.12508993296E+03 0.  0.
        -24    2    1    2    0    0 -0.21885325495E+02 -0.71097809557E+02  0.17144001784E+03  0.20327765736E+03  0.79976623277E+02 0.  0.
        -13    1    3    3    0    0  0.10105797090E+02 -0.17678213697E+02 -0.88071813468E+02  0.90395191807E+02  0.00000000000E+00 0.  1.
         14    1    3    3    0    0 -0.42822600968E+02  0.21275733424E+02 -0.97591920760E+03  0.97708993022E+03  0.00000000000E+00 0. -1.
         13    1    5    5    0    0 -0.23640703217E+02 -0.45160169231E+02  0.29330634510E+02  0.58809946899E+02  0.00000000000E+00 0. -1.
        -14    1    5    5    0    0  0.17553777221E+01 -0.25937640327E+02  0.14210938333E+03  0.14446771047E+03  0.00000000000E+00 0.  1.
          5    1    4    4  501    0  0.82714165437E+02  0.14868480814E+02 -0.36776652135E+03  0.37726965358E+03  0.41800000000E+01 0. -1.
         -5    1    4    4    0  501 -0.28112036064E+02  0.52631809016E+02 -0.12668470685E+03  0.14009597154E+03  0.41800000000E+01 0. -1.
</event>
<event>
11    1  0.7577197E-009  0.2068882E+03  0.7561462E-02  0.1049757E+00
         22   -1    0    0    0    0  0.00000000000E+00  0.00000000000E+00  0.20670199243E+04  0.20670199243E+04  0.00000000000E+00 0.  1.
         22   -1    0    0    0    0 -0.00000000000E+00 -0.00000000000E+00 -0.12178873553E+03  0.12178873553E+03  0.00000000000E+00 0.  1.
         24    2    1    2    0    0  0.13209408248E+03 -0.10390884410E+03  0.65473579813E+02  0.19704481231E+03  0.79334569370E+02 0.  0.
         25    2    1    2    0    0 -0.14733837185E+03  0.68752135778E+02  0.13681240934E+03  0.24657657166E+03  0.12508764266E+03 0.  0.
        -24    2    1    2    0    0  0.15244289370E+02  0.35156708323E+02  0.17429451996E+04  0.17451872758E+04  0.79701169702E+02 0.  0.
        -11    1    3    3    0    0  0.95515284985E+02 -0.25480365285E+02  0.28031605268E+02  0.10275305141E+03  0.00000000000E+00 0.  1.
         12    1    3    3    0    0  0.36578797493E+02 -0.78428478816E+02  0.37441974545E+02  0.94291760898E+02  0.00000000000E+00 0. -1.
         11    1    5    5    0    0 -0.19307098434E+02  0.38174064278E+02  0.52213559340E+03  0.52388510299E+03  0.00000000000E+00 0. -1.
        -12    1    5    5    0    0  0.34551387805E+02 -0.30173559542E+01  0.12208096062E+04  0.12213021728E+04  0.00000000000E+00 0.  1.
          5    1    4    4  501    0 -0.12287461387E+02  0.68462765831E+02  0.39880312141E+02  0.80287257451E+02  0.41800000000E+01 0. -1.
         -5    1    4    4    0  501 -0.13505091046E+03  0.28936994723E+00  0.96932097204E+02  0.16628931421E+03  0.41800000000E+01 0. -1.
</event>
<event>
11    1  0.7577197E-009  0.1345161E+03  0.7561462E-02  0.1113841E+00
         22   -1    0    0    0    0  0.00000000000E+00  0.00000000000E+00  0.40906549533E+03  0.40906549533E+03  0.00000000000E+00 0.  1.
         22   -1    0    0    0    0 -0.00000000000E+00 -0.00000000000E+00 -0.28381452501E+03  0.28381452501E+03  0.00000000000E+00 0.  1.
         24    2    1    2    0    0  0.88402455527E+01  0.52950366774E+01 -0.13717374155E+03  0.15938653648E+03  0.80506181652E+02 0.  0.
         25    2    1    2    0    0 -0.30085731796E+02  0.39438409961E+02 -0.93435125077E+02  0.16382160335E+03  0.12508739220E+03 0.  0.
        -24    2    1    2    0    0  0.21245486243E+02 -0.44733446638E+02  0.35585983694E+03  0.36967188052E+03  0.86997837695E+02 0.  0.
        -13    1    3    3    0    0  0.26935214038E+02 -0.21743379069E+02 -0.11478920517E+03  0.11989512881E+03  0.00000000000E+00 0.  1.
         14    1    3    3    0    0 -0.18094968485E+02  0.27038415746E+02 -0.22384536378E+02  0.39491407665E+02  0.00000000000E+00 0. -1.
         11    1    5    5    0    0  0.30462288353E+02  0.18839854875E+02  0.12184427518E+03  0.12699967928E+03  0.00000000000E+00 0. -1.
        -12    1    5    5    0    0 -0.92168021097E+01 -0.63573301513E+02  0.23401556177E+03  0.24267220124E+03  0.00000000000E+00 0.  1.
          5    1    4    4  501    0 -0.51376350034E+01 -0.45478302619E+02 -0.32256332445E+02  0.56148149439E+02  0.41800000000E+01 0. -1.
         -5    1    4    4    0  501 -0.24948096793E+02  0.84916712580E+02 -0.61178792632E+02  0.10767345391E+03  0.41800000000E+01 0. -1.
</event>
<event>
11    1  0.7577197E-009  0.1720113E+03  0.7561462E-02  0.1076294E+00
         22   -1    0    0    0    0  0.00000000000E+00  0.00000000000E+00  0.16835610780E+04  0.16835610780E+04  0.00000000000E+00 0.  1.
         22   -1    0    0    0    0 -0.00000000000E+00 -0.00000000000E+00 -0.23801923453E+03  0.23801923453E+03  0.00000000000E+00 0. -1.
        -24    2    1    2    0    0  0.94257296463E+02  0.72964048405E+02 -0.20280212784E+03  0.24826330550E+03  0.79358525084E+02 0.  0.
         25    2    1    2    0    0 -0.41030548211E+02 -0.88915965264E+02  0.61037899639E+03  0.63071405782E+03  0.12509256067E+03 0.  0.
         24    2    1    2    0    0 -0.53226748252E+02  0.15951916859E+02  0.10379649749E+04  0.10426029492E+04  0.81006605685E+02 0.  0.
        -13    1    5    5    0    0 -0.67051601745E+02  0.33440743884E+02  0.85719671097E+03  0.86046522413E+03  0.00000000000E+00 0.  1.
         14    1    5    5    0    0  0.13824853493E+02 -0.17488827025E+02  0.18076826395E+03  0.18213772507E+03  0.00000000000E+00 0. -1.
         13    1    3    3    0    0  0.25274025964E+02  0.38210110881E+02 -0.14420993666E+03  0.15131191227E+03  0.00000000000E+00 0. -1.
        -14    1    3    3    0    0  0.68983270499E+02  0.34753937524E+02 -0.58592191181E+02  0.96951393232E+02  0.00000000000E+00 0.  1.
          5    1    4    4  501    0 -0.77237368522E+02 -0.91857140431E+02  0.50800883542E+03  0.52200938172E+03  0.41800000000E+01 0.  1.
         -5    1    4    4    0  501  0.36206820311E+02  0.29411751678E+01  0.10237016098E+03  0.10870467610E+03  0.41800000000E+01 0.  1.
</event>
<event>
11    1  0.7577197E-009  0.1795467E+03  0.7561462E-02  0.1070010E+00
         22   -1    0    0    0    0  0.00000000000E+00  0.00000000000E+00  0.22287461283E+04  0.22287461283E+04  0.00000000000E+00 0. -1.
         22   -1    0    0    0    0 -0.00000000000E+00 -0.00000000000E+00 -0.46980274602E+03  0.46980274602E+03  0.00000000000E+00 0.  1.
         24    2    1    2    0    0  0.37130603550E+02 -0.95445620888E+02 -0.13181630676E+03  0.18547833970E+03  0.80858688488E+02 0.  0.
         25    2    1    2    0    0 -0.51665171047E+02  0.15367894446E+03 -0.27623677065E+03  0.34386153343E+03  0.12508993902E+03 0.  0.
        -24    2    1    2    0    0  0.14534567498E+02 -0.58233323575E+02  0.21669964597E+04  0.21692090012E+04  0.77405819453E+02 0.  0.
        -13    1    3    3    0    0  0.49705942957E+02 -0.72141892951E+02 -0.13266840322E+03  0.15898439765E+03  0.00000000000E+00 0.  1.
         14    1    3    3    0    0 -0.12575339408E+02 -0.23303727938E+02  0.85209645918E+00  0.26493942051E+02  0.00000000000E+00 0. -1.
         13    1    5    5    0    0  0.44519688926E+02 -0.44039289848E+02  0.16177481659E+04  0.16189597246E+04  0.00000000000E+00 0. -1.
        -14    1    5    5    0    0 -0.29985121428E+02 -0.14194033727E+02  0.54924829383E+03  0.55024927658E+03  0.00000000000E+00 0.  1.
          5    1    4    4  501    0 -0.12341000953E+02  0.16077529412E+03 -0.24327924791E+03  0.29189597525E+03  0.41800000000E+01 0.  1.
         -5    1    4    4    0  501 -0.39324170094E+02 -0.70963496537E+01 -0.32957522735E+02  0.51965558179E+02  0.41800000000E+01 0.  1.
</event>
<event>
11    1  0.7577197E-009  0.1596168E+03  0.7561462E-02  0.1087438E+00
         22   -1    0    0    0    0  0.00000000000E+00  0.00000000000E+00  0.54162011045E+03  0.54162011045E+03  0.00000000000E+00 0. -1.
         22   -1    0    0    0    0 -0.00000000000E+00 -0.00000000000E+00 -0.92195797444E+03  0.92195797444E+03  0.00000000000E+00 0. -1.
        -24    2    1    2    0    0  0.80374752885E+01 -0.15220073077E+02 -0.77217852323E+03  0.77641777349E+03  0.79174715797E+02 0.  0.
         25    2    1    2    0    0 -0.18814330125E+02 -0.84159243708E+02 -0.97742455268E+02  0.18065959512E+03  0.12509014521E+03 0.  0.
         24    2    1    2    0    0  0.10776854837E+02  0.99379316785E+02  0.48958311450E+03  0.50650071628E+03  0.82818840766E+02 0.  0.
        -13    1    5    5    0    0 -0.97222326038E+01  0.18894605540E+01  0.20029604354E+03  0.20054076126E+03  0.00000000000E+00 0.  1.
         14    1    5    5    0    0  0.20499087441E+02  0.97489856230E+02  0.28928707096E+03  0.30595995502E+03  0.00000000000E+00 0. -1.
         13    1    3    3    0    0  0.23757653951E+02 -0.36475816309E+02 -0.64778313457E+03  0.64924409949E+03  0.00000000000E+00 0. -1.
        -14    1    3    3    0    0 -0.15720178663E+02  0.21255743233E+02 -0.12439538866E+03  0.12717367399E+03  0.00000000000E+00 0.  1.
          5    1    4    4  501    0  0.46658029007E+02 -0.64809687038E+01 -0.15129500963E+02  0.49652279158E+02  0.41800000000E+01 0. -1.
         -5    1    4    4    0  501 -0.65472359132E+02 -0.77678275004E+02 -0.82612954305E+02  0.13100731597E+03  0.41800000000E+01 0. -1.
</event>
<event>
11    1  0.7577197E-009  0.1291991E+03  0.7561462E-02  0.1120257E+00
         22   -1    0    0    0    0  0.00000000000E+00  0.00000000000E+00  0.17563088639E+03  0.17563088639E+03  0.00000000000E+00 0.  1.
         22   -1    0    0    0    0 -0.00000000000E+00 -0.00000000000E+00 -0.13655364381E+04  0.13655364381E+04  0.00000000000E+00 0. -1.
        -24    2    1    2    0    0  0.29608558425E+02 -0.67055630132E+01 -0.12804236767E+04  0.12832551519E+04  0.79607547132E+02 0.  0.
         25    2    1    2    0    0 -0.30235921164E+02 -0.26485974021E+02  0.44596473812E+00  0.13134456933E+03  0.12504191002E+03 0.  0.
         24    2    1    2    0    0  0.62736273891E+00  0.33191537035E+02  0.90072160299E+02  0.12656760327E+03  0.82488135030E+02 0.  0.
        -13    1    5    5    0    0  0.75249614110E+01  0.59129903523E+01  0.97096470272E+02  0.97566966943E+02  0.00000000000E+00 0.  1.
         14    1    5    5    0    0 -0.68975986721E+01  0.27278546682E+02 -0.70243099726E+01  0.29000636323E+02  0.00000000000E+00 0. -1.
         11    1    3    3    0    0  0.28594961536E+01 -0.22678969397E+01 -0.11517436006E+04  0.11517493831E+04  0.00000000000E+00 0. -1.
        -12    1    3    3    0    0  0.26749062271E+02 -0.44376660735E+01 -0.12868007619E+03  0.13150576877E+03  0.00000000000E+00 0.  1.
          5    1    4    4  501    0 -0.56773477814E+01  0.19953142755E+02 -0.52522891592E+02  0.56625848557E+02  0.41800000000E+01 0.  1.
         -5    1    4    4    0  501 -0.24558573382E+02 -0.46439116776E+02  0.52968856331E+02  0.74718720777E+02  0.41800000000E+01 0.  1.
</event>
<event>
11    1  0.7577197E-009  0.1289744E+03  0.7561462E-02  0.1120536E+00
         22   -1    0    0    0    0  0.00000000000E+00  0.00000000000E+00  0.15636199271E+04  0.15636199271E+04  0.00000000000E+00 0.  1.
         22   -1    0    0    0    0 -0.00000000000E+00 -0.00000000000E+00 -0.43120467456E+02  0.43120467456E+02  0.00000000000E+00 0. -1.
         24    2    1    2    0    0  0.85261831873E+00  0.36524570208E+02  0.68106312388E+02  0.12649148045E+03  0.10013417825E+03 0.  0.
         25    2    1    2    0    0  0.56393247235E+01 -0.14589579677E+02  0.30680415451E+03  0.33169472191E+03  0.12509173232E+03 0.  0.
        -24    2    1    2    0    0 -0.64919430422E+01 -0.21934990532E+02  0.11455889928E+04  0.11485541922E+04  0.79242053123E+02 0.  0.
        -11    1    3    3    0    0  0.46944992503E+02  0.82315922490E+01  0.50914532181E+02  0.69741530090E+02  0.00000000000E+00 0.  1.
         12    1    3    3    0    0 -0.46092374184E+02  0.28292977959E+02  0.17191780207E+02  0.56749950365E+02  0.00000000000E+00 0. -1.
         11    1    5    5    0    0  0.12737488399E+02 -0.29144254565E+02  0.18281443906E+03  0.18556063784E+03  0.00000000000E+00 0. -1.
        -12    1    5    5    0    0 -0.19229431441E+02  0.72092640336E+01  0.96277455372E+03  0.96299355440E+03  0.00000000000E+00 0.  1.
          5    1    4    4  501    0  0.21258008002E+02 -0.19912127844E+02  0.55308290725E+01  0.29940911972E+02  0.41800000000E+01 0.  1.
         -5    1    4    4    0  501 -0.15618683278E+02  0.53225481676E+01  0.30127332544E+03  0.30175380993E+03  0.41800000000E+01 0.  1.
</event>
<event>
11    1  0.7577197E-009  0.1477889E+03  0.7561462E-02  0.1099160E+00
         22   -1    0    0    0    0  0.00000000000E+00  0.00000000000E+00  0.70812046125E+03  0.70812046125E+03  0.00000000000E+00 0.  1.
         22   -1    0    0    0    0 -0.00000000000E+00 -0.00000000000E+00 -0.17631616627E+04  0.17631616627E+04  0.00000000000E+00 0.  1.
        -24    2    1    2    0    0  0.36380461547E+02  0.15204543144E+02 -0.16504495693E+04  0.16528339487E+04  0.79508271597E+02 0.  0.
         25    2    1    2    0    0  0.36281098925E+02 -0.48321579173E+02 -0.61448790258E+02  0.15190556443E+03  0.12509218012E+03 0.  0.
         24    2    1    2    0    0 -0.72661560471E+02  0.33117036028E+02  0.65685715806E+03  0.66654261082E+03  0.80257619577E+02 0.  0.
        -13    1    5    5    0    0 -0.76086128975E+02  0.40941180434E+02  0.38604381596E+03  0.39559462474E+03  0.00000000000E+00 0.  1.
         14    1    5    5    0    0  0.34245685040E+01 -0.78241444061E+01  0.27081334210E+03  0.27094798608E+03  0.00000000000E+00 0. -1.
         11    1    3    3    0    0 -0.22984743297E+02 -0.82249638440E+01 -0.54055771495E+03  0.54110866899E+03  0.00000000000E+00 0. -1.
        -12    1    3    3    0    0  0.59365204844E+02  0.23429506988E+02 -0.11098918543E+04  0.11117252798E+04  0.00000000000E+00 0.  1.
          5    1    4    4  501    0  0.46764976845E+02 -0.40421533788E+02  0.23190531688E+02  0.66152374206E+02  0.41800000000E+01 0. -1.
         -5    1    4    4    0  501 -0.10483877920E+02 -0.79000453849E+01 -0.84639321946E+02  0.85753190220E+02  0.41800000000E+01 0. -1.
</event>
<event>
11    1  0.7577197E-009  0.1423950E+04  0.7561462E-02  0.8355586E-01
         22   -1    0    0    0    0  0.00000000000E+00  0.00000000000E+00  0.12685110762E+04  0.12685110762E+04  0.00000000000E+00 0. -1.
         22   -1    0    0    0    0 -0.00000000000E+00 -0.00000000000E+00 -0.26444709708E+04  0.26444709708E+04  0.00000000000E+00 0. -1.
        -24    2    1    2    0    0 -0.38196405028E+03 -0.13665044643E+04 -0.18278829624E+04  0.23153283152E+04  0.79737672381E+02 0.  0.
         25    2    1    2    0    0  0.39484246215E+03  0.13607454286E+04  0.34457161039E+03  0.14635250491E+04  0.12508910102E+03 0.  0.
         24    2    1    2    0    0 -0.12878411870E+02  0.57590356334E+01  0.10735145738E+03  0.13412868268E+03  0.79165321518E+02 0.  0.
        -13    1    5    5    0    0  0.22284589277E+02 -0.24936496851E+02  0.39228299210E+02  0.51548920971E+02  0.00000000000E+00 0.  1.
         14    1    5    5    0    0 -0.35163001146E+02  0.30695532484E+02  0.68123158170E+02  0.82579761704E+02  0.00000000000E+00 0. -1.
         11    1    3    3    0    0 -0.16264053374E+03 -0.70554313907E+03 -0.96741852315E+03  0.12083632166E+04  0.00000000000E+00 0. -1.
        -12    1    3    3    0    0 -0.21932351654E+03 -0.66096132519E+03 -0.86046443925E+03  0.11069650986E+04  0.00000000000E+00 0.  1.
          5    1    4    4  501    0  0.35477639426E+03  0.10964725142E+04  0.31398888548E+03  0.11944558414E+04  0.41800000000E+01 0. -1.
         -5    1    4    4    0  501  0.40066067888E+02  0.26427291441E+03  0.30582724909E+02  0.26906920773E+03  0.41800000000E+01 0. -1.
</event>
<event>
11    1  0.7577197E-009  0.1364626E+03  0.7561462E-02  0.1111574E+00
         22   -1    0    0    0    0  0.00000000000E+00  0.00000000000E+00  0.98539574308E+03  0.98539574308E+03  0.00000000000E+00 0.  1.
         22   -1    0    0    0    0 -0.00000000000E+00 -0.00000000000E+00 -0.14831369058E+04  0.14831369058E+04  0.00000000000E+00 0. -1.
        -24    2    1    2    0    0  0.50222509965E+02  0.10306417115E+02 -0.10483132645E+04  0.10525349425E+04  0.78997353215E+02 0.  0.
         25    2    1    2    0    0 -0.67899097591E+02 -0.33077867812E+02 -0.41914604509E+03  0.44388792545E+03  0.12509456604E+03 0.  0.
         24    2    1    2    0    0  0.17676587626E+02  0.22771450697E+02  0.96971814693E+03  0.97210978093E+03  0.61750635462E+02 0.  0.
        -13    1    5    5    0    0  0.12929884537E+02  0.32793206876E+02  0.93498844976E+03  0.93565270134E+03  0.00000000000E+00 0.  1.
         14    1    5    5    0    0  0.47467030890E+01 -0.10021756179E+02  0.34729697164E+02  0.36457079590E+02  0.00000000000E+00 0. -1.
         11    1    3    3    0    0  0.62883765996E+02 -0.57318416107E+01 -0.51895879339E+03  0.52278623860E+03  0.00000000000E+00 0. -1.
        -12    1    3    3    0    0 -0.12661256032E+02  0.16038258725E+02 -0.52935447115E+03  0.52974870389E+03  0.00000000000E+00 0.  1.
          5    1    4    4  501    0 -0.28067852518E+02 -0.66111211412E+02 -0.11726665230E+03  0.13757702120E+03  0.41800000000E+01 0. -1.
         -5    1    4    4    0  501 -0.39831245074E+02  0.33033343601E+02 -0.30187939279E+03  0.30631090425E+03  0.41800000000E+01 0. -1.
</event>
<event>
11    1  0.7577197E-009  0.1410568E+03  0.7561462E-02  0.1106384E+00
         22   -1    0    0    0    0  0.00000000000E+00  0.00000000000E+00  0.17178451118E+04  0.17178451118E+04  0.00000000000E+00 0. -1.
         22   -1    0    0    0    0 -0.00000000000E+00 -0.00000000000E+00 -0.31456070769E+03  0.31456070769E+03  0.00000000000E+00 0.  1.
         24    2    1    2    0    0 -0.35032463183E+02  0.58697879227E+02 -0.23817407034E+03  0.26064525992E+03  0.80847691585E+02 0.  0.
         25    2    1    2    0    0  0.26252242086E+02 -0.37537911892E+02  0.51509686749E+01  0.13331027210E+03  0.12508725405E+03 0.  0.
        -24    2    1    2    0    0  0.87802210966E+01 -0.21159967335E+02  0.16363075058E+04  0.16384502875E+04  0.80574528254E+02 0.  0.
        -11    1    3    3    0    0 -0.26367635812E+02  0.79140252711E+02 -0.18043466696E+03  0.19878405585E+03  0.00000000000E+00 0.  1.
         12    1    3    3    0    0 -0.86648273711E+01 -0.20442373484E+02 -0.57739403374E+02  0.61861204071E+02  0.00000000000E+00 0. -1.
         13    1    5    5    0    0  0.44365345487E+02 -0.12101361384E+02  0.10367392920E+04  0.10377586841E+04  0.00000000000E+00 0. -1.
        -14    1    5    5    0    0 -0.35585124391E+02 -0.90586059510E+01  0.59956821378E+03  0.60069160340E+03  0.00000000000E+00 0.  1.
          5    1    4    4  501    0  0.73398251675E+02 -0.43592228481E+02  0.20795031805E+01  0.85494926553E+02  0.41800000000E+01 0. -1.
         -5    1    4    4    0  501 -0.47146009588E+02  0.60543165894E+01  0.30714654944E+01  0.47815345547E+02  0.41800000000E+01 0. -1.
</event>
<event>
11    1  0.7577197E-009  0.1366487E+03  0.7561462E-02  0.1111359E+00
         22   -1    0    0    0    0  0.00000000000E+00  0.00000000000E+00  0.25610098319E+04  0.25610098319E+04  0.00000000000E+00 0. -1.
         22   -1    0    0    0    0 -0.00000000000E+00 -0.00000000000E+00 -0.14490756454E+03  0.14490756454E+03  0.00000000000E+00 0. -1.
         24    2    1    2    0    0  0.15510153273E+02 -0.52389381968E+02 -0.12164864767E+03  0.15613024298E+03  0.81197580610E+02 0.  0.
         25    2    1    2    0    0  0.74764729334E+00  0.85840303242E+02  0.12996520375E+04  0.13084772839E+04  0.12509303514E+03 0.  0.
        -24    2    1    2    0    0 -0.16257800566E+02 -0.33450921274E+02  0.12380988776E+04  0.12413098695E+04  0.81105371666E+02 0.  0.
        -11    1    3    3    0    0  0.27953956585E+02 -0.39952722740E+01 -0.42708814492E+01  0.28559172216E+02  0.00000000000E+00 0.  1.
         12    1    3    3    0    0 -0.12443803312E+02 -0.48394109694E+02 -0.11737776622E+03  0.12757107077E+03  0.00000000000E+00 0. -1.
         13    1    5    5    0    0 -0.37722553235E+02 -0.45465285560E+02  0.10421389805E+04  0.10438121181E+04  0.00000000000E+00 0. -1.
        -14    1    5    5    0    0  0.21464752669E+02  0.12014364285E+02  0.19595989707E+03  0.19749775142E+03  0.00000000000E+00 0.  1.
          5    1    4    4  501    0  0.16366500078E+02 -0.28217124767E+02  0.42521326617E+03  0.42648313283E+03  0.41800000000E+01 0. -1.
         -5    1    4    4    0  501 -0.15618852785E+02  0.11405742801E+03  0.87443877131E+03  0.88199415112E+03  0.41800000000E+01 0. -1.
</event>
<event>
11    1  0.7577197E-009  0.1350113E+03  0.7561462E-02  0.1113261E+00
         22   -1    0    0    0    0  0.00000000000E+00  0.00000000000E+00  0.62617334296E+03  0.62617334296E+03  0.00000000000E+00 0. -1.
         22   -1    0    0    0    0 -0.00000000000E+00 -0.00000000000E+00 -0.10436582185E+03  0.10436582185E+03  0.00000000000E+00 0. -1.
         24    2    1    2    0    0  0.23168763981E+02  0.40436227015E+02 -0.29463552875E+02  0.96356927457E+02  0.79023265190E+02 0.  0.
         25    2    1    2    0    0 -0.98156384360E+01 -0.71655749590E+02  0.10367680624E+03  0.17784116596E+03  0.12509079483E+03 0.  0.
        -24    2    1    2    0    0 -0.13353125545E+02  0.31219522574E+02  0.44759426775E+03  0.45634107139E+03  0.82180170125E+02 0.  0.
        -13    1    3    3    0    0  0.92521459843E+01  0.21612038231E+02  0.26661132501E+02  0.35545722500E+02  0.00000000000E+00 0.  1.
         14    1    3    3    0    0  0.13916617997E+02  0.18824188784E+02 -0.56124685375E+02  0.60811204957E+02  0.00000000000E+00 0. -1.
         13    1    5    5    0    0 -0.38128907959E+02  0.32043667120E+02  0.39578634615E+03  0.39890781143E+03  0.00000000000E+00 0. -1.
        -14    1    5    5    0    0  0.24775782414E+02 -0.82414454587E+00  0.51807921602E+02  0.57433259956E+02  0.00000000000E+00 0.  1.
          5    1    4    4  501    0  0.31855526354E+02  0.22496212427E+02  0.15343205341E+02  0.42115798496E+02  0.41800000000E+01 0.  1.
         -5    1    4    4    0  501 -0.41671164790E+02 -0.94151962017E+02  0.88333600896E+02  0.13572536747E+03  0.41800000000E+01 0.  1.
</event>
<event>
11    1  0.7577197E-009  0.2221096E+03  0.7561462E-02  0.1039904E+00
         22   -1    0    0    0    0  0.00000000000E+00  0.00000000000E+00  0.54048499517E+03  0.54048499517E+03  0.00000000000E+00 0. -1.
         22   -1    0    0    0    0 -0.00000000000E+00 -0.00000000000E+00 -0.56715331837E+03  0.56715331837E+03  0.00000000000E+00 0. -1.
         24    2    1    2    0    0  0.17965554101E+02 -0.17928457074E+03 -0.47557205983E+03  0.51489032370E+03  0.80483184010E+02 0.  0.
         25    2    1    2    0    0 -0.25519338476E+02  0.24916662854E+03  0.34242302577E+03  0.44230752299E+03  0.12508865215E+03 0.  0.
        -24    2    1    2    0    0  0.75537843745E+01 -0.69882057808E+02  0.10648071085E+03  0.15044046685E+03  0.79709664539E+02 0.  0.
        -11    1    3    3    0    0  0.22677852801E+02 -0.39523773497E+02 -0.20851427177E+03  0.21343527171E+03  0.00000000000E+00 0.  1.
         12    1    3    3    0    0 -0.47122987001E+01 -0.13976079724E+03 -0.26705778806E+03  0.30145505199E+03  0.00000000000E+00 0. -1.
         11    1    5    5    0    0 -0.40405303878E+00 -0.86032621697E+02  0.74812117604E+02  0.11401152659E+03  0.00000000000E+00 0. -1.
        -12    1    5    5    0    0  0.79578374133E+01  0.16150563889E+02  0.31668593249E+02  0.36428940262E+02  0.00000000000E+00 0.  1.
          5    1    4    4  501    0 -0.39317221541E+02  0.21098762575E+03  0.19731076600E+03  0.29156582946E+03  0.41800000000E+01 0. -1.
         -5    1    4    4    0  501  0.13797883065E+02  0.38179002799E+02  0.14511225978E+03  0.15074169353E+03  0.41800000000E+01 0. -1.
</event>
<event>
11    1  0.7577197E-009  0.1639639E+03  0.7561462E-02  0.1083407E+00
         22   -1    0    0    0    0  0.00000000000E+00  0.00000000000E+00  0.10916576880E+04  0.10916576880E+04  0.00000000000E+00 0.  1.
         22   -1    0    0    0    0 -0.00000000000E+00 -0.00000000000E+00 -0.22665526077E+04  0.22665526077E+04  0.00000000000E+00 0.  1.
         24    2    1    2    0    0 -0.50257695140E+02 -0.37434808124E+02 -0.21345463472E+04  0.21369822758E+04  0.80485638849E+02 0.  0.
         25    2    1    2    0    0  0.79141836424E+01  0.13409301314E+03 -0.60017145962E+02  0.19311581229E+03  0.12509232059E+03 0.  0.
        -24    2    1    2    0    0  0.42343511498E+02 -0.96658205017E+02  0.10196685735E+04  0.10281122076E+04  0.78453361987E+02 0.  0.
        -11    1    3    3    0    0 -0.65037802441E+02 -0.39455055018E+02 -0.12513862017E+04  0.12536961525E+04  0.00000000000E+00 0.  1.
         12    1    3    3    0    0  0.14780107300E+02  0.20202468940E+01 -0.88316014550E+03  0.88328612328E+03  0.00000000000E+00 0. -1.
         13    1    5    5    0    0  0.39815680792E+02 -0.55031276853E+01  0.33163888499E+03  0.33406574636E+03  0.00000000000E+00 0. -1.
        -14    1    5    5    0    0  0.25278307063E+01 -0.91155077332E+02  0.68802968852E+03  0.69404646122E+03  0.00000000000E+00 0.  1.
          5    1    4    4  501    0  0.58898031537E+02  0.32900949445E+02 -0.38224683221E+02  0.77653392718E+02  0.41800000000E+01 0. -1.
         -5    1    4    4    0  501 -0.50983847895E+02  0.10119206370E+03 -0.21792462741E+02  0.11546241957E+03  0.41800000000E+01 0. -1.
</event>
<event>
11    1  0.7577197E-009  0.1312162E+03  0.7561462E-02  0.1117784E+00
         22   -1    0    0    0    0  0.00000000000E+00  0.00000000000E+00  0.17819392590E+03  0.17819392590E+03  0.00000000000E+00 0.  1.
         22   -1    0    0    0    0 -0.00000000000E+00 -0.00000000000E+00 -0.20365051468E+04  0.20365051468E+04  0.00000000000E+00 0.  1.
        -24    2    1    2    0    0 -0.12067455631E+02  0.30300160590E+02 -0.14323833192E+04  0.14360388344E+04  0.97066150949E+02 0.  0.
         25    2    1    2    0    0  0.24591585099E+02 -0.69800280971E+02 -0.58105912557E+03  0.59896073135E+03  0.12508966787E+03 0.  0.
         24    2    1    2    0    0 -0.12524129467E+02  0.39500120381E+02  0.15513122384E+03  0.17969950695E+03  0.80679011264E+02 0.  0.
        -11    1    5    5    0    0 -0.61648284826E+00  0.27582245038E+02  0.15984247735E+03  0.16220597356E+03  0.00000000000E+00 0.  1.
         12    1    5    5    0    0 -0.11907646619E+02  0.11917875343E+02 -0.47112535141E+01  0.17493533387E+02  0.00000000000E+00 0. -1.
         13    1    3    3    0    0 -0.16860406080E+02 -0.32271656142E+02 -0.36477141952E+03  0.36658412620E+03  0.00000000000E+00 0. -1.
        -14    1    3    3    0    0  0.47929504484E+01  0.62571816732E+02 -0.10676118997E+04  0.10694547082E+04  0.00000000000E+00 0.  1.
          5    1    4    4  501    0 -0.24658548385E+02  0.21096035902E+02 -0.24940806417E+03  0.25154510850E+03  0.41800000000E+01 0. -1.
         -5    1    4    4    0  501  0.49250133484E+02 -0.90896316873E+02 -0.33165106141E+03  0.34741562285E+03  0.41800000000E+01 0. -1.
</event>
<event>
11    1  0.7577197E-009  0.1271911E+03  0.7561462E-02  0.1122769E+00
         22   -1    0    0    0    0  0.00000000000E+00  0.00000000000E+00  0.49398792890E+03  0.49398792890E+03  0.00000000000E+00 0. -1.
         22   -1    0    0    0    0 -0.00000000000E+00 -0.00000000000E+00 -0.43660147675E+03  0.43660147675E+03  0.00000000000E+00 0. -1.
         24    2    1    2    0    0  0.16943965989E+02 -0.20001588977E+02 -0.28680812000E+03  0.29907872018E+03  0.80635114064E+02 0.  0.
         25    2    1    2    0    0 -0.15215719719E+02 -0.29832315369E+01 -0.11143785586E+03  0.16824445191E+03  0.12508949629E+03 0.  0.
        -24    2    1    2    0    0 -0.17282462700E+01  0.22984820514E+02  0.45563242801E+03  0.46326623357E+03  0.80519593240E+02 0.  0.
        -13    1    3    3    0    0 -0.17610710856E+02 -0.36434561673E+02 -0.91373240386E+02  0.99933395218E+02  0.00000000000E+00 0.  1.
         14    1    3    3    0    0  0.34554676845E+02  0.16432972696E+02 -0.19543487962E+03  0.19914532496E+03  0.00000000000E+00 0. -1.
         11    1    5    5    0    0 -0.81624886742E+01  0.45102043753E+02  0.40565389718E+03  0.40823510980E+03  0.00000000000E+00 0. -1.
        -12    1    5    5    0    0  0.64342424042E+01 -0.22117223240E+02  0.49978530830E+02  0.55031123767E+02  0.00000000000E+00 0.  1.
          5    1    4    4  501    0  0.54030554495E+02 -0.12314894013E+02 -0.42110926953E+02  0.69726322163E+02  0.41800000000E+01 0. -1.
         -5    1    4    4    0  501 -0.69246274214E+02  0.93316624760E+01 -0.69326928903E+02  0.98518129744E+02  0.41800000000E+01 0. -1.
</event>
<event>
11    1  0.7577197E-009  0.1509063E+03  0.7561462E-02  0.1095956E+00
         22   -1    0    0    0    0  0.00000000000E+00  0.00000000000E+00  0.29115237964E+04  0.29115237964E+04  0.00000000000E+00 0. -1.
         22   -1    0    0    0    0 -0.00000000000E+00 -0.00000000000E+00 -0.76915480217E+03  0.76915480217E+03  0.00000000000E+00 0.  1.
        -24    2    1    2    0    0 -0.53059731153E+02  0.67025588628E+02 -0.66975715409E+03  0.67997305160E+03  0.80504290867E+02 0.  0.
         25    2    1    2    0    0  0.81085231988E+02 -0.25680610206E+02 -0.32380864419E+02  0.15469620986E+03  0.12509231942E+03 0.  0.
         24    2    1    2    0    0 -0.28025500836E+02 -0.41344978422E+02  0.28445070128E+04  0.28460093372E+04  0.77808518377E+02 0.  0.
        -13    1    5    5    0    0  0.22751109513E+02 -0.10955917385E+02  0.40606251106E+03  0.40684690979E+03  0.00000000000E+00 0.  1.
         14    1    5    5    0    0 -0.50776610349E+02 -0.30389061037E+02  0.24384445017E+04  0.24391624274E+04  0.00000000000E+00 0. -1.
         13    1    3    3    0    0  0.43013478307E+00  0.62513702048E+02 -0.40875922395E+03  0.41351209308E+03  0.00000000000E+00 0. -1.
        -14    1    3    3    0    0 -0.53489865936E+02  0.45118865806E+01 -0.26099793014E+03  0.26646095852E+03  0.00000000000E+00 0.  1.
          5    1    4    4  501    0 -0.29153636256E+01  0.11509493539E+02 -0.57906789566E+02  0.59259062298E+02  0.41800000000E+01 0. -1.
         -5    1    4    4    0  501  0.84000595614E+02 -0.37190103745E+02  0.25525925147E+02  0.95437147562E+02  0.41800000000E+01 0. -1.
</event>
<event>
11    1  0.7577197E-009  0.1398808E+03  0.7561462E-02  0.1107692E+00
         22   -1    0    0    0    0  0.00000000000E+00  0.00000000000E+00  0.48075905569E+03  0.48075905569E+03  0.00000000000E+00 0. -1.
         22   -1    0    0    0    0 -0.00000000000E+00 -0.00000000000E+00 -0.17556892338E+04  0.17556892338E+04  0.00000000000E+00 0. -1.
         24    2    1    2    0    0  0.60972525387E+02 -0.39681966038E+01 -0.15950249252E+04  0.15983252334E+04  0.82496328496E+02 0.  0.
         25    2    1    2    0    0 -0.10406398436E+03 -0.22023138755E+02 -0.10984143207E+03  0.19755075947E+03  0.12508729307E+03 0.  0.
        -24    2    1    2    0    0  0.43091458972E+02  0.25991335358E+02  0.42993617914E+03  0.44057229666E+03  0.82014676131E+02 0.  0.
        -13    1    3    3    0    0 -0.13300526894E+02  0.16655021631E+00 -0.58185514411E+02  0.59686563328E+02  0.00000000000E+00 0.  1.
         14    1    3    3    0    0  0.74273052281E+02 -0.41347468201E+01 -0.15368394108E+04  0.15386386701E+04  0.00000000000E+00 0. -1.
         11    1    5    5    0    0  0.45530861950E+02  0.18161181640E+02  0.42957524464E+03  0.43236301729E+03  0.00000000000E+00 0. -1.
        -12    1    5    5    0    0 -0.24394029783E+01  0.78301537188E+01  0.36093450068E+00  0.82092793755E+01  0.00000000000E+00 0.  1.
          5    1    4    4  501    0 -0.12464198713E+03 -0.17533560817E+02 -0.11985707991E+03  0.17385696050E+03  0.41800000000E+01 0.  1.
         -5    1    4    4    0  501  0.20578002773E+02 -0.44895779374E+01  0.10015647835E+02  0.23693798972E+02  0.41800000000E+01 0.  1.
</event>
<event>
11    1  0.7577197E-009  0.1367478E+03  0.7561462E-02  0.1111245E+00
         22   -1    0    0    0    0  0.00000000000E+00  0.00000000000E+00  0.19761764061E+03  0.19761764061E+03  0.00000000000E+00 0.  1.
         22   -1    0    0    0    0 -0.00000000000E+00 -0.00000000000E+00 -0.66780719320E+03  0.66780719320E+03  0.00000000000E+00 0.  1.
        -24    2    1    2    0    0 -0.23669451611E+02 -0.49103009043E+02 -0.56213719059E+03  0.57051936210E+03  0.80763686436E+02 0.  0.
         25    2    1    2    0    0 -0.35887618335E+01  0.74081748495E+02 -0.25725663593E+02  0.14768538366E+03  0.12509267808E+03 0.  0.
         24    2    1    2    0    0  0.27258213444E+02 -0.24978739452E+02  0.11767330159E+03  0.14722008806E+03  0.80372885944E+02 0.  0.
        -11    1    5    5    0    0  0.16171866152E+01 -0.34016370716E+02  0.11495986081E+03  0.11989786639E+03  0.00000000000E+00 0.  1.
         12    1    5    5    0    0  0.25641026829E+02  0.90376312640E+01  0.27134407865E+01  0.27322221663E+02  0.00000000000E+00 0. -1.
         13    1    3    3    0    0  0.20146737289E+01 -0.46927690713E+02 -0.14148289244E+03  0.14907607427E+03  0.00000000000E+00 0. -1.
        -14    1    3    3    0    0 -0.25684125340E+02 -0.21753183295E+01 -0.42065429815E+03  0.42144328783E+03  0.00000000000E+00 0.  1.
          5    1    4    4  501    0  0.29214087306E+02  0.44103646640E+02 -0.67968495348E+02  0.86230988073E+02  0.41800000000E+01 0.  1.
         -5    1    4    4    0  501 -0.32802849139E+02  0.29978101855E+02  0.42242831756E+02  0.61454395589E+02  0.41800000000E+01 0.  1.
</event>
<event>
11    1  0.7577197E-009  0.1428868E+03  0.7561462E-02  0.1104377E+00
         22   -1    0    0    0    0  0.00000000000E+00  0.00000000000E+00  0.38551668072E+04  0.38551668072E+04  0.00000000000E+00 0. -1.
         22   -1    0    0    0    0 -0.00000000000E+00 -0.00000000000E+00 -0.12043612193E+03  0.12043612193E+03  0.00000000000E+00 0. -1.
         24    2    1    2    0    0 -0.17651034656E+02 -0.66768515542E+02 -0.84362393506E+02  0.13549645348E+03  0.80452978663E+02 0.  0.
         25    2    1    2    0    0  0.65313027077E+02  0.53317196949E+02  0.56848616171E+03  0.58816026564E+03  0.12508983583E+03 0.  0.
        -24    2    1    2    0    0 -0.47661992421E+02  0.13451318593E+02  0.32506069171E+04  0.32519462100E+04  0.79096270812E+02 0.  0.
        -11    1    3    3    0    0  0.19543306422E+02  0.68151683002E+01 -0.55289386934E+01  0.21423270244E+02  0.00000000000E+00 0.  1.
         12    1    3    3    0    0 -0.37194341079E+02 -0.73583683842E+02 -0.78833454813E+02  0.11407318324E+03  0.00000000000E+00 0. -1.
         11    1    5    5    0    0 -0.15412619608E+02  0.41232894780E+02  0.10423259479E+04  0.10432550417E+04  0.00000000000E+00 0. -1.
        -12    1    5    5    0    0 -0.32249372813E+02 -0.27781576187E+02  0.22082809692E+04  0.22086911683E+04  0.00000000000E+00 0.  1.
          5    1    4    4  501    0 -0.11512854735E+02  0.47784355444E+02  0.82752728095E+02  0.96339902722E+02  0.41800000000E+01 0. -1.
         -5    1    4    4    0  501  0.76825881812E+02  0.55328415048E+01  0.48573343361E+03  0.49182036292E+03  0.41800000000E+01 0. -1.
</event>
<event>
11    1  0.7577197E-009  0.2307963E+03  0.7561462E-02  0.1034658E+00
         22   -1    0    0    0    0  0.00000000000E+00  0.00000000000E+00  0.51682045048E+03  0.51682045048E+03  0.00000000000E+00 0.  1.
         22   -1    0    0    0    0 -0.00000000000E+00 -0.00000000000E+00 -0.20585197729E+03  0.20585197729E+03  0.00000000000E+00 0.  1.
        -24    2    1    2    0    0  0.15230765940E+03 -0.10597753826E+03 -0.39126245955E+01  0.20198517262E+03  0.79710975402E+02 0.  0.
         25    2    1    2    0    0 -0.19269490564E+03  0.82857937974E+02  0.61894186524E+02  0.25194716747E+03  0.12509884222E+03 0.  0.
         24    2    1    2    0    0  0.40387246244E+02  0.23119600284E+02  0.25298691126E+03  0.26874008768E+03  0.77802389923E+02 0.  0.
        -11    1    5    5    0    0  0.13685858336E+02  0.44503050906E+02  0.81388969045E+02  0.93765604251E+02  0.00000000000E+00 0.  1.
         12    1    5    5    0    0  0.26701387909E+02 -0.21383450622E+02  0.17159794222E+03  0.17497448342E+03  0.00000000000E+00 0. -1.
         13    1    3    3    0    0 -0.12248160908E+01  0.72610939408E+01 -0.83825313439E+01  0.11157530704E+02  0.00000000000E+00 0. -1.
        -14    1    3    3    0    0  0.15353247549E+03 -0.11323863220E+03  0.44699067483E+01  0.19082764192E+03  0.00000000000E+00 0.  1.
          5    1    4    4  501    0 -0.55676701893E+02  0.84845634159E+02  0.10152357219E+00  0.10156849648E+03  0.41800000000E+01 0.  1.
         -5    1    4    4    0  501 -0.13701820375E+03 -0.19876961846E+01  0.61792662952E+02  0.15037867099E+03  0.41800000000E+01 0.  1.
</event>
<event>
11    1  0.7577197E-009  0.1504075E+03  0.7561462E-02  0.1096463E+00
         22   -1    0    0    0    0  0.00000000000E+00  0.00000000000E+00  0.33553925689E+03  0.33553925689E+03  0.00000000000E+00 0. -1.
         22   -1    0    0    0    0 -0.00000000000E+00 -0.00000000000E+00 -0.64682892599E+03  0.64682892599E+03  0.00000000000E+00 0.  1.
        -24    2    1    2    0    0  0.53715885071E+02  0.63416591726E+02 -0.56476716907E+03  0.57651587714E+03  0.80632133276E+02 0.  0.
         25    2    1    2    0    0 -0.24086295934E+02 -0.97275591514E+02  0.29582575537E+02  0.16298028093E+03  0.12507898641E+03 0.  0.
         24    2    1    2    0    0 -0.29629589137E+02  0.33858999789E+02  0.22389492444E+03  0.24287202481E+03  0.82665221387E+02 0.  0.
        -13    1    5    5    0    0 -0.24761544296E+02 -0.24008851474E+02  0.63084580897E+02  0.71897311298E+02  0.00000000000E+00 0.  1.
         14    1    5    5    0    0 -0.48680448413E+01  0.57867851263E+02  0.16081034354E+03  0.17097471351E+03  0.00000000000E+00 0. -1.
         13    1    3    3    0    0 -0.27766453237E+00 -0.16637413657E+02 -0.47939295920E+02  0.50745016741E+02  0.00000000000E+00 0. -1.
        -14    1    3    3    0    0  0.53993549604E+02  0.80054005382E+02 -0.51682787315E+03  0.52577086040E+03  0.00000000000E+00 0.  1.
          5    1    4    4  501    0 -0.33532873617E+02 -0.10875558340E+03 -0.15861414710E+02  0.11498385718E+03  0.41800000000E+01 0. -1.
         -5    1    4    4    0  501  0.94465776825E+01  0.11479991888E+02  0.45443990247E+02  0.47996423755E+02  0.41800000000E+01 0. -1.
</event>
<event>
11    1  0.7577197E-009  0.1404299E+03  0.7561462E-02  0.1107079E+00
         22   -1    0    0    0    0  0.00000000000E+00  0.00000000000E+00  0.28472616978E+03  0.28472616978E+03  0.00000000000E+00 0. -1.
         22   -1    0    0    0    0 -0.00000000000E+00 -0.00000000000E+00 -0.10528647112E+03  0.10528647112E+03  0.00000000000E+00 0. -1.
        -24    2    1    2    0    0  0.34260463695E+02  0.46462159653E+02  0.40226425333E+02  0.99937589816E+02  0.70970732777E+02 0.  0.
         25    2    1    2    0    0 -0.39829622928E+00 -0.91067746671E+02  0.66239025098E+02  0.16830484905E+03  0.12508165590E+03 0.  0.
         24    2    1    2    0    0 -0.33862167466E+02  0.44605587018E+02  0.72974248227E+02  0.12177020204E+03  0.79789951890E+02 0.  0.
        -13    1    5    5    0    0 -0.24874664851E+02  0.67805017792E+02  0.58826231651E+02  0.93149315185E+02  0.00000000000E+00 0.  1.
         14    1    5    5    0    0 -0.89875026152E+01 -0.23199430774E+02  0.14148016575E+02  0.28620886857E+02  0.00000000000E+00 0. -1.
         13    1    3    3    0    0  0.51145850097E+01  0.37471892307E+02  0.54440053798E+02  0.66287413212E+02  0.00000000000E+00 0. -1.
        -14    1    3    3    0    0  0.29145878686E+02  0.89902673470E+01 -0.14213628465E+02  0.33650176604E+02  0.00000000000E+00 0.  1.
          5    1    4    4  501    0  0.84360414851E+01 -0.11920589285E+03  0.69552846672E+02  0.13833395305E+03  0.41800000000E+01 0. -1.
         -5    1    4    4    0  501 -0.88343377144E+01  0.28138146181E+02 -0.33138215739E+01  0.29970895996E+02  0.41800000000E+01 0. -1.
</event>
<event>
11    1  0.7577197E-009  0.2267203E+03  0.7561462E-02  0.1037088E+00
         22   -1    0    0    0    0  0.00000000000E+00  0.00000000000E+00  0.14987389481E+03  0.14987389481E+03  0.00000000000E+00 0.  1.
         22   -1    0    0    0    0 -0.00000000000E+00 -0.00000000000E+00 -0.31390728902E+04  0.31390728902E+04  0.00000000000E+00 0. -1.
        -24    2    1    2    0    0  0.18331603227E+03 -0.36738813073E+02 -0.25246845648E+04  0.25326402558E+04  0.72663648707E+02 0.  0.
         25    2    1    2    0    0 -0.19044990149E+03  0.75629632637E+02 -0.56770173821E+03  0.61637988729E+03  0.12509154878E+03 0.  0.
         24    2    1    2    0    0  0.71338692191E+01 -0.38890819564E+02  0.10318730761E+03  0.13992664187E+03  0.85839715263E+02 0.  0.
        -11    1    5    5    0    0  0.38500823560E+02  0.61396693481E+01  0.51007696714E+02  0.64201199978E+02  0.00000000000E+00 0.  1.
         12    1    5    5    0    0 -0.31366954341E+02 -0.45030488912E+02  0.52179610894E+02  0.75725441889E+02  0.00000000000E+00 0. -1.
         13    1    3    3    0    0  0.95829329485E+02  0.14407860899E+02 -0.14275156555E+04  0.14308011020E+04  0.00000000000E+00 0. -1.
        -14    1    3    3    0    0  0.87486702789E+02 -0.51146673972E+02 -0.10971689093E+04  0.11018391538E+04  0.00000000000E+00 0.  1.
          5    1    4    4  501    0 -0.10091105154E+03  0.90307758992E+02 -0.23255283294E+03  0.26914090021E+03  0.41800000000E+01 0. -1.
         -5    1    4    4    0  501 -0.89538849953E+02 -0.14678126355E+02 -0.33514890527E+03  0.34723898708E+03  0.41800000000E+01 0. -1.
</event>
<event>
11    1  0.7577197E-009  0.1697625E+03  0.7561462E-02  0.1078239E+00
         22   -1    0    0    0    0  0.00000000000E+00  0.00000000000E+00  0.11338480261E+04  0.11338480261E+04  0.00000000000E+00 0.  1.
         22   -1    0    0    0    0 -0.00000000000E+00 -0.00000000000E+00 -0.19413257195E+03  0.19413257195E+03  0.00000000000E+00 0. -1.
         24    2    1    2    0    0 -0.60533174692E+02  0.89906476735E+02 -0.12322198636E+03  0.18424112595E+03  0.83747804590E+02 0.  0.
         25    2    1    2    0    0  0.11874789429E+03 -0.15101439101E+03  0.33204800063E+03  0.40349813557E+03  0.12509381279E+03 0.  0.
        -24    2    1    2    0    0 -0.58214719598E+02  0.61107914273E+02  0.73088943992E+03  0.74024133656E+03  0.81453865484E+02 0.  0.
        -11    1    3    3    0    0 -0.26833184258E+01  0.20857671062E+02  0.10108731096E+02  0.23333004184E+02  0.00000000000E+00 0.  1.
         12    1    3    3    0    0 -0.57849856266E+02  0.69048805673E+02 -0.13333071745E+03  0.16090812177E+03  0.00000000000E+00 0. -1.
         11    1    5    5    0    0 -0.40187864882E+02  0.34613021354E+02  0.16223934718E+03  0.17068899058E+03  0.00000000000E+00 0. -1.
        -12    1    5    5    0    0 -0.18026854716E+02  0.26494892919E+02  0.56865009274E+03  0.56955234599E+03  0.00000000000E+00 0.  1.
          5    1    4    4  501    0  0.83662723054E+02 -0.10698522800E+02  0.12829651531E+03  0.15359484971E+03  0.41800000000E+01 0. -1.
         -5    1    4    4    0  501  0.35085171236E+02 -0.14031586821E+03  0.20375148532E+03  0.24990328585E+03  0.41800000000E+01 0. -1.
</event>
<event>
11    1  0.7577197E-009  0.1331108E+03  0.7561462E-02  0.1115505E+00
         22   -1    0    0    0    0  0.00000000000E+00  0.00000000000E+00  0.25628961580E+04  0.25628961580E+04  0.00000000000E+00 0. -1.
         22   -1    0    0    0    0 -0.00000000000E+00 -0.00000000000E+00 -0.14760366374E+03  0.14760366374E+03  0.00000000000E+00 0.  1.
         24    2    1    2    0    0 -0.26050441943E+02  0.55022765659E+01 -0.11476055317E+03  0.14233530785E+03  0.79877748614E+02 0.  0.
         25    2    1    2    0    0  0.18979432581E+02 -0.50377500367E+02  0.23741992529E+03  0.27370307690E+03  0.12508813683E+03 0.  0.
        -24    2    1    2    0    0  0.70710093630E+01  0.44875223802E+02  0.22926331222E+04  0.22944614370E+04  0.79516464944E+02 0.  0.
        -11    1    3    3    0    0 -0.96615521079E+01 -0.22335367610E+02 -0.10614987967E+03  0.10890367849E+03  0.00000000000E+00 0.  1.
         12    1    3    3    0    0 -0.16388889836E+02  0.27837644176E+02 -0.86106735031E+01  0.33431629358E+02  0.00000000000E+00 0. -1.
         11    1    5    5    0    0  0.37530240366E+02  0.82140041640E+01  0.64807135325E+03  0.64920910939E+03  0.00000000000E+00 0. -1.
        -12    1    5    5    0    0 -0.30459231003E+02  0.36661219638E+02  0.16445617689E+04  0.16452523276E+04  0.00000000000E+00 0.  1.
          5    1    4    4  501    0 -0.50179013817E+02 -0.40154731754E+02  0.92061279293E+02  0.11235251424E+03  0.41800000000E+01 0.  1.
         -5    1    4    4    0  501  0.69158446397E+02 -0.10222768614E+02  0.14535864600E+03  0.16135056267E+03  0.41800000000E+01 0.  1.
</event>
<event>
11    1  0.7577197E-009  0.1446894E+03  0.7561462E-02  0.1102432E+00
         22   -1    0    0    0    0  0.00000000000E+00  0.00000000000E+00  0.94454294052E+02  0.94454294052E+02  0.00000000000E+00 0. -1.
         22   -1    0    0    0    0 -0.00000000000E+00 -0.00000000000E+00 -0.87263700711E+03  0.87263700711E+03  0.00000000000E+00 0. -1.
        -24    2    1    2    0    0 -0.16528277079E+02  0.56586441759E+02 -0.67355051394E+03  0.68082747942E+03  0.79878361079E+02 0.  0.
         25    2    1    2    0    0 -0.52339977395E+02 -0.73756407384E+02 -0.87965239396E+02  0.17766451280E+03  0.12508922777E+03 0.  0.
         24    2    1    2    0    0  0.68868254474E+02  0.17169965625E+02 -0.16666959717E+02  0.10859930893E+03  0.80488372830E+02 0.  0.
        -11    1    5    5    0    0  0.48844048712E+02  0.15226740849E+02 -0.48789606278E+02  0.70696678933E+02  0.00000000000E+00 0.  1.
         12    1    5    5    0    0  0.20024205763E+02  0.19432247765E+01  0.32122646560E+02  0.37902630001E+02  0.00000000000E+00 0. -1.
         11    1    3    3    0    0 -0.35653136621E+02  0.50935319047E+02 -0.62840908806E+03  0.63147726391E+03  0.00000000000E+00 0. -1.
        -12    1    3    3    0    0  0.19124859542E+02  0.56511227115E+01 -0.45141425879E+02  0.49350215509E+02  0.00000000000E+00 0.  1.
          5    1    4    4  501    0 -0.75209348385E+02 -0.32365075431E+02 -0.50737409467E+01  0.82141094705E+02  0.41800000000E+01 0.  1.
         -5    1    4    4    0  501  0.22869370990E+02 -0.41391331952E+02 -0.82891498449E+02  0.95523418100E+02  0.41800000000E+01 0.  1.
</event>
<event>
11    1  0.7577197E-009  0.1515033E+03  0.7561462E-02  0.1095353E+00
         22   -1    0    0    0    0  0.00000000000E+00  0.00000000000E+00  0.18680288058E+04  0.18680288058E+04  0.00000000000E+00 0.  1.
         22   -1    0    0    0    0 -0.00000000000E+00 -0.00000000000E+00 -0.54860256614E+03  0.54860256614E+03  0.00000000000E+00 0. -1.
         24    2    1    2    0    0 -0.46853455323E+02 -0.79563166058E-02 -0.47214426206E+03  0.48213019610E+03  0.85639216781E+02 0.  0.
         25    2    1    2    0    0  0.85717746251E+02 -0.75478247612E+02  0.33497746586E+02  0.17266711450E+03  0.12508931017E+03 0.  0.
        -24    2    1    2    0    0 -0.38864290929E+02  0.75486203928E+02  0.17580727552E+04  0.17618340614E+04  0.77658529803E+02 0.  0.
        -13    1    3    3    0    0 -0.24247443534E+02  0.41723674611E+02 -0.19063962536E+03  0.19665266411E+03  0.00000000000E+00 0.  1.
         14    1    3    3    0    0 -0.22606011788E+02 -0.41731630928E+02 -0.28150463670E+03  0.28547753199E+03  0.00000000000E+00 0. -1.
         11    1    5    5    0    0 -0.50122449425E+02  0.21794855690E+02  0.60732318159E+03  0.60977760091E+03  0.00000000000E+00 0. -1.
        -12    1    5    5    0    0  0.11258158496E+02  0.53691348238E+02  0.11507495736E+04  0.11520564605E+04  0.00000000000E+00 0.  1.
          5    1    4    4  501    0  0.55554395301E+02  0.23044182561E+01  0.62951797298E+02  0.84095198221E+02  0.41800000000E+01 0.  1.
         -5    1    4    4    0  501  0.30163350950E+02 -0.77782665868E+02 -0.29454050712E+02  0.88571916279E+02  0.41800000000E+01 0.  1.
</event>
<event>
11    1  0.7577197E-009  0.1385716E+03  0.7561462E-02  0.1109164E+00
         22   -1    0    0    0    0  0.00000000000E+00  0.00000000000E+00  0.13273008871E+03  0.13273008871E+03  0.00000000000E+00 0.  1.
         22   -1    0    0    0    0 -0.00000000000E+00 -0.00000000000E+00 -0.91596336494E+03  0.91596336494E+03  0.00000000000E+00 0. -1.
        -24    2    1    2    0    0 -0.47065490326E+02 -0.69175850093E+02 -0.68716577055E+03  0.69660812352E+03  0.77882109173E+02 0.  0.
         25    2    1    2    0    0  0.26260704942E+01  0.13042594147E+02 -0.17131878117E+03  0.21254086364E+03  0.12508592417E+03 0.  0.
         24    2    1    2    0    0  0.44439419832E+02  0.56133255946E+02  0.75251275482E+02  0.13954446649E+03  0.93188514359E+02 0.  0.
        -13    1    5    5    0    0  0.78147766268E+01  0.73645764028E+02  0.62745210317E+02  0.97065600038E+02  0.00000000000E+00 0.  1.
         14    1    5    5    0    0  0.36624643205E+02 -0.17512508082E+02  0.12506065166E+02  0.42478866453E+02  0.00000000000E+00 0. -1.
         13    1    3    3    0    0 -0.82252877270E+01 -0.31860624578E+02 -0.51868041091E+03  0.51972312188E+03  0.00000000000E+00 0. -1.
        -14    1    3    3    0    0 -0.38840202599E+02 -0.37315225516E+02 -0.16848535964E+03  0.17688500164E+03  0.00000000000E+00 0.  1.
          5    1    4    4  501    0 -0.58051657664E+02  0.11163637759E+02 -0.11619221927E+03  0.13043284090E+03  0.41800000000E+01 0. -1.
         -5    1    4    4    0  501  0.60677728158E+02  0.18789563880E+01 -0.55126561901E+02  0.82108022742E+02  0.41800000000E+01 0. -1.
</event>
<event>
11    1  0.7577197E-009  0.1740450E+03  0.7561462E-02  0.1074564E+00
         22   -1    0    0    0    0  0.00000000000E+00  0.00000000000E+00  0.66632568490E+03  0.66632568490E+03  0.00000000000E+00 0.  1.
         22   -1    0    0    0    0 -0.00000000000E+00 -0.00000000000E+00 -0.10762374827E+03  0.10762374827E+03  0.00000000000E+00 0. -1.
        -24    2    1    2    0    0 -0.68351623350E+02  0.71864876359E+02  0.56887669325E+02  0.14059115772E+03  0.81811746342E+02 0.  0.
         25    2    1    2    0    0  0.96901561416E+02 -0.12784944920E+03  0.11701619930E+03  0.23468217141E+03  0.12509011317E+03 0.  0.
         24    2    1    2    0    0 -0.28549938066E+02  0.55984572842E+02  0.38479806801E+03  0.39867610404E+03  0.83208842246E+02 0.  0.
        -11    1    5    5    0    0 -0.23653767456E+02  0.44467026611E+02  0.38268337279E+03  0.38598365377E+03  0.00000000000E+00 0.  1.
         12    1    5    5    0    0 -0.48961706100E+01  0.11517546232E+02  0.21146952181E+01  0.12692450264E+02  0.00000000000E+00 0. -1.
         13    1    3    3    0    0 -0.80465585070E+02  0.72547558201E+02  0.64671780380E+02  0.12617566231E+03  0.00000000000E+00 0. -1.
        -14    1    3    3    0    0  0.12113961720E+02 -0.68268184243E+00 -0.77841110557E+01  0.14415495412E+02  0.00000000000E+00 0.  1.
          5    1    4    4  501    0  0.17662801685E+02 -0.41064631953E+02 -0.24129590234E+02  0.50970462875E+02  0.41800000000E+01 0.  1.
         -5    1    4    4    0  501  0.79238759731E+02 -0.86784817248E+02  0.14114578953E+03  0.18371170853E+03  0.41800000000E+01 0.  1.
</event>
<event>
11    1  0.7577197E-009  0.1343810E+03  0.7561462E-02  0.1114000E+00
         22   -1    0    0    0    0  0.00000000000E+00  0.00000000000E+00  0.70561899874E+03  0.70561899874E+03  0.00000000000E+00 0. -1.
         22   -1    0    0    0    0 -0.00000000000E+00 -0.00000000000E+00 -0.52775565063E+03  0.52775565063E+03  0.00000000000E+00 0.  1.
        -24    2    1    2    0    0 -0.11437092811E+02  0.26324599736E+01 -0.46866283950E+03  0.47592652881E+03  0.81996748455E+02 0.  0.
         25    2    1    2    0    0  0.38026930100E+02  0.38323175506E+02  0.37721158515E+02  0.14136879905E+03  0.12509012092E+03 0.  0.
         24    2    1    2    0    0 -0.26589837289E+02 -0.40955635480E+02  0.60880502910E+03  0.61607932151E+03  0.80782321098E+02 0.  0.
        -11    1    5    5    0    0 -0.96767425977E+01 -0.28406230364E+02  0.62119706888E+02  0.68988486392E+02  0.00000000000E+00 0.  1.
         12    1    5    5    0    0 -0.16913094692E+02 -0.12549405116E+02  0.54668532221E+03  0.54709083511E+03  0.00000000000E+00 0. -1.
         13    1    3    3    0    0 -0.79845185961E+01  0.88534362073E+01 -0.62538048328E+01  0.13462761410E+02  0.00000000000E+00 0. -1.
        -14    1    3    3    0    0 -0.34525742148E+01 -0.62209762337E+01 -0.46240903467E+03  0.46246376740E+03  0.00000000000E+00 0.  1.
          5    1    4    4  501    0  0.38478750942E+02 -0.11800505361E+02 -0.34624201457E+02  0.53255740792E+02  0.41800000000E+01 0.  1.
         -5    1    4    4    0  501 -0.45182084147E+00  0.50123680868E+02  0.72345359971E+02  0.88113058256E+02  0.41800000000E+01 0.  1.
</event>
<event>
11    1  0.7577197E-009  0.1340636E+03  0.7561462E-02  0.1114375E+00
         22   -1    0    0    0    0  0.00000000000E+00  0.00000000000E+00  0.61971638885E+03  0.61971638885E+03  0.00000000000E+00 0. -1.
         22   -1    0    0    0    0 -0.00000000000E+00 -0.00000000000E+00 -0.11324660269E+03  0.11324660269E+03  0.00000000000E+00 0.  1.
         24    2    1    2    0    0  0.59116243984E+01  0.43899165010E+02 -0.66858002307E+02  0.11450616340E+03  0.81728728080E+02 0.  0.
         25    2    1    2    0    0 -0.51507292998E+02 -0.21943918717E+02  0.34703832050E+03  0.37312024763E+03  0.12509431040E+03 0.  0.
        -24    2    1    2    0    0  0.45595668600E+02 -0.21955246292E+02  0.22628946796E+03  0.24533658050E+03  0.80138109466E+02 0.  0.
        -13    1    3    3    0    0  0.28382112901E+02  0.21650851407E+02 -0.73935765638E+02  0.82102382060E+02  0.00000000000E+00 0.  1.
         14    1    3    3    0    0 -0.22470488502E+02  0.22248313603E+02  0.70777633312E+01  0.32403781345E+02  0.00000000000E+00 0. -1.
         13    1    5    5    0    0  0.53528140610E+01  0.22076394517E+02  0.13071729417E+03  0.13267641391E+03  0.00000000000E+00 0. -1.
        -14    1    5    5    0    0  0.40242854539E+02 -0.44031640809E+02  0.95572173792E+02  0.11266016659E+03  0.00000000000E+00 0.  1.
          5    1    4    4  501    0  0.13537939430E+02  0.41293651996E+02  0.14876455843E+03  0.15503808481E+03  0.41800000000E+01 0.  1.
         -5    1    4    4    0  501 -0.65045232428E+02 -0.63237570713E+02  0.19827376208E+03  0.21808216282E+03  0.41800000000E+01 0.  1.
</event>
<event>
11    1  0.7577197E-009  0.1343557E+03  0.7561462E-02  0.1114030E+00
         22   -1    0    0    0    0  0.00000000000E+00  0.00000000000E+00  0.54170135278E+02  0.54170135278E+02  0.00000000000E+00 0. -1.
         22   -1    0    0    0    0 -0.00000000000E+00 -0.00000000000E+00 -0.22178360246E+04  0.22178360246E+04  0.00000000000E+00 0. -1.
        -24    2    1    2    0    0 -0.29792039370E+02 -0.51371737819E+01 -0.17157023516E+04  0.17181282096E+04  0.86116369665E+02 0.  0.
         25    2    1    2    0    0  0.65144217863E+02 -0.25780742027E+02 -0.43659065970E+03  0.45952870821E+03  0.12508722458E+03 0.  0.
         24    2    1    2    0    0 -0.35352178493E+02  0.30917915809E+02 -0.11372878052E+02  0.94349242112E+02  0.81035443417E+02 0.  0.
        -11    1    5    5    0    0 -0.32457745448E+02  0.20446286511E+02 -0.44929313211E+02  0.59077906677E+02  0.00000000000E+00 0.  1.
         12    1    5    5    0    0 -0.28944330448E+01  0.10471629297E+02  0.33556435159E+02  0.35271335435E+02  0.00000000000E+00 0. -1.
         13    1    3    3    0    0 -0.17881125782E+02 -0.29970165223E+02 -0.15296797021E+04  0.15300777550E+04  0.00000000000E+00 0. -1.
        -14    1    3    3    0    0 -0.11910913588E+02  0.24832991441E+02 -0.18602264948E+03  0.18805045453E+03  0.00000000000E+00 0.  1.
          5    1    4    4  501    0  0.27814933164E+02 -0.75457154411E+02 -0.26614558521E+03  0.27806185928E+03  0.41800000000E+01 0. -1.
         -5    1    4    4    0  501  0.37329284699E+02  0.49676412384E+02 -0.17044507449E+03  0.18146684893E+03  0.41800000000E+01 0. -1.
</event>
<event>
11    1  0.7577197E-009  0.1433642E+03  0.7561462E-02  0.1103859E+00
         22   -1    0    0    0    0  0.00000000000E+00  0.00000000000E+00  0.45301686273E+03  0.45301686273E+03  0.00000000000E+00 0. -1.
         22   -1    0    0    0    0 -0.00000000000E+00 -0.00000000000E+00 -0.86050532101E+03  0.86050532101E+03  0.00000000000E+00 0.  1.
        -24    2    1    2    0    0  0.16542148044E+02 -0.19399397292E+02 -0.67647790907E+03  0.68201689021E+03  0.82913797363E+02 0.  0.
         25    2    1    2    0    0  0.29029889084E+02  0.72387025136E+02 -0.14295706416E+03  0.20534275642E+03  0.12508520917E+03 0.  0.
         24    2    1    2    0    0 -0.45572037127E+02 -0.52987627844E+02  0.41194651495E+03  0.42616253712E+03  0.83845557992E+02 0.  0.
        -13    1    5    5    0    0 -0.20791775676E+02 -0.45323037448E+02  0.87737106653E+02  0.10091717170E+03  0.00000000000E+00 0.  1.
         14    1    5    5    0    0 -0.24780261451E+02 -0.76645903966E+01  0.32420940829E+03  0.32524536542E+03  0.00000000000E+00 0. -1.
         13    1    3    3    0    0 -0.12881231628E+02  0.20748090037E+01 -0.16503406770E+02  0.21037903785E+02  0.00000000000E+00 0. -1.
        -14    1    3    3    0    0  0.29423379672E+02 -0.21474206296E+02 -0.65997450230E+03  0.66097898642E+03  0.00000000000E+00 0.  1.
          5    1    4    4  501    0  0.77927019645E+02  0.53472710309E+02 -0.86545969047E+02  0.12821711390E+03  0.41800000000E+01 0. -1.
         -5    1    4    4    0  501 -0.48897130561E+02  0.18914314827E+02 -0.56411095112E+02  0.77125642521E+02  0.41800000000E+01 0. -1.
</event>
<event>
11    1  0.7577197E-009  0.2330317E+03  0.7561462E-02  0.1033348E+00
         22   -1    0    0    0    0  0.00000000000E+00  0.00000000000E+00  0.11272862695E+04  0.11272862695E+04  0.00000000000E+00 0.  1.
         22   -1    0    0    0    0 -0.00000000000E+00 -0.00000000000E+00 -0.23140612978E+04  0.23140612978E+04  0.00000000000E+00 0. -1.
        -24    2    1    2    0    0 -0.19378606780E+03  0.29911095535E+02 -0.21985218914E+04  0.22086800460E+04  0.79506760361E+02 0.  0.
         25    2    1    2    0    0  0.21568878030E+03  0.10466267018E+02  0.35423751876E+02  0.25205624885E+03  0.12508524171E+03 0.  0.
         24    2    1    2    0    0 -0.21902712501E+02 -0.40377362553E+02  0.97632311126E+03  0.98061127249E+03  0.79256481900E+02 0.  0.
        -13    1    5    5    0    0 -0.42017139474E+02 -0.32119006225E+01  0.29695047825E+03  0.29992556218E+03  0.00000000000E+00 0.  1.
         14    1    5    5    0    0  0.20114426973E+02 -0.37165461931E+02  0.67937263301E+03  0.68068571031E+03  0.00000000000E+00 0. -1.
         13    1    3    3    0    0 -0.67550898276E+02  0.49460312391E+02 -0.90777348078E+03  0.91162609593E+03  0.00000000000E+00 0. -1.
        -14    1    3    3    0    0 -0.12623516952E+03 -0.19549216856E+02 -0.12907484106E+04  0.12970539501E+04  0.00000000000E+00 0.  1.
          5    1    4    4  501    0  0.59550216597E+01  0.18077624769E+02 -0.26780675555E+02  0.33120081272E+02  0.41800000000E+01 0. -1.
         -5    1    4    4    0  501  0.20973375864E+03 -0.76113577509E+01  0.62204427431E+02  0.21893616758E+03  0.41800000000E+01 0. -1.
</event>
<event>
11    1  0.7577197E-009  0.2054488E+03  0.7561462E-02  0.1050736E+00
         22   -1    0    0    0    0  0.00000000000E+00  0.00000000000E+00  0.13337161147E+04  0.13337161147E+04  0.00000000000E+00 0. -1.
         22   -1    0    0    0    0 -0.00000000000E+00 -0.00000000000E+00 -0.13019551929E+03  0.13019551929E+03  0.00000000000E+00 0.  1.
         24    2    1    2    0    0 -0.59685079699E+02 -0.37003320692E+02 -0.69996255172E+02  0.12750467994E+03  0.80164912451E+02 0.  0.
         25    2    1    2    0    0 -0.59643410732E+02 -0.10510314070E+03  0.34415293489E+03  0.38560251105E+03  0.12507616601E+03 0.  0.
        -24    2    1    2    0    0  0.11932849043E+03  0.14210646139E+03  0.92936391566E+03  0.95080444298E+03  0.76669851063E+02 0.  0.
        -11    1    3    3    0    0 -0.63495201986E+02 -0.35704051235E+02 -0.85015336039E+02  0.11195547022E+03  0.00000000000E+00 0.  1.
         12    1    3    3    0    0  0.38101222870E+01 -0.12992694568E+01  0.15019080867E+02  0.15549209725E+02  0.00000000000E+00 0. -1.
         11    1    5    5    0    0  0.99967181252E+02  0.14962499921E+03  0.82585035460E+03  0.84522771246E+03  0.00000000000E+00 0. -1.
        -12    1    5    5    0    0  0.19361309179E+02 -0.75185378206E+01  0.10351356106E+03  0.10557673052E+03  0.00000000000E+00 0.  1.
          5    1    4    4  501    0  0.62673520382E+01  0.23127152751E+02  0.91482979934E+02  0.94661253497E+02  0.41800000000E+01 0. -1.
         -5    1    4    4    0  501 -0.65910762771E+02 -0.12823029345E+03  0.25266995496E+03  0.29094125755E+03  0.41800000000E+01 0. -1.
</event>
<event>
11    1  0.7577197E-009  0.1528225E+03  0.7561462E-02  0.1094029E+00
         22   -1    0    0    0    0  0.00000000000E+00  0.00000000000E+00  0.38072897358E+02  0.38072897358E+02  0.00000000000E+00 0. -1.
         22   -1    0    0    0    0 -0.00000000000E+00 -0.00000000000E+00 -0.19169867529E+04  0.19169867529E+04  0.00000000000E+00 0. -1.
        -24    2    1    2    0    0  0.45096338972E+02 -0.33788185699E+02 -0.10047851792E+04  0.10094762545E+04  0.79206885785E+02 0.  0.
         25    2    1    2    0    0 -0.12616675443E+03  0.22251051625E+02 -0.76927563505E+03  0.78983971081E+03  0.12509439182E+03 0.  0.
         24    2    1    2    0    0  0.81070415453E+02  0.11537134073E+02 -0.10485304125E+03  0.15574368492E+03  0.80971707456E+02 0.  0.
        -11    1    5    5    0    0 -0.15831700848E+02  0.73178853213E+00 -0.25532970177E+02  0.30051802480E+02  0.00000000000E+00 0.  1.
         12    1    5    5    0    0  0.96902116302E+02  0.10805345541E+02 -0.79320071068E+02  0.12569188244E+03  0.00000000000E+00 0. -1.
         13    1    3    3    0    0  0.13123255958E+01 -0.42362566128E+02 -0.71716217672E+03  0.71841345820E+03  0.00000000000E+00 0. -1.
        -14    1    3    3    0    0  0.43784013376E+02  0.85743804296E+01 -0.28762300249E+03  0.29106279630E+03  0.00000000000E+00 0.  1.
          5    1    4    4  501    0 -0.67776497518E+02  0.68944287797E+02 -0.54128156139E+03  0.54986377362E+03  0.41800000000E+01 0.  1.
         -5    1    4    4    0  501 -0.58390256907E+02 -0.46693236171E+02 -0.22799407366E+03  0.23997593719E+03  0.41800000000E+01 0.  1.
</event>
<event>
11    1  0.7577197E-009  0.1427841E+03  0.7561462E-02  0.1104489E+00
         22   -1    0    0    0    0  0.00000000000E+00  0.00000000000E+00  0.13822351694E+03  0.13822351694E+03  0.00000000000E+00 0.  1.
         22   -1    0    0    0    0 -0.00000000000E+00 -0.00000000000E+00 -0.23845994738E+04  0.23845994738E+04  0.00000000000E+00 0.  1.
         24    2    1    2    0    0  0.59287285384E+02  0.37535536208E+01 -0.17713430244E+04  0.17741482107E+04  0.80104256097E+02 0.  0.
         25    2    1    2    0    0 -0.51099466834E+02  0.64979159505E+02 -0.57904037310E+03  0.59813770291E+03  0.12509001270E+03 0.  0.
        -24    2    1    2    0    0 -0.81878185501E+01 -0.68732713126E+02  0.10400744068E+03  0.15053707716E+03  0.83979983663E+02 0.  0.
        -13    1    3    3    0    0  0.53742309801E+02 -0.32935036294E+00 -0.17603917804E+04  0.17612119591E+04  0.00000000000E+00 0.  1.
         14    1    3    3    0    0  0.55449755834E+01  0.40829039838E+01 -0.10951244039E+02  0.12936251589E+02  0.00000000000E+00 0. -1.
         13    1    5    5    0    0  0.23599247862E+02 -0.38757653497E+02  0.94174215328E+01  0.46344018304E+02  0.00000000000E+00 0. -1.
        -14    1    5    5    0    0 -0.31787066412E+02 -0.29975059629E+02  0.94590019148E+02  0.10419305885E+03  0.00000000000E+00 0.  1.
          5    1    4    4  501    0 -0.90820331048E+02  0.29194333930E+02 -0.33989223059E+03  0.35305076474E+03  0.41800000000E+01 0.  1.
         -5    1    4    4    0  501  0.39720864214E+02  0.35784825575E+02 -0.23914814251E+03  0.24508693817E+03  0.41800000000E+01 0.  1.
</event>
<event>
11    1  0.7577197E-009  0.1486430E+03  0.7561462E-02  0.1098273E+00
         22   -1    0    0    0    0  0.00000000000E+00  0.00000000000E+00  0.49613280162E+03  0.49613280162E+03  0.00000000000E+00 0. -1.
         22   -1    0    0    0    0 -0.00000000000E+00 -0.00000000000E+00 -0.22438432684E+04  0.22438432684E+04  0.00000000000E+00 0. -1.
         24    2    1    2    0    0 -0.52715982578E+02 -0.61073995411E+02 -0.21592066448E+04  0.21621217829E+04  0.78027312859E+02 0.  0.
         25    2    1    2    0    0  0.13309643978E+02  0.70487999536E+02 -0.11995638941E+02  0.14470370436E+03  0.12509820942E+03 0.  0.
        -24    2    1    2    0    0  0.39406338600E+02 -0.94140041250E+01  0.42349181691E+03  0.43315058277E+03  0.81440931755E+02 0.  0.
        -11    1    3    3    0    0  0.18947788670E+02 -0.45968607124E+01 -0.53400210676E+03  0.53435793233E+03  0.00000000000E+00 0.  1.
         12    1    3    3    0    0 -0.71663771248E+02 -0.56477134699E+02 -0.16252045380E+04  0.16277638506E+04  0.00000000000E+00 0. -1.
         13    1    5    5    0    0  0.28288937356E+01  0.28418613225E+01  0.35109223104E+03  0.35111512857E+03  0.00000000000E+00 0. -1.
        -14    1    5    5    0    0  0.36577444864E+02 -0.12255865448E+02  0.72399585872E+02  0.82035454196E+02  0.00000000000E+00 0.  1.
          5    1    4    4  501    0  0.32408528255E+02  0.37977197987E+02  0.50793110563E+02  0.71344185126E+02  0.41800000000E+01 0. -1.
         -5    1    4    4    0  501 -0.19098884276E+02  0.32510801549E+02 -0.62788749504E+02  0.73359519234E+02  0.41800000000E+01 0. -1.
</event>
<event>
11    1  0.7577197E-009  0.1422996E+03  0.7561462E-02  0.1105017E+00
         22   -1    0    0    0    0  0.00000000000E+00  0.00000000000E+00  0.85575404574E+03  0.85575404574E+03  0.00000000000E+00 0.  1.
         22   -1    0    0    0    0 -0.00000000000E+00 -0.00000000000E+00 -0.11692259912E+03  0.11692259912E+03  0.00000000000E+00 0.  1.
        -24    2    1    2    0    0 -0.58998504722E+02 -0.25436818367E+02 -0.53622985433E+02  0.11717882747E+03  0.82021934585E+02 0.  0.
         25    2    1    2    0    0  0.76248481742E+02  0.54661606559E+02  0.18618513312E+03  0.24313495974E+03  0.12509189684E+03 0.  0.
         24    2    1    2    0    0 -0.17249977020E+02 -0.29224788192E+02  0.60626929894E+03  0.61236285765E+03  0.79209574168E+02 0.  0.
        -11    1    5    5    0    0  0.32489710728E+01 -0.25123532042E+02  0.56952337083E+03  0.57008650010E+03  0.00000000000E+00 0.  1.
         12    1    5    5    0    0 -0.20498948093E+02 -0.41012561500E+01  0.36745928105E+02  0.42276357544E+02  0.00000000000E+00 0. -1.
         11    1    3    3    0    0 -0.35130809657E+02  0.17700815728E+02  0.60219037559E+01  0.39796431869E+02  0.00000000000E+00 0. -1.
        -12    1    3    3    0    0 -0.23867695064E+02 -0.43137634096E+02 -0.59644889189E+02  0.77382395604E+02  0.00000000000E+00 0.  1.
          5    1    4    4  501    0 -0.15462376315E+02 -0.17083790386E+02 -0.93167166520E-01  0.23418412743E+02  0.41800000000E+01 0. -1.
         -5    1    4    4    0  501  0.91710858057E+02  0.71745396945E+02  0.18627830028E+03  0.21971654700E+03  0.41800000000E+01 0. -1.
</event>
<event>
11    1  0.7577197E-009  0.1811759E+03  0.7561462E-02  0.1068696E+00
         22   -1    0    0    0    0  0.00000000000E+00  0.00000000000E+00  0.32870131536E+04  0.32870131536E+04  0.00000000000E+00 0. -1.
         22   -1    0    0    0    0 -0.00000000000E+00 -0.00000000000E+00 -0.10513372352E+03  0.10513372352E+03  0.00000000000E+00 0.  1.
         24    2    1    2    0    0  0.38566139679E+01  0.63553291023E+01 -0.26227042453E+02  0.87273440163E+02  0.82906766447E+02 0.  0.
         25    2    1    2    0    0 -0.87191884159E+02  0.94923275451E+02  0.12702327810E+03  0.21998991436E+03  0.12509115220E+03 0.  0.
        -24    2    1    2    0    0  0.83335270191E+02 -0.10127860455E+03  0.30810831944E+04  0.30848835226E+04  0.78933984531E+02 0.  0.
        -13    1    3    3    0    0  0.14907435755E+02  0.11562599161E+02 -0.53855687423E+02  0.57064528456E+02  0.00000000000E+00 0.  1.
         14    1    3    3    0    0 -0.11050821787E+02 -0.52072700582E+01  0.27628644970E+02  0.30208911707E+02  0.00000000000E+00 0. -1.
         11    1    5    5    0    0  0.45851549694E+02 -0.70766783301E+02  0.26025634435E+04  0.26039291042E+04  0.00000000000E+00 0. -1.
        -12    1    5    5    0    0  0.37483720497E+02 -0.30511821252E+02  0.47851975092E+03  0.48095441837E+03  0.00000000000E+00 0.  1.
          5    1    4    4  501    0  0.19761635823E+02 -0.15772655543E+02  0.17609771920E+02  0.31094619798E+02  0.41800000000E+01 0. -1.
         -5    1    4    4    0  501 -0.10695351998E+03  0.11069593099E+03  0.10941350618E+03  0.18889529456E+03  0.41800000000E+01 0. -1.
</event>
<event>
11    1  0.7577197E-009  0.1837693E+03  0.7561462E-02  0.1066634E+00
         22   -1    0    0    0    0  0.00000000000E+00  0.00000000000E+00  0.19375999426E+04  0.19375999426E+04  0.00000000000E+00 0.  1.
         22   -1    0    0    0    0 -0.00000000000E+00 -0.00000000000E+00 -0.19913024095E+03  0.19913024095E+03  0.00000000000E+00 0.  1.
         24    2    1    2    0    0 -0.37411498365E+02 -0.41465288270E+02 -0.86406535442E+02  0.13053023105E+03  0.80330949893E+02 0.  0.
         25    2    1    2    0    0 -0.77843883026E+02  0.11176474095E+03  0.10921341477E+02  0.18525320181E+03  0.12509374740E+03 0.  0.
        -24    2    1    2    0    0  0.11525538139E+03 -0.70299452681E+02  0.18139548956E+04  0.18209467507E+04  0.84787319270E+02 0.  0.
        -13    1    3    3    0    0 -0.32847968745E+02 -0.65548005666E+02 -0.64050176602E+02  0.97354790433E+02  0.00000000000E+00 0.  1.
         14    1    3    3    0    0 -0.45635296198E+01  0.24082717397E+02 -0.22356358840E+02  0.33175440621E+02  0.00000000000E+00 0. -1.
         13    1    5    5    0    0  0.61908834543E+02 -0.50430477967E+02  0.55600368852E+03  0.56170814357E+03  0.00000000000E+00 0. -1.
        -14    1    5    5    0    0  0.53346546848E+02 -0.19868974714E+02  0.12579512071E+04  0.12592386071E+04  0.00000000000E+00 0.  1.
          5    1    4    4  501    0 -0.48015807163E+02  0.70327329369E+02 -0.55231418589E+02  0.10158461002E+03  0.41800000000E+01 0.  1.
         -5    1    4    4    0  501 -0.29828075862E+02  0.41437411582E+02  0.66152760066E+02  0.83668591793E+02  0.41800000000E+01 0.  1.
</event>
<event>
11    1  0.7577197E-009  0.1430878E+03  0.7561462E-02  0.1104159E+00
         22   -1    0    0    0    0  0.00000000000E+00  0.00000000000E+00  0.68805644654E+03  0.68805644654E+03  0.00000000000E+00 0. -1.
         22   -1    0    0    0    0 -0.00000000000E+00 -0.00000000000E+00 -0.12408919968E+03  0.12408919968E+03  0.00000000000E+00 0. -1.
         24    2    1    2    0    0  0.51417785918E+02 -0.36095020550E+02 -0.55068622336E+02  0.11623439923E+03  0.80816107192E+02 0.  0.
         25    2    1    2    0    0 -0.95575453038E+02  0.70900414626E+02  0.19479747634E+03  0.26029790169E+03  0.12508958718E+03 0.  0.
        -24    2    1    2    0    0  0.44157667120E+02 -0.34805394076E+02  0.42423839286E+03  0.43561334531E+03  0.81360049221E+02 0.  0.
        -11    1    3    3    0    0  0.15604157361E+02 -0.29794308499E+01  0.20717949568E+02  0.26107473440E+02  0.00000000000E+00 0.  1.
         12    1    3    3    0    0  0.35813628557E+02 -0.33115589700E+02 -0.75786571904E+02  0.90126925792E+02  0.00000000000E+00 0. -1.
         13    1    5    5    0    0  0.24908899238E+02  0.19628490379E+02  0.25126239202E+03  0.25325584009E+03  0.00000000000E+00 0. -1.
        -14    1    5    5    0    0  0.19248767881E+02 -0.54433884455E+02  0.17297600084E+03  0.18235750521E+03  0.00000000000E+00 0.  1.
          5    1    4    4  501    0 -0.12928333530E+02 -0.32797726228E+02  0.68358667046E+02  0.77027348480E+02  0.41800000000E+01 0. -1.
         -5    1    4    4    0  501 -0.82647119508E+02  0.10369814085E+03  0.12643880929E+03  0.18327055321E+03  0.41800000000E+01 0. -1.
</event>
<event>
11    1  0.7577197E-009  0.4271549E+03  0.7561462E-02  0.9572868E-01
         22   -1    0    0    0    0  0.00000000000E+00  0.00000000000E+00  0.29502601721E+04  0.29502601721E+04  0.00000000000E+00 0. -1.
         22   -1    0    0    0    0 -0.00000000000E+00 -0.00000000000E+00 -0.14883741701E+03  0.14883741701E+03  0.00000000000E+00 0. -1.
         24    2    1    2    0    0  0.10140268530E+02 -0.23667334723E+02 -0.22023103873E+01  0.84200439325E+02  0.80136733355E+02 0.  0.
         25    2    1    2    0    0 -0.40923140492E+03 -0.58805282402E+02  0.44561121061E+03  0.62060007820E+03  0.12508677799E+03 0.  0.
        -24    2    1    2    0    0  0.39909113639E+03  0.82472617125E+02  0.23580138549E+04  0.23942970716E+04  0.79709846012E+02 0.  0.
        -11    1    3    3    0    0 -0.26974523920E+02  0.10055402632E+01  0.20771479747E+02  0.34060100158E+02  0.00000000000E+00 0.  1.
         12    1    3    3    0    0  0.37114792449E+02 -0.24672874986E+02 -0.22973790134E+02  0.50140339167E+02  0.00000000000E+00 0. -1.
         11    1    5    5    0    0  0.39486652613E+03  0.91330415355E+02  0.23110197780E+04  0.23462892474E+04  0.00000000000E+00 0. -1.
        -12    1    5    5    0    0  0.42246102602E+01 -0.88577982301E+01  0.46994076922E+02  0.48007824228E+02  0.00000000000E+00 0.  1.
          5    1    4    4  501    0 -0.35001641334E+03 -0.38352999654E+01  0.34502164762E+03  0.49151155517E+03  0.41800000000E+01 0.  1.
         -5    1    4    4    0  501 -0.59214991579E+02 -0.54969982437E+02  0.10058956299E+03  0.12908852303E+03  0.41800000000E+01 0.  1.
</event>
<event>
11    1  0.7577197E-009  0.1293312E+03  0.7561462E-02  0.1120093E+00
         22   -1    0    0    0    0  0.00000000000E+00  0.00000000000E+00  0.40614228193E+03  0.40614228193E+03  0.00000000000E+00 0. -1.
         22   -1    0    0    0    0 -0.00000000000E+00 -0.00000000000E+00 -0.11840602338E+04  0.11840602338E+04  0.00000000000E+00 0.  1.
        -24    2    1    2    0    0  0.88790765722E+01 -0.31505206194E+02 -0.11346327417E+04  0.11379700154E+04  0.80702425993E+02 0.  0.
         25    2    1    2    0    0 -0.96482884897E+01  0.38111533297E+02  0.59532404830E+02  0.14400656589E+03  0.12509278698E+03 0.  0.
         24    2    1    2    0    0  0.76921191750E+00 -0.66063271026E+01  0.29718238491E+03  0.30822593445E+03  0.81496144196E+02 0.  0.
        -11    1    5    5    0    0  0.11860062748E+01  0.27010598814E+02  0.36703816604E+02  0.45586721888E+02  0.00000000000E+00 0.  1.
         12    1    5    5    0    0 -0.41679435733E+00 -0.33616925917E+02  0.26047856831E+03  0.26263921256E+03  0.00000000000E+00 0. -1.
         11    1    3    3    0    0 -0.10079073493E+02 -0.10327998729E+02 -0.33569042497E+02  0.36539511414E+02  0.00000000000E+00 0. -1.
        -12    1    3    3    0    0  0.18958150065E+02 -0.21177207465E+02 -0.11010636992E+04  0.11014305040E+04  0.00000000000E+00 0.  1.
          5    1    4    4  501    0  0.22783352343E+02  0.69996511189E+02  0.64635837761E+02  0.98050276113E+02  0.41800000000E+01 0. -1.
         -5    1    4    4    0  501 -0.32431640833E+02 -0.31884977893E+02 -0.51034329310E+01  0.45956289776E+02  0.41800000000E+01 0. -1.
</event>
<event>
11    1  0.7577197E-009  0.1907834E+03  0.7561462E-02  0.1061240E+00
         22   -1    0    0    0    0  0.00000000000E+00  0.00000000000E+00  0.53531335180E+03  0.53531335180E+03  0.00000000000E+00 0. -1.
         22   -1    0    0    0    0 -0.00000000000E+00 -0.00000000000E+00 -0.27417293733E+03  0.27417293733E+03  0.00000000000E+00 0. -1.
         24    2    1    2    0    0 -0.15430065670E+03  0.90705118670E+01 -0.19385240597E+03  0.26086723672E+03  0.81129483217E+02 0.  0.
         25    2    1    2    0    0  0.94876843090E+02 -0.80635215257E+01  0.11602240063E+03  0.19538462418E+03  0.12508924088E+03 0.  0.
        -24    2    1    2    0    0  0.59423813613E+02 -0.10069903414E+01  0.33897041981E+03  0.35323442823E+03  0.79632983928E+02 0.  0.
        -11    1    3    3    0    0 -0.78039033750E+02 -0.22283495718E+02 -0.14172141683E+03  0.16331443586E+03  0.00000000000E+00 0.  1.
         12    1    3    3    0    0 -0.76261622953E+02  0.31354007585E+02 -0.52130989137E+02  0.97552800860E+02  0.00000000000E+00 0. -1.
         11    1    5    5    0    0  0.50551584728E+02  0.25592637707E+02  0.29953125073E+03  0.30484326462E+03  0.00000000000E+00 0. -1.
        -12    1    5    5    0    0  0.88722288855E+01 -0.26599628049E+02  0.39439169085E+02  0.48391163614E+02  0.00000000000E+00 0.  1.
          5    1    4    4  501    0  0.64760487491E+02 -0.64397271122E+02  0.53628850085E+02  0.10599271310E+03  0.41800000000E+01 0. -1.
         -5    1    4    4    0  501  0.30116355599E+02  0.56333749596E+02  0.62393550545E+02  0.89391911087E+02  0.41800000000E+01 0. -1.
</event>
<event>
11    1  0.7577197E-009  0.1369659E+03  0.7561462E-02  0.1110995E+00
         22   -1    0    0    0    0  0.00000000000E+00  0.00000000000E+00  0.14823571422E+03  0.14823571422E+03  0.00000000000E+00 0.  1.
         22   -1    0    0    0    0 -0.00000000000E+00 -0.00000000000E+00 -0.42934494538E+03  0.42934494538E+03  0.00000000000E+00 0. -1.
         24    2    1    2    0    0  0.22464521326E+02 -0.53720384140E+02 -0.28225241334E+03  0.29869602379E+03  0.78500671350E+02 0.  0.
         25    2    1    2    0    0 -0.51821424952E+02  0.23460585361E+02 -0.77434907706E+02  0.15772834055E+03  0.12508479256E+03 0.  0.
        -24    2    1    2    0    0  0.29356903626E+02  0.30259798778E+02  0.78578089880E+02  0.12115629527E+03  0.82017366829E+02 0.  0.
        -11    1    3    3    0    0 -0.58389615576E+01 -0.38712174963E+02 -0.46541923665E+02  0.60818390483E+02  0.00000000000E+00 0.  1.
         12    1    3    3    0    0  0.28303482884E+02 -0.15008209176E+02 -0.23571048967E+03  0.23787763331E+03  0.00000000000E+00 0. -1.
         11    1    5    5    0    0 -0.11240337686E+02 -0.21355361733E+02  0.34362238382E+02  0.41989999912E+02  0.00000000000E+00 0. -1.
        -12    1    5    5    0    0  0.40597241313E+02  0.51615160511E+02  0.44215851499E+02  0.79166295357E+02  0.00000000000E+00 0.  1.
          5    1    4    4  501    0 -0.72201252736E+02  0.51389698471E+01  0.30848744997E+01  0.72570095483E+02  0.41800000000E+01 0. -1.
         -5    1    4    4    0  501  0.20379827784E+02  0.18321615514E+02 -0.80519782206E+02  0.85158245062E+02  0.41800000000E+01 0. -1.
</event>
<event>
11    1  0.7577197E-009  0.1382372E+03  0.7561462E-02  0.1109543E+00
         22   -1    0    0    0    0  0.00000000000E+00  0.00000000000E+00  0.17104943649E+04  0.17104943649E+04  0.00000000000E+00 0. -1.
         22   -1    0    0    0    0 -0.00000000000E+00 -0.00000000000E+00 -0.50970993576E+03  0.50970993576E+03  0.00000000000E+00 0. -1.
        -24    2    1    2    0    0  0.12443594151E+02 -0.42003893794E+02 -0.49598570507E+03  0.50474126485E+03  0.82720944618E+02 0.  0.
         25    2    1    2    0    0 -0.67343355207E+02  0.22598946075E+02  0.75519833051E+03  0.76877687187E+03  0.12509004941E+03 0.  0.
         24    2    1    2    0    0  0.54899761056E+02  0.19404947719E+02  0.94157180373E+03  0.94668616398E+03  0.79162464176E+02 0.  0.
        -13    1    5    5    0    0  0.16868448861E+02  0.17737371835E+01  0.32601915289E+02  0.36750178109E+02  0.00000000000E+00 0.  1.
         14    1    5    5    0    0  0.38031312195E+02  0.17631210536E+02  0.90896988844E+03  0.90993598587E+03  0.00000000000E+00 0. -1.
         13    1    3    3    0    0 -0.52725439827E+01 -0.48275338136E+02 -0.13859313155E+03  0.14685490835E+03  0.00000000000E+00 0. -1.
        -14    1    3    3    0    0  0.17716138134E+02  0.62714443424E+01 -0.35739257352E+03  0.35788635650E+03  0.00000000000E+00 0.  1.
          5    1    4    4  501    0 -0.88160161807E+02 -0.24996307761E+02  0.47854000492E+03  0.48725254052E+03  0.41800000000E+01 0. -1.
         -5    1    4    4    0  501  0.20816806599E+02  0.47595253835E+02  0.27665832558E+03  0.28152433134E+03  0.41800000000E+01 0. -1.
</event>
<event>
11    1  0.7577197E-009  0.1611790E+03  0.7561462E-02  0.1085974E+00
         22   -1    0    0    0    0  0.00000000000E+00  0.00000000000E+00  0.56193986371E+03  0.56193986371E+03  0.00000000000E+00 0. -1.
         22   -1    0    0    0    0 -0.00000000000E+00 -0.00000000000E+00 -0.10947187801E+03  0.10947187801E+03  0.00000000000E+00 0. -1.
        -24    2    1    2    0    0  0.70406575179E+02  0.49000245998E+02  0.12445429168E+02  0.11829507541E+03  0.80502957845E+02 0.  0.
         25    2    1    2    0    0 -0.13462006652E+03 -0.72080450069E+02  0.16076651718E+03  0.25458081973E+03  0.12508943656E+03 0.  0.
         24    2    1    2    0    0  0.64213491337E+02  0.23080204071E+02  0.27925603936E+03  0.29853584658E+03  0.80521102119E+02 0.  0.
        -13    1    5    5    0    0 -0.40356400863E+01  0.33119967790E+02  0.59616492579E+02  0.68317968681E+02  0.00000000000E+00 0.  1.
         14    1    5    5    0    0  0.68249131423E+02 -0.10039763719E+02  0.21963954678E+03  0.23021787790E+03  0.00000000000E+00 0. -1.
         11    1    3    3    0    0  0.70607212794E+02  0.68356989758E+02  0.99772299758E+01  0.98780573319E+02  0.00000000000E+00 0. -1.
        -12    1    3    3    0    0 -0.20063761481E+00 -0.19356743760E+02  0.24681991922E+01  0.19514502087E+02  0.00000000000E+00 0.  1.
          5    1    4    4  501    0 -0.10293002606E+03 -0.10803045507E+03  0.12304066020E+03  0.19344675223E+03  0.41800000000E+01 0.  1.
         -5    1    4    4    0  501 -0.31690040457E+02  0.35950005004E+02  0.37725856979E+02  0.61134067497E+02  0.41800000000E+01 0.  1.
</event>
<event>
11    1  0.7577197E-009  0.1850597E+03  0.7561462E-02  0.1065622E+00
         22   -1    0    0    0    0  0.00000000000E+00  0.00000000000E+00  0.85092827554E+03  0.85092827554E+03  0.00000000000E+00 0. -1.
         22   -1    0    0    0    0 -0.00000000000E+00 -0.00000000000E+00 -0.19246491889E+03  0.19246491889E+03  0.00000000000E+00 0. -1.
        -24    2    1    2    0    0 -0.63101640502E+02 -0.40747860520E+01  0.28600397662E+02  0.10536626833E+03  0.79282071365E+02 0.  0.
         25    2    1    2    0    0  0.14778359497E+03  0.10785105137E+03 -0.61013369825E+02  0.22987359554E+03  0.12508956152E+03 0.  0.
         24    2    1    2    0    0 -0.84681954471E+02 -0.10377626532E+03  0.69087632881E+03  0.70815333056E+03  0.78933460684E+02 0.  0.
        -13    1    5    5    0    0  0.14531410887E+02 -0.16720292614E+02  0.70815521547E+02  0.74199516033E+02  0.00000000000E+00 0.  1.
         14    1    5    5    0    0 -0.99213365358E+02 -0.87055972707E+02  0.62006080726E+03  0.63395381453E+03  0.00000000000E+00 0. -1.
         11    1    3    3    0    0 -0.55251283403E+02 -0.37285852743E+02  0.13310900330E+02  0.67971458717E+02  0.00000000000E+00 0. -1.
        -12    1    3    3    0    0 -0.78503570985E+01  0.33211066691E+02  0.15289497332E+02  0.37394809613E+02  0.00000000000E+00 0.  1.
          5    1    4    4  501    0  0.30033175515E+02 -0.59556096577E+01  0.29496355518E+02  0.42719647784E+02  0.41800000000E+01 0.  1.
         -5    1    4    4    0  501  0.11775041946E+03  0.11380666103E+03 -0.90509725343E+02  0.18715394775E+03  0.41800000000E+01 0.  1.
</event>
<event>
11    1  0.7577197E-009  0.2900623E+03  0.7561462E-02  0.1004487E+00
         22   -1    0    0    0    0  0.00000000000E+00  0.00000000000E+00  0.56723493564E+02  0.56723493564E+02  0.00000000000E+00 0.  1.
         22   -1    0    0    0    0 -0.00000000000E+00 -0.00000000000E+00 -0.22364857569E+04  0.22364857569E+04  0.00000000000E+00 0.  1.
        -24    2    1    2    0    0 -0.59108934001E+02 -0.25757427479E+02 -0.70924657664E+03  0.71675650912E+03  0.80943657831E+02 0.  0.
         25    2    1    2    0    0  0.28274211005E+03 -0.60023438081E+02 -0.78581056082E+03  0.84657652790E+03  0.12509063189E+03 0.  0.
         24    2    1    2    0    0 -0.22363317605E+03  0.85780865560E+02 -0.68470512583E+03  0.72987621340E+03  0.80796183146E+02 0.  0.
        -13    1    5    5    0    0 -0.20494514534E+03  0.83248444360E+02 -0.67111304487E+03  0.70662970153E+03  0.00000000000E+00 0.  1.
         14    1    5    5    0    0 -0.18688030715E+02  0.25324211998E+01 -0.13592080963E+02  0.23246511869E+02  0.00000000000E+00 0. -1.
         11    1    3    3    0    0 -0.21902790742E+02 -0.31723692313E+01 -0.37081351320E+02  0.43183593928E+02  0.00000000000E+00 0. -1.
        -12    1    3    3    0    0 -0.37206143259E+02 -0.22585058247E+02 -0.67216522532E+03  0.67357291519E+03  0.00000000000E+00 0.  1.
          5    1    4    4  501    0  0.12366491311E+02  0.22513889248E+02 -0.12740340348E+03  0.13003424524E+03  0.41800000000E+01 0. -1.
         -5    1    4    4    0  501  0.27037561874E+03 -0.82537327329E+02 -0.65840715734E+03  0.71654228267E+03  0.41800000000E+01 0. -1.
</event>
<event>
11    1  0.7577197E-009  0.1379302E+03  0.7561462E-02  0.1109892E+00
         22   -1    0    0    0    0  0.00000000000E+00  0.00000000000E+00  0.11145306032E+04  0.11145306032E+04  0.00000000000E+00 0. -1.
         22   -1    0    0    0    0 -0.00000000000E+00 -0.00000000000E+00 -0.72220369813E+03  0.72220369813E+03  0.00000000000E+00 0. -1.
        -24    2    1    2    0    0  0.56872894102E+02 -0.10534320250E+02 -0.69045102353E+03  0.69761110645E+03  0.81198164808E+02 0.  0.
         25    2    1    2    0    0 -0.70012223084E+02  0.26086312578E+02  0.17547119950E+03  0.22807827004E+03  0.12508936136E+03 0.  0.
         24    2    1    2    0    0  0.13139328982E+02 -0.15551992328E+02  0.90730672909E+03  0.91104492484E+03  0.79892727999E+02 0.  0.
        -13    1    5    5    0    0  0.39361710238E+02 -0.26031071695E+02  0.37009258035E+03  0.37308910324E+03  0.00000000000E+00 0.  1.
         14    1    5    5    0    0 -0.26222381256E+02  0.10479079366E+02  0.53721414874E+03  0.53795582159E+03  0.00000000000E+00 0. -1.
         13    1    3    3    0    0  0.63223434978E+02 -0.61017067677E+01 -0.68546237000E+03  0.68839893539E+03  0.00000000000E+00 0. -1.
        -14    1    3    3    0    0 -0.63505408762E+01 -0.44326134825E+01 -0.49886535268E+01  0.92121710642E+01  0.00000000000E+00 0.  1.
          5    1    4    4  501    0 -0.78621348409E+02  0.51102143741E+02  0.64419770006E+02  0.11384254340E+03  0.41800000000E+01 0. -1.
         -5    1    4    4    0  501  0.86091253251E+01 -0.25015831163E+02  0.11105142949E+03  0.11423572664E+03  0.41800000000E+01 0. -1.
</event>
<event>
11    1  0.7577197E-009  0.1964251E+03  0.7561462E-02  0.1057081E+00
         22   -1    0    0    0    0  0.00000000000E+00  0.00000000000E+00  0.27594886325E+03  0.27594886325E+03  0.00000000000E+00 0.  1.
         22   -1    0    0    0    0 -0.00000000000E+00 -0.00000000000E+00 -0.43544514643E+04  0.43544514643E+04  0.00000000000E+00 0. -1.
         24    2    1    2    0    0 -0.71177132154E+02  0.34079536454E+02 -0.42211862085E+04  0.42226969100E+04  0.80799674005E+02 0.  0.
         25    2    1    2    0    0  0.19385074108E+03 -0.33707106378E+02  0.89831589285E+02  0.24986541882E+03  0.12509490097E+03 0.  0.
        -24    2    1    2    0    0 -0.12267360893E+03 -0.37243007589E+00  0.52852018217E+02  0.15783799875E+03  0.84086532747E+02 0.  0.
        -11    1    3    3    0    0 -0.62015568166E+02  0.12099187719E+02 -0.14153624279E+04  0.14167720789E+04  0.00000000000E+00 0.  1.
         12    1    3    3    0    0 -0.91615639887E+01  0.21980348735E+02 -0.28058237806E+04  0.28059248311E+04  0.00000000000E+00 0. -1.
         13    1    5    5    0    0 -0.73814917534E+02 -0.41616348433E+02  0.28119475465E+02  0.89281954548E+02  0.00000000000E+00 0. -1.
        -14    1    5    5    0    0 -0.48858691395E+02  0.41243918357E+02  0.24732542752E+02  0.68556044207E+02  0.00000000000E+00 0.  1.
          5    1    4    4  501    0  0.16865031897E+03 -0.11394459449E+02  0.11765781352E+03  0.20599416806E+03  0.41800000000E+01 0. -1.
         -5    1    4    4    0  501  0.25200422117E+02 -0.22312646930E+02 -0.27826224234E+02  0.43871250757E+02  0.41800000000E+01 0. -1.
</event>
<event>
11    1  0.7577197E-009  0.1518389E+03  0.7561462E-02  0.1095014E+00
         22   -1    0    0    0    0  0.00000000000E+00  0.00000000000E+00  0.18760260647E+04  0.18760260647E+04  0.00000000000E+00 0. -1.
         22   -1    0    0    0    0 -0.00000000000E+00 -0.00000000000E+00 -0.29329851086E+03  0.29329851086E+03  0.00000000000E+00 0.  1.
         24    2    1    2    0    0 -0.82969153828E+02 -0.15187745582E+02 -0.19566296985E+03  0.22659004102E+03  0.77100588941E+02 0.  0.
         25    2    1    2    0    0  0.16698465021E+03  0.18683514755E+02  0.56520433600E+02  0.21696676838E+03  0.12508825700E+03 0.  0.
        -24    2    1    2    0    0 -0.84015496379E+02 -0.34957691731E+01  0.17218700901E+04  0.17257677662E+04  0.79793179601E+02 0.  0.
        -13    1    3    3    0    0 -0.33261273212E+02  0.85561827535E+01 -0.15329207753E+03  0.15709227095E+03  0.00000000000E+00 0.  1.
         14    1    3    3    0    0 -0.49707880617E+02 -0.23743928336E+02 -0.42370892319E+02  0.69497770066E+02  0.00000000000E+00 0. -1.
         11    1    5    5    0    0 -0.89589082569E+02 -0.23823373438E+02  0.12532627644E+04  0.12566866409E+04  0.00000000000E+00 0. -1.
        -12    1    5    5    0    0  0.55735861904E+01  0.20327604265E+02  0.46860732574E+03  0.46908112528E+03  0.00000000000E+00 0.  1.
          5    1    4    4  501    0  0.16716922769E+03  0.20935770573E+02  0.84543111977E+02  0.18854407272E+03  0.41800000000E+01 0.  1.
         -5    1    4    4    0  501 -0.18457748213E+00 -0.22522558175E+01 -0.28022678377E+02  0.28422695659E+02  0.41800000000E+01 0.  1.
</event>
<event>
11    1  0.7577197E-009  0.1490451E+03  0.7561462E-02  0.1097859E+00
         22   -1    0    0    0    0  0.00000000000E+00  0.00000000000E+00  0.78233207703E+03  0.78233207703E+03  0.00000000000E+00 0.  1.
         22   -1    0    0    0    0 -0.00000000000E+00 -0.00000000000E+00 -0.14680837169E+03  0.14680837169E+03  0.00000000000E+00 0.  1.
        -24    2    1    2    0    0  0.15597211149E+02 -0.31553112473E+01 -0.10492670027E+03  0.13229072576E+03  0.78980976868E+02 0.  0.
         25    2    1    2    0    0 -0.59945467169E+02  0.67548890870E+02  0.25793710032E+03  0.30056069549E+03  0.12509545259E+03 0.  0.
         24    2    1    2    0    0  0.44348256020E+02 -0.64393579623E+02  0.48251330529E+03  0.49628902747E+03  0.85851080890E+02 0.  0.
        -13    1    5    5    0    0  0.26202786879E+02 -0.79696756190E+02  0.43676543230E+03  0.44474959454E+03  0.00000000000E+00 0.  1.
         14    1    5    5    0    0  0.18145469141E+02  0.15303176567E+02  0.45747872988E+02  0.51539432926E+02  0.00000000000E+00 0. -1.
         11    1    3    3    0    0  0.82791431016E+00 -0.15086448802E+02  0.84660911362E+01  0.17319384478E+02  0.00000000000E+00 0. -1.
        -12    1    3    3    0    0  0.14769296839E+02  0.11931137555E+02 -0.11339279141E+03  0.11497134128E+03  0.00000000000E+00 0.  1.
          5    1    4    4  501    0  0.59439570150E+01  0.60904981867E+02  0.41189901385E+02  0.73883880633E+02  0.41800000000E+01 0.  1.
         -5    1    4    4    0  501 -0.65889424184E+02  0.66439090029E+01  0.21674719894E+03  0.22667681486E+03  0.41800000000E+01 0.  1.
</event>
<event>
11    1  0.7577197E-009  0.2462269E+03  0.7561462E-02  0.1025929E+00
         22   -1    0    0    0    0  0.00000000000E+00  0.00000000000E+00  0.59617444507E+03  0.59617444507E+03  0.00000000000E+00 0. -1.
         22   -1    0    0    0    0 -0.00000000000E+00 -0.00000000000E+00 -0.42723027664E+03  0.42723027664E+03  0.00000000000E+00 0.  1.
        -24    2    1    2    0    0 -0.16581927077E+03  0.18354429628E+03 -0.20650540470E+03  0.33256022989E+03  0.82263510011E+02 0.  0.
         25    2    1    2    0    0  0.16943057452E+03 -0.60530213448E+02 -0.63300468023E+02  0.22809618404E+03  0.12510113349E+03 0.  0.
         24    2    1    2    0    0 -0.36113037455E+01 -0.12301408283E+03  0.43875004116E+03  0.46274830777E+03  0.80553656890E+02 0.  0.
        -13    1    5    5    0    0  0.37518381077E+01 -0.99863052715E+02  0.20841087616E+03  0.23113156186E+03  0.00000000000E+00 0.  1.
         14    1    5    5    0    0 -0.73631418533E+01 -0.23151030116E+02  0.23033916500E+03  0.23161674591E+03  0.00000000000E+00 0. -1.
         13    1    3    3    0    0  0.90794805688E+01  0.41311333758E+01 -0.58850697348E+01  0.11581764812E+02  0.00000000000E+00 0. -1.
        -14    1    3    3    0    0 -0.17489875134E+03  0.17941316290E+03 -0.20062033497E+03  0.32097846508E+03  0.00000000000E+00 0.  1.
          5    1    4    4  501    0  0.24583150844E+02 -0.25393188422E+02 -0.70331685764E+02  0.78823624289E+02  0.41800000000E+01 0. -1.
         -5    1    4    4    0  501  0.14484742367E+03 -0.35137025026E+02  0.70312177409E+01  0.14927255975E+03  0.41800000000E+01 0. -1.
</event>
<event>
11    1  0.7577197E-009  0.1371488E+03  0.7561462E-02  0.1110785E+00
         22   -1    0    0    0    0  0.00000000000E+00  0.00000000000E+00  0.12399289621E+04  0.12399289621E+04  0.00000000000E+00 0. -1.
         22   -1    0    0    0    0 -0.00000000000E+00 -0.00000000000E+00 -0.27819899530E+03  0.27819899530E+03  0.00000000000E+00 0. -1.
         24    2    1    2    0    0 -0.18938344183E+02  0.52849998958E+02 -0.25927483313E+03  0.27680807517E+03  0.79041053336E+02 0.  0.
         25    2    1    2    0    0  0.70302789970E+01 -0.66441494801E+02  0.77628364554E+03  0.78913069722E+03  0.12508821654E+03 0.  0.
        -24    2    1    2    0    0  0.11908065186E+02  0.13591495843E+02  0.44472115441E+03  0.45218918502E+03  0.79822447306E+02 0.  0.
        -13    1    3    3    0    0  0.26011531519E+01  0.32267023174E+02 -0.25678784890E+02  0.41319810934E+02  0.00000000000E+00 0.  1.
         14    1    3    3    0    0 -0.21539497335E+02  0.20582975784E+02 -0.23359604824E+03  0.23548826423E+03  0.00000000000E+00 0. -1.
         13    1    5    5    0    0  0.35228392750E+02  0.32010390638E+02  0.34061301260E+03  0.34392285344E+03  0.00000000000E+00 0. -1.
        -14    1    5    5    0    0 -0.23320327564E+02 -0.18418894795E+02  0.10410814181E+03  0.10826633159E+03  0.00000000000E+00 0.  1.
          5    1    4    4  501    0  0.18341820245E+02  0.14082825360E+02  0.28551534710E+02  0.36978519093E+02  0.41800000000E+01 0. -1.
         -5    1    4    4    0  501 -0.11311541248E+02 -0.80524320161E+02  0.74773211083E+03  0.75215217813E+03  0.41800000000E+01 0. -1.
</event>
<event>
11    1  0.7577197E-009  0.6582403E+03  0.7561462E-02  0.9096212E-01
         22   -1    0    0    0    0  0.00000000000E+00  0.00000000000E+00  0.15523149065E+04  0.15523149065E+04  0.00000000000E+00 0. -1.
         22   -1    0    0    0    0 -0.00000000000E+00 -0.00000000000E+00 -0.39752879542E+03  0.39752879542E+03  0.00000000000E+00 0. -1.
        -24    2    1    2    0    0  0.14851007100E+02 -0.12822972969E+03  0.97778665778E+01  0.15413505761E+03  0.83657595722E+02 0.  0.
         25    2    1    2    0    0  0.14029002492E+03 -0.46799529386E+03  0.12743853551E+02  0.50449039086E+03  0.12508901829E+03 0.  0.
         24    2    1    2    0    0 -0.15514103202E+03  0.59622502355E+03  0.11322643909E+04  0.12912182534E+04  0.75292154354E+02 0.  0.
        -13    1    5    5    0    0  0.15874336057E+01  0.43101504387E+02  0.52510725323E+02  0.67953189034E+02  0.00000000000E+00 0.  1.
         14    1    5    5    0    0 -0.15672846563E+03  0.55312351916E+03  0.10797536656E+04  0.12232650644E+04  0.00000000000E+00 0. -1.
         11    1    3    3    0    0  0.49028880248E+02 -0.90208534193E+02  0.79246060950E+01  0.10297674554E+03  0.00000000000E+00 0. -1.
        -12    1    3    3    0    0 -0.34177873148E+02 -0.38021195499E+02  0.18532604828E+01  0.51158312077E+02  0.00000000000E+00 0.  1.
          5    1    4    4  501    0  0.11527680326E+03 -0.46155647065E+03  0.23189891082E+02  0.47631749959E+03  0.41800000000E+01 0. -1.
         -5    1    4    4    0  501  0.25013221662E+02 -0.64388232135E+01 -0.10446037532E+02  0.28172891268E+02  0.41800000000E+01 0. -1.
</event>
<event>
11    1  0.7577197E-009  0.1496112E+03  0.7561462E-02  0.1097277E+00
         22   -1    0    0    0    0  0.00000000000E+00  0.00000000000E+00  0.86187374787E+03  0.86187374787E+03  0.00000000000E+00 0.  1.
         22   -1    0    0    0    0 -0.00000000000E+00 -0.00000000000E+00 -0.23732527091E+03  0.23732527091E+03  0.00000000000E+00 0.  1.
         24    2    1    2    0    0  0.72193776788E+02 -0.27375746959E+02 -0.11986210415E+03  0.16414017389E+03  0.81324656429E+02 0.  0.
         25    2    1    2    0    0 -0.10135564805E+03  0.30762720497E+01 -0.22780843205E+02  0.16262713778E+03  0.12508472442E+03 0.  0.
        -24    2    1    2    0    0  0.29161871265E+02  0.24299474909E+02  0.76719142432E+03  0.77243170712E+03  0.81407502102E+02 0.  0.
        -11    1    3    3    0    0  0.20097364183E+02 -0.17636991357E+01 -0.10115708777E+03  0.10314926606E+03  0.00000000000E+00 0.  1.
         12    1    3    3    0    0  0.52096412605E+02 -0.25612047823E+02 -0.18705016379E+02  0.60990907829E+02  0.00000000000E+00 0. -1.
         11    1    5    5    0    0  0.38684605935E+02  0.41645266006E+02  0.33502968308E+03  0.33981717947E+03  0.00000000000E+00 0. -1.
        -12    1    5    5    0    0 -0.95227346694E+01 -0.17345791097E+02  0.43216174123E+03  0.43261452764E+03  0.00000000000E+00 0.  1.
          5    1    4    4  501    0  0.73046712946E+01 -0.32159466578E+02 -0.34270145008E+02  0.47744159351E+02  0.41800000000E+01 0.  1.
         -5    1    4    4    0  501 -0.10866031935E+03  0.35235738628E+02  0.11489301802E+02  0.11488297843E+03  0.41800000000E+01 0.  1.
</event>
<event>
11    1  0.7577197E-009  0.1848452E+03  0.7561462E-02  0.1065790E+00
         22   -1    0    0    0    0  0.00000000000E+00  0.00000000000E+00  0.21540369381E+04  0.21540369381E+04  0.00000000000E+00 0. -1.
         22   -1    0    0    0    0 -0.00000000000E+00 -0.00000000000E+00 -0.51093863850E+03  0.51093863850E+03  0.00000000000E+00 0. -1.
         24    2    1    2    0    0 -0.13032889555E+02  0.14992744493E+02 -0.46274857482E+03  0.47028760090E+03  0.81483406057E+02 0.  0.
         25    2    1    2    0    0  0.83903915554E+02 -0.12949187882E+03  0.19835606851E+03  0.28071464538E+03  0.12509024139E+03 0.  0.
        -24    2    1    2    0    0 -0.70871025999E+02  0.11449913433E+03  0.19074908059E+04  0.19139733303E+04  0.81486075139E+02 0.  0.
        -11    1    3    3    0    0 -0.28580747643E+02  0.69841347972E+01 -0.56847924417E+02  0.64010341236E+02  0.00000000000E+00 0.  1.
         12    1    3    3    0    0  0.15547858088E+02  0.80086096961E+01 -0.40590065040E+03  0.40627725966E+03  0.00000000000E+00 0. -1.
         13    1    5    5    0    0 -0.64955416217E+02  0.12226550650E+03  0.18734912224E+04  0.18785998564E+04  0.00000000000E+00 0. -1.
        -14    1    5    5    0    0 -0.59156097824E+01 -0.77663721722E+01  0.33999583524E+02  0.35373473898E+02  0.00000000000E+00 0.  1.
          5    1    4    4  501    0  0.29782770533E+02  0.17477404258E+02  0.10996981971E+02  0.36481215614E+02  0.41800000000E+01 0.  1.
         -5    1    4    4    0  501  0.54121145021E+02 -0.14696928308E+03  0.18735908654E+03  0.24423342977E+03  0.41800000000E+01 0.  1.
</event>
<event>
11    1  0.7577197E-009  0.1526909E+03  0.7561462E-02  0.1094160E+00
         22   -1    0    0    0    0  0.00000000000E+00  0.00000000000E+00  0.38043545885E+03  0.38043545885E+03  0.00000000000E+00 0. -1.
         22   -1    0    0    0    0 -0.00000000000E+00 -0.00000000000E+00 -0.73482616387E+03  0.73482616387E+03  0.00000000000E+00 0. -1.
         24    2    1    2    0    0  0.85294373756E+02 -0.25906472560E+02 -0.62124217423E+03  0.63260291494E+03  0.79362040206E+02 0.  0.
         25    2    1    2    0    0 -0.83899268384E+02 -0.40272156114E+02 -0.38047636532E+02  0.16048850696E+03  0.12509198387E+03 0.  0.
        -24    2    1    2    0    0 -0.13951053722E+01  0.66178628674E+02  0.30489910575E+03  0.32217020083E+03  0.80303277643E+02 0.  0.
        -13    1    3    3    0    0  0.36337489093E+02 -0.15241500672E+02 -0.81353407029E+02  0.90394099871E+02  0.00000000000E+00 0.  1.
         14    1    3    3    0    0  0.48956884662E+02 -0.10664971889E+02 -0.53988876721E+03  0.54220881507E+03  0.00000000000E+00 0. -1.
         11    1    5    5    0    0 -0.30779071838E+01  0.17112106867E+02  0.24081318378E+03  0.24144002816E+03  0.00000000000E+00 0. -1.
        -12    1    5    5    0    0  0.16828018116E+01  0.49066521807E+02  0.64085921967E+02  0.80730172665E+02  0.00000000000E+00 0.  1.
          5    1    4    4  501    0 -0.11205211550E+03 -0.49736015563E+02 -0.43210560798E+02  0.13005373042E+03  0.41800000000E+01 0. -1.
         -5    1    4    4    0  501  0.28152847112E+02  0.94638594490E+01  0.51629242659E+01  0.30434776542E+02  0.41800000000E+01 0. -1.
</event>
<event>
11    1  0.7577197E-009  0.4869259E+03  0.7561462E-02  0.9423220E-01
         22   -1    0    0    0    0  0.00000000000E+00  0.00000000000E+00  0.13291469667E+04  0.13291469667E+04  0.00000000000E+00 0.  1.
         22   -1    0    0    0    0 -0.00000000000E+00 -0.00000000000E+00 -0.40950047839E+03  0.40950047839E+03  0.00000000000E+00 0. -1.
        -24    2    1    2    0    0 -0.47116452980E+03 -0.14439228308E+03 -0.12180139497E+02  0.49927714612E+03  0.79272739856E+02 0.  0.
         25    2    1    2    0    0  0.45384195621E+03 -0.41116840108E+02  0.26479559637E+03  0.54169054159E+03  0.12509524064E+03 0.  0.
         24    2    1    2    0    0  0.17322573586E+02  0.18550912319E+03  0.66703103144E+03  0.69767975738E+03  0.84338251173E+02 0.  0.
        -13    1    5    5    0    0 -0.30300298196E+02  0.99146133992E+02  0.29042061484E+03  0.30837022794E+03  0.00000000000E+00 0.  1.
         14    1    5    5    0    0  0.47622871782E+02  0.86362989193E+02  0.37661041660E+03  0.38930952944E+03  0.00000000000E+00 0. -1.
         11    1    3    3    0    0 -0.19105313816E+03 -0.45091622292E+02 -0.41504873237E+02  0.20064199587E+03  0.00000000000E+00 0. -1.
        -12    1    3    3    0    0 -0.28011139164E+03 -0.99300660786E+02  0.29324733740E+02  0.29863515025E+03  0.00000000000E+00 0.  1.
          5    1    4    4  501    0  0.32144120279E+03 -0.17039031294E+02  0.24725541050E+03  0.40591561421E+03  0.41800000000E+01 0.  1.
         -5    1    4    4    0  501  0.13240075343E+03 -0.24077808814E+02  0.17540185873E+02  0.13577492738E+03  0.41800000000E+01 0.  1.
</event>
<event>
11    1  0.7577197E-009  0.1348150E+03  0.7561462E-02  0.1113490E+00
         22   -1    0    0    0    0  0.00000000000E+00  0.00000000000E+00  0.22005691720E+04  0.22005691720E+04  0.00000000000E+00 0.  1.
         22   -1    0    0    0    0 -0.00000000000E+00 -0.00000000000E+00 -0.23292645113E+03  0.23292645113E+03  0.00000000000E+00 0. -1.
         24    2    1    2    0    0  0.21028096489E+02  0.45399053191E+02 -0.21610011046E+03  0.23455385448E+03  0.76243019599E+02 0.  0.
         25    2    1    2    0    0 -0.19984074322E+02 -0.53956674102E+02  0.72498131000E+03  0.73795072475E+03  0.12515065484E+03 0.  0.
        -24    2    1    2    0    0 -0.10440221671E+01  0.85576209104E+01  0.14587615213E+04  0.14609910439E+04  0.80220517087E+02 0.  0.
        -11    1    3    3    0    0  0.33847351035E+02 -0.42861798140E+01 -0.48669224781E+02  0.59436587640E+02  0.00000000000E+00 0.  1.
         12    1    3    3    0    0 -0.12819254546E+02  0.49685233005E+02 -0.16743088568E+03  0.17511726684E+03  0.00000000000E+00 0. -1.
         11    1    5    5    0    0 -0.11262722822E+02  0.10914644229E+01  0.28367574070E+02  0.30541111286E+02  0.00000000000E+00 0. -1.
        -12    1    5    5    0    0  0.10218700654E+02  0.74661564875E+01  0.14303939473E+04  0.14304499326E+04  0.00000000000E+00 0.  1.
          5    1    4    4  501    0  0.12370366767E+02 -0.87965757062E+02  0.41628414290E+03  0.42567706119E+03  0.41800000000E+01 0.  1.
         -5    1    4    4    0  501 -0.32354441089E+02  0.34009082960E+02  0.30869716710E+03  0.31227366356E+03  0.41800000000E+01 0.  1.
</event>
<event>
11    1  0.7577197E-009  0.1457535E+03  0.7561462E-02  0.1101299E+00
         22   -1    0    0    0    0  0.00000000000E+00  0.00000000000E+00  0.38762681888E+03  0.38762681888E+03  0.00000000000E+00 0. -1.
         22   -1    0    0    0    0 -0.00000000000E+00 -0.00000000000E+00 -0.18984955318E+03  0.18984955318E+03  0.00000000000E+00 0.  1.
        -24    2    1    2    0    0  0.21598236540E+02  0.13694277828E+01 -0.11860573795E+03  0.14497401272E+03  0.80509528221E+02 0.  0.
         25    2    1    2    0    0  0.54244056405E+02 -0.23455129430E+02  0.57608867772E+02  0.14985619345E+03  0.12508211830E+03 0.  0.
         24    2    1    2    0    0 -0.75842292945E+02  0.22085701648E+02  0.25877413587E+03  0.28264616589E+03  0.81761666316E+02 0.  0.
        -11    1    5    5    0    0 -0.64280246831E+02 -0.44221732885E+01  0.85951217160E+02  0.10742028431E+03  0.00000000000E+00 0.  1.
         12    1    5    5    0    0 -0.11562046114E+02  0.26507874936E+02  0.17282291871E+03  0.17522588158E+03  0.00000000000E+00 0. -1.
         11    1    3    3    0    0  0.29751244358E+02 -0.29348993878E+00 -0.39465490693E+01  0.30013295833E+02  0.00000000000E+00 0. -1.
        -12    1    3    3    0    0 -0.81530078175E+01  0.16629177216E+01 -0.11465918888E+03  0.11496071688E+03  0.00000000000E+00 0.  1.
          5    1    4    4  501    0  0.61047397435E+02 -0.68808997265E+02  0.34500995340E+02  0.98332364548E+02  0.41800000000E+01 0. -1.
         -5    1    4    4    0  501 -0.68033410298E+01  0.45353867835E+02  0.23107872432E+02  0.51523828905E+02  0.41800000000E+01 0. -1.
</event>
<event>
11    1  0.7577197E-009  0.1252518E+03  0.7561462E-02  0.1125245E+00
         22   -1    0    0    0    0  0.00000000000E+00  0.00000000000E+00  0.24456834530E+03  0.24456834530E+03  0.00000000000E+00 0.  1.
         22   -1    0    0    0    0 -0.00000000000E+00 -0.00000000000E+00 -0.50816949149E+03  0.50816949149E+03  0.00000000000E+00 0.  1.
         24    2    1    2    0    0 -0.41167244171E+01  0.13269459946E+02 -0.28193586590E+03  0.29332099574E+03  0.79726708645E+02 0.  0.
         25    2    1    2    0    0 -0.29144612103E+02  0.21983384959E+02 -0.19453882225E+03  0.23414942073E+03  0.12509164735E+03 0.  0.
        -24    2    1    2    0    0  0.33261336520E+02 -0.35252844905E+02  0.21287354195E+03  0.22526742032E+03  0.55508433716E+02 0.  0.
        -13    1    3    3    0    0  0.19644255131E+02  0.21506852971E+02 -0.25427142995E+03  0.25593436966E+03  0.00000000000E+00 0.  1.
         14    1    3    3    0    0 -0.23760979548E+02 -0.82373930244E+01 -0.27664435950E+02  0.37386626076E+02  0.00000000000E+00 0. -1.
         13    1    5    5    0    0 -0.19053075202E+00 -0.24215124616E+02  0.15943301062E+03  0.16126156838E+03  0.00000000000E+00 0. -1.
        -14    1    5    5    0    0  0.33451867272E+02 -0.11037720289E+02  0.53440531334E+02  0.64005851939E+02  0.00000000000E+00 0.  1.
          5    1    4    4  501    0 -0.51445738898E+02  0.38145892828E+01 -0.19820565662E+03  0.20485158007E+03  0.41800000000E+01 0. -1.
         -5    1    4    4    0  501  0.22301126796E+02  0.18168795676E+02  0.36668343740E+01  0.29297840654E+02  0.41800000000E+01 0. -1.
</event>
<event>
11    1  0.7577197E-009  0.1641930E+03  0.7561462E-02  0.1083199E+00
         22   -1    0    0    0    0  0.00000000000E+00  0.00000000000E+00  0.22455499028E+03  0.22455499028E+03  0.00000000000E+00 0. -1.
         22   -1    0    0    0    0 -0.00000000000E+00 -0.00000000000E+00 -0.12126681453E+04  0.12126681453E+04  0.00000000000E+00 0.  1.
        -24    2    1    2    0    0 -0.19441191976E+02  0.28737209830E+02 -0.28579000457E+03  0.29888901693E+03  0.80342582431E+02 0.  0.
         25    2    1    2    0    0  0.22542360026E+02 -0.13436724889E+03 -0.88976355790E+03  0.90878581498E+03  0.12509897270E+03 0.  0.
         24    2    1    2    0    0 -0.31011680502E+01  0.10563003906E+03  0.18744040750E+03  0.22954830363E+03  0.79944949430E+02 0.  0.
        -13    1    5    5    0    0 -0.17065843415E+02 -0.15227595221E+01  0.56034830143E+01  0.18026669962E+02  0.00000000000E+00 0.  1.
         14    1    5    5    0    0  0.13964675365E+02  0.10715279858E+03  0.18183692449E+03  0.21152163367E+03  0.00000000000E+00 0. -1.
         11    1    3    3    0    0 -0.14061643346E+02 -0.27565528597E+02 -0.98913444450E+02  0.10364100382E+03  0.00000000000E+00 0. -1.
        -12    1    3    3    0    0 -0.53795486292E+01  0.56302738427E+02 -0.18687656012E+03  0.19524801310E+03  0.00000000000E+00 0.  1.
          5    1    4    4  501    0  0.27092674437E+01 -0.13079042049E+03 -0.87148577487E+03  0.88125955451E+03  0.41800000000E+01 0.  1.
         -5    1    4    4    0  501  0.19833092582E+02 -0.35768284013E+01 -0.18277783035E+02  0.27526260469E+02  0.41800000000E+01 0.  1.
</event>
<event>
11    1  0.7577197E-009  0.1287839E+03  0.7561462E-02  0.1120772E+00
         22   -1    0    0    0    0  0.00000000000E+00  0.00000000000E+00  0.22100143147E+03  0.22100143147E+03  0.00000000000E+00 0. -1.
         22   -1    0    0    0    0 -0.00000000000E+00 -0.00000000000E+00 -0.71486782880E+03  0.71486782880E+03  0.00000000000E+00 0.  1.
        -24    2    1    2    0    0  0.16465036787E+02 -0.17771094049E+02 -0.56613666520E+03  0.57203721569E+03  0.78287567536E+02 0.  0.
         25    2    1    2    0    0  0.98502961224E+00 -0.94764737354E+01 -0.10626665291E+03  0.16440582684E+03  0.12508357422E+03 0.  0.
         24    2    1    2    0    0 -0.17450066399E+02  0.27247567784E+02  0.17853692077E+03  0.19942621775E+03  0.82755359221E+02 0.  0.
        -11    1    5    5    0    0 -0.22348650649E+02  0.45184012780E+02  0.55431904863E+02  0.74924984307E+02  0.00000000000E+00 0.  1.
         12    1    5    5    0    0  0.48985842499E+01 -0.17936444996E+02  0.12310501591E+03  0.12450123344E+03  0.00000000000E+00 0. -1.
         13    1    3    3    0    0  0.32201262401E+02  0.50139012361E+01 -0.10209735664E+03  0.10717243460E+03  0.00000000000E+00 0. -1.
        -14    1    3    3    0    0 -0.15736225614E+02 -0.22784995285E+02 -0.46403930856E+03  0.46486478108E+03  0.00000000000E+00 0.  1.
          5    1    4    4  501    0  0.28883748665E+02  0.93964880510E+01 -0.12285845441E+03  0.12662636828E+03  0.41800000000E+01 0.  1.
         -5    1    4    4    0  501 -0.27898719052E+02 -0.18872961786E+02  0.16591801506E+02  0.37779458553E+02  0.41800000000E+01 0.  1.
</event>
<event>
11    1  0.7577197E-009  0.1519154E+03  0.7561462E-02  0.1094938E+00
         22   -1    0    0    0    0  0.00000000000E+00  0.00000000000E+00  0.15224827875E+03  0.15224827875E+03  0.00000000000E+00 0.  1.
         22   -1    0    0    0    0 -0.00000000000E+00 -0.00000000000E+00 -0.99941820447E+03  0.99941820447E+03  0.00000000000E+00 0.  1.
        -24    2    1    2    0    0 -0.31477968815E+01 -0.80930326528E+02 -0.67434128584E+03  0.68398347938E+03  0.80855450668E+02 0.  0.
         25    2    1    2    0    0  0.88162294434E+02  0.61204468128E+02 -0.26811083508E+03  0.31472182550E+03  0.12509128858E+03 0.  0.
         24    2    1    2    0    0 -0.85014497552E+02  0.19725858400E+02  0.95282195200E+02  0.15296117834E+03  0.81864834174E+02 0.  0.
        -13    1    5    5    0    0 -0.77354863735E+02  0.21475720341E+02  0.11005769135E+03  0.13622656471E+03  0.00000000000E+00 0.  1.
         14    1    5    5    0    0 -0.76596338167E+01 -0.17498619415E+01 -0.14775496149E+02  0.16734613633E+02  0.00000000000E+00 0. -1.
         13    1    3    3    0    0 -0.14443509727E+02 -0.43096431445E+02 -0.12132645705E+03  0.12956089903E+03  0.00000000000E+00 0. -1.
        -14    1    3    3    0    0  0.11295712846E+02 -0.37833895082E+02 -0.55301482879E+03  0.55442258035E+03  0.00000000000E+00 0.  1.
          5    1    4    4  501    0  0.18668040206E+02 -0.15873879543E+02  0.23825781922E+01  0.24972481970E+02  0.41800000000E+01 0. -1.
         -5    1    4    4    0  501  0.69494254227E+02  0.77078347671E+02 -0.27049341327E+03  0.28974934353E+03  0.41800000000E+01 0. -1.
</event>
<event>
11    1  0.7577197E-009  0.1416263E+03  0.7561462E-02  0.1105756E+00
         22   -1    0    0    0    0  0.00000000000E+00  0.00000000000E+00  0.14670364521E+04  0.14670364521E+04  0.00000000000E+00 0. -1.
         22   -1    0    0    0    0 -0.00000000000E+00 -0.00000000000E+00 -0.53364023209E+03  0.53364023209E+03  0.00000000000E+00 0. -1.
         24    2    1    2    0    0 -0.65925995989E+02 -0.85815851532E+01 -0.50594160355E+03  0.51833981443E+03  0.90991079101E+02 0.  0.
         25    2    1    2    0    0  0.68721296943E+02 -0.33198814311E+02  0.25184134157E+03  0.29136554158E+03  0.12508013259E+03 0.  0.
        -24    2    1    2    0    0 -0.27953009541E+01  0.41780399464E+02  0.11874964820E+04  0.11909713282E+04  0.80693211298E+02 0.  0.
        -13    1    3    3    0    0  0.11244171025E+02 -0.26789752265E+02 -0.20837350741E+03  0.21038926018E+03  0.00000000000E+00 0.  1.
         14    1    3    3    0    0 -0.77170167014E+02  0.18208167112E+02 -0.29756809614E+03  0.30795055426E+03  0.00000000000E+00 0. -1.
         11    1    5    5    0    0 -0.25270592681E+02 -0.58065684117E+01  0.72957305982E+03  0.73003367642E+03  0.00000000000E+00 0. -1.
        -12    1    5    5    0    0  0.22475291727E+02  0.47586967876E+02  0.45792342220E+03  0.46093765180E+03  0.00000000000E+00 0.  1.
          5    1    4    4  501    0  0.99819233073E+02 -0.95737294424E+01  0.13583917045E+03  0.16889431078E+03  0.41800000000E+01 0.  1.
         -5    1    4    4    0  501 -0.31097936130E+02 -0.23625084868E+02  0.11600217112E+03  0.12247123079E+03  0.41800000000E+01 0.  1.
</event>
<event>
11    1  0.7577197E-009  0.1527700E+03  0.7561462E-02  0.1094082E+00
         22   -1    0    0    0    0  0.00000000000E+00  0.00000000000E+00  0.68860272968E+03  0.68860272968E+03  0.00000000000E+00 0.  1.
         22   -1    0    0    0    0 -0.00000000000E+00 -0.00000000000E+00 -0.70420442932E+03  0.70420442932E+03  0.00000000000E+00 0. -1.
         24    2    1    2    0    0 -0.61996462821E+02 -0.61950774820E+02 -0.67504687014E+03  0.68527342361E+03  0.78929894940E+02 0.  0.
         25    2    1    2    0    0  0.30708064662E+02  0.98106131045E+02  0.35206098839E+03  0.38750914055E+03  0.12509434951E+03 0.  0.
        -24    2    1    2    0    0  0.31288398158E+02 -0.36155356225E+02  0.30738418211E+03  0.32002459485E+03  0.75130102170E+02 0.  0.
        -13    1    3    3    0    0 -0.16881920725E+02 -0.55816474880E+01 -0.22183584143E+02  0.28430009523E+02  0.00000000000E+00 0.  1.
         14    1    3    3    0    0 -0.45114542096E+02 -0.56369127332E+02 -0.65286328599E+03  0.65684341408E+03  0.00000000000E+00 0. -1.
         11    1    5    5    0    0  0.33761209170E+02  0.15601873743E+02  0.12337499934E+03  0.12885894680E+03  0.00000000000E+00 0. -1.
        -12    1    5    5    0    0 -0.24728110119E+01 -0.51757229969E+02  0.18400918277E+03  0.19116564804E+03  0.00000000000E+00 0.  1.
          5    1    4    4  501    0 -0.91191771705E+01  0.17013225126E+02 -0.39912472432E+01  0.20149731413E+02  0.41800000000E+01 0.  1.
         -5    1    4    4    0  501  0.39827241833E+02  0.81092905919E+02  0.35605223563E+03  0.36735940914E+03  0.41800000000E+01 0.  1.
</event>
<event>
11    1  0.7577197E-009  0.2160577E+03  0.7561462E-02  0.1043715E+00
         22   -1    0    0    0    0  0.00000000000E+00  0.00000000000E+00  0.88375941122E+03  0.88375941122E+03  0.00000000000E+00 0.  1.
         22   -1    0    0    0    0 -0.00000000000E+00 -0.00000000000E+00 -0.20787241697E+04  0.20787241697E+04  0.00000000000E+00 0.  1.
        -24    2    1    2    0    0 -0.18242672153E+03  0.23052436683E+02 -0.18486258874E+04  0.18594654430E+04  0.79894547681E+02 0.  0.
         25    2    1    2    0    0  0.11254065579E+03 -0.72668993095E+02 -0.18244620293E+03  0.25861257721E+03  0.12509063261E+03 0.  0.
         24    2    1    2    0    0  0.69886065741E+02  0.49616556412E+02  0.83610733188E+03  0.84440556064E+03  0.81236787016E+02 0.  0.
        -11    1    5    5    0    0  0.78838222468E+02  0.15773320902E+02  0.65770214842E+03  0.66259820330E+03  0.00000000000E+00 0.  1.
         12    1    5    5    0    0 -0.89521567268E+01  0.33843235511E+02  0.17840518345E+03  0.18180735734E+03  0.00000000000E+00 0. -1.
         11    1    3    3    0    0 -0.43517211533E+02 -0.16031502879E+02 -0.74551959731E+03  0.74696065944E+03  0.00000000000E+00 0. -1.
        -12    1    3    3    0    0 -0.13890950999E+03  0.39083939561E+02 -0.11031062901E+04  0.11125047836E+04  0.00000000000E+00 0.  1.
          5    1    4    4  501    0 -0.19201864193E+02  0.13489140766E+02 -0.38405802218E+02  0.45201178647E+02  0.41800000000E+01 0.  1.
         -5    1    4    4    0  501  0.13174251998E+03 -0.86158133861E+02 -0.14404040071E+03  0.21341139856E+03  0.41800000000E+01 0.  1.
</event>
<event>
11    1  0.7577197E-009  0.1391683E+03  0.7561462E-02  0.1108491E+00
         22   -1    0    0    0    0  0.00000000000E+00  0.00000000000E+00  0.19923655653E+04  0.19923655653E+04  0.00000000000E+00 0.  1.
         22   -1    0    0    0    0 -0.00000000000E+00 -0.00000000000E+00 -0.30274339377E+03  0.30274339377E+03  0.00000000000E+00 0.  1.
        -24    2    1    2    0    0 -0.16234840800E+02 -0.57803365771E+02 -0.18595174124E+03  0.21132966034E+03  0.80482147841E+02 0.  0.
         25    2    1    2    0    0  0.73198818348E+02  0.41469336632E+02 -0.47579633288E+02  0.15808020626E+03  0.12509099576E+03 0.  0.
         24    2    1    2    0    0 -0.56963977549E+02  0.16334029139E+02  0.19231535460E+04  0.19256990924E+04  0.79282645007E+02 0.  0.
        -13    1    5    5    0    0 -0.35148936233E+02  0.38313149167E+02  0.16459794839E+04  0.16468004756E+04  0.00000000000E+00 0.  1.
         14    1    5    5    0    0 -0.21815041316E+02 -0.21979120028E+02  0.27717406214E+03  0.27889861683E+03  0.00000000000E+00 0. -1.
         11    1    3    3    0    0  0.28204350708E+02 -0.16602719437E+02 -0.31540082994E+02  0.45452310467E+02  0.00000000000E+00 0. -1.
        -12    1    3    3    0    0 -0.44439191507E+02 -0.41200646334E+02 -0.15441165825E+03  0.16587734988E+03  0.00000000000E+00 0.  1.
          5    1    4    4  501    0 -0.25684779497E+02  0.29267872764E+01  0.19331345677E+02  0.32549152175E+02  0.41800000000E+01 0.  1.
         -5    1    4    4    0  501  0.98883597846E+02  0.38542549356E+02 -0.66910978965E+02  0.12553105409E+03  0.41800000000E+01 0.  1.
</event>
<event>
11    1  0.7577197E-009  0.1502959E+03  0.7561462E-02  0.1096577E+00
         22   -1    0    0    0    0  0.00000000000E+00  0.00000000000E+00  0.69327902606E+03  0.69327902606E+03  0.00000000000E+00 0.  1.
         22   -1    0    0    0    0 -0.00000000000E+00 -0.00000000000E+00 -0.64825894312E+03  0.64825894312E+03  0.00000000000E+00 0.  1.
        -24    2    1    2    0    0  0.18766371301E+02  0.81863417803E+02 -0.59763526288E+03  0.60869910473E+03  0.79327780777E+02 0.  0.
         25    2    1    2    0    0  0.70495290357E+01 -0.71461792424E+02  0.82953933714E+02  0.16638815785E+03  0.12508868981E+03 0.  0.
         24    2    1    2    0    0 -0.25815900336E+02 -0.10401625379E+02  0.55970141210E+03  0.56645070660E+03  0.82620080973E+02 0.  0.
        -11    1    5    5    0    0 -0.31756458942E+02 -0.21534684138E+01  0.55376585294E+03  0.55467984459E+03  0.00000000000E+00 0.  1.
         12    1    5    5    0    0  0.59405586051E+01 -0.82481569656E+01  0.59355591540E+01  0.11770862005E+02  0.00000000000E+00 0. -1.
         13    1    3    3    0    0 -0.53771481860E+01 -0.13294170320E+02 -0.40112496277E+02  0.42598838536E+02  0.00000000000E+00 0. -1.
        -14    1    3    3    0    0  0.24143519487E+02  0.95157588123E+02 -0.55752276660E+03  0.56610026620E+03  0.00000000000E+00 0.  1.
          5    1    4    4  501    0 -0.50775340749E+02  0.15604398740E+01  0.27838544554E+02  0.58077768239E+02  0.41800000000E+01 0. -1.
         -5    1    4    4    0  501  0.57824869784E+02 -0.73022232298E+02  0.55115389160E+02  0.10831038961E+03  0.41800000000E+01 0. -1.
</event>
<event>
11    1  0.7577197E-009  0.1506741E+03  0.7561462E-02  0.1096192E+00
         22   -1    0    0    0    0  0.00000000000E+00  0.00000000000E+00  0.13731829302E+03  0.13731829302E+03  0.00000000000E+00 0. -1.
         22   -1    0    0    0    0 -0.00000000000E+00 -0.00000000000E+00 -0.12333708270E+04  0.12333708270E+04  0.00000000000E+00 0.  1.
         24    2    1    2    0    0  0.71093183527E+02 -0.28482025916E+02 -0.81581591421E+03  0.82335246342E+03  0.80549404696E+02 0.  0.
         25    2    1    2    0    0 -0.11743816038E+03  0.35983395050E+02 -0.37276995309E+03  0.41193621873E+03  0.12508990426E+03 0.  0.
        -24    2    1    2    0    0  0.46344976852E+02 -0.75013691346E+01  0.92533333353E+02  0.13540043783E+03  0.86986972379E+02 0.  0.
        -13    1    3    3    0    0  0.87800084180E+02 -0.32921657364E+02 -0.67628253170E+03  0.68275233650E+03  0.00000000000E+00 0.  1.
         14    1    3    3    0    0 -0.16706900653E+02  0.44396314485E+01 -0.13953338250E+03  0.14060012692E+03  0.00000000000E+00 0. -1.
         11    1    5    5    0    0  0.69143040082E+02 -0.14973592538E+02  0.50218389728E+02  0.86757450010E+02  0.00000000000E+00 0. -1.
        -12    1    5    5    0    0 -0.22798063230E+02  0.74722234035E+01  0.42314943626E+02  0.48642987816E+02  0.00000000000E+00 0.  1.
          5    1    4    4  501    0  0.25382515276E+02 -0.36613849445E+01 -0.41031384743E+02  0.48566704185E+02  0.41800000000E+01 0. -1.
         -5    1    4    4    0  501 -0.14282067566E+03  0.39644779995E+02 -0.33173856834E+03  0.36336951455E+03  0.41800000000E+01 0. -1.
</event>
<event>
11    1  0.7577197E-009  0.1500963E+03  0.7561462E-02  0.1096780E+00
         22   -1    0    0    0    0  0.00000000000E+00  0.00000000000E+00  0.11196402974E+04  0.11196402974E+04  0.00000000000E+00 0.  1.
         22   -1    0    0    0    0 -0.00000000000E+00 -0.00000000000E+00 -0.64678026837E+03  0.64678026837E+03  0.00000000000E+00 0.  1.
        -24    2    1    2    0    0  0.71541195338E+02  0.22019896622E+02 -0.53779773882E+03  0.54926752490E+03  0.82857634249E+02 0.  0.
         25    2    1    2    0    0 -0.15224236252E+03 -0.18270119337E+02 -0.22506507568E+01  0.19789806928E+03  0.12508815367E+03 0.  0.
         24    2    1    2    0    0  0.80701167187E+02 -0.37497772846E+01  0.10129084186E+04  0.10192549716E+04  0.79815370787E+02 0.  0.
        -11    1    5    5    0    0  0.87428761255E+02 -0.24732865403E+02  0.76756717133E+03  0.77292617075E+03  0.00000000000E+00 0.  1.
         12    1    5    5    0    0 -0.67275940674E+01  0.20983088119E+02  0.24534124726E+03  0.24632880082E+03  0.00000000000E+00 0. -1.
         11    1    3    3    0    0  0.78562471688E+02  0.15358454276E+02 -0.27815737036E+03  0.28944682891E+03  0.00000000000E+00 0. -1.
        -12    1    3    3    0    0 -0.70212763505E+01  0.66614423458E+01 -0.25964036846E+03  0.25982069599E+03  0.00000000000E+00 0.  1.
          5    1    4    4  501    0 -0.15041464077E+03 -0.48137070702E+00 -0.40189631456E+02  0.15574811316E+03  0.41800000000E+01 0.  1.
         -5    1    4    4    0  501 -0.18277217530E+01 -0.17788748630E+02  0.37938980699E+02  0.42149956123E+02  0.41800000000E+01 0.  1.
</event>
<event>
11    1  0.7577197E-009  0.1585232E+03  0.7561462E-02  0.1088475E+00
         22   -1    0    0    0    0  0.00000000000E+00  0.00000000000E+00  0.87829699656E+03  0.87829699656E+03  0.00000000000E+00 0.  1.
         22   -1    0    0    0    0 -0.00000000000E+00 -0.00000000000E+00 -0.11796472979E+03  0.11796472979E+03  0.00000000000E+00 0.  1.
        -24    2    1    2    0    0  0.65467185609E+02 -0.43532529019E+02 -0.27453463125E+02  0.11551204781E+03  0.80051902403E+02 0.  0.
         25    2    1    2    0    0 -0.11307637284E+03  0.11823460816E+03  0.21872706967E+03  0.30042542515E+03  0.12509283117E+03 0.  0.
         24    2    1    2    0    0  0.47609187227E+02 -0.74702079141E+02  0.56905866023E+03  0.58032425338E+03  0.71424400186E+02 0.  0.
        -11    1    5    5    0    0  0.61168802159E+02 -0.58925251148E+02  0.34496354490E+03  0.35526561175E+03  0.00000000000E+00 0.  1.
         12    1    5    5    0    0 -0.13559614933E+02 -0.15776827993E+02  0.22409511533E+03  0.22505864163E+03  0.00000000000E+00 0. -1.
         11    1    3    3    0    0  0.12804149025E+02 -0.13588644471E+02  0.27820220954E+02  0.33504659150E+02  0.00000000000E+00 0. -1.
        -12    1    3    3    0    0  0.52663036583E+02 -0.29943884548E+02 -0.55273684078E+02  0.82007388665E+02  0.00000000000E+00 0.  1.
          5    1    4    4  501    0 -0.19374929756E+02  0.10979017526E+03  0.11187376716E+03  0.15799519823E+03  0.41800000000E+01 0. -1.
         -5    1    4    4    0  501 -0.93701443080E+02  0.84444329021E+01  0.10685330251E+03  0.14243022692E+03  0.41800000000E+01 0. -1.
</event>
<event>
11    1  0.7577197E-009  0.1881988E+03  0.7561462E-02  0.1063197E+00
         22   -1    0    0    0    0  0.00000000000E+00  0.00000000000E+00  0.97962000191E+03  0.97962000191E+03  0.00000000000E+00 0. -1.
         22   -1    0    0    0    0 -0.00000000000E+00 -0.00000000000E+00 -0.23935551032E+03  0.23935551032E+03  0.00000000000E+00 0. -1.
        -24    2    1    2    0    0 -0.98972004984E+01  0.48392011307E+02 -0.16664760704E+03  0.19131295744E+03  0.79934231801E+02 0.  0.
         25    2    1    2    0    0  0.10497004922E+03 -0.14407254041E+03  0.17559345043E+03  0.27974241765E+03  0.12508857768E+03 0.  0.
         24    2    1    2    0    0 -0.95072848719E+02  0.95680529104E+02  0.73131864821E+03  0.74792013714E+03  0.79774407620E+02 0.  0.
        -13    1    5    5    0    0  0.96474149224E+01  0.33532829655E+02  0.17023760404E+03  0.17377676803E+03  0.00000000000E+00 0.  1.
         14    1    5    5    0    0 -0.10472026364E+03  0.62147699450E+02  0.56108104417E+03  0.57414336911E+03  0.00000000000E+00 0. -1.
         11    1    3    3    0    0  0.28746923358E+02  0.17181851629E+02 -0.11448338619E+03  0.11928137885E+03  0.00000000000E+00 0. -1.
        -12    1    3    3    0    0 -0.38644123856E+02  0.31210159678E+02 -0.52164220855E+02  0.72031578583E+02  0.00000000000E+00 0.  1.
          5    1    4    4  501    0  0.79400437837E+02 -0.12139115022E+03  0.56421816783E+02  0.15569564763E+03  0.41800000000E+01 0. -1.
         -5    1    4    4    0  501  0.25569611380E+02 -0.22681390190E+02  0.11917163365E+03  0.12404677003E+03  0.41800000000E+01 0. -1.
</event>
<event>
11    1  0.7577197E-009  0.3246104E+03  0.7561462E-02  0.9902819E-01
         22   -1    0    0    0    0  0.00000000000E+00  0.00000000000E+00  0.81254416375E+03  0.81254416375E+03  0.00000000000E+00 0.  1.
         22   -1    0    0    0    0 -0.00000000000E+00 -0.00000000000E+00 -0.30313186269E+03  0.30313186269E+03  0.00000000000E+00 0. -1.
         24    2    1    2    0    0 -0.23790628079E+02 -0.52522666067E+02 -0.76124904570E+02  0.12629028358E+03  0.82641455672E+02 0.  0.
         25    2    1    2    0    0  0.30597918945E+03 -0.44232238008E+02  0.70462054423E+01  0.33356052188E+03  0.12503286564E+03 0.  0.
        -24    2    1    2    0    0 -0.28218856137E+03  0.96754904076E+02  0.57849100019E+03  0.65582522098E+03  0.80392708261E+02 0.  0.
        -13    1    3    3    0    0 -0.68515606003E+01  0.11646864455E+01  0.16497316723E+02  0.17901447881E+02  0.00000000000E+00 0.  1.
         14    1    3    3    0    0 -0.16939067479E+02 -0.53687352513E+02 -0.92622221292E+02  0.10838883570E+03  0.00000000000E+00 0. -1.
         11    1    5    5    0    0 -0.59031430478E+02  0.50423315934E+02  0.19253246689E+03  0.20759569211E+03  0.00000000000E+00 0. -1.
        -12    1    5    5    0    0 -0.22315713089E+03  0.46331588141E+02  0.38595853330E+03  0.44822952887E+03  0.00000000000E+00 0.  1.
          5    1    4    4  501    0  0.22727198166E+03  0.71954960231E+01 -0.35675678666E+02  0.23020546314E+03  0.41800000000E+01 0.  1.
         -5    1    4    4    0  501  0.78707207785E+02 -0.51427734032E+02  0.42721884108E+02  0.10335505874E+03  0.41800000000E+01 0.  1.
</event>
<event>
11    1  0.7577197E-009  0.1631909E+03  0.7561462E-02  0.1084114E+00
         22   -1    0    0    0    0  0.00000000000E+00  0.00000000000E+00  0.11366306774E+04  0.11366306774E+04  0.00000000000E+00 0.  1.
         22   -1    0    0    0    0 -0.00000000000E+00 -0.00000000000E+00 -0.97043447500E+03  0.97043447500E+03  0.00000000000E+00 0.  1.
        -24    2    1    2    0    0  0.16727132400E+02 -0.48330001811E+01 -0.94642147554E+03  0.95004318182E+03  0.81026434621E+02 0.  0.
         25    2    1    2    0    0 -0.42015135501E+02 -0.96950305328E+02  0.39911272948E+03  0.43139609108E+03  0.12508790210E+03 0.  0.
         24    2    1    2    0    0  0.25288003101E+02  0.10178330551E+03  0.71350494850E+03  0.72562587954E+03  0.80276280069E+02 0.  0.
        -11    1    5    5    0    0  0.32490173691E+02  0.10798394329E+03  0.70050039375E+03  0.70951881232E+03  0.00000000000E+00 0.  1.
         12    1    5    5    0    0 -0.72021705904E+01 -0.62006377809E+01  0.13004554753E+02  0.16107067220E+02  0.00000000000E+00 0. -1.
         11    1    3    3    0    0 -0.28191166477E+02  0.17011505793E+02 -0.37884163231E+03  0.38026979313E+03  0.00000000000E+00 0. -1.
        -12    1    3    3    0    0  0.44918298877E+02 -0.21844505974E+02 -0.56757984323E+03  0.56977338869E+03  0.00000000000E+00 0.  1.
          5    1    4    4  501    0 -0.53451741131E+02 -0.22911129772E+01  0.66997679278E+02  0.85839963055E+02  0.41800000000E+01 0.  1.
         -5    1    4    4    0  501  0.11436605631E+02 -0.94659192351E+02  0.33211505020E+03  0.34555612802E+03  0.41800000000E+01 0.  1.
</event>
<event>
11    1  0.7577197E-009  0.1807846E+03  0.7561462E-02  0.1069010E+00
         22   -1    0    0    0    0  0.00000000000E+00  0.00000000000E+00  0.12320375940E+04  0.12320375940E+04  0.00000000000E+00 0. -1.
         22   -1    0    0    0    0 -0.00000000000E+00 -0.00000000000E+00 -0.39979614728E+02  0.39979614728E+02  0.00000000000E+00 0.  1.
        -24    2    1    2    0    0 -0.42009558894E+02  0.10911253232E+02  0.29263475950E+03  0.30684771002E+03  0.81465061165E+02 0.  0.
         25    2    1    2    0    0 -0.10176647140E+03  0.49984153867E+02  0.35579999299E+03  0.39382254753E+03  0.12509090131E+03 0.  0.
         24    2    1    2    0    0  0.14377603030E+03 -0.60895407099E+02  0.54362322675E+03  0.57134695115E+03  0.80816634616E+02 0.  0.
        -13    1    5    5    0    0  0.70981758423E+02  0.10651961371E+02  0.26751494796E+03  0.27697675298E+03  0.00000000000E+00 0.  1.
         14    1    5    5    0    0  0.72794271874E+02 -0.71547368470E+02  0.27610827879E+03  0.29437019817E+03  0.00000000000E+00 0. -1.
         13    1    3    3    0    0 -0.26878982514E+02 -0.17630124559E+02  0.25597652923E+03  0.25798698515E+03  0.00000000000E+00 0. -1.
        -14    1    3    3    0    0 -0.15130576381E+02  0.28541377791E+02  0.36658230278E+02  0.48860724871E+02  0.00000000000E+00 0.  1.
          5    1    4    4  501    0 -0.55493112280E+02  0.55574371782E+02  0.33225480227E+03  0.34143626395E+03  0.41800000000E+01 0. -1.
         -5    1    4    4    0  501 -0.46273359124E+02 -0.55902179146E+01  0.23545190716E+02  0.52386283574E+02  0.41800000000E+01 0. -1.
</event>
<event>
11    1  0.7577197E-009  0.1444323E+03  0.7561462E-02  0.1102708E+00
         22   -1    0    0    0    0  0.00000000000E+00  0.00000000000E+00  0.26318941442E+03  0.26318941442E+03  0.00000000000E+00 0. -1.
         22   -1    0    0    0    0 -0.00000000000E+00 -0.00000000000E+00 -0.20246812073E+03  0.20246812073E+03  0.00000000000E+00 0.  1.
        -24    2    1    2    0    0  0.43908481818E+02  0.31272211087E+02 -0.86316185141E+02  0.13444908529E+03  0.87864479483E+02 0.  0.
         25    2    1    2    0    0  0.35454853438E+02 -0.10204532483E+02 -0.16252056847E+02  0.13142201933E+03  0.12508572539E+03 0.  0.
         24    2    1    2    0    0 -0.79363335256E+02 -0.21067678604E+02  0.16328953567E+03  0.19978643055E+03  0.80676882094E+02 0.  0.
        -13    1    5    5    0    0 -0.40572767541E+02  0.15185220844E+02  0.21461303237E+02  0.48345919524E+02  0.00000000000E+00 0.  1.
         14    1    5    5    0    0 -0.38790567716E+02 -0.36252899447E+02  0.14182823244E+03  0.15144051102E+03  0.00000000000E+00 0. -1.
         11    1    3    3    0    0  0.38835577111E+02 -0.10318122584E+02 -0.83247664870E+02  0.92438300555E+02  0.00000000000E+00 0. -1.
        -12    1    3    3    0    0  0.50729047076E+01  0.41590333671E+02 -0.30685202711E+01  0.42010784730E+02  0.00000000000E+00 0.  1.
          5    1    4    4  501    0  0.18989095550E+02 -0.59796244021E+02  0.21905241159E+02  0.66584446675E+02  0.41800000000E+01 0.  1.
         -5    1    4    4    0  501  0.16465757888E+02  0.49591711537E+02 -0.38157298006E+02  0.64837572650E+02  0.41800000000E+01 0.  1.
</event>
<event>
11    1  0.7577197E-009  0.1553573E+03  0.7561462E-02  0.1091527E+00
         22   -1    0    0    0    0  0.00000000000E+00  0.00000000000E+00  0.12970012305E+04  0.12970012305E+04  0.00000000000E+00 0.  1.
         22   -1    0    0    0    0 -0.00000000000E+00 -0.00000000000E+00 -0.42120441207E+03  0.42120441207E+03  0.00000000000E+00 0. -1.
        -24    2    1    2    0    0 -0.14242867213E+02 -0.84801818763E+02 -0.25694841264E+03  0.28262509233E+03  0.80375669979E+02 0.  0.
         25    2    1    2    0    0  0.47887338993E+02  0.10846388338E+03 -0.10019626764E+03  0.19936022733E+03  0.12509035517E+03 0.  0.
         24    2    1    2    0    0 -0.33644471780E+02 -0.23662064622E+02  0.12329414987E+04  0.12362203229E+04  0.80025644412E+02 0.  0.
        -11    1    5    5    0    0  0.14274640802E+01 -0.19849882952E+02  0.10329101436E+04  0.10331018441E+04  0.00000000000E+00 0.  1.
         12    1    5    5    0    0 -0.35071935860E+02 -0.38121816702E+01  0.20003135516E+03  0.20311847888E+03  0.00000000000E+00 0. -1.
         11    1    3    3    0    0 -0.84724500776E+01 -0.41003213797E+02 -0.22303745263E+03  0.22693336296E+03  0.00000000000E+00 0. -1.
        -12    1    3    3    0    0 -0.57704171352E+01 -0.43798604966E+02 -0.33910960017E+02  0.55691729369E+02  0.00000000000E+00 0.  1.
          5    1    4    4  501    0  0.90108895891E+02  0.75027299816E+02 -0.78380180709E+02  0.14110150235E+03  0.41800000000E+01 0. -1.
         -5    1    4    4    0  501 -0.42221556898E+02  0.33436583568E+02 -0.21816086929E+02  0.58258724982E+02  0.41800000000E+01 0. -1.
</event>
<event>
11    1  0.7577197E-009  0.1461123E+03  0.7561462E-02  0.1100919E+00
         22   -1    0    0    0    0  0.00000000000E+00  0.00000000000E+00  0.15319411556E+03  0.15319411556E+03  0.00000000000E+00 0. -1.
         22   -1    0    0    0    0 -0.00000000000E+00 -0.00000000000E+00 -0.72166935337E+03  0.72166935337E+03  0.00000000000E+00 0. -1.
         24    2    1    2    0    0  0.64555976672E+02 -0.46413581958E+02 -0.59365955693E+03  0.60472508291E+03  0.83301030280E+02 0.  0.
         25    2    1    2    0    0 -0.36234775835E+02  0.26138360926E+02 -0.61820507611E+02  0.14652243235E+03  0.12510345770E+03 0.  0.
        -24    2    1    2    0    0 -0.28321200836E+02  0.20275221032E+02  0.87004826732E+02  0.12361595366E+03  0.80609485300E+02 0.  0.
        -13    1    3    3    0    0  0.96043195494E+01 -0.19205244534E+02 -0.42016418493E+03  0.42071252260E+03  0.00000000000E+00 0.  1.
         14    1    3    3    0    0  0.54951657122E+02 -0.27208337424E+02 -0.17349537200E+03  0.18401256031E+03  0.00000000000E+00 0. -1.
         11    1    5    5    0    0  0.17902874452E+02  0.27621997657E+02  0.62846083769E+02  0.70944470632E+02  0.00000000000E+00 0. -1.
        -12    1    5    5    0    0 -0.46224075288E+02 -0.73467766249E+01  0.24158742964E+02  0.52671483030E+02  0.00000000000E+00 0.  1.
          5    1    4    4  501    0 -0.25282363098E+01  0.71230613174E+02 -0.14489570966E+02  0.72853361616E+02  0.41800000000E+01 0. -1.
         -5    1    4    4    0  501 -0.33706539525E+02 -0.45092252248E+02 -0.47330936645E+02  0.73669070737E+02  0.41800000000E+01 0. -1.
</event>
<event>
11    1  0.7577197E-009  0.1264980E+03  0.7561462E-02  0.1123648E+00
         22   -1    0    0    0    0  0.00000000000E+00  0.00000000000E+00  0.74358744495E+03  0.74358744495E+03  0.00000000000E+00 0. -1.
         22   -1    0    0    0    0 -0.00000000000E+00 -0.00000000000E+00 -0.20050074128E+04  0.20050074128E+04  0.00000000000E+00 0.  1.
        -24    2    1    2    0    0 -0.28288853741E+02 -0.72278381616E+01 -0.19308008315E+04  0.19327139006E+04  0.80862040268E+02 0.  0.
         25    2    1    2    0    0  0.39250569578E+02  0.21414874172E+02 -0.78591194146E+01  0.13307404136E+03  0.12509088967E+03 0.  0.
         24    2    1    2    0    0 -0.10961715836E+02 -0.14187036010E+02  0.67723998311E+03  0.68280691578E+03  0.85146099790E+02 0.  0.
        -13    1    5    5    0    0 -0.23709261546E+02 -0.24596558908E+02  0.10683021184E+03  0.11215976977E+03  0.00000000000E+00 0.  1.
         14    1    5    5    0    0  0.12747545710E+02  0.10409522898E+02  0.57040977127E+03  0.57064714601E+03  0.00000000000E+00 0. -1.
         11    1    3    3    0    0  0.15376118600E+02 -0.32185877235E+02 -0.81364798203E+03  0.81442949013E+03  0.00000000000E+00 0. -1.
        -12    1    3    3    0    0 -0.43664972342E+02  0.24958039073E+02 -0.11171528495E+04  0.11182844104E+04  0.00000000000E+00 0.  1.
          5    1    4    4  501    0  0.46746972001E+02 -0.44890488518E+02 -0.12173173587E+02  0.66076424735E+02  0.41800000000E+01 0.  1.
         -5    1    4    4    0  501 -0.74964024227E+01  0.66305362689E+02  0.43140541728E+01  0.66997616630E+02  0.41800000000E+01 0.  1.
</event>
<event>
11    1  0.7577197E-009  0.2038811E+03  0.7561462E-02  0.1051813E+00
         22   -1    0    0    0    0  0.00000000000E+00  0.00000000000E+00  0.77003792135E+02  0.77003792135E+02  0.00000000000E+00 0. -1.
         22   -1    0    0    0    0 -0.00000000000E+00 -0.00000000000E+00 -0.33124007138E+04  0.33124007138E+04  0.00000000000E+00 0. -1.
        -24    2    1    2    0    0 -0.33146508155E+02  0.12918834329E+02 -0.21914439211E+04  0.21931489327E+04  0.78804787465E+02 0.  0.
         25    2    1    2    0    0  0.61262821567E+02 -0.16934751622E+03 -0.98557016418E+03  0.10096664738E+04  0.12508447245E+03 0.  0.
         24    2    1    2    0    0 -0.28116313412E+02  0.15642868189E+03 -0.58382836434E+02  0.18658909945E+03  0.78399469677E+02 0.  0.
        -11    1    5    5    0    0 -0.40787186944E+02  0.32084820193E+02 -0.11929350574E+02  0.53247908041E+02  0.00000000000E+00 0.  1.
         12    1    5    5    0    0  0.12670873532E+02  0.12434386170E+03 -0.46453485860E+02  0.13334119141E+03  0.00000000000E+00 0. -1.
         11    1    3    3    0    0 -0.33731671368E+02  0.33111525364E+02 -0.71206466439E+03  0.71363175730E+03  0.00000000000E+00 0. -1.
        -12    1    3    3    0    0  0.58516321280E+00 -0.20192691035E+02 -0.14793792567E+04  0.14795171754E+04  0.00000000000E+00 0.  1.
          5    1    4    4  501    0  0.46127914972E+02 -0.33411477965E+01 -0.32861359378E+03  0.33187846304E+03  0.41800000000E+01 0.  1.
         -5    1    4    4    0  501  0.15134906595E+02 -0.16600636842E+03 -0.65695657039E+03  0.67778801076E+03  0.41800000000E+01 0.  1.
</event>
<event>
11    1  0.7577197E-009  0.1406273E+03  0.7561462E-02  0.1106860E+00
         22   -1    0    0    0    0  0.00000000000E+00  0.00000000000E+00  0.19977453407E+03  0.19977453407E+03  0.00000000000E+00 0.  1.
         22   -1    0    0    0    0 -0.00000000000E+00 -0.00000000000E+00 -0.34535064166E+03  0.34535064166E+03  0.00000000000E+00 0.  1.
         24    2    1    2    0    0  0.23416668942E+02 -0.67046734408E+02 -0.25604558215E+03  0.27721493552E+03  0.79026421891E+02 0.  0.
         25    2    1    2    0    0 -0.19001030890E+02  0.16182242709E+02  0.56736170284E+01  0.12767675416E+03  0.12508500897E+03 0.  0.
        -24    2    1    2    0    0 -0.44156380514E+01  0.50864491699E+02  0.10479585753E+03  0.14023348605E+03  0.77952321825E+02 0.  0.
        -13    1    3    3    0    0  0.27156338018E+02 -0.45485393152E+01 -0.16141791063E+03  0.16374949703E+03  0.00000000000E+00 0.  1.
         14    1    3    3    0    0 -0.37396690762E+01 -0.62498195092E+02 -0.94627671518E+02  0.11346543849E+03  0.00000000000E+00 0. -1.
         13    1    5    5    0    0 -0.39602025142E+02  0.40168106051E+02  0.63260360868E+02  0.84756536009E+02  0.00000000000E+00 0. -1.
        -14    1    5    5    0    0  0.35186387091E+02  0.10696385648E+02  0.41535496666E+02  0.55476950040E+02  0.00000000000E+00 0.  1.
          5    1    4    4  501    0  0.25135473287E+01 -0.51202541923E+02 -0.15504179065E+02  0.53720295867E+02  0.41800000000E+01 0. -1.
         -5    1    4    4    0  501 -0.21514578219E+02  0.67384784632E+02  0.21177796094E+02  0.73956458293E+02  0.41800000000E+01 0. -1.
</event>
<event>
11    1  0.7577197E-009  0.2620772E+03  0.7561462E-02  0.1017655E+00
         22   -1    0    0    0    0  0.00000000000E+00  0.00000000000E+00  0.35762593622E+03  0.35762593622E+03  0.00000000000E+00 0. -1.
         22   -1    0    0    0    0 -0.00000000000E+00 -0.00000000000E+00 -0.28478802428E+04  0.28478802428E+04  0.00000000000E+00 0.  1.
         24    2    1    2    0    0 -0.14324853212E+03 -0.18114983273E+03 -0.23722948030E+04  0.23845024370E+04  0.68802879075E+02 0.  0.
         25    2    1    2    0    0  0.91584659180E+02  0.21460092178E+03 -0.42310353362E+03  0.49910482201E+03  0.12509083804E+03 0.  0.
        -24    2    1    2    0    0  0.51663872943E+02 -0.33451089052E+02  0.30514403001E+03  0.32189891998E+03  0.81962823927E+02 0.  0.
        -13    1    3    3    0    0 -0.45853362116E+02 -0.11324934114E+03 -0.11748553905E+04  0.11811914040E+04  0.00000000000E+00 0.  1.
         14    1    3    3    0    0 -0.97395170008E+02 -0.67900491582E+02 -0.11974394124E+04  0.12033110331E+04  0.00000000000E+00 0. -1.
         13    1    5    5    0    0  0.57816718326E+02 -0.34520060107E+02  0.30782397082E+03  0.31510316482E+03  0.00000000000E+00 0. -1.
        -14    1    5    5    0    0 -0.61528453829E+01  0.10689710548E+01 -0.26799408105E+01  0.67957551581E+01  0.00000000000E+00 0.  1.
          5    1    4    4  501    0  0.39985473782E+02  0.20824922728E+03 -0.35124164680E+03  0.41031054779E+03  0.41800000000E+01 0. -1.
         -5    1    4    4    0  501  0.51599185398E+02  0.63516944931E+01 -0.71861886817E+02  0.88794274216E+02  0.41800000000E+01 0. -1.
</event>
<event>
11    1  0.9089745E-009  0.1673447E+03  0.7561462E-02  0.1080366E+00
         22   -1    0    0    0    0  0.00000000000E+00  0.00000000000E+00  0.68109263691E+03  0.68109263691E+03  0.00000000000E+00 0. -1.
         22   -1    0    0    0    0 -0.00000000000E+00 -0.00000000000E+00 -0.64696169457E+03  0.64696169457E+03  0.00000000000E+00 0. -1.
        -24    2    1    2    0    0  0.30372505159E+02 -0.97870164226E+02 -0.35984592154E+03  0.38096428385E+03  0.71719175958E+02 0.  0.
         25    2    1    2    0    0 -0.85142547326E+02  0.19148447377E+03 -0.21376472021E+03  0.32443876445E+03  0.12509835815E+03 0.  0.
         24    2    1    2    0    0  0.54770042167E+02 -0.93614309546E+02  0.60774158409E+03  0.62265128318E+03  0.81125772345E+02 0.  0.
        -11    1    5    5    0    0 -0.12833171728E+02 -0.56820461412E+02  0.24422996340E+03  0.25108072438E+03  0.00000000000E+00 0.  1.
         12    1    5    5    0    0  0.67603213895E+02 -0.36793848134E+02  0.36351162069E+03  0.37157055880E+03  0.00000000000E+00 0. -1.
         11    1    3    3    0    0  0.28017929297E+02 -0.10923905726E+03 -0.31285759970E+03  0.33256285674E+03  0.00000000000E+00 0. -1.
        -12    1    3    3    0    0  0.23545758621E+01  0.11368893033E+02 -0.46988321843E+02  0.48401427106E+02  0.00000000000E+00 0.  1.
          5    1    4    4  501    0  0.19710831587E+02  0.74717461636E+02 -0.11616734382E+03  0.13958345219E+03  0.41800000000E+01 0. -1.
         -5    1    4    4    0  501 -0.10485337891E+03  0.11676701214E+03 -0.97597376388E+02  0.18485531226E+03  0.41800000000E+01 0. -1.
</event>
<event>
11    1  0.7577197E-009  0.2087320E+03  0.7561462E-02  0.1048515E+00
         22   -1    0    0    0    0  0.00000000000E+00  0.00000000000E+00  0.38517725175E+03  0.38517725175E+03  0.00000000000E+00 0.  1.
         22   -1    0    0    0    0 -0.00000000000E+00 -0.00000000000E+00 -0.48918058061E+03  0.48918058061E+03  0.00000000000E+00 0.  1.
        -24    2    1    2    0    0 -0.19143636132E+02 -0.96438595082E+02 -0.36117045879E+03  0.38280770795E+03  0.80192016662E+02 0.  0.
         25    2    1    2    0    0 -0.15390589609E+03  0.79401660547E+02  0.76418699098E+02  0.22687819453E+03  0.12506897710E+03 0.  0.
         24    2    1    2    0    0  0.17304953222E+03  0.17036934535E+02  0.18074843084E+03  0.26467192988E+03  0.84527140496E+02 0.  0.
        -11    1    5    5    0    0  0.29398458648E+02 -0.30177703542E+02  0.39675730729E+02  0.57871640471E+02  0.00000000000E+00 0.  1.
         12    1    5    5    0    0  0.14365107357E+03  0.47214638076E+02  0.14107270011E+03  0.20680028941E+03  0.00000000000E+00 0. -1.
         13    1    3    3    0    0 -0.26525177346E+02 -0.70309101371E+02 -0.13085493940E+03  0.15089721646E+03  0.00000000000E+00 0. -1.
        -14    1    3    3    0    0  0.73815412138E+01 -0.26129493711E+02 -0.23031551939E+03  0.23191049149E+03  0.00000000000E+00 0.  1.
          5    1    4    4  501    0 -0.47768687524E+02 -0.16311323886E+02 -0.19967235035E+02  0.54443270196E+02  0.41800000000E+01 0.  1.
         -5    1    4    4    0  501 -0.10613720856E+03  0.95712984433E+02  0.96385934132E+02  0.17243492433E+03  0.41800000000E+01 0.  1.
</event>
<event>
11    1  0.7577197E-009  0.2175459E+03  0.7561462E-02  0.1042766E+00
         22   -1    0    0    0    0  0.00000000000E+00  0.00000000000E+00  0.41601192636E+04  0.41601192636E+04  0.00000000000E+00 0.  1.
         22   -1    0    0    0    0 -0.00000000000E+00 -0.00000000000E+00 -0.39564644729E+02  0.39564644729E+02  0.00000000000E+00 0. -1.
         24    2    1    2    0    0 -0.13085937701E+03 -0.11792724853E+03  0.28695475881E+03  0.34581923568E+03  0.78847306013E+02 0.  0.
         25    2    1    2    0    0  0.20112979715E+03  0.52348895031E+02  0.17812535879E+04  0.17976944433E+04  0.12508942750E+03 0.  0.
        -24    2    1    2    0    0 -0.70270420138E+02  0.65578353504E+02  0.20523462721E+04  0.20561702293E+04  0.80450847728E+02 0.  0.
        -11    1    3    3    0    0 -0.67360549037E+02 -0.10822627611E+03  0.17136160982E+03  0.21357708614E+03  0.00000000000E+00 0.  1.
         12    1    3    3    0    0 -0.63498827974E+02 -0.97009724244E+01  0.11559314899E+03  0.13224214954E+03  0.00000000000E+00 0. -1.
         13    1    5    5    0    0 -0.44742180844E+02  0.42559627644E+02  0.55419616810E+03  0.55762583996E+03  0.00000000000E+00 0. -1.
        -14    1    5    5    0    0 -0.25528239294E+02  0.23018725860E+02  0.14981501040E+04  0.14985443894E+04  0.00000000000E+00 0.  1.
          5    1    4    4  501    0  0.52920728511E+02 -0.41092726503E+02  0.52522791581E+03  0.52950075696E+03  0.41800000000E+01 0.  1.
         -5    1    4    4    0  501  0.14820906864E+03  0.93441621534E+02  0.12560256721E+04  0.12681936863E+04  0.41800000000E+01 0.  1.
</event>
<event>
11    1  0.7577197E-009  0.1508663E+03  0.7561462E-02  0.1095997E+00
         22   -1    0    0    0    0  0.00000000000E+00  0.00000000000E+00  0.14172139824E+04  0.14172139824E+04  0.00000000000E+00 0. -1.
         22   -1    0    0    0    0 -0.00000000000E+00 -0.00000000000E+00 -0.14783510826E+03  0.14783510826E+03  0.00000000000E+00 0.  1.
        -24    2    1    2    0    0 -0.24474860714E+02 -0.81990804473E+02 -0.90890954243E+02  0.14759724167E+03  0.78754487864E+02 0.  0.
         25    2    1    2    0    0  0.28545574151E+02  0.70494220113E+02  0.16967765302E+03  0.22410661428E+03  0.12509589823E+03 0.  0.
         24    2    1    2    0    0 -0.40707134370E+01  0.11496584360E+02  0.11905921754E+04  0.11933452347E+04  0.80089818487E+02 0.  0.
        -13    1    5    5    0    0 -0.20137658585E+02 -0.87817634698E+01  0.97398032668E+02  0.99844987007E+02  0.00000000000E+00 0.  1.
         14    1    5    5    0    0  0.16066945148E+02  0.20278347830E+02  0.10931941427E+04  0.10935002477E+04  0.00000000000E+00 0. -1.
         13    1    3    3    0    0 -0.17721169864E+02 -0.30664731489E+02  0.76971523046E+01  0.36243782533E+02  0.00000000000E+00 0. -1.
        -14    1    3    3    0    0 -0.67536908493E+01 -0.51326072984E+02 -0.98588106548E+02  0.11135345913E+03  0.00000000000E+00 0.  1.
          5    1    4    4  501    0 -0.33636210382E+02  0.75872374997E+02  0.85482892008E+02  0.11921748682E+03  0.41800000000E+01 0. -1.
         -5    1    4    4    0  501  0.62181784533E+02 -0.53781548838E+01  0.84194761012E+02  0.10488912746E+03  0.41800000000E+01 0. -1.
</event>
<event>
11    1  0.7577197E-009  0.1519287E+03  0.7561462E-02  0.1094924E+00
         22   -1    0    0    0    0  0.00000000000E+00  0.00000000000E+00  0.17904673759E+04  0.17904673759E+04  0.00000000000E+00 0.  1.
         22   -1    0    0    0    0 -0.00000000000E+00 -0.00000000000E+00 -0.24812961647E+04  0.24812961647E+04  0.00000000000E+00 0. -1.
        -24    2    1    2    0    0 -0.35330567872E+02  0.78589894765E+02 -0.24519465038E+04  0.24549802288E+04  0.86380817255E+02 0.  0.
         25    2    1    2    0    0  0.51825566562E+02 -0.82316816673E+02  0.20826009405E+03  0.26168811717E+03  0.12508579550E+03 0.  0.
         24    2    1    2    0    0 -0.16494998689E+02  0.37269219079E+01  0.15528576209E+04  0.15550951947E+04  0.81659651628E+02 0.  0.
        -13    1    5    5    0    0 -0.12939255323E+02  0.23450815648E+02  0.14529666826E+04  0.14532135239E+04  0.00000000000E+00 0.  1.
         14    1    5    5    0    0 -0.35557433658E+01 -0.19723893741E+02  0.99890938255E+02  0.10188167078E+03  0.00000000000E+00 0. -1.
         13    1    3    3    0    0 -0.12784028369E+02  0.41445380980E+02 -0.20877968944E+04  0.20882473568E+04  0.00000000000E+00 0. -1.
        -14    1    3    3    0    0 -0.22546539504E+02  0.37144513785E+02 -0.36414960939E+03  0.36673287194E+03  0.00000000000E+00 0.  1.
          5    1    4    4  501    0  0.12458219487E+02 -0.50443570758E+02  0.52250016965E+01  0.52388301236E+02  0.41800000000E+01 0.  1.
         -5    1    4    4    0  501  0.39367347074E+02 -0.31873245914E+02  0.20303509236E+03  0.20929981593E+03  0.41800000000E+01 0.  1.
</event>
<event>
11    1  0.7577197E-009  0.1496599E+03  0.7561462E-02  0.1097227E+00
         22   -1    0    0    0    0  0.00000000000E+00  0.00000000000E+00  0.86317497180E+03  0.86317497180E+03  0.00000000000E+00 0. -1.
         22   -1    0    0    0    0 -0.00000000000E+00 -0.00000000000E+00 -0.67474195683E+03  0.67474195683E+03  0.00000000000E+00 0.  1.
        -24    2    1    2    0    0 -0.43102877511E+02 -0.24821617401E+02 -0.57790515330E+03  0.58642572254E+03  0.86294791846E+02 0.  0.
         25    2    1    2    0    0  0.11939119372E+02  0.10047998002E+03 -0.14984138563E+02  0.16158941757E+03  0.12509135264E+03 0.  0.
         24    2    1    2    0    0  0.31163758139E+02 -0.75658362621E+02  0.78132230683E+03  0.78990178852E+03  0.82370630116E+02 0.  0.
        -13    1    5    5    0    0  0.17972938745E+01 -0.33063797476E+02  0.78766402700E+02  0.85443496904E+02  0.00000000000E+00 0.  1.
         14    1    5    5    0    0  0.29366464265E+02 -0.42594565145E+02  0.70255590413E+03  0.70445829162E+03  0.00000000000E+00 0. -1.
         13    1    3    3    0    0  0.20085463929E+02  0.13544751978E+02 -0.19013033073E+03  0.19166749550E+03  0.00000000000E+00 0. -1.
        -14    1    3    3    0    0 -0.63188341441E+02 -0.38366369379E+02 -0.38777482258E+03  0.39475822704E+03  0.00000000000E+00 0.  1.
          5    1    4    4  501    0 -0.49624055549E+02  0.91151118868E+01 -0.57804503534E+01  0.50956041449E+02  0.41800000000E+01 0. -1.
         -5    1    4    4    0  501  0.61563174921E+02  0.91364868135E+02 -0.92036882096E+01  0.11063337612E+03  0.41800000000E+01 0. -1.
</event>
<event>
11    1  0.7577197E-009  0.1480900E+03  0.7561462E-02  0.1098846E+00
         22   -1    0    0    0    0  0.00000000000E+00  0.00000000000E+00  0.22819700507E+03  0.22819700507E+03  0.00000000000E+00 0. -1.
         22   -1    0    0    0    0 -0.00000000000E+00 -0.00000000000E+00 -0.21871294066E+04  0.21871294066E+04  0.00000000000E+00 0.  1.
        -24    2    1    2    0    0  0.49422956432E+01 -0.62776040846E+02 -0.17309065495E+04  0.17338409324E+04  0.78750480471E+02 0.  0.
         25    2    1    2    0    0 -0.34426434268E+02  0.13417761875E+03 -0.41974910535E+03  0.45937744423E+03  0.12509800989E+03 0.  0.
         24    2    1    2    0    0  0.29484138625E+02 -0.71401577909E+02  0.19172325337E+03  0.22210803498E+03  0.81281446588E+02 0.  0.
        -13    1    5    5    0    0 -0.21804946101E+02 -0.53082575471E+02  0.10627404303E+03  0.12077825845E+03  0.00000000000E+00 0.  1.
         14    1    5    5    0    0  0.51289084725E+02 -0.18319002438E+02  0.85449210346E+02  0.10132977653E+03  0.00000000000E+00 0. -1.
         11    1    3    3    0    0 -0.28713035354E+02 -0.23409272464E+01 -0.71626238723E+03  0.71684149273E+03  0.00000000000E+00 0. -1.
        -12    1    3    3    0    0  0.33655330997E+02 -0.60435113599E+02 -0.10146441623E+04  0.10169994397E+04  0.00000000000E+00 0.  1.
          5    1    4    4  501    0  0.19164422676E+02  0.30821900982E+02 -0.25497804649E+03  0.25758210588E+03  0.41800000000E+01 0. -1.
         -5    1    4    4    0  501 -0.53590856944E+02  0.10335571777E+03 -0.16477105885E+03  0.20179533835E+03  0.41800000000E+01 0. -1.
</event>
<event>
11    1  0.7577197E-009  0.2037206E+03  0.7561462E-02  0.1051923E+00
         22   -1    0    0    0    0  0.00000000000E+00  0.00000000000E+00  0.15835801304E+04  0.15835801304E+04  0.00000000000E+00 0. -1.
         22   -1    0    0    0    0 -0.00000000000E+00 -0.00000000000E+00 -0.52929990352E+03  0.52929990352E+03  0.00000000000E+00 0.  1.
        -24    2    1    2    0    0 -0.13380445462E+03 -0.78182223671E+02 -0.35444707002E+03  0.39260452858E+03  0.67003718093E+02 0.  0.
         25    2    1    2    0    0  0.15267247980E+03  0.10640357531E+03 -0.73193460442E+02  0.23586971770E+03  0.12508650667E+03 0.  0.
         24    2    1    2    0    0 -0.18868025184E+02 -0.28221351635E+02  0.14819207574E+04  0.14844057877E+04  0.78860410022E+02 0.  0.
        -11    1    5    5    0    0 -0.13315262122E+02  0.34706948107E+01  0.43483525174E+02  0.45608758911E+02  0.00000000000E+00 0.  1.
         12    1    5    5    0    0 -0.55527630616E+01 -0.31692046445E+02  0.14384372322E+04  0.14387970288E+04  0.00000000000E+00 0. -1.
         13    1    3    3    0    0 -0.35471133603E+02 -0.22083749769E+02 -0.17893035315E+03  0.18374429134E+03  0.00000000000E+00 0. -1.
        -14    1    3    3    0    0 -0.98333321014E+02 -0.56098473901E+02 -0.17551671687E+03  0.20886023724E+03  0.00000000000E+00 0.  1.
          5    1    4    4  501    0  0.13116505284E+03  0.11387660605E+03 -0.99982156540E+02  0.20046460166E+03  0.41800000000E+01 0.  1.
         -5    1    4    4    0  501  0.21507426960E+02 -0.74730307495E+01  0.26788696098E+02  0.35405116037E+02  0.41800000000E+01 0.  1.
</event>
<event>
11    1  0.7577197E-009  0.1293428E+03  0.7561462E-02  0.1120079E+00
         22   -1    0    0    0    0  0.00000000000E+00  0.00000000000E+00  0.33258280038E+03  0.33258280038E+03  0.00000000000E+00 0. -1.
         22   -1    0    0    0    0 -0.00000000000E+00 -0.00000000000E+00 -0.48032368834E+03  0.48032368834E+03  0.00000000000E+00 0.  1.
        -24    2    1    2    0    0  0.32503995322E+02  0.11321345393E+02 -0.35277916451E+03  0.36436850624E+03  0.84419114258E+02 0.  0.
         25    2    1    2    0    0 -0.20204038812E+02 -0.15090441717E+02 -0.80942960079E+02  0.15109766016E+03  0.12507124172E+03 0.  0.
         24    2    1    2    0    0 -0.12299956511E+02  0.37690963239E+01  0.28598123664E+03  0.29744032232E+03  0.80746409302E+02 0.  0.
        -13    1    5    5    0    0 -0.29660961228E+02 -0.43037013282E+01  0.36514050168E+02  0.47239499635E+02  0.00000000000E+00 0.  1.
         14    1    5    5    0    0  0.17361004717E+02  0.80727976521E+01  0.24946718647E+03  0.25020082268E+03  0.00000000000E+00 0. -1.
         11    1    3    3    0    0 -0.26883579257E+02 -0.11671469327E+01 -0.66700312295E+02  0.71923714628E+02  0.00000000000E+00 0. -1.
        -12    1    3    3    0    0  0.59387574580E+02  0.12488492326E+02 -0.28607885222E+03  0.29244479161E+03  0.00000000000E+00 0.  1.
          5    1    4    4  501    0 -0.36664631487E+02 -0.57942136397E+02 -0.79379238797E+02  0.10497677040E+03  0.41800000000E+01 0. -1.
         -5    1    4    4    0  501  0.16460592675E+02  0.42851694680E+02 -0.15637212817E+01  0.46120889762E+02  0.41800000000E+01 0. -1.
</event>
<event>
11    1  0.7577197E-009  0.1311468E+03  0.7561462E-02  0.1117868E+00
         22   -1    0    0    0    0  0.00000000000E+00  0.00000000000E+00  0.17749523135E+04  0.17749523135E+04  0.00000000000E+00 0. -1.
         22   -1    0    0    0    0 -0.00000000000E+00 -0.00000000000E+00 -0.19587990957E+03  0.19587990957E+03  0.00000000000E+00 0. -1.
        -24    2    1    2    0    0  0.12097516084E+02 -0.34747156215E+02 -0.96869237269E+02  0.13115000200E+03  0.80392531583E+02 0.  0.
         25    2    1    2    0    0  0.81539233104E+01  0.36467995304E+00 -0.31828619561E+02  0.12935070889E+03  0.12510765528E+03 0.  0.
         24    2    1    2    0    0 -0.20251439394E+02  0.34382476262E+02  0.17077702607E+04  0.17103315122E+04  0.84630624346E+02 0.  0.
        -11    1    5    5    0    0  0.21400743742E+02  0.32753855418E+02  0.40281691985E+03  0.40471258665E+03  0.00000000000E+00 0.  1.
         12    1    5    5    0    0 -0.41652183136E+02  0.16286208439E+01  0.13049533409E+04  0.13056189255E+04  0.00000000000E+00 0. -1.
         11    1    3    3    0    0  0.27954070001E+02 -0.42751143892E+02 -0.10075923692E+03  0.11296687195E+03  0.00000000000E+00 0. -1.
        -12    1    3    3    0    0 -0.15856553917E+02  0.80039876772E+01  0.38899996539E+01  0.18183130044E+02  0.00000000000E+00 0.  1.
          5    1    4    4  501    0 -0.47995561737E+02  0.32451134509E+02 -0.27862090668E+02  0.64423742314E+02  0.41800000000E+01 0.  1.
         -5    1    4    4    0  501  0.56149485048E+02 -0.32086454556E+02 -0.39665288932E+01  0.64926966574E+02  0.41800000000E+01 0.  1.
</event>
<event>
11    1  0.7577197E-009  0.1377771E+03  0.7561462E-02  0.1110066E+00
         22   -1    0    0    0    0  0.00000000000E+00  0.00000000000E+00  0.17383420708E+04  0.17383420708E+04  0.00000000000E+00 0.  1.
         22   -1    0    0    0    0 -0.00000000000E+00 -0.00000000000E+00 -0.33615939864E+03  0.33615939864E+03  0.00000000000E+00 0. -1.
         24    2    1    2    0    0  0.45108472479E+02  0.42405026148E+02 -0.29071235786E+03  0.30792943905E+03  0.80460573506E+02 0.  0.
         25    2    1    2    0    0  0.10559029979E+02 -0.15221536952E+02  0.78093961131E+02  0.14862528552E+03  0.12509044900E+03 0.  0.
        -24    2    1    2    0    0 -0.55667502458E+02 -0.27183489197E+02  0.16148010689E+04  0.16179467449E+04  0.79569870228E+02 0.  0.
        -13    1    3    3    0    0 -0.12334170304E+02 -0.15543258703E+02 -0.62038357706E+02  0.65134341748E+02  0.00000000000E+00 0.  1.
         14    1    3    3    0    0  0.57442642782E+02  0.57948284851E+02 -0.22867400015E+03  0.24279509730E+03  0.00000000000E+00 0. -1.
         13    1    5    5    0    0 -0.12582855109E+02 -0.11809046387E+02  0.58962573338E+02  0.61435876114E+02  0.00000000000E+00 0. -1.
        -14    1    5    5    0    0 -0.43084647349E+02 -0.15374442810E+02  0.15558384956E+04  0.15565108688E+04  0.00000000000E+00 0.  1.
          5    1    4    4  501    0 -0.51826627531E+01  0.51846317173E+02  0.13250216775E+02  0.53925330246E+02  0.41800000000E+01 0. -1.
         -5    1    4    4    0  501  0.15741692732E+02 -0.67067854125E+02  0.64843744355E+02  0.94699955274E+02  0.41800000000E+01 0. -1.
</event>
<event>
11    1  0.7577197E-009  0.1897646E+03  0.7561462E-02  0.1062007E+00
         22   -1    0    0    0    0  0.00000000000E+00  0.00000000000E+00  0.31914007650E+02  0.31914007650E+02  0.00000000000E+00 0. -1.
         22   -1    0    0    0    0 -0.00000000000E+00 -0.00000000000E+00 -0.16829088200E+04  0.16829088200E+04  0.00000000000E+00 0.  1.
         24    2    1    2    0    0  0.10547157300E+03  0.10526818804E+03 -0.96692061256E+03  0.98165763223E+03  0.80688238267E+02 0.  0.
         25    2    1    2    0    0 -0.88915321865E+02 -0.91108216943E+02 -0.42489201363E+03  0.46085405943E+03  0.12508636694E+03 0.  0.
        -24    2    1    2    0    0 -0.16556251135E+02 -0.14159971100E+02 -0.25918218616E+03  0.27231113599E+03  0.80643257171E+02 0.  0.
        -13    1    3    3    0    0  0.30799559003E+02  0.29978241000E+02 -0.54215308462E+03  0.54385409342E+03  0.00000000000E+00 0.  1.
         14    1    3    3    0    0  0.74672013996E+02  0.75289947044E+02 -0.42476752795E+03  0.43780353881E+03  0.00000000000E+00 0. -1.
         11    1    5    5    0    0  0.28857122349E+02 -0.22854173206E+02 -0.10049342859E+03  0.10702324950E+03  0.00000000000E+00 0. -1.
        -12    1    5    5    0    0 -0.45413373484E+02  0.86942021059E+01 -0.15868875757E+03  0.16528788649E+03  0.00000000000E+00 0.  1.
          5    1    4    4  501    0 -0.10241570852E+03 -0.64105987018E+02 -0.40897692439E+03  0.42647174819E+03  0.41800000000E+01 0. -1.
         -5    1    4    4    0  501  0.13500386656E+02 -0.27002229925E+02 -0.15915089242E+02  0.34382311242E+02  0.41800000000E+01 0. -1.
</event>
<event>
11    1  0.7577197E-009  0.1477271E+03  0.7561462E-02  0.1099224E+00
         22   -1    0    0    0    0  0.00000000000E+00  0.00000000000E+00  0.21315537828E+04  0.21315537828E+04  0.00000000000E+00 0. -1.
         22   -1    0    0    0    0 -0.00000000000E+00 -0.00000000000E+00 -0.14926269368E+04  0.14926269368E+04  0.00000000000E+00 0. -1.
        -24    2    1    2    0    0  0.32877677549E+02 -0.30248933923E+02 -0.13904535279E+04  0.13934948569E+04  0.80442297604E+02 0.  0.
         25    2    1    2    0    0 -0.10771107620E+03  0.52162457687E+02 -0.23515975941E+02  0.17470704092E+03  0.12508777356E+03 0.  0.
         24    2    1    2    0    0  0.74833398649E+02 -0.21913523765E+02  0.20528963498E+04  0.20559788218E+04  0.81149569914E+02 0.  0.
        -13    1    5    5    0    0  0.38079639904E+02 -0.36583605598E+02  0.54244852687E+03  0.54501268194E+03  0.00000000000E+00 0.  1.
         14    1    5    5    0    0  0.36753758745E+02  0.14670081833E+02  0.15104478229E+04  0.15109661399E+04  0.00000000000E+00 0. -1.
         13    1    3    3    0    0  0.24060179060E+02 -0.56312298338E+02 -0.11121178376E+04  0.11138025193E+04  0.00000000000E+00 0. -1.
        -14    1    3    3    0    0  0.88174984898E+01  0.26063364416E+02 -0.27833569027E+03  0.27969233762E+03  0.00000000000E+00 0.  1.
          5    1    4    4  501    0  0.40228488399E+01 -0.51751126067E+01 -0.46345995576E+02  0.46993497520E+02  0.41800000000E+01 0. -1.
         -5    1    4    4    0  501 -0.11173392504E+03  0.57337570294E+02  0.22830019635E+02  0.12771354340E+03  0.41800000000E+01 0. -1.
</event>
<event>
11    1  0.7577197E-009  0.1535729E+03  0.7561462E-02  0.1093283E+00
         22   -1    0    0    0    0  0.00000000000E+00  0.00000000000E+00  0.26335838217E+04  0.26335838217E+04  0.00000000000E+00 0.  1.
         22   -1    0    0    0    0 -0.00000000000E+00 -0.00000000000E+00 -0.43597808049E+03  0.43597808049E+03  0.00000000000E+00 0. -1.
        -24    2    1    2    0    0  0.25251163644E+02 -0.59754506684E+02 -0.39058392184E+03  0.40388681514E+03  0.79752975519E+02 0.  0.
         25    2    1    2    0    0 -0.10936125249E+03  0.31015074876E+02  0.15433691655E+03  0.22888649248E+03  0.12508926499E+03 0.  0.
         24    2    1    2    0    0  0.84110088847E+02  0.28739431808E+02  0.24338527465E+04  0.24367885946E+04  0.79993756120E+02 0.  0.
        -13    1    5    5    0    0  0.97944019855E+02  0.35009560432E+02  0.21828765294E+04  0.21853532078E+04  0.00000000000E+00 0.  1.
         14    1    5    5    0    0 -0.13833931008E+02 -0.62701286240E+01  0.25097621714E+03  0.25143538679E+03  0.00000000000E+00 0. -1.
         13    1    3    3    0    0  0.17355299463E+02 -0.71556807288E+02 -0.37738149997E+03  0.38449756776E+03  0.00000000000E+00 0. -1.
        -14    1    3    3    0    0  0.78958641813E+01  0.11802300604E+02 -0.13202421869E+02  0.19389247379E+02  0.00000000000E+00 0.  1.
          5    1    4    4  501    0 -0.69283238404E+02  0.55693025518E+02  0.26893903667E+02  0.92965771495E+02  0.41800000000E+01 0.  1.
         -5    1    4    4    0  501 -0.40078014086E+02 -0.24677950643E+02  0.12744301288E+03  0.13592072099E+03  0.41800000000E+01 0.  1.
</event>
<event>
11    1  0.7577197E-009  0.1692313E+03  0.7561462E-02  0.1078703E+00
         22   -1    0    0    0    0  0.00000000000E+00  0.00000000000E+00  0.32863434409E+02  0.32863434409E+02  0.00000000000E+00 0.  1.
         22   -1    0    0    0    0 -0.00000000000E+00 -0.00000000000E+00 -0.12895463840E+04  0.12895463840E+04  0.00000000000E+00 0.  1.
         24    2    1    2    0    0 -0.81950826214E+02  0.60591068195E+02 -0.32378987267E+03  0.34931802763E+03  0.82437778461E+02 0.  0.
         25    2    1    2    0    0  0.12404192956E+03 -0.34684114742E+02 -0.66930220005E+03  0.69296309600E+03  0.12507209649E+03 0.  0.
        -24    2    1    2    0    0 -0.42091103350E+02 -0.25906953453E+02 -0.26359087688E+03  0.28012869479E+03  0.80926534921E+02 0.  0.
        -11    1    3    3    0    0 -0.83382700095E+02  0.75301535623E+02 -0.30719296320E+03  0.32709404241E+03  0.00000000000E+00 0.  1.
         12    1    3    3    0    0  0.14318738812E+01 -0.14710467428E+02 -0.16596909473E+02  0.22223985214E+02  0.00000000000E+00 0. -1.
         11    1    5    5    0    0  0.23544130644E+02 -0.82537391658E+01 -0.98129121577E+02  0.10125104839E+03  0.00000000000E+00 0. -1.
        -12    1    5    5    0    0 -0.65635233995E+02 -0.17653214287E+02 -0.16546175530E+03  0.17887764640E+03  0.00000000000E+00 0.  1.
          5    1    4    4  501    0  0.63495025573E+02 -0.14759276135E+02 -0.96016845005E+02  0.11612993339E+03  0.41800000000E+01 0.  1.
         -5    1    4    4    0  501  0.60546903991E+02 -0.19924838607E+02 -0.57328535505E+03  0.57683316261E+03  0.41800000000E+01 0.  1.
</event>
<event>
11    1  0.7577197E-009  0.1883204E+03  0.7561462E-02  0.1063105E+00
         22   -1    0    0    0    0  0.00000000000E+00  0.00000000000E+00  0.25953253111E+03  0.25953253111E+03  0.00000000000E+00 0.  1.
         22   -1    0    0    0    0 -0.00000000000E+00 -0.00000000000E+00 -0.16265705751E+04  0.16265705751E+04  0.00000000000E+00 0.  1.
        -24    2    1    2    0    0  0.12665084281E+03  0.72130749574E+02 -0.14429110744E+04  0.14524321643E+04  0.79520703025E+02 0.  0.
         25    2    1    2    0    0 -0.10281589668E+03 -0.19838858157E+02 -0.12962356485E+03  0.20836240939E+03  0.12509171108E+03 0.  0.
         24    2    1    2    0    0 -0.23834946137E+02 -0.52291891417E+02  0.20549659525E+03  0.22530853253E+03  0.72336281376E+02 0.  0.
        -13    1    5    5    0    0 -0.33707542082E+02 -0.50239990219E+02  0.20649526640E+03  0.21517562607E+03  0.00000000000E+00 0.  1.
         14    1    5    5    0    0  0.98725959442E+01 -0.20519011979E+01 -0.99867114353E+00  0.10132906457E+02  0.00000000000E+00 0. -1.
         13    1    3    3    0    0 -0.49050299564E+01  0.15681283614E+02 -0.62705766523E+02  0.64822643651E+02  0.00000000000E+00 0. -1.
        -14    1    3    3    0    0  0.13155587277E+03  0.56449465960E+02 -0.13802053079E+04  0.13876095207E+04  0.00000000000E+00 0.  1.
          5    1    4    4  501    0 -0.98985595348E+02  0.37074433386E+02 -0.79758000230E+02  0.13248197122E+03  0.41800000000E+01 0.  1.
         -5    1    4    4    0  501 -0.38303013289E+01 -0.56913291543E+02 -0.49865564615E+02  0.75880438170E+02  0.41800000000E+01 0.  1.
</event>
<event>
11    1  0.7577197E-009  0.1319104E+03  0.7561462E-02  0.1116944E+00
         22   -1    0    0    0    0  0.00000000000E+00  0.00000000000E+00  0.44368368138E+03  0.44368368138E+03  0.00000000000E+00 0. -1.
         22   -1    0    0    0    0 -0.00000000000E+00 -0.00000000000E+00 -0.21334546675E+03  0.21334546675E+03  0.00000000000E+00 0.  1.
        -24    2    1    2    0    0 -0.31193756003E+02  0.24929122350E+02 -0.13506461877E+03  0.16401253428E+03  0.84042540424E+02 0.  0.
         25    2    1    2    0    0  0.49513885385E+02 -0.21282193980E+02  0.18634027461E+02  0.13747264947E+03  0.12508775219E+03 0.  0.
         24    2    1    2    0    0 -0.18320129382E+02 -0.36469283702E+01  0.34676880594E+03  0.35554396438E+03  0.76249449843E+02 0.  0.
        -11    1    5    5    0    0  0.17216447210E-01 -0.34147378904E+02  0.88929135278E+02  0.95259828279E+02  0.00000000000E+00 0.  1.
         12    1    5    5    0    0 -0.18337345830E+02  0.30500450534E+02  0.25783967067E+03  0.26028413610E+03  0.00000000000E+00 0. -1.
         13    1    3    3    0    0 -0.13844058164E+02  0.29410934226E+01  0.93136334188E+01  0.16942601466E+02  0.00000000000E+00 0. -1.
        -14    1    3    3    0    0 -0.17349697839E+02  0.21988028927E+02 -0.14437825219E+03  0.14706993281E+03  0.00000000000E+00 0.  1.
          5    1    4    4  501    0  0.42492181522E+02 -0.20036714365E+01  0.69991060773E+02  0.82011103991E+02  0.41800000000E+01 0.  1.
         -5    1    4    4    0  501  0.70217038627E+01 -0.19278522543E+02 -0.51357033312E+02  0.55461545482E+02  0.41800000000E+01 0.  1.
</event>
<event>
11    1  0.7577197E-009  0.1802067E+03  0.7561462E-02  0.1069476E+00
         22   -1    0    0    0    0  0.00000000000E+00  0.00000000000E+00  0.19650318602E+04  0.19650318602E+04  0.00000000000E+00 0.  1.
         22   -1    0    0    0    0 -0.00000000000E+00 -0.00000000000E+00 -0.10748981071E+03  0.10748981071E+03  0.00000000000E+00 0. -1.
        -24    2    1    2    0    0 -0.57606630810E+01 -0.11725264909E+02 -0.39948600826E+01  0.78332014223E+02  0.77131565969E+02 0.  0.
         25    2    1    2    0    0 -0.73880069383E+02  0.11376795429E+03  0.71788115953E+02  0.19799483872E+03  0.12508801098E+03 0.  0.
         24    2    1    2    0    0  0.79640732464E+02 -0.10204268938E+03  0.17897487936E+04  0.17961948180E+04  0.79747872261E+02 0.  0.
        -11    1    5    5    0    0  0.26671736894E+02 -0.39607933119E+02  0.11809407298E+04  0.11819057396E+04  0.00000000000E+00 0.  1.
         12    1    5    5    0    0  0.52968995570E+02 -0.62434756266E+02  0.60880806381E+03  0.61428907840E+03  0.00000000000E+00 0. -1.
         13    1    3    3    0    0 -0.17094108119E+02 -0.23989985983E+02 -0.33388720779E+02  0.44525662658E+02  0.00000000000E+00 0. -1.
        -14    1    3    3    0    0  0.11333445038E+02  0.12264721074E+02  0.29393860697E+02  0.33806351565E+02  0.00000000000E+00 0.  1.
          5    1    4    4  501    0 -0.52053868375E+02  0.39070356290E+02 -0.28341223077E+02  0.71111147361E+02  0.41800000000E+01 0.  1.
         -5    1    4    4    0  501 -0.21826201008E+02  0.74697598003E+02  0.10012933903E+03  0.12688369136E+03  0.41800000000E+01 0.  1.
</event>
<event>
11    1  0.7577197E-009  0.1428388E+03  0.7561462E-02  0.1104429E+00
         22   -1    0    0    0    0  0.00000000000E+00  0.00000000000E+00  0.12874988558E+03  0.12874988558E+03  0.00000000000E+00 0. -1.
         22   -1    0    0    0    0 -0.00000000000E+00 -0.00000000000E+00 -0.39022686581E+03  0.39022686581E+03  0.00000000000E+00 0.  1.
         24    2    1    2    0    0  0.33199814202E+02  0.61252489523E+02 -0.24215458761E+03  0.26377850258E+03  0.78013838455E+02 0.  0.
         25    2    1    2    0    0 -0.23599230068E+01 -0.71928116333E+02 -0.66040722520E+02  0.15871762728E+03  0.12510269790E+03 0.  0.
        -24    2    1    2    0    0 -0.30839891195E+02  0.10675626810E+02  0.46718329900E+02  0.96480621527E+02  0.77851397450E+02 0.  0.
        -13    1    3    3    0    0  0.41254829185E+02  0.75450262390E+02 -0.17954029123E+03  0.19907139222E+03  0.00000000000E+00 0.  1.
         14    1    3    3    0    0 -0.80550149826E+01 -0.14197772867E+02 -0.62614296380E+02  0.64707110366E+02  0.00000000000E+00 0. -1.
         11    1    5    5    0    0 -0.11172963243E+02  0.18365634215E+02  0.65054182951E+02  0.68514074081E+02  0.00000000000E+00 0. -1.
        -12    1    5    5    0    0 -0.19666927953E+02 -0.76900074052E+01 -0.18335853051E+02  0.27966547447E+02  0.00000000000E+00 0.  1.
          5    1    4    4  501    0  0.33252064974E+02 -0.44123217069E+02  0.22045027451E+02  0.59632321311E+02  0.41800000000E+01 0. -1.
         -5    1    4    4    0  501 -0.35611987981E+02 -0.27804899263E+02 -0.88085749971E+02  0.99085305969E+02  0.41800000000E+01 0. -1.
</event>
<event>
11    1  0.7577197E-009  0.1813943E+03  0.7561462E-02  0.1068521E+00
         22   -1    0    0    0    0  0.00000000000E+00  0.00000000000E+00  0.38689903352E+03  0.38689903352E+03  0.00000000000E+00 0. -1.
         22   -1    0    0    0    0 -0.00000000000E+00 -0.00000000000E+00 -0.87669527482E+03  0.87669527482E+03  0.00000000000E+00 0.  1.
         24    2    1    2    0    0  0.41166951205E+02 -0.71241037646E+02 -0.68472537008E+03  0.69399688850E+03  0.77542539949E+02 0.  0.
         25    2    1    2    0    0  0.23898437044E+02  0.18066082705E+03 -0.97112835961E+02  0.24142999284E+03  0.12509224121E+03 0.  0.
        -24    2    1    2    0    0 -0.65065388250E+02 -0.10941978941E+03  0.29204196475E+03  0.32816742700E+03  0.78734718541E+02 0.  0.
        -13    1    3    3    0    0 -0.20314651540E+01 -0.20306529916E+02 -0.43550496267E+03  0.43598286035E+03  0.00000000000E+00 0.  1.
         14    1    3    3    0    0  0.43198416359E+02 -0.50934507731E+02 -0.24922040741E+03  0.25801402815E+03  0.00000000000E+00 0. -1.
         13    1    5    5    0    0 -0.80707088924E+02 -0.81720965712E+02  0.25267526651E+03  0.27755493284E+03  0.00000000000E+00 0. -1.
        -14    1    5    5    0    0  0.15641700675E+02 -0.27698823693E+02  0.39366698241E+02  0.50612494153E+02  0.00000000000E+00 0.  1.
          5    1    4    4  501    0  0.68096133901E+02  0.69144371915E+02 -0.65991848164E+02  0.11743263620E+03  0.41800000000E+01 0.  1.
         -5    1    4    4    0  501 -0.44197696857E+02  0.11151645514E+03 -0.31120987798E+02  0.12399735665E+03  0.41800000000E+01 0.  1.
</event>
<event>
11    1  0.7577197E-009  0.1945526E+03  0.7561462E-02  0.1058444E+00
         22   -1    0    0    0    0  0.00000000000E+00  0.00000000000E+00  0.94345446737E+03  0.94345446737E+03  0.00000000000E+00 0. -1.
         22   -1    0    0    0    0 -0.00000000000E+00 -0.00000000000E+00 -0.24828064228E+04  0.24828064228E+04  0.00000000000E+00 0.  1.
         24    2    1    2    0    0 -0.78159482488E+02 -0.18956875284E+02 -0.23787067206E+04  0.23814609087E+04  0.81499257837E+02 0.  0.
         25    2    1    2    0    0  0.11259779984E+03  0.16060802632E+03  0.49796168153E+02  0.23790556520E+03  0.12508475903E+03 0.  0.
        -24    2    1    2    0    0 -0.34438317355E+02 -0.14165115104E+03  0.78955859705E+03  0.80689441627E+03  0.80154691334E+02 0.  0.
        -11    1    3    3    0    0 -0.76479891345E+02 -0.21483796631E+02 -0.23761934862E+04  0.23775210222E+04  0.00000000000E+00 0.  1.
         12    1    3    3    0    0 -0.16795911431E+01  0.25269213471E+01 -0.25132343946E+01  0.39398864228E+01  0.00000000000E+00 0. -1.
         13    1    5    5    0    0 -0.59002491397E+02 -0.77708257155E+02  0.48716470711E+03  0.49683932924E+03  0.00000000000E+00 0. -1.
        -14    1    5    5    0    0  0.24564174042E+02 -0.63942893883E+02  0.30239388994E+03  0.31005508704E+03  0.00000000000E+00 0.  1.
          5    1    4    4  501    0  0.11723707777E+03  0.71536705773E+02  0.37777583382E+01  0.13745463446E+03  0.41800000000E+01 0.  1.
         -5    1    4    4    0  501 -0.46392779311E+01  0.89071320549E+02  0.46018409814E+02  0.10045093074E+03  0.41800000000E+01 0.  1.
</event>
<event>
11    1  0.7577197E-009  0.1603950E+03  0.7561462E-02  0.1086706E+00
         22   -1    0    0    0    0  0.00000000000E+00  0.00000000000E+00  0.18343500081E+03  0.18343500081E+03  0.00000000000E+00 0. -1.
         22   -1    0    0    0    0 -0.00000000000E+00 -0.00000000000E+00 -0.14678566489E+04  0.14678566489E+04  0.00000000000E+00 0. -1.
        -24    2    1    2    0    0  0.35591327123E+02 -0.44966799422E+02 -0.11797293001E+04  0.11838857249E+04  0.80842022406E+02 0.  0.
         25    2    1    2    0    0 -0.27076710149E+02  0.14099448070E+03 -0.22412900068E+03  0.29409835700E+03  0.12508973908E+03 0.  0.
         24    2    1    2    0    0 -0.85146169742E+01 -0.96027681277E+02  0.11943665262E+03  0.17330756784E+03  0.80477231609E+02 0.  0.
        -11    1    5    5    0    0  0.10514725407E+02  0.11722632194E+02  0.10632601265E+02  0.19000835919E+02  0.00000000000E+00 0.  1.
         12    1    5    5    0    0 -0.19029342381E+02 -0.10775031347E+03  0.10880405136E+03  0.15430673192E+03  0.00000000000E+00 0. -1.
         13    1    3    3    0    0  0.43726261625E+02 -0.11717032004E+02 -0.99387694835E+03  0.99490736416E+03  0.00000000000E+00 0. -1.
        -14    1    3    3    0    0 -0.81349345028E+01 -0.33249767418E+02 -0.18585235171E+03  0.18897836074E+03  0.00000000000E+00 0.  1.
          5    1    4    4  501    0  0.47618602164E+02  0.77738738644E+02 -0.91729837201E+02  0.12939350135E+03  0.41800000000E+01 0. -1.
         -5    1    4    4    0  501 -0.74695312313E+02  0.63255742055E+02 -0.13239916348E+03  0.16470485565E+03  0.41800000000E+01 0. -1.
</event>
<event>
11    1  0.7577197E-009  0.1428842E+03  0.7561462E-02  0.1104380E+00
         22   -1    0    0    0    0  0.00000000000E+00  0.00000000000E+00  0.18092044164E+04  0.18092044164E+04  0.00000000000E+00 0. -1.
         22   -1    0    0    0    0 -0.00000000000E+00 -0.00000000000E+00 -0.13063712683E+04  0.13063712683E+04  0.00000000000E+00 0.  1.
         24    2    1    2    0    0 -0.65683316494E+02 -0.11177922319E+02 -0.10854886715E+04  0.10902787962E+04  0.77349553993E+02 0.  0.
         25    2    1    2    0    0  0.10070388370E+03 -0.24310769765E+01 -0.18771991238E+03  0.24705011872E+03  0.12509122002E+03 0.  0.
        -24    2    1    2    0    0 -0.35020567204E+02  0.13608999295E+02  0.17760417320E+04  0.17782467698E+04  0.80160434958E+02 0.  0.
        -11    1    3    3    0    0 -0.31007844652E+02  0.29762624022E+02 -0.66392532087E+03  0.66531506214E+03  0.00000000000E+00 0.  1.
         12    1    3    3    0    0 -0.34675471842E+02 -0.40940546341E+02 -0.42156335066E+03  0.42496373410E+03  0.00000000000E+00 0. -1.
         13    1    5    5    0    0 -0.10201160040E+02  0.34354696641E+02  0.34833833214E+03  0.35017695882E+03  0.00000000000E+00 0. -1.
        -14    1    5    5    0    0 -0.24819407164E+02 -0.20745697345E+02  0.14277033999E+04  0.14280698110E+04  0.00000000000E+00 0.  1.
          5    1    4    4  501    0  0.68421227535E+01  0.54032362341E+00 -0.14251920049E+03  0.14274558313E+03  0.41800000000E+01 0. -1.
         -5    1    4    4    0  501  0.93861760945E+02 -0.29714005999E+01 -0.45200711890E+02  0.10430453559E+03  0.41800000000E+01 0. -1.
</event>
<event>
11    1  0.7577197E-009  0.3614404E+03  0.7561462E-02  0.9770924E-01
         22   -1    0    0    0    0  0.00000000000E+00  0.00000000000E+00  0.14394400741E+04  0.14394400741E+04  0.00000000000E+00 0. -1.
         22   -1    0    0    0    0 -0.00000000000E+00 -0.00000000000E+00 -0.25104073146E+03  0.25104073146E+03  0.00000000000E+00 0. -1.
        -24    2    1    2    0    0  0.13186104400E+03 -0.33839494531E+03  0.11993224291E+03  0.39131316230E+03  0.82727106608E+02 0.  0.
         25    2    1    2    0    0 -0.32349852027E+03  0.16020793720E+03  0.30847103468E+03  0.49104008307E+03  0.12509239860E+03 0.  0.
         24    2    1    2    0    0  0.19163747627E+03  0.17818700811E+03  0.75999606507E+03  0.80812756021E+03  0.83669603045E+02 0.  0.
        -11    1    5    5    0    0  0.23404920484E+02  0.20279852776E+02  0.20120849460E+03  0.20357780093E+03  0.00000000000E+00 0.  1.
         12    1    5    5    0    0  0.16823255579E+03  0.15790715534E+03  0.55878757047E+03  0.60454975928E+03  0.00000000000E+00 0. -1.
         11    1    3    3    0    0  0.14219094909E+03 -0.30356907077E+03  0.11623468519E+03  0.35479987144E+03  0.00000000000E+00 0. -1.
        -12    1    3    3    0    0 -0.10329905095E+02 -0.34825874534E+02  0.36975577180E+01  0.36513290860E+02  0.00000000000E+00 0.  1.
          5    1    4    4  501    0 -0.89601702340E+02  0.11097941851E+03  0.12478406676E+03  0.18956115666E+03  0.41800000000E+01 0.  1.
         -5    1    4    4    0  501 -0.23389681793E+03  0.49228518686E+02  0.18368696792E+03  0.30147892641E+03  0.41800000000E+01 0.  1.
</event>
<event>
11    1  0.7577197E-009  0.3097756E+03  0.7561462E-02  0.9961368E-01
         22   -1    0    0    0    0  0.00000000000E+00  0.00000000000E+00  0.14246984999E+03  0.14246984999E+03  0.00000000000E+00 0.  1.
         22   -1    0    0    0    0 -0.00000000000E+00 -0.00000000000E+00 -0.25192539557E+04  0.25192539557E+04  0.00000000000E+00 0. -1.
         24    2    1    2    0    0 -0.64668681628E+02 -0.18460175083E+02 -0.74105804531E+03  0.74837713064E+03  0.79865428667E+02 0.  0.
         25    2    1    2    0    0  0.20424038368E+03  0.25955046543E+03 -0.15796226409E+04  0.16186215915E+04  0.12509032802E+03 0.  0.
        -24    2    1    2    0    0 -0.13957170205E+03 -0.24109029035E+03 -0.56103419519E+02  0.29472508363E+03  0.78169643278E+02 0.  0.
        -13    1    3    3    0    0 -0.27228164227E+02  0.28473479219E+02 -0.18889675259E+03  0.19296138237E+03  0.00000000000E+00 0.  1.
         14    1    3    3    0    0 -0.37440517401E+02 -0.46933654302E+02 -0.55216129273E+03  0.55541574828E+03  0.00000000000E+00 0. -1.
         11    1    5    5    0    0 -0.47705197109E+02 -0.55399184156E+02  0.16952882406E+02  0.75048355466E+02  0.00000000000E+00 0. -1.
        -12    1    5    5    0    0 -0.91866504938E+02 -0.18569110619E+03 -0.73056301925E+02  0.21967672817E+03  0.00000000000E+00 0.  1.
          5    1    4    4  501    0 -0.72620535249E+01  0.31332421302E+01 -0.17389231814E+03  0.17412227122E+03  0.41800000000E+01 0. -1.
         -5    1    4    4    0  501  0.21150243720E+03  0.25641722330E+03 -0.14057303228E+04  0.14444993202E+04  0.41800000000E+01 0. -1.
</event>
<event>
11    1  0.7577197E-009  0.1314213E+03  0.7561462E-02  0.1117535E+00
         22   -1    0    0    0    0  0.00000000000E+00  0.00000000000E+00  0.19332132146E+04  0.19332132146E+04  0.00000000000E+00 0.  1.
         22   -1    0    0    0    0 -0.00000000000E+00 -0.00000000000E+00 -0.57568891761E+02  0.57568891761E+02  0.00000000000E+00 0.  1.
         24    2    1    2    0    0 -0.12185497272E+02 -0.40134916434E+02 -0.62781231481E+01  0.89612327411E+02  0.78940841982E+02 0.  0.
         25    2    1    2    0    0  0.15429055379E+02  0.17402940545E+02  0.47415968443E+03  0.49093381633E+03  0.12509071744E+03 0.  0.
        -24    2    1    2    0    0 -0.32435581064E+01  0.22731975889E+02  0.14077627615E+04  0.14102359626E+04  0.80263404111E+02 0.  0.
        -13    1    3    3    0    0  0.15996510675E+02  0.17461714723E+02 -0.92453619829E+01  0.25421969889E+02  0.00000000000E+00 0.  1.
         14    1    3    3    0    0 -0.28182007947E+02 -0.57596631157E+02  0.29672388348E+01  0.64190357522E+02  0.00000000000E+00 0. -1.
         11    1    5    5    0    0  0.10202484313E+02  0.50956384020E+02  0.93096126837E+03  0.93241059998E+03  0.00000000000E+00 0. -1.
        -12    1    5    5    0    0 -0.13446042419E+02 -0.28224408131E+02  0.47680149318E+03  0.47782536262E+03  0.00000000000E+00 0.  1.
          5    1    4    4  501    0  0.36574150374E+02 -0.36990113165E+02  0.10595448725E+03  0.11810911361E+03  0.41800000000E+01 0. -1.
         -5    1    4    4    0  501 -0.21145094996E+02  0.54393053709E+02  0.36820519718E+03  0.37282470273E+03  0.41800000000E+01 0. -1.
</event>
<event>
11    1  0.7577197E-009  0.1994028E+03  0.7561462E-02  0.1054947E+00
         22   -1    0    0    0    0  0.00000000000E+00  0.00000000000E+00  0.54955481536E+03  0.54955481536E+03  0.00000000000E+00 0. -1.
         22   -1    0    0    0    0 -0.00000000000E+00 -0.00000000000E+00 -0.13337059424E+04  0.13337059424E+04  0.00000000000E+00 0.  1.
         24    2    1    2    0    0 -0.53977432636E+02 -0.14521663479E+03 -0.12838430473E+04  0.12958456766E+04  0.83436283700E+02 0.  0.
         25    2    1    2    0    0  0.88236369750E+02  0.15632379801E+03  0.33265601469E+03  0.39815903518E+03  0.12509119242E+03 0.  0.
        -24    2    1    2    0    0 -0.34258937113E+02 -0.11107163217E+02  0.16703590552E+03  0.18925604594E+03  0.81362235378E+02 0.  0.
        -11    1    3    3    0    0 -0.14992240414E+02 -0.85532277806E+02 -0.97603383078E+03  0.97988906344E+03  0.00000000000E+00 0.  1.
         12    1    3    3    0    0 -0.38985192222E+02 -0.59684356985E+02 -0.30780921648E+03  0.31595661321E+03  0.00000000000E+00 0. -1.
         11    1    5    5    0    0 -0.50926558678E+02  0.17185871513E+02  0.12379743607E+03  0.13496174915E+03  0.00000000000E+00 0. -1.
        -12    1    5    5    0    0  0.16667621565E+02 -0.28293034730E+02  0.43238469457E+02  0.54294296790E+02  0.00000000000E+00 0.  1.
          5    1    4    4  501    0  0.32712287788E+02 -0.93071108842E+01  0.10945558982E+03  0.11469400433E+03  0.41800000000E+01 0.  1.
         -5    1    4    4    0  501  0.55524081962E+02  0.16563090889E+03  0.22320042486E+03  0.28346503086E+03  0.41800000000E+01 0.  1.
</event>
<event>
11    1  0.7577197E-009  0.1862682E+03  0.7561462E-02  0.1064682E+00
         22   -1    0    0    0    0  0.00000000000E+00  0.00000000000E+00  0.10606085965E+04  0.10606085965E+04  0.00000000000E+00 0. -1.
         22   -1    0    0    0    0 -0.00000000000E+00 -0.00000000000E+00 -0.15657952630E+04  0.15657952630E+04  0.00000000000E+00 0.  1.
         24    2    1    2    0    0 -0.38704613509E+02  0.13438032273E+03 -0.13995386040E+04  0.14087656257E+04  0.79725566839E+02 0.  0.
         25    2    1    2    0    0  0.78316231122E+02 -0.99833869800E+02 -0.10966671692E+03  0.20922315729E+03  0.12508919669E+03 0.  0.
        -24    2    1    2    0    0 -0.39611617612E+02 -0.34546452928E+02  0.10040186544E+04  0.10084150765E+04  0.78006221018E+02 0.  0.
        -11    1    3    3    0    0 -0.23133406809E+02  0.13383583438E+03 -0.13504704251E+04  0.13572831517E+04  0.00000000000E+00 0.  1.
         12    1    3    3    0    0 -0.15571206700E+02  0.54448835171E+00 -0.49068178906E+02  0.51482473977E+02  0.00000000000E+00 0. -1.
         13    1    5    5    0    0 -0.10964282108E+02 -0.36074815457E+02  0.89149493505E+03  0.89229189564E+03  0.00000000000E+00 0. -1.
        -14    1    5    5    0    0 -0.28647335505E+02  0.15283625294E+01  0.11252371930E+03  0.11612318084E+03  0.00000000000E+00 0.  1.
          5    1    4    4  501    0  0.59702992574E+02 -0.44473259143E+02  0.10739775071E+02  0.75333480403E+02  0.41800000000E+01 0.  1.
         -5    1    4    4    0  501  0.18613238548E+02 -0.55360610658E+02 -0.12040649200E+03  0.13388967688E+03  0.41800000000E+01 0.  1.
</event>
<event>
11    1  0.7577197E-009  0.2115595E+03  0.7561462E-02  0.1046637E+00
         22   -1    0    0    0    0  0.00000000000E+00  0.00000000000E+00  0.37899371686E+04  0.37899371686E+04  0.00000000000E+00 0. -1.
         22   -1    0    0    0    0 -0.00000000000E+00 -0.00000000000E+00 -0.59771423783E+02  0.59771423783E+02  0.00000000000E+00 0. -1.
         24    2    1    2    0    0 -0.36817535419E+02 -0.13226133954E+03  0.23469769049E+03  0.28309836750E+03  0.78823136874E+02 0.  0.
         25    2    1    2    0    0  0.38994606857E+02  0.23780410648E+03  0.50650617049E+03  0.57468900408E+03  0.12509028037E+03 0.  0.
        -24    2    1    2    0    0 -0.21770714381E+01 -0.10554276694E+03  0.29889618839E+04  0.29919212208E+04  0.80965629710E+02 0.  0.
        -13    1    3    3    0    0 -0.12783847257E+02  0.82051432048E+00  0.69527688844E+00  0.12829006368E+02  0.00000000000E+00 0.  1.
         14    1    3    3    0    0 -0.24033688162E+02 -0.13308185386E+03  0.23400241360E+03  0.27026936113E+03  0.00000000000E+00 0. -1.
         13    1    5    5    0    0 -0.17235145811E+02 -0.10571747237E+03  0.20165696964E+04  0.20194124330E+04  0.00000000000E+00 0. -1.
        -14    1    5    5    0    0  0.15058074373E+02  0.17470543735E+00  0.97239218748E+03  0.97250878783E+03  0.00000000000E+00 0.  1.
          5    1    4    4  501    0 -0.35299484849E+02  0.89390513004E+02  0.11833549763E+03  0.15250403222E+03  0.41800000000E+01 0. -1.
         -5    1    4    4    0  501  0.74294091706E+02  0.14841359347E+03  0.38817067287E+03  0.42218497186E+03  0.41800000000E+01 0. -1.
</event>
<event>
11    1  0.7577197E-009  0.1610320E+03  0.7561462E-02  0.1086111E+00
         22   -1    0    0    0    0  0.00000000000E+00  0.00000000000E+00  0.50245815684E+03  0.50245815684E+03  0.00000000000E+00 0.  1.
         22   -1    0    0    0    0 -0.00000000000E+00 -0.00000000000E+00 -0.57639974924E+03  0.57639974924E+03  0.00000000000E+00 0.  1.
        -24    2    1    2    0    0  0.85793212946E+02 -0.52427096810E+02 -0.52519090934E+03  0.54076825944E+03  0.80596174217E+02 0.  0.
         25    2    1    2    0    0 -0.86741594999E+02  0.10567955873E+03  0.22022397966E+03  0.28781874903E+03  0.12509499447E+03 0.  0.
         24    2    1    2    0    0  0.94838205274E+00 -0.53252461915E+02  0.23102533728E+03  0.25027089762E+03  0.80162906624E+02 0.  0.
        -13    1    5    5    0    0  0.34111055326E+02 -0.21527327278E+02  0.16502166022E+03  0.16987977589E+03  0.00000000000E+00 0.  1.
         14    1    5    5    0    0 -0.33162673273E+02 -0.31725134637E+02  0.66003677063E+02  0.80391121724E+02  0.00000000000E+00 0. -1.
         13    1    3    3    0    0 -0.80245476402E+01  0.10898710132E+02 -0.93957615879E+02  0.94927387138E+02  0.00000000000E+00 0. -1.
        -14    1    3    3    0    0  0.93817760586E+02 -0.63325806942E+02 -0.43123329346E+03  0.44584087230E+03  0.00000000000E+00 0.  1.
          5    1    4    4  501    0  0.24786794631E+02  0.76390022446E+01  0.77427764014E+02  0.81763503983E+02  0.41800000000E+01 0. -1.
         -5    1    4    4    0  501 -0.11152838963E+03  0.98040556481E+02  0.14279621564E+03  0.20605524505E+03  0.41800000000E+01 0. -1.
</event>
<event>
11    1  0.7577197E-009  0.1457749E+03  0.7561462E-02  0.1101276E+00
         22   -1    0    0    0    0  0.00000000000E+00  0.00000000000E+00  0.17441184695E+03  0.17441184695E+03  0.00000000000E+00 0.  1.
         22   -1    0    0    0    0 -0.00000000000E+00 -0.00000000000E+00 -0.63822795163E+03  0.63822795163E+03  0.00000000000E+00 0.  1.
         24    2    1    2    0    0 -0.50556211417E+02  0.42763172072E+02 -0.26964114704E+03  0.28912801374E+03  0.80647633261E+02 0.  0.
         25    2    1    2    0    0  0.80297485933E+02 -0.43321950691E+02 -0.33007435928E+03  0.36458401569E+03  0.12509174306E+03 0.  0.
        -24    2    1    2    0    0 -0.29741274515E+02  0.55877861919E+00  0.13589940165E+03  0.15892776915E+03  0.76840957802E+02 0.  0.
        -11    1    3    3    0    0 -0.52459016757E+02 -0.31819196384E+01 -0.19030387564E+03  0.19742755161E+03  0.00000000000E+00 0.  1.
         12    1    3    3    0    0  0.19028053403E+01  0.45945091710E+02 -0.79337271404E+02  0.91700462126E+02  0.00000000000E+00 0. -1.
         11    1    5    5    0    0 -0.27510735264E+02 -0.60119768391E+00  0.49557662677E+01  0.27960000227E+02  0.00000000000E+00 0. -1.
        -12    1    5    5    0    0 -0.22305392516E+01  0.11599763031E+01  0.13094363538E+03  0.13096776893E+03  0.00000000000E+00 0.  1.
          5    1    4    4  501    0  0.17959275201E+02  0.72808823722E+01 -0.25111143252E+03  0.25189277630E+03  0.41800000000E+01 0.  1.
         -5    1    4    4    0  501  0.62338210732E+02 -0.50602833063E+02 -0.78962926769E+02  0.11269123939E+03  0.41800000000E+01 0.  1.
</event>
<event>
11    1  0.7577197E-009  0.1324536E+03  0.7561462E-02  0.1116291E+00
         22   -1    0    0    0    0  0.00000000000E+00  0.00000000000E+00  0.13587554405E+03  0.13587554405E+03  0.00000000000E+00 0.  1.
         22   -1    0    0    0    0 -0.00000000000E+00 -0.00000000000E+00 -0.51369892018E+03  0.51369892018E+03  0.00000000000E+00 0. -1.
         24    2    1    2    0    0 -0.10888941418E+02 -0.11101066049E+02 -0.37925796690E+03  0.38857076295E+03  0.83119369916E+02 0.  0.
         25    2    1    2    0    0 -0.92127564226E+01 -0.30519290873E+02 -0.67125506245E+02  0.14549287545E+03  0.12508413657E+03 0.  0.
        -24    2    1    2    0    0  0.20101697841E+02  0.41620356922E+02  0.68560097017E+02  0.11551082582E+03  0.80659355399E+02 0.  0.
        -13    1    3    3    0    0  0.83112079978E+01  0.26914543627E+02 -0.57743576658E+02  0.64247875314E+02  0.00000000000E+00 0.  1.
         14    1    3    3    0    0 -0.19200149416E+02 -0.38015609676E+02 -0.32151439024E+03  0.32432288764E+03  0.00000000000E+00 0. -1.
         13    1    5    5    0    0  0.18582693274E+02 -0.14018740634E+02 -0.44550676018E+01  0.23699983241E+02  0.00000000000E+00 0. -1.
        -14    1    5    5    0    0  0.15190045673E+01  0.55639097556E+02  0.73015164619E+02  0.91810842584E+02  0.00000000000E+00 0.  1.
          5    1    4    4  501    0 -0.66786778393E+02 -0.92057814163E+01 -0.34945186645E+02  0.76051684066E+02  0.41800000000E+01 0.  1.
         -5    1    4    4    0  501  0.57574021970E+02 -0.21313509457E+02 -0.32180319600E+02  0.69441191383E+02  0.41800000000E+01 0.  1.
</event>
<event>
11    1  0.7577197E-009  0.1435866E+03  0.7561462E-02  0.1103618E+00
         22   -1    0    0    0    0  0.00000000000E+00  0.00000000000E+00  0.58855552266E+03  0.58855552266E+03  0.00000000000E+00 0. -1.
         22   -1    0    0    0    0 -0.00000000000E+00 -0.00000000000E+00 -0.21046265048E+03  0.21046265048E+03  0.00000000000E+00 0.  1.
        -24    2    1    2    0    0 -0.55132895900E+02  0.46181555093E+02 -0.16361693157E+03  0.19610912440E+03  0.80721224804E+02 0.  0.
         25    2    1    2    0    0  0.42985581459E+02 -0.33594283315E+02  0.14986637599E+03  0.20270658371E+03  0.12511471673E+03 0.  0.
         24    2    1    2    0    0  0.12147314441E+02 -0.12587271778E+02  0.39184342777E+03  0.40020246502E+03  0.79465366463E+02 0.  0.
        -11    1    5    5    0    0 -0.20867514179E+02  0.31463725902E+01  0.30946181686E+02  0.37456894818E+02  0.00000000000E+00 0.  1.
         12    1    5    5    0    0  0.33014828620E+02 -0.15733644368E+02  0.36089724608E+03  0.36274557020E+03  0.00000000000E+00 0. -1.
         11    1    3    3    0    0 -0.55452240982E+01  0.38158767903E+02 -0.18940476355E+02  0.42960245841E+02  0.00000000000E+00 0. -1.
        -12    1    3    3    0    0 -0.49587671802E+02  0.80227871906E+01 -0.14467645522E+03  0.15314887856E+03  0.00000000000E+00 0.  1.
          5    1    4    4  501    0 -0.17630089070E+02 -0.22481932523E+02 -0.10603287570E+02  0.30759704775E+02  0.41800000000E+01 0.  1.
         -5    1    4    4    0  501  0.60615670530E+02 -0.11112350793E+02  0.16046966356E+03  0.17194687893E+03  0.41800000000E+01 0.  1.
</event>
<event>
11    1  0.7577197E-009  0.1309091E+03  0.7561462E-02  0.1118157E+00
         22   -1    0    0    0    0  0.00000000000E+00  0.00000000000E+00  0.17700532493E+04  0.17700532493E+04  0.00000000000E+00 0.  1.
         22   -1    0    0    0    0 -0.00000000000E+00 -0.00000000000E+00 -0.15510630723E+03  0.15510630723E+03  0.00000000000E+00 0.  1.
        -24    2    1    2    0    0 -0.29805084048E+02  0.24547742260E+02 -0.13406835965E+03  0.16047438430E+03  0.79289143476E+02 0.  0.
         25    2    1    2    0    0  0.16911260489E+02 -0.38029981541E+02  0.68655249506E+03  0.69909565091E+03  0.12509248747E+03 0.  0.
         24    2    1    2    0    0  0.12893823559E+02  0.13482239281E+02  0.10624628067E+04  0.10655895214E+04  0.79409010533E+02 0.  0.
        -11    1    5    5    0    0  0.44410350143E+02  0.63431638488E+01  0.77900709508E+03  0.78029774388E+03  0.00000000000E+00 0.  1.
         12    1    5    5    0    0 -0.31516526584E+02  0.71390754324E+01  0.28345571163E+03  0.28529177748E+03  0.00000000000E+00 0. -1.
         11    1    3    3    0    0 -0.23454215968E+02 -0.20582595409E+02 -0.96472370129E+02  0.10139359782E+03  0.00000000000E+00 0. -1.
        -12    1    3    3    0    0 -0.63508680798E+01  0.45130337669E+02 -0.37595989519E+02  0.59080786483E+02  0.00000000000E+00 0.  1.
          5    1    4    4  501    0 -0.62031036229E+01  0.32320808069E+02  0.63496854173E+02  0.71641021898E+02  0.41800000000E+01 0. -1.
         -5    1    4    4    0  501  0.23114364111E+02 -0.70350789610E+02  0.62305564088E+03  0.62745462901E+03  0.41800000000E+01 0. -1.
</event>
<event>
11    1  0.7577197E-009  0.1362394E+03  0.7561462E-02  0.1111832E+00
         22   -1    0    0    0    0  0.00000000000E+00  0.00000000000E+00  0.76681967854E+03  0.76681967854E+03  0.00000000000E+00 0.  1.
         22   -1    0    0    0    0 -0.00000000000E+00 -0.00000000000E+00 -0.64583053213E+03  0.64583053213E+03  0.00000000000E+00 0. -1.
        -24    2    1    2    0    0 -0.36517651139E+02  0.12958088692E+02 -0.37558673157E+03  0.39320802658E+03  0.10975294222E+03 0.  0.
         25    2    1    2    0    0  0.10588901190E+03  0.21079202092E+02 -0.23027544575E+03  0.28342779989E+03  0.12509085192E+03 0.  0.
         24    2    1    2    0    0 -0.69371360766E+02 -0.34037290784E+02  0.72685132372E+03  0.73601438420E+03  0.86217191448E+02 0.  0.
        -11    1    5    5    0    0 -0.76104864141E+02  0.13613975262E+01  0.57104212949E+03  0.57609280277E+03  0.00000000000E+00 0.  1.
         12    1    5    5    0    0  0.67335033752E+01 -0.35398688310E+02  0.15580919423E+03  0.15992158144E+03  0.00000000000E+00 0. -1.
         13    1    3    3    0    0 -0.87809746621E+01  0.35845319585E+02 -0.34205356176E+03  0.34403870650E+03  0.00000000000E+00 0. -1.
        -14    1    3    3    0    0 -0.27736676476E+02 -0.22887230893E+02 -0.33533169806E+02  0.49169320080E+02  0.00000000000E+00 0.  1.
          5    1    4    4  501    0  0.98216446135E+02  0.62299856021E+02 -0.20050681870E+03  0.23183657842E+03  0.41800000000E+01 0.  1.
         -5    1    4    4    0  501  0.76725657698E+01 -0.41220653929E+02 -0.29768627052E+02  0.51591221467E+02  0.41800000000E+01 0.  1.
</event>
<event>
11    1  0.7577197E-009  0.1807256E+03  0.7561462E-02  0.1069057E+00
         22   -1    0    0    0    0  0.00000000000E+00  0.00000000000E+00  0.22172784631E+03  0.22172784631E+03  0.00000000000E+00 0. -1.
         22   -1    0    0    0    0 -0.00000000000E+00 -0.00000000000E+00 -0.16446924822E+04  0.16446924822E+04  0.00000000000E+00 0. -1.
         24    2    1    2    0    0  0.16802899723E+02  0.61294303877E+02 -0.93927897625E+03  0.94505097593E+03  0.82686291252E+02 0.  0.
         25    2    1    2    0    0 -0.11317666114E+03  0.28334395318E+02 -0.66323961571E+03  0.68494243484E+03  0.12509019391E+03 0.  0.
        -24    2    1    2    0    0  0.96373761413E+02 -0.89628699194E+02  0.17955395604E+03  0.23642691777E+03  0.79604388770E+02 0.  0.
        -13    1    3    3    0    0  0.10040983467E+02  0.79307219900E+02 -0.61080203929E+03  0.61601102886E+03  0.00000000000E+00 0.  1.
         14    1    3    3    0    0  0.67619162553E+01 -0.18012916023E+02 -0.32847693696E+03  0.32903994708E+03  0.00000000000E+00 0. -1.
         11    1    5    5    0    0  0.96986329466E+02 -0.96940021653E+02  0.18270663144E+03  0.22844130334E+03  0.00000000000E+00 0. -1.
        -12    1    5    5    0    0 -0.61256805310E+00  0.73113224586E+01 -0.31526753985E+01  0.79856144335E+01  0.00000000000E+00 0.  1.
          5    1    4    4  501    0 -0.90757692146E+02 -0.30317843533E+02 -0.51607272392E+03  0.52488537710E+03  0.41800000000E+01 0.  1.
         -5    1    4    4    0  501 -0.22418968990E+02  0.58652238850E+02 -0.14716689179E+03  0.16005705774E+03  0.41800000000E+01 0.  1.
</event>
<event>
11    1  0.7577197E-009  0.1313290E+03  0.7561462E-02  0.1117647E+00
         22   -1    0    0    0    0  0.00000000000E+00  0.00000000000E+00  0.12027105658E+04  0.12027105658E+04  0.00000000000E+00 0.  1.
         22   -1    0    0    0    0 -0.00000000000E+00 -0.00000000000E+00 -0.82718649325E+03  0.82718649325E+03  0.00000000000E+00 0. -1.
         24    2    1    2    0    0  0.44609900097E+02  0.27512869926E+01 -0.80623869801E+03  0.81072456203E+03  0.72497341568E+02 0.  0.
         25    2    1    2    0    0  0.36112535981E+00 -0.74545805285E+01  0.22163789086E+03  0.25461058707E+03  0.12508994845E+03 0.  0.
        -24    2    1    2    0    0 -0.44971025457E+02  0.47032935359E+01  0.96012487968E+03  0.96456190991E+03  0.80593916547E+02 0.  0.
        -13    1    3    3    0    0 -0.24067814168E+01 -0.12033393894E+02 -0.24193801783E+02  0.27128125813E+02  0.00000000000E+00 0.  1.
         14    1    3    3    0    0  0.47016681514E+02  0.14784680886E+02 -0.78204489623E+03  0.78359643622E+03  0.00000000000E+00 0. -1.
         11    1    5    5    0    0 -0.24719775405E+02  0.42512578614E+02  0.55402820657E+03  0.55620647274E+03  0.00000000000E+00 0. -1.
        -12    1    5    5    0    0 -0.20251250052E+02 -0.37809285078E+02  0.40609667310E+03  0.40835543718E+03  0.00000000000E+00 0.  1.
          5    1    4    4  501    0  0.54300293405E+01 -0.54792045342E+02  0.18858492503E+03  0.19650292568E+03  0.41800000000E+01 0.  1.
         -5    1    4    4    0  501 -0.50689039807E+01  0.47337464813E+02  0.33052965826E+02  0.58107661392E+02  0.41800000000E+01 0.  1.
</event>
<event>
11    1  0.7577197E-009  0.1375888E+03  0.7561462E-02  0.1110281E+00
         22   -1    0    0    0    0  0.00000000000E+00  0.00000000000E+00  0.20331231437E+04  0.20331231437E+04  0.00000000000E+00 0.  1.
         22   -1    0    0    0    0 -0.00000000000E+00 -0.00000000000E+00 -0.46806638077E+03  0.46806638077E+03  0.00000000000E+00 0. -1.
         24    2    1    2    0    0 -0.41010526991E+02  0.40394999264E+02 -0.45359781281E+03  0.46385191968E+03  0.78064129512E+02 0.  0.
         25    2    1    2    0    0  0.57062816189E+01 -0.24343061071E+02  0.50126490301E+03  0.51725269063E+03  0.12513471422E+03 0.  0.
        -24    2    1    2    0    0  0.35304245372E+02 -0.16051938192E+02  0.15173896727E+04  0.15200849142E+04  0.81747617108E+02 0.  0.
        -13    1    3    3    0    0 -0.11955448450E+02 -0.21950519588E+02 -0.74967245160E+02  0.79024337420E+02  0.00000000000E+00 0.  1.
         14    1    3    3    0    0 -0.29055078540E+02  0.62345518852E+02 -0.37863056765E+03  0.38482758226E+03  0.00000000000E+00 0. -1.
         13    1    5    5    0    0  0.47080183606E+02 -0.34082484053E+01  0.43434648742E+03  0.43690391505E+03  0.00000000000E+00 0. -1.
        -14    1    5    5    0    0 -0.11775938234E+02 -0.12643689787E+02  0.10830431853E+04  0.10831809991E+04  0.00000000000E+00 0.  1.
          5    1    4    4  501    0 -0.20913403186E+02 -0.51661628376E+02  0.44872610476E+03  0.45219341412E+03  0.41800000000E+01 0. -1.
         -5    1    4    4    0  501  0.26619684805E+02  0.27318567305E+02  0.52538798254E+02  0.65059276515E+02  0.41800000000E+01 0. -1.
</event>
<event>
11    1  0.7577197E-009  0.1343133E+03  0.7561462E-02  0.1114080E+00
         22   -1    0    0    0    0  0.00000000000E+00  0.00000000000E+00  0.10818465989E+04  0.10818465989E+04  0.00000000000E+00 0.  1.
         22   -1    0    0    0    0 -0.00000000000E+00 -0.00000000000E+00 -0.73810974858E+03  0.73810974858E+03  0.00000000000E+00 0.  1.
         24    2    1    2    0    0  0.43353199008E+02 -0.23022529059E+02 -0.67560048511E+03  0.68203437259E+03  0.79531963444E+02 0.  0.
         25    2    1    2    0    0 -0.32251727394E+02  0.30968901542E+02  0.19908740692E+02  0.13434923020E+03  0.12511638948E+03 0.  0.
        -24    2    1    2    0    0 -0.11101471615E+02 -0.79463724838E+01  0.99942859471E+03  0.10035727446E+04  0.90079689045E+02 0.  0.
        -11    1    3    3    0    0  0.38110861473E+02 -0.28466132718E+02 -0.67196746517E+03  0.67364904270E+03  0.00000000000E+00 0.  1.
         12    1    3    3    0    0  0.52423375351E+01  0.54436036596E+01 -0.36330199381E+01  0.83853298984E+01  0.00000000000E+00 0. -1.
         11    1    5    5    0    0  0.16821442537E+02 -0.58024091114E+01  0.40515773348E+02  0.44251065191E+02  0.00000000000E+00 0. -1.
        -12    1    5    5    0    0 -0.27922914152E+02 -0.21439633725E+01  0.95891282136E+03  0.95932167946E+03  0.00000000000E+00 0.  1.
          5    1    4    4  501    0 -0.43421956369E+02  0.60124375873E+02  0.50987644195E+02  0.90097830882E+02  0.41800000000E+01 0.  1.
         -5    1    4    4    0  501  0.11170228975E+02 -0.29155474331E+02 -0.31078903503E+02  0.44251399320E+02  0.41800000000E+01 0.  1.
</event>
<event>
11    1  0.7577197E-009  0.1707722E+03  0.7561462E-02  0.1077362E+00
         22   -1    0    0    0    0  0.00000000000E+00  0.00000000000E+00  0.85123980554E+03  0.85123980554E+03  0.00000000000E+00 0.  1.
         22   -1    0    0    0    0 -0.00000000000E+00 -0.00000000000E+00 -0.36720259612E+03  0.36720259612E+03  0.00000000000E+00 0. -1.
        -24    2    1    2    0    0  0.86908894231E+01 -0.14422870121E+02 -0.28412560859E+03  0.29619795541E+03  0.81989734644E+02 0.  0.
         25    2    1    2    0    0 -0.10387338394E+03 -0.52497622682E+02  0.33521374742E+02  0.17411608656E+03  0.12508816393E+03 0.  0.
         24    2    1    2    0    0  0.95182494517E+02  0.66920492803E+02  0.73464144328E+03  0.74812835969E+03  0.80373706963E+02 0.  0.
        -11    1    5    5    0    0  0.59199138986E+01  0.35809452455E+02  0.35681484233E+03  0.35865609430E+03  0.00000000000E+00 0.  1.
         12    1    5    5    0    0  0.89262580618E+02  0.31111040348E+02  0.37782660094E+03  0.38947226539E+03  0.00000000000E+00 0. -1.
         11    1    3    3    0    0  0.54040924729E+01 -0.38589722808E+02 -0.25609342536E+03  0.25904094934E+03  0.00000000000E+00 0. -1.
        -12    1    3    3    0    0  0.32867969501E+01  0.24166852688E+02 -0.28032183231E+02  0.37157006065E+02  0.00000000000E+00 0.  1.
          5    1    4    4  501    0 -0.42199767063E+02  0.37639760119E+02  0.31363954336E+02  0.64797699910E+02  0.41800000000E+01 0. -1.
         -5    1    4    4    0  501 -0.61673616877E+02 -0.90137382802E+02  0.21574204062E+01  0.10931838665E+03  0.41800000000E+01 0. -1.
</event>
<event>
11    1  0.7577197E-009  0.1958997E+03  0.7561462E-02  0.1057462E+00
         22   -1    0    0    0    0  0.00000000000E+00  0.00000000000E+00  0.12651270044E+03  0.12651270044E+03  0.00000000000E+00 0. -1.
         22   -1    0    0    0    0 -0.00000000000E+00 -0.00000000000E+00 -0.20270032886E+04  0.20270032886E+04  0.00000000000E+00 0. -1.
        -24    2    1    2    0    0 -0.15002143063E+03  0.53516271017E+01 -0.17713092488E+04  0.17794360533E+04  0.79505616793E+02 0.  0.
         25    2    1    2    0    0  0.16025175951E+03  0.58288839233E+02 -0.16149541061E+03  0.26609552869E+03  0.12509135675E+03 0.  0.
         24    2    1    2    0    0 -0.10230328880E+02 -0.63640466335E+02  0.32314071313E+02  0.10798440706E+03  0.80384478464E+02 0.  0.
        -11    1    5    5    0    0  0.81606658482E+01 -0.72312577272E+01 -0.23888674127E+02  0.26259404162E+02  0.00000000000E+00 0.  1.
         12    1    5    5    0    0 -0.18390994728E+02 -0.56409208608E+02  0.56202745440E+02  0.81725002893E+02  0.00000000000E+00 0. -1.
         13    1    3    3    0    0 -0.12261158905E+03 -0.94365453706E+01 -0.10052409329E+04  0.10127349028E+04  0.00000000000E+00 0. -1.
        -14    1    3    3    0    0 -0.27409841584E+02  0.14788172472E+02 -0.76606831596E+03  0.76670115050E+03  0.00000000000E+00 0.  1.
          5    1    4    4  501    0  0.10894947896E+03 -0.83664417343E+01 -0.36313743237E+02  0.11522216219E+03  0.41800000000E+01 0.  1.
         -5    1    4    4    0  501  0.51302280550E+02  0.66655280967E+02 -0.12518166737E+03  0.15087336649E+03  0.41800000000E+01 0.  1.
</event>
<event>
11    1  0.7577197E-009  0.1437742E+03  0.7561462E-02  0.1103416E+00
         22   -1    0    0    0    0  0.00000000000E+00  0.00000000000E+00  0.22798199454E+04  0.22798199454E+04  0.00000000000E+00 0. -1.
         22   -1    0    0    0    0 -0.00000000000E+00 -0.00000000000E+00 -0.30622758043E+02  0.30622758043E+02  0.00000000000E+00 0. -1.
        -24    2    1    2    0    0 -0.27353902418E+02 -0.33355244445E+02  0.89686757685E+02  0.12814448964E+03  0.80724763314E+02 0.  0.
         25    2    1    2    0    0  0.37301929953E+02 -0.41436090661E+02  0.48125820333E+03  0.50036543290E+03  0.12509086529E+03 0.  0.
         24    2    1    2    0    0 -0.99480275347E+01  0.74791335106E+02  0.16782522263E+04  0.16819327809E+04  0.81698452854E+02 0.  0.
        -11    1    5    5    0    0  0.35634101873E+02  0.33367752239E+02  0.64352741816E+03  0.64537642816E+03  0.00000000000E+00 0.  1.
         12    1    5    5    0    0 -0.45582129407E+02  0.41423582868E+02  0.10347248081E+04  0.10365563527E+04  0.00000000000E+00 0. -1.
         11    1    3    3    0    0 -0.49740357580E+01  0.19593203124E+02 -0.15875950346E+01  0.20276959791E+02  0.00000000000E+00 0. -1.
        -12    1    3    3    0    0 -0.22379866660E+02 -0.52948447569E+02  0.91274352719E+02  0.10786752985E+03  0.00000000000E+00 0.  1.
          5    1    4    4  501    0 -0.10549179618E+02  0.44673126708E+01 -0.21755944595E+01  0.12387400226E+02  0.41800000000E+01 0. -1.
         -5    1    4    4    0  501  0.47851109571E+02 -0.45903403332E+02  0.48343379779E+03  0.48797803267E+03  0.41800000000E+01 0. -1.
</event>
<event>
11    1  0.7577197E-009  0.1479711E+03  0.7561462E-02  0.1098970E+00
         22   -1    0    0    0    0  0.00000000000E+00  0.00000000000E+00  0.11111577255E+04  0.11111577255E+04  0.00000000000E+00 0.  1.
         22   -1    0    0    0    0 -0.00000000000E+00 -0.00000000000E+00 -0.18012739506E+03  0.18012739506E+03  0.00000000000E+00 0. -1.
         24    2    1    2    0    0  0.10121606534E+02 -0.68328356600E+02 -0.86487937369E+02  0.13610526080E+03  0.79203961221E+02 0.  0.
         25    2    1    2    0    0 -0.29124113190E+02  0.12485124293E+03  0.55511171220E+02  0.18752261156E+03  0.12508874005E+03 0.  0.
        -24    2    1    2    0    0  0.19002506656E+02 -0.56522886329E+02  0.96200709657E+03  0.96765724818E+03  0.85714433821E+02 0.  0.
        -13    1    3    3    0    0 -0.32233060622E+02 -0.11622394067E+02 -0.26246781829E+02  0.43161832645E+02  0.00000000000E+00 0.  1.
         14    1    3    3    0    0  0.42354667156E+02 -0.56705962533E+02 -0.60241155540E+02  0.92943428157E+02  0.00000000000E+00 0. -1.
         11    1    5    5    0    0  0.44453258398E+02 -0.54727424416E+02  0.50006302252E+03  0.50500911839E+03  0.00000000000E+00 0. -1.
        -12    1    5    5    0    0 -0.25450751741E+02 -0.17954619131E+01  0.46194407406E+03  0.46264812980E+03  0.00000000000E+00 0.  1.
          5    1    4    4  501    0  0.12214032116E+02  0.11777530766E+03  0.75895664301E+02  0.14070476160E+03  0.41800000000E+01 0.  1.
         -5    1    4    4    0  501 -0.41338145306E+02  0.70759352647E+01 -0.20384493081E+02  0.46817849965E+02  0.41800000000E+01 0.  1.
</event>
<event>
11    1  0.7577197E-009  0.3619903E+03  0.7561462E-02  0.9769084E-01
         22   -1    0    0    0    0  0.00000000000E+00  0.00000000000E+00  0.55124633652E+03  0.55124633652E+03  0.00000000000E+00 0.  1.
         22   -1    0    0    0    0 -0.00000000000E+00 -0.00000000000E+00 -0.36746034633E+03  0.36746034633E+03  0.00000000000E+00 0.  1.
        -24    2    1    2    0    0 -0.28057087482E+02 -0.30313588593E+02 -0.10591121952E+03  0.14317667651E+03  0.87041716806E+02 0.  0.
         25    2    1    2    0    0 -0.31513327786E+03  0.92716160711E+02  0.81915010436E+02  0.36091189777E+03  0.12506822037E+03 0.  0.
         24    2    1    2    0    0  0.34319036534E+03 -0.62402572119E+02  0.20778219928E+03  0.41461810857E+03  0.84029909836E+02 0.  0.
        -11    1    5    5    0    0  0.23660621430E+03 -0.26881514877E+01  0.13780114799E+03  0.27382272220E+03  0.00000000000E+00 0.  1.
         12    1    5    5    0    0  0.10658415104E+03 -0.59714420631E+02  0.69981051289E+02  0.14079538637E+03  0.00000000000E+00 0. -1.
         11    1    3    3    0    0  0.36919797709E+01  0.28679293903E+02 -0.25876411305E+02  0.38803624514E+02  0.00000000000E+00 0. -1.
        -12    1    3    3    0    0 -0.31749067252E+02 -0.58992882496E+02 -0.80034808214E+02  0.10437305199E+03  0.00000000000E+00 0.  1.
          5    1    4    4  501    0 -0.40150114795E+02 -0.23772763338E+02  0.35232273886E+02  0.58617075311E+02  0.41800000000E+01 0. -1.
         -5    1    4    4    0  501 -0.27498316306E+03  0.11648892405E+03  0.46682736551E+02  0.30229482246E+03  0.41800000000E+01 0. -1.
</event>
<event>
11    1  0.7577197E-009  0.1562471E+03  0.7561462E-02  0.1090661E+00
         22   -1    0    0    0    0  0.00000000000E+00  0.00000000000E+00  0.20273546942E+03  0.20273546942E+03  0.00000000000E+00 0.  1.
         22   -1    0    0    0    0 -0.00000000000E+00 -0.00000000000E+00 -0.55274703222E+03  0.55274703222E+03  0.00000000000E+00 0. -1.
        -24    2    1    2    0    0  0.38171334170E+02 -0.30475694921E+02 -0.43967251380E+03  0.45011318554E+03  0.83091164863E+02 0.  0.
         25    2    1    2    0    0 -0.10897577299E+03  0.63054687463E+02  0.36480115477E+02  0.18118969509E+03  0.12508914450E+03 0.  0.
         24    2    1    2    0    0  0.70804438819E+02 -0.32578992542E+02  0.53180835514E+02  0.12417962101E+03  0.80732383201E+02 0.  0.
        -13    1    5    5    0    0  0.46743288146E+02 -0.52908746454E+02  0.59169382732E+02  0.92115613719E+02  0.00000000000E+00 0.  1.
         14    1    5    5    0    0  0.24061150674E+02  0.20329753912E+02 -0.59885472183E+01  0.32064007293E+02  0.00000000000E+00 0. -1.
         13    1    3    3    0    0  0.20108153841E+02 -0.20663552646E+02 -0.42206001669E+03  0.42304370690E+03  0.00000000000E+00 0. -1.
        -14    1    3    3    0    0  0.18063180329E+02 -0.98121422755E+01 -0.17612497102E+02  0.27069478639E+02  0.00000000000E+00 0.  1.
          5    1    4    4  501    0 -0.53357728237E+01  0.57122993765E+02 -0.22446733504E+02  0.61748158947E+02  0.41800000000E+01 0. -1.
         -5    1    4    4    0  501 -0.10364000017E+03  0.59316936976E+01  0.58926848981E+02  0.11944153614E+03  0.41800000000E+01 0. -1.
</event>
<event>
11    1  0.7577197E-009  0.2038623E+03  0.7561462E-02  0.1051826E+00
         22   -1    0    0    0    0  0.00000000000E+00  0.00000000000E+00  0.16556403302E+03  0.16556403302E+03  0.00000000000E+00 0.  1.
         22   -1    0    0    0    0 -0.00000000000E+00 -0.00000000000E+00 -0.43203776223E+03  0.43203776223E+03  0.00000000000E+00 0.  1.
         24    2    1    2    0    0 -0.14178073126E+03 -0.41851721929E+02 -0.21950270410E+03  0.28138877166E+03  0.95628768287E+02 0.  0.
         25    2    1    2    0    0  0.16187202793E+03  0.36768916240E+02  0.20820307789E+02  0.20888950928E+03  0.12508731048E+03 0.  0.
        -24    2    1    2    0    0 -0.20091296671E+02  0.50828056887E+01 -0.67791332906E+02  0.10732351432E+03  0.80580250637E+02 0.  0.
        -13    1    3    3    0    0 -0.14392062973E+03 -0.42643480241E+02 -0.15122930031E+03  0.21307725205E+03  0.00000000000E+00 0.  1.
         14    1    3    3    0    0  0.21398984668E+01  0.79175831257E+00 -0.68273403786E+02  0.68311519609E+02  0.00000000000E+00 0. -1.
         13    1    5    5    0    0 -0.51472777015E+02  0.53207446863E+01 -0.44366148195E+02  0.68162395816E+02  0.00000000000E+00 0. -1.
        -14    1    5    5    0    0  0.31381480344E+02 -0.23793899758E+00 -0.23425184711E+02  0.39161118502E+02  0.00000000000E+00 0.  1.
          5    1    4    4  501    0  0.12987592846E+02 -0.33231676904E+01  0.49977797674E+02  0.51913135830E+02  0.41800000000E+01 0.  1.
         -5    1    4    4    0  501  0.14888443509E+03  0.40092083930E+02 -0.29157489885E+02  0.15697637345E+03  0.41800000000E+01 0.  1.
</event>
<event>
11    1  0.7577197E-009  0.1673996E+03  0.7561462E-02  0.1080317E+00
         22   -1    0    0    0    0  0.00000000000E+00  0.00000000000E+00  0.18501622022E+03  0.18501622022E+03  0.00000000000E+00 0. -1.
         22   -1    0    0    0    0 -0.00000000000E+00 -0.00000000000E+00 -0.55406002373E+03  0.55406002373E+03  0.00000000000E+00 0. -1.
        -24    2    1    2    0    0 -0.40432291905E+02  0.11092396712E+03 -0.30507711203E+03  0.33437665393E+03  0.69258975598E+02 0.  0.
         25    2    1    2    0    0 -0.40002167174E+02 -0.10794956116E+03 -0.17626830428E+03  0.24489003276E+03  0.12508929578E+03 0.  0.
         24    2    1    2    0    0  0.80434459079E+02 -0.29744059636E+01  0.11230161280E+03  0.15980955725E+03  0.80305000171E+02 0.  0.
        -11    1    5    5    0    0 -0.84525175755E+01  0.20142668900E+02  0.20717179958E+02  0.30106041074E+02  0.00000000000E+00 0.  1.
         12    1    5    5    0    0  0.88886976654E+02 -0.23117074864E+02  0.91584432843E+02  0.12970351617E+03  0.00000000000E+00 0. -1.
         11    1    3    3    0    0 -0.17979589619E+02  0.11286434275E+03 -0.25824878428E+03  0.28240761337E+03  0.00000000000E+00 0. -1.
        -12    1    3    3    0    0 -0.22452702286E+02 -0.19403756228E+01 -0.46828327750E+02  0.51969040566E+02  0.00000000000E+00 0.  1.
          5    1    4    4  501    0 -0.36262227805E+02 -0.19791953854E+02 -0.14556340792E+03  0.15136990694E+03  0.41800000000E+01 0. -1.
         -5    1    4    4    0  501 -0.37399393688E+01 -0.88157607306E+02 -0.30704896357E+02  0.93520125816E+02  0.41800000000E+01 0. -1.
</event>
<event>
11    1  0.7577197E-009  0.1268056E+03  0.7561462E-02  0.1123257E+00
         22   -1    0    0    0    0  0.00000000000E+00  0.00000000000E+00  0.76010808121E+03  0.76010808121E+03  0.00000000000E+00 0. -1.
         22   -1    0    0    0    0 -0.00000000000E+00 -0.00000000000E+00 -0.39709850585E+03  0.39709850585E+03  0.00000000000E+00 0. -1.
         24    2    1    2    0    0  0.39801982218E+01  0.15447675755E+02 -0.23390447298E+03  0.25342054307E+03  0.96209129020E+02 0.  0.
         25    2    1    2    0    0 -0.28894337217E+02 -0.25519309842E+02 -0.12243642224E+03  0.17923293731E+03  0.12509056889E+03 0.  0.
        -24    2    1    2    0    0  0.24914138995E+02  0.10071634087E+02  0.71935047058E+03  0.72455310668E+03  0.82401169534E+02 0.  0.
        -13    1    3    3    0    0 -0.10933199722E+02  0.10586241630E+02  0.34037226824E+01  0.15594508524E+02  0.00000000000E+00 0.  1.
         14    1    3    3    0    0  0.14913397944E+02  0.48614341248E+01 -0.23730819566E+03  0.23782603455E+03  0.00000000000E+00 0. -1.
         13    1    5    5    0    0 -0.29784236204E+02  0.11146569148E+02  0.28612974910E+03  0.28789161163E+03  0.00000000000E+00 0. -1.
        -14    1    5    5    0    0  0.54698375198E+02 -0.10749350615E+01  0.43322072149E+03  0.43666149505E+03  0.00000000000E+00 0.  1.
          5    1    4    4  501    0 -0.77584970022E+02 -0.25868069735E+02 -0.72714468196E+02  0.10951461496E+03  0.41800000000E+01 0. -1.
         -5    1    4    4    0  501  0.48690632805E+02  0.34875989322E+00 -0.49721954045E+02  0.69718322344E+02  0.41800000000E+01 0. -1.
</event>
<event>
11    1  0.7577197E-009  0.1275474E+03  0.7561462E-02  0.1122320E+00
         22   -1    0    0    0    0  0.00000000000E+00  0.00000000000E+00  0.22812490696E+03  0.22812490696E+03  0.00000000000E+00 0. -1.
         22   -1    0    0    0    0 -0.00000000000E+00 -0.00000000000E+00 -0.47910110043E+03  0.47910110043E+03  0.00000000000E+00 0.  1.
         24    2    1    2    0    0 -0.11276567283E+02 -0.24465916859E+02 -0.39770987855E+03  0.40635135966E+03  0.78883065028E+02 0.  0.
         25    2    1    2    0    0  0.12053155157E+02 -0.91229876933E+01 -0.85991386593E+01  0.12629721633E+03  0.12509410144E+03 0.  0.
        -24    2    1    2    0    0 -0.77658787395E+00  0.33588904552E+02  0.15533282373E+03  0.17457743139E+03  0.72250784234E+02 0.  0.
        -13    1    3    3    0    0 -0.24992737889E+02 -0.46334044483E+02 -0.19413579288E+03  0.20114717672E+03  0.00000000000E+00 0.  1.
         14    1    3    3    0    0  0.13716170606E+02  0.21868127624E+02 -0.20357408567E+03  0.20520418295E+03  0.00000000000E+00 0. -1.
         13    1    5    5    0    0  0.25506408703E+02  0.33443987193E+02  0.13484444218E+03  0.14125190530E+03  0.00000000000E+00 0. -1.
        -14    1    5    5    0    0 -0.26282996577E+02  0.14491735888E+00  0.20488381554E+02  0.33325526085E+02  0.00000000000E+00 0.  1.
          5    1    4    4  501    0  0.39087320971E+02 -0.31956641515E+02 -0.50337858546E+02  0.71417210815E+02  0.41800000000E+01 0.  1.
         -5    1    4    4    0  501 -0.27034165814E+02  0.22833653822E+02  0.41738719886E+02  0.54880005520E+02  0.41800000000E+01 0.  1.
</event>
<event>
11    1  0.7577197E-009  0.1346367E+03  0.7561462E-02  0.1113700E+00
         22   -1    0    0    0    0  0.00000000000E+00  0.00000000000E+00  0.36416264380E+03  0.36416264380E+03  0.00000000000E+00 0.  1.
         22   -1    0    0    0    0 -0.00000000000E+00 -0.00000000000E+00 -0.38732160227E+03  0.38732160227E+03  0.00000000000E+00 0. -1.
         24    2    1    2    0    0 -0.12785692060E+02  0.46352912388E+02 -0.22092985096E+03  0.24212804697E+03  0.86625202333E+02 0.  0.
         25    2    1    2    0    0 -0.25977744508E+02 -0.60175145152E+02 -0.11686943851E+03  0.18330310282E+03  0.12508265484E+03 0.  0.
        -24    2    1    2    0    0  0.38763436568E+02  0.13822232764E+02  0.31464033100E+03  0.32605309628E+03  0.74956157651E+02 0.  0.
        -13    1    3    3    0    0 -0.44484451993E+02  0.73823062093E+01 -0.72008815637E+02  0.84962547299E+02  0.00000000000E+00 0.  1.
         14    1    3    3    0    0  0.31698759933E+02  0.38970606179E+02 -0.14892103532E+03  0.15716549968E+03  0.00000000000E+00 0. -1.
         13    1    5    5    0    0  0.15119030246E+02 -0.15967998808E+02  0.22550102683E+02  0.31497129909E+02  0.00000000000E+00 0. -1.
        -14    1    5    5    0    0  0.23644406322E+02  0.29790231572E+02  0.29209022832E+03  0.29455596637E+03  0.00000000000E+00 0.  1.
          5    1    4    4  501    0  0.48294999846E+02 -0.30702832667E+02 -0.28427086265E+02  0.64036259865E+02  0.41800000000E+01 0.  1.
         -5    1    4    4    0  501 -0.74272744354E+02 -0.29472312485E+02 -0.88442352248E+02  0.11926684295E+03  0.41800000000E+01 0.  1.
</event>
<event>
11    1  0.7577197E-009  0.1808681E+03  0.7561462E-02  0.1068943E+00
         22   -1    0    0    0    0  0.00000000000E+00  0.00000000000E+00  0.98920917951E+02  0.98920917951E+02  0.00000000000E+00 0. -1.
         22   -1    0    0    0    0 -0.00000000000E+00 -0.00000000000E+00 -0.52075911642E+03  0.52075911642E+03  0.00000000000E+00 0. -1.
         24    2    1    2    0    0  0.16673406157E+02 -0.76807653035E+02 -0.11903443717E+03  0.16124851435E+03  0.75196197453E+02 0.  0.
         25    2    1    2    0    0  0.13434636287E+02 -0.89928919543E+02 -0.16156200665E+03  0.22364380706E+03  0.12508625194E+03 0.  0.
        -24    2    1    2    0    0 -0.30108042444E+02  0.16673657258E+03 -0.14124175465E+03  0.23478771296E+03  0.80426724676E+02 0.  0.
        -13    1    3    3    0    0  0.24580863425E+02 -0.37686498771E+02 -0.11202787758E+03  0.12072587292E+03  0.00000000000E+00 0.  1.
         14    1    3    3    0    0 -0.79074572684E+01 -0.39121154264E+02 -0.70065595822E+01  0.40522641431E+02  0.00000000000E+00 0. -1.
         11    1    5    5    0    0  0.20790167322E+02  0.10216401794E+03 -0.91330271787E+02  0.13860352147E+03  0.00000000000E+00 0. -1.
        -12    1    5    5    0    0 -0.50898209766E+02  0.64572554636E+02 -0.49911482867E+02  0.96184191485E+02  0.00000000000E+00 0.  1.
          5    1    4    4  501    0 -0.40221599059E+02 -0.90697034106E+02 -0.11922677345E+03  0.15516515374E+03  0.41800000000E+01 0.  1.
         -5    1    4    4    0  501  0.53656235346E+02  0.76811456250E+00 -0.42335233191E+02  0.68478653323E+02  0.41800000000E+01 0.  1.
</event>
<event>
11    1  0.7577197E-009  0.5699474E+03  0.7561462E-02  0.9249514E-01
         22   -1    0    0    0    0  0.00000000000E+00  0.00000000000E+00  0.77389810654E+03  0.77389810654E+03  0.00000000000E+00 0. -1.
         22   -1    0    0    0    0 -0.00000000000E+00 -0.00000000000E+00 -0.66743611554E+03  0.66743611554E+03  0.00000000000E+00 0. -1.
         24    2    1    2    0    0 -0.55898575784E+03  0.69446891382E+02 -0.33308114438E+03  0.66241223340E+03  0.10275684901E+03 0.  0.
         25    2    1    2    0    0  0.52758680596E+03 -0.72621705831E+02  0.39588968954E+03  0.67527648269E+03  0.12509169358E+03 0.  0.
        -24    2    1    2    0    0  0.31398951875E+02  0.31748144492E+01  0.43653445845E+02  0.10364550600E+03  0.88548257775E+02 0.  0.
        -11    1    3    3    0    0 -0.43348806753E+03  0.93096608695E+02 -0.27810572281E+03  0.52337527291E+03  0.00000000000E+00 0.  1.
         12    1    3    3    0    0 -0.12549769031E+03 -0.23649717313E+02 -0.54975421576E+02  0.13903696048E+03  0.00000000000E+00 0. -1.
         13    1    5    5    0    0  0.21287536339E+02  0.44881564058E+02  0.32307220769E+02  0.59255974462E+02  0.00000000000E+00 0. -1.
        -14    1    5    5    0    0  0.10111415535E+02 -0.41706749608E+02  0.11346225076E+02  0.44389531542E+02  0.00000000000E+00 0.  1.
          5    1    4    4  501    0  0.37949267313E+03 -0.37495073887E+02  0.21128330048E+03  0.43598013141E+03  0.41800000000E+01 0.  1.
         -5    1    4    4    0  501  0.14809413284E+03 -0.35126631944E+02  0.18460638906E+03  0.23929635128E+03  0.41800000000E+01 0.  1.
</event>
<event>
11    1  0.7577197E-009  0.1602049E+03  0.7561462E-02  0.1086885E+00
         22   -1    0    0    0    0  0.00000000000E+00  0.00000000000E+00  0.14877942882E+04  0.14877942882E+04  0.00000000000E+00 0.  1.
         22   -1    0    0    0    0 -0.00000000000E+00 -0.00000000000E+00 -0.80755358684E+03  0.80755358684E+03  0.00000000000E+00 0. -1.
        -24    2    1    2    0    0 -0.74413764826E+01  0.10127782920E+03 -0.76807639609E+03  0.77900931819E+03  0.81250198908E+02 0.  0.
         25    2    1    2    0    0 -0.27338191474E+02 -0.60505726208E+02  0.12396982426E+03  0.18821141146E+03  0.12508676373E+03 0.  0.
         24    2    1    2    0    0  0.34779567957E+02 -0.40772102990E+02  0.13243472732E+04  0.13281271454E+04  0.84581508636E+02 0.  0.
        -11    1    5    5    0    0  0.13074601196E+02  0.12648444141E+02  0.86282669285E+03  0.86301844142E+03  0.00000000000E+00 0.  1.
         12    1    5    5    0    0  0.21704966760E+02 -0.53420547131E+02  0.46152058038E+03  0.46510870402E+03  0.00000000000E+00 0. -1.
         13    1    3    3    0    0  0.38482850862E+01  0.10448581833E+03 -0.50698251353E+03  0.51765177925E+03  0.00000000000E+00 0. -1.
        -14    1    3    3    0    0 -0.11289661569E+02 -0.32079891298E+01 -0.26109388255E+03  0.26135753894E+03  0.00000000000E+00 0.  1.
          5    1    4    4  501    0  0.78508161889E+01 -0.93043602729E+02  0.79734427532E+02  0.12285682178E+03  0.41800000000E+01 0.  1.
         -5    1    4    4    0  501 -0.35189007663E+02  0.32537876522E+02  0.44235396728E+02  0.65354589682E+02  0.41800000000E+01 0.  1.
</event>
<event>
11    1  0.7577197E-009  0.1603360E+03  0.7561462E-02  0.1086762E+00
         22   -1    0    0    0    0  0.00000000000E+00  0.00000000000E+00  0.26057393552E+04  0.26057393552E+04  0.00000000000E+00 0. -1.
         22   -1    0    0    0    0 -0.00000000000E+00 -0.00000000000E+00 -0.39154777539E+02  0.39154777539E+02  0.00000000000E+00 0.  1.
        -24    2    1    2    0    0  0.91738564188E+02 -0.21115424296E+02  0.18375322457E+03  0.22122175532E+03  0.79448047065E+02 0.  0.
         25    2    1    2    0    0 -0.10644627938E+03  0.32635226699E+02  0.33824546479E+03  0.37743223722E+03  0.12509688576E+03 0.  0.
         24    2    1    2    0    0  0.14707715195E+02 -0.11519802403E+02  0.20445858883E+04  0.20462401402E+04  0.80113881389E+02 0.  0.
        -11    1    5    5    0    0  0.46723870121E+02 -0.88773140240E+01  0.14577310105E+04  0.14585066423E+04  0.00000000000E+00 0.  1.
         12    1    5    5    0    0 -0.32016154925E+02 -0.26424883790E+01  0.58685487786E+03  0.58773349793E+03  0.00000000000E+00 0. -1.
         11    1    3    3    0    0  0.30072069681E+02  0.16007902433E+02  0.12108067500E+03  0.12578200258E+03  0.00000000000E+00 0. -1.
        -12    1    3    3    0    0  0.61666494507E+02 -0.37123326729E+02  0.62672549571E+02  0.95439752734E+02  0.00000000000E+00 0.  1.
          5    1    4    4  501    0  0.25978176835E+02 -0.70030157404E+01  0.79730417331E+02  0.84251526686E+02  0.41800000000E+01 0.  1.
         -5    1    4    4    0  501 -0.13242445622E+03  0.39638242439E+02  0.25851504745E+03  0.29318071053E+03  0.41800000000E+01 0.  1.
</event>
<event>
11    1  0.7577197E-009  0.1489219E+03  0.7561462E-02  0.1097986E+00
         22   -1    0    0    0    0  0.00000000000E+00  0.00000000000E+00  0.12304676771E+03  0.12304676771E+03  0.00000000000E+00 0. -1.
         22   -1    0    0    0    0 -0.00000000000E+00 -0.00000000000E+00 -0.93836602467E+03  0.93836602467E+03  0.00000000000E+00 0.  1.
        -24    2    1    2    0    0 -0.39014342413E+01 -0.13673846588E+02 -0.77581570885E+03  0.78033552501E+03  0.82651813175E+02 0.  0.
         25    2    1    2    0    0  0.22356312457E+02 -0.68463896819E+02 -0.72087578132E+02  0.16134077348E+03  0.12508843428E+03 0.  0.
         24    2    1    2    0    0 -0.18454878216E+02  0.82137743407E+02  0.32584030027E+02  0.11973649389E+03  0.78663317594E+02 0.  0.
        -13    1    5    5    0    0 -0.23929314883E+02  0.62781543074E+01 -0.16022402198E+02  0.29474475474E+02  0.00000000000E+00 0.  1.
         14    1    5    5    0    0  0.54744366676E+01  0.75859589100E+02  0.48606432226E+02  0.90262018418E+02  0.00000000000E+00 0. -1.
         13    1    3    3    0    0  0.16695907260E+02  0.23171794959E+02 -0.12807201197E+03  0.13121785569E+03  0.00000000000E+00 0. -1.
        -14    1    3    3    0    0 -0.20597341501E+02 -0.36845641547E+02 -0.64774369688E+03  0.64911766932E+03  0.00000000000E+00 0.  1.
          5    1    4    4  501    0  0.36745958607E+02  0.26718855292E+02 -0.37186216181E+02  0.58859576757E+02  0.41800000000E+01 0. -1.
         -5    1    4    4    0  501 -0.14389646150E+02 -0.95182752111E+02 -0.34901361950E+02  0.10248119672E+03  0.41800000000E+01 0. -1.
</event>
<event>
11    1  0.7577197E-009  0.1254919E+03  0.7561462E-02  0.1124935E+00
         22   -1    0    0    0    0  0.00000000000E+00  0.00000000000E+00  0.91765321557E+03  0.91765321557E+03  0.00000000000E+00 0. -1.
         22   -1    0    0    0    0 -0.00000000000E+00 -0.00000000000E+00 -0.43715460988E+03  0.43715460988E+03  0.00000000000E+00 0.  1.
         24    2    1    2    0    0 -0.80428155652E+01  0.73300404915E+01 -0.41057685834E+03  0.42391056917E+03  0.10492091154E+03 0.  0.
         25    2    1    2    0    0 -0.92864456510E+01  0.11475791382E+02  0.21176027280E+03  0.24638448445E+03  0.12507985120E+03 0.  0.
        -24    2    1    2    0    0  0.17329261216E+02 -0.18805831873E+02  0.67931519122E+03  0.68451277183E+03  0.80216227540E+02 0.  0.
        -13    1    3    3    0    0  0.25362880130E+02 -0.39407719902E+02 -0.21625148290E+03  0.22127120900E+03  0.00000000000E+00 0.  1.
         14    1    3    3    0    0 -0.33405695695E+02  0.46737760393E+02 -0.19432537544E+03  0.20263936017E+03  0.00000000000E+00 0. -1.
         13    1    5    5    0    0 -0.72188504077E+01 -0.98322012353E+01  0.61456992825E+03  0.61469096357E+03  0.00000000000E+00 0. -1.
        -14    1    5    5    0    0  0.24548111624E+02 -0.89736306382E+01  0.64745262973E+02  0.69821808259E+02  0.00000000000E+00 0.  1.
          5    1    4    4  501    0  0.44648627896E+02 -0.26281118688E+02  0.51925332701E+02  0.73470468548E+02  0.41800000000E+01 0. -1.
         -5    1    4    4    0  501 -0.53935073547E+02  0.37756910070E+02  0.15983494010E+03  0.17291401590E+03  0.41800000000E+01 0. -1.
</event>
<event>
11    1  0.7577197E-009  0.1808072E+03  0.7561462E-02  0.1068992E+00
         22   -1    0    0    0    0  0.00000000000E+00  0.00000000000E+00  0.22701741105E+04  0.22701741105E+04  0.00000000000E+00 0. -1.
         22   -1    0    0    0    0 -0.00000000000E+00 -0.00000000000E+00 -0.13774734879E+03  0.13774734879E+03  0.00000000000E+00 0. -1.
         24    2    1    2    0    0  0.10552716343E+03  0.81236156731E+02 -0.80445388445E+02  0.17460669540E+03  0.79251133577E+02 0.  0.
         25    2    1    2    0    0 -0.47897399391E+02 -0.84553472558E+02  0.72182741070E+03  0.73900331034E+03  0.12509049230E+03 0.  0.
        -24    2    1    2    0    0 -0.57629764039E+02  0.33173158276E+01  0.14910447395E+04  0.14943114536E+04  0.80125594326E+02 0.  0.
        -13    1    3    3    0    0  0.12628484344E+02  0.61346008205E+01  0.15846233996E+02  0.21171090570E+02  0.00000000000E+00 0.  1.
         14    1    3    3    0    0  0.92898679086E+02  0.75101555910E+02 -0.96291622441E+02  0.15343560483E+03  0.00000000000E+00 0. -1.
         13    1    5    5    0    0 -0.38240921444E+02  0.18771179334E+02  0.13744309352E+04  0.13750909500E+04  0.00000000000E+00 0. -1.
        -14    1    5    5    0    0 -0.19388842594E+02 -0.15453863507E+02  0.11661380427E+03  0.11922050353E+03  0.00000000000E+00 0.  1.
          5    1    4    4  501    0  0.20910767521E+02 -0.86292416075E+02  0.37546725648E+03  0.38584553173E+03  0.41800000000E+01 0. -1.
         -5    1    4    4    0  501 -0.68808166912E+02  0.17389435169E+01  0.34636015422E+03  0.35315777861E+03  0.41800000000E+01 0. -1.
</event>
<event>
11    1  0.7577197E-009  0.1279330E+03  0.7561462E-02  0.1121835E+00
         22   -1    0    0    0    0  0.00000000000E+00  0.00000000000E+00  0.47694106648E+02  0.47694106648E+02  0.00000000000E+00 0.  1.
         22   -1    0    0    0    0 -0.00000000000E+00 -0.00000000000E+00 -0.80111025822E+03  0.80111025822E+03  0.00000000000E+00 0.  1.
        -24    2    1    2    0    0  0.26200539842E+02 -0.11841026580E+02 -0.48302548939E+03  0.49038526415E+03  0.79607824350E+02 0.  0.
         25    2    1    2    0    0  0.59234069416E+01  0.58164046390E+01 -0.23193568711E+03  0.26365024154E+03  0.12509344347E+03 0.  0.
         24    2    1    2    0    0 -0.32123946783E+02  0.60246219408E+01 -0.38454975074E+02  0.94768859174E+02  0.80212888831E+02 0.  0.
        -11    1    5    5    0    0  0.18476710591E+02 -0.16132069037E+02  0.43183079712E+01  0.24905426505E+02  0.00000000000E+00 0.  1.
         12    1    5    5    0    0 -0.50600657374E+02  0.22156690978E+02 -0.42773283045E+02  0.69863432669E+02  0.00000000000E+00 0. -1.
         13    1    3    3    0    0  0.12450176201E+01 -0.67439230058E+01 -0.17158416041E+00  0.68600297016E+01  0.00000000000E+00 0. -1.
        -14    1    3    3    0    0  0.24955522222E+02 -0.50971035740E+01 -0.48285390523E+03  0.48352523445E+03  0.00000000000E+00 0.  1.
          5    1    4    4  501    0 -0.19043916779E+02  0.10592753054E+02  0.70485148454E+01  0.23281562342E+02  0.41800000000E+01 0.  1.
         -5    1    4    4    0  501  0.24967323720E+02 -0.47763484154E+01 -0.23898420195E+03  0.24036867920E+03  0.41800000000E+01 0.  1.
</event>
<event>
11    1  0.7577197E-009  0.1496681E+03  0.7561462E-02  0.1097218E+00
         22   -1    0    0    0    0  0.00000000000E+00  0.00000000000E+00  0.41141520429E+03  0.41141520429E+03  0.00000000000E+00 0. -1.
         22   -1    0    0    0    0 -0.00000000000E+00 -0.00000000000E+00 -0.26733363970E+04  0.26733363970E+04  0.00000000000E+00 0. -1.
         24    2    1    2    0    0 -0.71533521041E+02  0.54332938205E+02 -0.22268844730E+04  0.22301402060E+04  0.80260636492E+02 0.  0.
         25    2    1    2    0    0  0.39790020199E+02 -0.65057239641E+01 -0.42903107935E+03  0.44871005340E+03  0.12508986700E+03 0.  0.
        -24    2    1    2    0    0  0.31743500842E+02 -0.47827214241E+02  0.39399435961E+03  0.40590134186E+03  0.78925608347E+02 0.  0.
        -11    1    3    3    0    0 -0.33945289561E+02 -0.11560022978E+02 -0.11638989143E+04  0.11644512010E+04  0.00000000000E+00 0.  1.
         12    1    3    3    0    0 -0.37588231479E+02  0.65892961183E+02 -0.10629855586E+04  0.10656890050E+04  0.00000000000E+00 0. -1.
         11    1    5    5    0    0 -0.88423805529E+01 -0.55387596184E+02  0.24026772730E+03  0.24672769258E+03  0.00000000000E+00 0. -1.
        -12    1    5    5    0    0  0.40585881395E+02  0.75603819430E+01  0.15372663231E+03  0.15917364928E+03  0.00000000000E+00 0.  1.
          5    1    4    4  501    0  0.45860354934E+02 -0.27496219525E+02 -0.42197656210E+03  0.42537149129E+03  0.41800000000E+01 0. -1.
         -5    1    4    4    0  501 -0.60703347350E+01  0.20990495561E+02 -0.70545172478E+01  0.23338562109E+02  0.41800000000E+01 0. -1.
</event>
<event>
11    1  0.7577197E-009  0.2670632E+03  0.7561462E-02  0.1015183E+00
         22   -1    0    0    0    0  0.00000000000E+00  0.00000000000E+00  0.22081402693E+03  0.22081402693E+03  0.00000000000E+00 0. -1.
         22   -1    0    0    0    0 -0.00000000000E+00 -0.00000000000E+00 -0.11874883319E+04  0.11874883319E+04  0.00000000000E+00 0. -1.
         24    2    1    2    0    0 -0.17773349143E+03 -0.16702454859E+03 -0.10394118992E+04  0.10704286363E+04  0.77162007652E+02 0.  0.
         25    2    1    2    0    0  0.14318624605E+03  0.86397672854E+02  0.63641410379E+02  0.21832092136E+03  0.12508771584E+03 0.  0.
        -24    2    1    2    0    0  0.34547245377E+02  0.80626875732E+02  0.90961838645E+01  0.11955280114E+03  0.80721288686E+02 0.  0.
        -13    1    3    3    0    0 -0.51870951003E+01 -0.26691243626E+02 -0.20850794046E+03  0.21027336892E+03  0.00000000000E+00 0.  1.
         14    1    3    3    0    0 -0.17254639633E+03 -0.14033330496E+03 -0.83090395872E+03  0.86015526737E+03  0.00000000000E+00 0. -1.
         13    1    5    5    0    0  0.52427386522E+02  0.20328063233E+02  0.65060318260E+01  0.56605560349E+02  0.00000000000E+00 0. -1.
        -14    1    5    5    0    0 -0.17880141145E+02  0.60298812499E+02  0.25901520386E+01  0.62947240795E+02  0.00000000000E+00 0.  1.
          5    1    4    4  501    0  0.48310480513E+02  0.47362307204E+02  0.89659532326E+02  0.11239837547E+03  0.41800000000E+01 0.  1.
         -5    1    4    4    0  501  0.94875765540E+02  0.39035365650E+02 -0.26018121947E+02  0.10592254589E+03  0.41800000000E+01 0.  1.
</event>
<event>
11    1  0.7577197E-009  0.1336888E+03  0.7561462E-02  0.1114818E+00
         22   -1    0    0    0    0  0.00000000000E+00  0.00000000000E+00  0.84854414651E+02  0.84854414651E+02  0.00000000000E+00 0. -1.
         22   -1    0    0    0    0 -0.00000000000E+00 -0.00000000000E+00 -0.10868320236E+04  0.10868320236E+04  0.00000000000E+00 0. -1.
        -24    2    1    2    0    0 -0.19651983619E+02  0.28347456264E+02 -0.86508442666E+03  0.86954176781E+03  0.80882890572E+02 0.  0.
         25    2    1    2    0    0  0.49252553609E+02  0.10287285410E+02 -0.15582559153E+03  0.20606025930E+03  0.12509026024E+03 0.  0.
         24    2    1    2    0    0 -0.29600569991E+02 -0.38634741674E+02  0.18932409257E+02  0.96084411127E+02  0.80653214030E+02 0.  0.
        -13    1    5    5    0    0 -0.53467569123E+02 -0.15477788831E+02 -0.38159299337E+01  0.55793406566E+02  0.00000000000E+00 0.  1.
         14    1    5    5    0    0  0.23866999132E+02 -0.23156952843E+02  0.22748339191E+02  0.40291004561E+02  0.00000000000E+00 0. -1.
         13    1    3    3    0    0 -0.31805383488E+02  0.46191555031E+02 -0.76988312085E+03  0.77192309328E+03  0.00000000000E+00 0. -1.
        -14    1    3    3    0    0  0.12153399869E+02 -0.17844098767E+02 -0.95201305810E+02  0.97618674530E+02  0.00000000000E+00 0.  1.
          5    1    4    4  501    0 -0.12003798098E+02  0.56173365357E+02 -0.76447490727E+02  0.95714311274E+02  0.41800000000E+01 0.  1.
         -5    1    4    4    0  501  0.61256351707E+02 -0.45886079947E+02 -0.79378100805E+02  0.11034594802E+03  0.41800000000E+01 0.  1.
</event>
<event>
11    1  0.7577197E-009  0.1492969E+03  0.7561462E-02  0.1097599E+00
         22   -1    0    0    0    0  0.00000000000E+00  0.00000000000E+00  0.16842489550E+04  0.16842489550E+04  0.00000000000E+00 0.  1.
         22   -1    0    0    0    0 -0.00000000000E+00 -0.00000000000E+00 -0.53906031325E+03  0.53906031325E+03  0.00000000000E+00 0. -1.
        -24    2    1    2    0    0  0.42625181840E+02  0.69993607545E+02 -0.50076851053E+03  0.51353801967E+03  0.78969521196E+02 0.  0.
         25    2    1    2    0    0 -0.23754067308E+02 -0.66899118522E+02  0.13661691136E+03  0.19837331896E+03  0.12509214777E+03 0.  0.
         24    2    1    2    0    0 -0.18871114532E+02 -0.30944890226E+01  0.15093402409E+04  0.15113979296E+04  0.76485580079E+02 0.  0.
        -11    1    5    5    0    0  0.87469144976E+01  0.12976010314E+02  0.12498200722E+04  0.12499180366E+04  0.00000000000E+00 0.  1.
         12    1    5    5    0    0 -0.27618029029E+02 -0.16070499337E+02  0.25952016874E+03  0.26147989303E+03  0.00000000000E+00 0. -1.
         11    1    3    3    0    0  0.74321826205E+01  0.75194734807E+02 -0.38807076277E+03  0.39535857446E+03  0.00000000000E+00 0. -1.
        -12    1    3    3    0    0  0.35192999219E+02 -0.52011272619E+01 -0.11269774776E+03  0.11817944521E+03  0.00000000000E+00 0.  1.
          5    1    4    4  501    0 -0.10821012743E+02  0.36860104089E+02  0.44741851162E+02  0.59119093664E+02  0.41800000000E+01 0. -1.
         -5    1    4    4    0  501 -0.12933054565E+02 -0.10375922261E+03  0.91875060200E+02  0.13925422530E+03  0.41800000000E+01 0. -1.
</event>
<event>
11    1  0.7920339E-009  0.1546561E+03  0.7561462E-02  0.1092214E+00
         22   -1    0    0    0    0  0.00000000000E+00  0.00000000000E+00  0.15418077698E+04  0.15418077698E+04  0.00000000000E+00 0.  1.
         22   -1    0    0    0    0 -0.00000000000E+00 -0.00000000000E+00 -0.46113599949E+03  0.46113599949E+03  0.00000000000E+00 0. -1.
        -24    2    1    2    0    0  0.23817605409E+02 -0.42703203130E+02 -0.38179347247E+03  0.39315473502E+03  0.80084631279E+02 0.  0.
         25    2    1    2    0    0 -0.61944504132E+02 -0.40952911344E+02  0.32834601186E+01  0.14550964104E+03  0.12509201407E+03 0.  0.
         24    2    1    2    0    0  0.38126898723E+02  0.83656114474E+02  0.14591817827E+04  0.14642793933E+04  0.80316005151E+02 0.  0.
        -13    1    5    5    0    0  0.41788397609E+01  0.83532806991E+02  0.83591231451E+03  0.84008606112E+03  0.00000000000E+00 0.  1.
         14    1    5    5    0    0  0.33948058962E+02  0.12330748279E+00  0.62326946818E+03  0.62419333213E+03  0.00000000000E+00 0. -1.
         11    1    3    3    0    0  0.46464247287E+02 -0.27391091706E+02 -0.33197928524E+03  0.33633234161E+03  0.00000000000E+00 0. -1.
        -12    1    3    3    0    0 -0.22646641878E+02 -0.15312111424E+02 -0.49814187224E+02  0.56822393414E+02  0.00000000000E+00 0.  1.
          5    1    4    4  501    0  0.14395911072E+02  0.19587793150E+02 -0.33223439043E+02  0.41378656309E+02  0.41800000000E+01 0. -1.
         -5    1    4    4    0  501 -0.76340415204E+02 -0.60540704494E+02  0.36506899162E+02  0.10413098473E+03  0.41800000000E+01 0. -1.
</event>
<event>
11    1  0.7577197E-009  0.1607183E+03  0.7561462E-02  0.1086404E+00
         22   -1    0    0    0    0  0.00000000000E+00  0.00000000000E+00  0.15461846434E+03  0.15461846434E+03  0.00000000000E+00 0. -1.
         22   -1    0    0    0    0 -0.00000000000E+00 -0.00000000000E+00 -0.21778150143E+04  0.21778150143E+04  0.00000000000E+00 0. -1.
         24    2    1    2    0    0 -0.83663475949E+02 -0.56140029867E+02 -0.17490376096E+04  0.17538133985E+04  0.81102383449E+02 0.  0.
         25    2    1    2    0    0  0.72760296463E+02  0.74059887553E+02 -0.39734307303E+03  0.42931076120E+03  0.12508910547E+03 0.  0.
        -24    2    1    2    0    0  0.10903179486E+02 -0.17919857687E+02  0.12318413266E+03  0.14930931901E+03  0.81724791709E+02 0.  0.
        -13    1    3    3    0    0  0.12073536325E+01  0.11963969006E+02 -0.47042228037E+03  0.47057594087E+03  0.00000000000E+00 0.  1.
         14    1    3    3    0    0 -0.84870829581E+02 -0.68103998872E+02 -0.12786153293E+04  0.12832374576E+04  0.00000000000E+00 0. -1.
         11    1    5    5    0    0 -0.19536111633E+02  0.12991381309E+02  0.94338426141E+02  0.97212006937E+02  0.00000000000E+00 0. -1.
        -12    1    5    5    0    0  0.30439291119E+02 -0.30911238995E+02  0.28845706520E+02  0.52097312068E+02  0.00000000000E+00 0.  1.
          5    1    4    4  501    0 -0.12976776655E+02 -0.49391472383E+01  0.70728911039E+00  0.14517732801E+02  0.41800000000E+01 0. -1.
         -5    1    4    4    0  501  0.85737073118E+02  0.78999034792E+02 -0.39805036214E+03  0.41479302840E+03  0.41800000000E+01 0. -1.
</event>
<event>
11    1  0.7577197E-009  0.1365693E+03  0.7561462E-02  0.1111451E+00
         22   -1    0    0    0    0  0.00000000000E+00  0.00000000000E+00  0.54109326548E+03  0.54109326548E+03  0.00000000000E+00 0.  1.
         22   -1    0    0    0    0 -0.00000000000E+00 -0.00000000000E+00 -0.20113497770E+03  0.20113497770E+03  0.00000000000E+00 0.  1.
         24    2    1    2    0    0  0.84769660723E+01  0.33687906130E+02 -0.11530158375E+03  0.14487948287E+03  0.80553555897E+02 0.  0.
         25    2    1    2    0    0  0.40404788503E+02 -0.56884424507E+02  0.14951791114E+02  0.14400735821E+03  0.12508468521E+03 0.  0.
        -24    2    1    2    0    0 -0.48881754575E+02  0.23196518378E+02  0.44030808042E+03  0.45334140210E+03  0.93379423758E+02 0.  0.
        -11    1    3    3    0    0  0.33721609119E+02 -0.61639159610E+01 -0.76383791775E+02  0.83723499852E+02  0.00000000000E+00 0.  1.
         12    1    3    3    0    0 -0.25244643047E+02  0.39851822091E+02 -0.38917791979E+02  0.61155983019E+02  0.00000000000E+00 0. -1.
         13    1    5    5    0    0 -0.62669794211E+02 -0.11061611536E+01  0.16311050638E+03  0.17473913125E+03  0.00000000000E+00 0. -1.
        -14    1    5    5    0    0  0.13788039635E+02  0.24302679531E+02  0.27719757404E+03  0.27860227085E+03  0.00000000000E+00 0.  1.
          5    1    4    4  501    0 -0.33609022566E+02 -0.52782501334E+02  0.27902860388E+02  0.68641101846E+02  0.41800000000E+01 0. -1.
         -5    1    4    4    0  501  0.74013811069E+02 -0.41019231737E+01 -0.12951069274E+02  0.75366256362E+02  0.41800000000E+01 0. -1.
</event>
<event>
11    1  0.7577197E-009  0.1426142E+03  0.7561462E-02  0.1104674E+00
         22   -1    0    0    0    0  0.00000000000E+00  0.00000000000E+00  0.11769639567E+04  0.11769639567E+04  0.00000000000E+00 0. -1.
         22   -1    0    0    0    0 -0.00000000000E+00 -0.00000000000E+00 -0.88635359077E+03  0.88635359077E+03  0.00000000000E+00 0.  1.
        -24    2    1    2    0    0  0.15135242127E+02 -0.19943407736E+02 -0.84555445945E+03  0.85010929872E+03  0.84241681007E+02 0.  0.
         25    2    1    2    0    0  0.24326676148E+02 -0.38202655758E+02  0.87891950129E+02  0.15944870226E+03  0.12509062185E+03 0.  0.
         24    2    1    2    0    0 -0.39461918275E+02  0.58146063494E+02  0.10482728753E+04  0.10537595465E+04  0.81209316782E+02 0.  0.
        -13    1    5    5    0    0  0.23649775575E+02  0.35714559429E+01  0.24560914161E+03  0.24677098214E+03  0.00000000000E+00 0.  1.
         14    1    5    5    0    0 -0.63111693850E+02  0.54574607551E+02  0.80266373369E+03  0.80698856440E+03  0.00000000000E+00 0. -1.
         13    1    3    3    0    0 -0.43104172390E+00  0.27797691224E+02 -0.51627565586E+03  0.51702364575E+03  0.00000000000E+00 0. -1.
        -14    1    3    3    0    0  0.15566283851E+02 -0.47741098960E+02 -0.32927880358E+03  0.33308565297E+03  0.00000000000E+00 0.  1.
          5    1    4    4  501    0  0.77816977782E+01 -0.59257983718E+02 -0.74088113954E+01  0.60369084314E+02  0.41800000000E+01 0. -1.
         -5    1    4    4    0  501  0.16544978369E+02  0.21055327960E+02  0.95300761524E+02  0.99079617943E+02  0.41800000000E+01 0. -1.
</event>
<event>
11    1  0.7577197E-009  0.1436254E+03  0.7561462E-02  0.1103576E+00
         22   -1    0    0    0    0  0.00000000000E+00  0.00000000000E+00  0.41352161193E+03  0.41352161193E+03  0.00000000000E+00 0. -1.
         22   -1    0    0    0    0 -0.00000000000E+00 -0.00000000000E+00 -0.72329125797E+03  0.72329125797E+03  0.00000000000E+00 0. -1.
         24    2    1    2    0    0 -0.16677981678E+01 -0.15430187094E+02 -0.67212457923E+03  0.67683611686E+03  0.78197230550E+02 0.  0.
         25    2    1    2    0    0 -0.16376717519E+02  0.80541777581E+02  0.10681630265E+03  0.18386566050E+03  0.12506671733E+03 0.  0.
        -24    2    1    2    0    0  0.18044515687E+02 -0.65111590487E+02  0.25553863054E+03  0.27611109254E+03  0.79826185961E+02 0.  0.
        -11    1    3    3    0    0  0.97209819927E+01 -0.22681622254E+02 -0.64467540060E+02  0.69029104009E+02  0.00000000000E+00 0.  1.
         12    1    3    3    0    0 -0.11388780161E+02  0.72514351606E+01 -0.60765703917E+03  0.60780701285E+03  0.00000000000E+00 0. -1.
         13    1    5    5    0    0  0.25726413512E+02 -0.41491965989E+02  0.24379884301E+03  0.24863890976E+03  0.00000000000E+00 0. -1.
        -14    1    5    5    0    0 -0.76818978255E+01 -0.23619624498E+02  0.11739787531E+02  0.27472182784E+02  0.00000000000E+00 0.  1.
          5    1    4    4  501    0  0.53810038778E+02  0.40826943215E+02  0.37066098467E+02  0.77160401898E+02  0.41800000000E+01 0.  1.
         -5    1    4    4    0  501 -0.70186756297E+02  0.39714834365E+02  0.69750204187E+02  0.10670525860E+03  0.41800000000E+01 0.  1.
</event>
<event>
11    1  0.7577197E-009  0.1446016E+03  0.7561462E-02  0.1102526E+00
         22   -1    0    0    0    0  0.00000000000E+00  0.00000000000E+00  0.81959936187E+03  0.81959936187E+03  0.00000000000E+00 0.  1.
         22   -1    0    0    0    0 -0.00000000000E+00 -0.00000000000E+00 -0.98904761247E+02  0.98904761247E+02  0.00000000000E+00 0. -1.
         24    2    1    2    0    0  0.27373114316E+02  0.27981893407E+02 -0.57080974460E+02  0.90470870924E+02  0.58262055357E+02 0.  0.
         25    2    1    2    0    0 -0.93331928978E+02 -0.25696040344E+02  0.30620042460E+03  0.34464523375E+03  0.12510196505E+03 0.  0.
        -24    2    1    2    0    0  0.65958814662E+02 -0.22858530632E+01  0.47157515048E+03  0.48338801845E+03  0.83216966264E+02 0.  0.
        -11    1    3    3    0    0  0.20078724875E+02  0.14969827864E+02  0.59140316528E+01  0.25733765937E+02  0.00000000000E+00 0.  1.
         12    1    3    3    0    0  0.72943894410E+01  0.13012065543E+02 -0.62995006113E+02  0.64737104988E+02  0.00000000000E+00 0. -1.
         11    1    5    5    0    0  0.27239087063E+02  0.39168378823E+02  0.25998837864E+03  0.26432950420E+03  0.00000000000E+00 0. -1.
        -12    1    5    5    0    0  0.38719727600E+02 -0.41454231887E+02  0.21158677184E+03  0.21905851425E+03  0.00000000000E+00 0.  1.
          5    1    4    4  501    0  0.22727541917E+01  0.27027440185E+02  0.10461966789E+02  0.29369594544E+02  0.41800000000E+01 0.  1.
         -5    1    4    4    0  501 -0.95604683170E+02 -0.52723480529E+02  0.29573845781E+03  0.31527563920E+03  0.41800000000E+01 0.  1.
</event>
<event>
11    1  0.7577197E-009  0.1521176E+03  0.7561462E-02  0.1094734E+00
         22   -1    0    0    0    0  0.00000000000E+00  0.00000000000E+00  0.21318721314E+04  0.21318721314E+04  0.00000000000E+00 0.  1.
         22   -1    0    0    0    0 -0.00000000000E+00 -0.00000000000E+00 -0.41281773874E+03  0.41281773874E+03  0.00000000000E+00 0.  1.
        -24    2    1    2    0    0 -0.23324521287E+02 -0.58640790161E+02 -0.39605876749E+03  0.40909059811E+03  0.80683298093E+02 0.  0.
         25    2    1    2    0    0  0.10293240752E+03  0.50187544626E+02  0.96998623004E+03  0.98470041947E+03  0.12509100478E+03 0.  0.
         24    2    1    2    0    0 -0.79607886231E+02  0.84532455353E+01  0.11451269301E+04  0.11508988526E+04  0.82726113622E+02 0.  0.
        -11    1    5    5    0    0 -0.70297290995E+02  0.17065008602E+02  0.11235076768E+04  0.11258341012E+04  0.00000000000E+00 0.  1.
         12    1    5    5    0    0 -0.93105952366E+01 -0.86117630665E+01  0.21619253332E+02  0.25064751373E+02  0.00000000000E+00 0. -1.
         13    1    3    3    0    0  0.25533981487E+02 -0.47091885322E+01 -0.62367964948E+02  0.67556818449E+02  0.00000000000E+00 0. -1.
        -14    1    3    3    0    0 -0.48858502773E+02 -0.53931601629E+02 -0.33369080254E+03  0.34153377966E+03  0.00000000000E+00 0.  1.
          5    1    4    4  501    0  0.71373432090E+02  0.91526288431E+02  0.72236484582E+03  0.73164176422E+03  0.41800000000E+01 0. -1.
         -5    1    4    4    0  501  0.31558975428E+02 -0.41338743805E+02  0.24762138423E+03  0.25305865525E+03  0.41800000000E+01 0. -1.
</event>
<event>
11    1  0.7577197E-009  0.1849444E+03  0.7561462E-02  0.1065712E+00
         22   -1    0    0    0    0  0.00000000000E+00  0.00000000000E+00  0.29239527995E+03  0.29239527995E+03  0.00000000000E+00 0. -1.
         22   -1    0    0    0    0 -0.00000000000E+00 -0.00000000000E+00 -0.37076905291E+04  0.37076905291E+04  0.00000000000E+00 0. -1.
         24    2    1    2    0    0  0.61813838944E+01  0.13659037391E+03 -0.36492007785E+04  0.36526490602E+04  0.80521395454E+02 0.  0.
         25    2    1    2    0    0  0.30457338956E+02 -0.85550631115E+02  0.14314843827E+03  0.21067962551E+03  0.12509144353E+03 0.  0.
        -24    2    1    2    0    0 -0.36638722850E+02 -0.51039742796E+02  0.90757091085E+02  0.13675712337E+03  0.80735431221E+02 0.  0.
        -13    1    3    3    0    0 -0.17070607802E+02  0.17258433786E+02 -0.22796049709E+03  0.22924931280E+03  0.00000000000E+00 0.  1.
         14    1    3    3    0    0  0.23251991696E+02  0.11933194012E+03 -0.34212402814E+04  0.34233997473E+04  0.00000000000E+00 0. -1.
         11    1    5    5    0    0  0.15524835684E+01  0.16558650267E+01  0.67663080278E+02  0.67701141253E+02  0.00000000000E+00 0. -1.
        -12    1    5    5    0    0 -0.38191206419E+02 -0.52695607823E+02  0.23094010807E+02  0.69055982121E+02  0.00000000000E+00 0.  1.
          5    1    4    4  501    0  0.11808841805E+01 -0.11043858603E+03  0.12812943999E+03  0.16921200183E+03  0.41800000000E+01 0. -1.
         -5    1    4    4    0  501  0.29276454775E+02  0.24887954915E+02  0.15018998282E+02  0.41467623678E+02  0.41800000000E+01 0. -1.
</event>
<event>
11    1  0.7577197E-009  0.2003134E+03  0.7561462E-02  0.1054302E+00
         22   -1    0    0    0    0  0.00000000000E+00  0.00000000000E+00  0.74866788162E+03  0.74866788162E+03  0.00000000000E+00 0. -1.
         22   -1    0    0    0    0 -0.00000000000E+00 -0.00000000000E+00 -0.46295568087E+03  0.46295568087E+03  0.00000000000E+00 0. -1.
        -24    2    1    2    0    0  0.60293250304E+02 -0.67897917087E+02 -0.32344908836E+03  0.34533203941E+03  0.79934357469E+02 0.  0.
         25    2    1    2    0    0  0.56823267505E+02  0.17134021659E+03 -0.12763610890E+02  0.21997987308E+03  0.12506750675E+03 0.  0.
         24    2    1    2    0    0 -0.11711651781E+03 -0.10344229951E+03  0.62192490001E+03  0.64631165001E+03  0.80694359253E+02 0.  0.
        -13    1    5    5    0    0 -0.67288500357E+02 -0.79200807256E+01  0.21990683442E+03  0.23010755265E+03  0.00000000000E+00 0.  1.
         14    1    5    5    0    0 -0.49828017453E+02 -0.95522218780E+02  0.40201806558E+03  0.41620409736E+03  0.00000000000E+00 0. -1.
         13    1    3    3    0    0  0.75154348588E+02 -0.73396839036E+02 -0.28513924216E+03  0.30387441405E+03  0.00000000000E+00 0. -1.
        -14    1    3    3    0    0 -0.14861098284E+02  0.54989219494E+01 -0.38309846197E+02  0.41457625360E+02  0.00000000000E+00 0.  1.
          5    1    4    4  501    0  0.74369349768E+02  0.18337479311E+03 -0.11591538910E+02  0.19826485091E+03  0.41800000000E+01 0.  1.
         -5    1    4    4    0  501 -0.17546082262E+02 -0.12034576519E+02 -0.11720719806E+01  0.21715022162E+02  0.41800000000E+01 0.  1.
</event>
<event>
11    1  0.7577197E-009  0.1284705E+03  0.7561462E-02  0.1121163E+00
         22   -1    0    0    0    0  0.00000000000E+00  0.00000000000E+00  0.68287736446E+02  0.68287736446E+02  0.00000000000E+00 0. -1.
         22   -1    0    0    0    0 -0.00000000000E+00 -0.00000000000E+00 -0.39860335051E+04  0.39860335051E+04  0.00000000000E+00 0.  1.
         24    2    1    2    0    0 -0.15254260561E+01 -0.29379374325E+02 -0.36362770763E+04  0.36374626702E+04  0.88080794181E+02 0.  0.
         25    2    1    2    0    0  0.15989589963E+02  0.25341553924E+02 -0.30494216698E+03  0.33096036037E+03  0.12508866293E+03 0.  0.
        -24    2    1    2    0    0 -0.14464163907E+02  0.40378204011E+01  0.23473474663E+02  0.85898211017E+02  0.81252585264E+02 0.  0.
        -11    1    3    3    0    0 -0.21763414041E+02  0.22003933283E+00 -0.30566986058E+04  0.30567760895E+04  0.00000000000E+00 0.  1.
         12    1    3    3    0    0  0.20237987985E+02 -0.29599413658E+02 -0.57957847053E+03  0.58068658065E+03  0.00000000000E+00 0. -1.
         13    1    5    5    0    0 -0.16854443500E+02  0.72727039922E+01  0.53005213053E+02  0.56093824079E+02  0.00000000000E+00 0. -1.
        -14    1    5    5    0    0  0.23902795926E+01 -0.32348835911E+01 -0.29531738390E+02  0.29804386938E+02  0.00000000000E+00 0.  1.
          5    1    4    4  501    0 -0.16184318426E+02 -0.13295279163E+02 -0.26695007891E+03  0.26780312478E+03  0.41800000000E+01 0.  1.
         -5    1    4    4    0  501  0.32173908389E+02  0.38636833088E+02 -0.37992088065E+02  0.63157235592E+02  0.41800000000E+01 0.  1.
</event>
<event>
11    1  0.7577197E-009  0.1963734E+03  0.7561462E-02  0.1057118E+00
         22   -1    0    0    0    0  0.00000000000E+00  0.00000000000E+00  0.22412851562E+04  0.22412851562E+04  0.00000000000E+00 0. -1.
         22   -1    0    0    0    0 -0.00000000000E+00 -0.00000000000E+00 -0.15000977142E+03  0.15000977142E+03  0.00000000000E+00 0. -1.
        -24    2    1    2    0    0  0.12083967790E+02 -0.47340879687E+01 -0.97474977440E+02  0.12846054903E+03  0.82657773760E+02 0.  0.
         25    2    1    2    0    0 -0.16204639689E+03  0.11716857068E+02  0.28265496250E+03  0.34919572498E+03  0.12508999574E+03 0.  0.
         24    2    1    2    0    0  0.14996242910E+03 -0.69827690991E+01  0.19060953997E+04  0.19136386536E+04  0.79219534036E+02 0.  0.
        -13    1    5    5    0    0  0.17663760235E+02 -0.30193716832E+02  0.45285874324E+03  0.45420778316E+03  0.00000000000E+00 0.  1.
         14    1    5    5    0    0  0.13229866886E+03  0.23210947732E+02  0.14532366564E+04  0.14594308704E+04  0.00000000000E+00 0. -1.
         11    1    3    3    0    0 -0.14649227653E+02 -0.28541891463E+02 -0.84497895461E+02  0.90383260488E+02  0.00000000000E+00 0. -1.
        -12    1    3    3    0    0  0.26733195443E+02  0.23807803494E+02 -0.12977081979E+02  0.38077288539E+02  0.00000000000E+00 0.  1.
          5    1    4    4  501    0 -0.11758934690E+03 -0.16042593302E+02  0.27022628156E+03  0.29516831630E+03  0.41800000000E+01 0. -1.
         -5    1    4    4    0  501 -0.44457049988E+02  0.27759450370E+02  0.12428680944E+02  0.54027408679E+02  0.41800000000E+01 0. -1.
</event>
<event>
11    1  0.7577197E-009  0.1624963E+03  0.7561462E-02  0.1084753E+00
         22   -1    0    0    0    0  0.00000000000E+00  0.00000000000E+00  0.17000017401E+04  0.17000017401E+04  0.00000000000E+00 0. -1.
         22   -1    0    0    0    0 -0.00000000000E+00 -0.00000000000E+00 -0.75635001693E+02  0.75635001693E+02  0.00000000000E+00 0.  1.
        -24    2    1    2    0    0 -0.31665059537E+02  0.95319537395E+02  0.48128931534E+02  0.13789288058E+03  0.81299214378E+02 0.  0.
         25    2    1    2    0    0  0.76716818680E+02 -0.90612442347E+02  0.22550599148E+03  0.28389365960E+03  0.12508626140E+03 0.  0.
         24    2    1    2    0    0 -0.45051759143E+02 -0.47070950477E+01  0.13507318154E+04  0.13538502016E+04  0.79888131473E+02 0.  0.
        -11    1    5    5    0    0 -0.49076130946E+02  0.14734093888E+02  0.45134421765E+03  0.45424350623E+03  0.00000000000E+00 0.  1.
         12    1    5    5    0    0  0.40243718027E+01 -0.19441188936E+02  0.89938759775E+03  0.89960669539E+03  0.00000000000E+00 0. -1.
         11    1    3    3    0    0 -0.40187128797E+02  0.23951538159E+02  0.46555387585E+02  0.66000648591E+02  0.00000000000E+00 0. -1.
        -12    1    3    3    0    0  0.85220692601E+01  0.71367999236E+02  0.15735439490E+01  0.71892231986E+02  0.00000000000E+00 0.  1.
          5    1    4    4  501    0 -0.24451471979E+02 -0.13620487295E+02  0.41636039124E+01  0.28604198182E+02  0.41800000000E+01 0. -1.
         -5    1    4    4    0  501  0.10116829066E+03 -0.76991955052E+02  0.22134238756E+03  0.25528946142E+03  0.41800000000E+01 0. -1.
</event>
<event>
11    1  0.7577197E-009  0.2927132E+03  0.7561462E-02  0.1003323E+00
         22   -1    0    0    0    0  0.00000000000E+00  0.00000000000E+00  0.47088143106E+03  0.47088143106E+03  0.00000000000E+00 0. -1.
         22   -1    0    0    0    0 -0.00000000000E+00 -0.00000000000E+00 -0.29217697409E+03  0.29217697409E+03  0.00000000000E+00 0.  1.
         24    2    1    2    0    0 -0.24050855600E+03 -0.57482717874E+02 -0.39485142891E+02  0.25927734842E+03  0.67208917047E+02 0.  0.
         25    2    1    2    0    0  0.30364869240E+03  0.21849803265E+02  0.12080344975E+03  0.35059826917E+03  0.12508289480E+03 0.  0.
        -24    2    1    2    0    0 -0.63140136399E+02  0.35632914610E+02  0.97386150108E+02  0.15318278757E+03  0.93405153746E+02 0.  0.
        -11    1    3    3    0    0 -0.92829871006E+02 -0.46109492723E+00 -0.39721412562E+02  0.10097221487E+03  0.00000000000E+00 0.  1.
         12    1    3    3    0    0 -0.14767868500E+03 -0.57021622947E+02  0.23626967078E+00  0.15830513355E+03  0.00000000000E+00 0. -1.
         11    1    5    5    0    0  0.37038691302E+01  0.47837727605E+02  0.55482638800E+02  0.73351823680E+02  0.00000000000E+00 0. -1.
        -12    1    5    5    0    0 -0.66844005529E+02 -0.12204812996E+02  0.41903511308E+02  0.79830963888E+02  0.00000000000E+00 0.  1.
          5    1    4    4  501    0  0.13409253218E+03 -0.47994164035E+02  0.77228834712E+02  0.16206792489E+03  0.41800000000E+01 0.  1.
         -5    1    4    4    0  501  0.16955616022E+03  0.69843967300E+02  0.43574615036E+02  0.18853034427E+03  0.41800000000E+01 0.  1.
</event>
<event>
11    1  0.7577197E-009  0.1427697E+03  0.7561462E-02  0.1104504E+00
         22   -1    0    0    0    0  0.00000000000E+00  0.00000000000E+00  0.53910494822E+02  0.53910494822E+02  0.00000000000E+00 0.  1.
         22   -1    0    0    0    0 -0.00000000000E+00 -0.00000000000E+00 -0.34415871339E+04  0.34415871339E+04  0.00000000000E+00 0.  1.
        -24    2    1    2    0    0  0.55858029612E+02 -0.32881679856E+02 -0.27305319008E+04  0.27324967449E+04  0.80824967389E+02 0.  0.
         25    2    1    2    0    0  0.13587714141E+02  0.54148240001E+02 -0.63880190972E+03  0.65332374403E+03  0.12508947510E+03 0.  0.
         24    2    1    2    0    0 -0.69445743753E+02 -0.21266560145E+02 -0.18342828594E+02  0.10967713981E+03  0.80110159971E+02 0.  0.
        -13    1    5    5    0    0 -0.52828747679E+02 -0.27157578555E+02  0.23803169546E+02  0.63992199014E+02  0.00000000000E+00 0.  1.
         14    1    5    5    0    0 -0.16616996075E+02  0.58910184100E+01 -0.42145998140E+02  0.45684940797E+02  0.00000000000E+00 0. -1.
         13    1    3    3    0    0 -0.19273498076E+02 -0.17372134642E+02 -0.54209534674E+03  0.54271596968E+03  0.00000000000E+00 0. -1.
        -14    1    3    3    0    0  0.75131527688E+02 -0.15509545214E+02 -0.21884365540E+04  0.21897807752E+04  0.00000000000E+00 0.  1.
          5    1    4    4  501    0 -0.31743978447E+02  0.73095629915E+02 -0.49281363831E+03  0.49923281721E+03  0.41800000000E+01 0. -1.
         -5    1    4    4    0  501  0.45331692589E+02 -0.18947389914E+02 -0.14598827142E+03  0.15409092682E+03  0.41800000000E+01 0. -1.
</event>
<event>
11    1  0.7577197E-009  0.1750226E+03  0.7561462E-02  0.1073742E+00
         22   -1    0    0    0    0  0.00000000000E+00  0.00000000000E+00  0.99063591892E+03  0.99063591892E+03  0.00000000000E+00 0. -1.
         22   -1    0    0    0    0 -0.00000000000E+00 -0.00000000000E+00 -0.97866066977E+03  0.97866066977E+03  0.00000000000E+00 0. -1.
         24    2    1    2    0    0 -0.12066032561E+03 -0.16133133914E+02 -0.93521395188E+03  0.94649594539E+03  0.80064016010E+02 0.  0.
         25    2    1    2    0    0  0.16693840902E+03 -0.26230921462E+02  0.30462099482E+03  0.37013770455E+03  0.12510585998E+03 0.  0.
        -24    2    1    2    0    0 -0.46278083409E+02  0.42364055376E+02  0.64256820622E+03  0.65266293875E+03  0.95596222599E+02 0.  0.
        -11    1    3    3    0    0  0.10386563387E+02 -0.19425945641E+01 -0.31630713286E+02  0.33349008915E+02  0.00000000000E+00 0.  1.
         12    1    3    3    0    0 -0.13104688900E+03 -0.14190539350E+02 -0.90358323860E+03  0.91314693648E+03  0.00000000000E+00 0. -1.
         11    1    5    5    0    0 -0.33217315777E+02  0.63719563408E+02  0.59086543772E+03  0.59521889950E+03  0.00000000000E+00 0. -1.
        -12    1    5    5    0    0 -0.13060767632E+02 -0.21355508032E+02  0.51702768504E+02  0.57444039251E+02  0.00000000000E+00 0.  1.
          5    1    4    4  501    0  0.93882638423E+02 -0.41097628638E+02  0.70666277648E+02  0.12455585122E+03  0.41800000000E+01 0. -1.
         -5    1    4    4    0  501  0.73055770595E+02  0.14866707176E+02  0.23395471717E+03  0.24558185333E+03  0.41800000000E+01 0. -1.
</event>
<event>
11    1  0.7577197E-009  0.1500167E+03  0.7561462E-02  0.1096862E+00
         22   -1    0    0    0    0  0.00000000000E+00  0.00000000000E+00  0.50948717689E+03  0.50948717689E+03  0.00000000000E+00 0.  1.
         22   -1    0    0    0    0 -0.00000000000E+00 -0.00000000000E+00 -0.16750941343E+03  0.16750941343E+03  0.00000000000E+00 0. -1.
        -24    2    1    2    0    0 -0.90751848327E+02 -0.98540567073E+01 -0.10000966383E+03  0.16261496742E+03  0.90048289049E+02 0.  0.
         25    2    1    2    0    0  0.43193999525E+02 -0.12098206275E+02  0.12180205874E+03  0.18026407977E+03  0.12508920317E+03 0.  0.
         24    2    1    2    0    0  0.47557848802E+02  0.21952262982E+02  0.32018536855E+03  0.33411754314E+03  0.79826133369E+02 0.  0.
        -13    1    5    5    0    0  0.62073396512E+01  0.31341289648E+02  0.25061419926E+03  0.25264260205E+03  0.00000000000E+00 0.  1.
         14    1    5    5    0    0  0.41350509151E+02 -0.93890266652E+01  0.69571169294E+02  0.81474941090E+02  0.00000000000E+00 0. -1.
         11    1    3    3    0    0 -0.78948839777E+02 -0.42500262533E+02 -0.88654913495E+02  0.12609078200E+03  0.00000000000E+00 0. -1.
        -12    1    3    3    0    0 -0.11803008550E+02  0.32646205825E+02 -0.11354750336E+02  0.36524185423E+02  0.00000000000E+00 0.  1.
          5    1    4    4  501    0  0.12156011707E+02 -0.49149831964E+02  0.18096767831E+01  0.50835243019E+02  0.41800000000E+01 0. -1.
         -5    1    4    4    0  501  0.31037987817E+02  0.37051625689E+02  0.11999238196E+03  0.12942883675E+03  0.41800000000E+01 0. -1.
</event>
<event>
11    1  0.7577197E-009  0.1367444E+03  0.7561462E-02  0.1111249E+00
         22   -1    0    0    0    0  0.00000000000E+00  0.00000000000E+00  0.70499060634E+03  0.70499060634E+03  0.00000000000E+00 0.  1.
         22   -1    0    0    0    0 -0.00000000000E+00 -0.00000000000E+00 -0.13014444310E+03  0.13014444310E+03  0.00000000000E+00 0. -1.
         24    2    1    2    0    0 -0.44428466933E+02  0.46479463653E+01 -0.13540128747E+02  0.91890106642E+02  0.79151528936E+02 0.  0.
         25    2    1    2    0    0  0.95926689729E+02  0.83852282052E+01  0.11194077072E+02  0.15825716880E+03  0.12509109585E+03 0.  0.
        -24    2    1    2    0    0 -0.51498222796E+02 -0.13033174571E+02  0.57719221492E+03  0.58498777399E+03  0.78980454325E+02 0.  0.
        -13    1    3    3    0    0 -0.32308320744E+02 -0.16616851518E+02  0.26494851130E+02  0.44965814571E+02  0.00000000000E+00 0.  1.
         14    1    3    3    0    0 -0.12120146189E+02  0.21264797883E+02 -0.40034979877E+02  0.46924292071E+02  0.00000000000E+00 0. -1.
         11    1    5    5    0    0 -0.38542747061E+02 -0.24109331699E+02  0.13465411122E+03  0.14212154269E+03  0.00000000000E+00 0. -1.
        -12    1    5    5    0    0 -0.12955475736E+02  0.11076157129E+02  0.44253810370E+03  0.44286623131E+03  0.00000000000E+00 0.  1.
          5    1    4    4  501    0  0.74547903990E+01  0.22912773809E+02 -0.45811537474E+02  0.51930130649E+02  0.41800000000E+01 0.  1.
         -5    1    4    4    0  501  0.88471899330E+02 -0.14527545604E+02  0.57005614546E+02  0.10632703815E+03  0.41800000000E+01 0.  1.
</event>
<event>
11    1  0.7577197E-009  0.1358733E+03  0.7561462E-02  0.1112256E+00
         22   -1    0    0    0    0  0.00000000000E+00  0.00000000000E+00  0.31421836628E+03  0.31421836628E+03  0.00000000000E+00 0. -1.
         22   -1    0    0    0    0 -0.00000000000E+00 -0.00000000000E+00 -0.50278166823E+03  0.50278166823E+03  0.00000000000E+00 0.  1.
         24    2    1    2    0    0 -0.13514524569E+02  0.42694261675E+02 -0.42575671401E+03  0.43584635317E+03  0.81779103038E+02 0.  0.
         25    2    1    2    0    0  0.64120824690E+02 -0.44381736332E+02  0.25842930866E+02  0.14965245188E+03  0.12508709205E+03 0.  0.
        -24    2    1    2    0    0 -0.50606300122E+02  0.16874746574E+01  0.21135048119E+03  0.23150122947E+03  0.79749283157E+02 0.  0.
        -13    1    3    3    0    0  0.25606869186E+02  0.13633221485E+02 -0.29290381190E+03  0.29433691495E+03  0.00000000000E+00 0.  1.
         14    1    3    3    0    0 -0.39121393755E+02  0.29061040190E+02 -0.13285290211E+03  0.14150943822E+03  0.00000000000E+00 0. -1.
         13    1    5    5    0    0 -0.60252083876E+02  0.27976921523E+02  0.15140459013E+03  0.16533714543E+03  0.00000000000E+00 0. -1.
        -14    1    5    5    0    0  0.96457837546E+01 -0.26289446866E+02  0.59945891065E+02  0.66164084036E+02  0.00000000000E+00 0.  1.
          5    1    4    4  501    0 -0.21034381909E+02 -0.36921526713E+02 -0.25613305016E+02  0.49791145307E+02  0.41800000000E+01 0. -1.
         -5    1    4    4    0  501  0.85155206600E+02 -0.74602096189E+01  0.51456235882E+02  0.99861306569E+02  0.41800000000E+01 0. -1.
</event>
<event>
11    1  0.7577197E-009  0.3939473E+03  0.7561462E-02  0.9667787E-01
         22   -1    0    0    0    0  0.00000000000E+00  0.00000000000E+00  0.44808303962E+03  0.44808303962E+03  0.00000000000E+00 0. -1.
         22   -1    0    0    0    0 -0.00000000000E+00 -0.00000000000E+00 -0.48724584590E+03  0.48724584590E+03  0.00000000000E+00 0. -1.
        -24    2    1    2    0    0  0.23858448042E+03  0.25897356910E+03 -0.59333635344E+02  0.36603460375E+03  0.80442445668E+02 0.  0.
         25    2    1    2    0    0 -0.34297357941E+03 -0.22330831882E+03 -0.14956622122E+02  0.42821401455E+03  0.12508421276E+03 0.  0.
         24    2    1    2    0    0  0.10438909899E+03 -0.35665250280E+02  0.35127451187E+02  0.14108026723E+03  0.80626359889E+02 0.  0.
        -11    1    5    5    0    0  0.98401852889E+02 -0.54415330065E+02  0.15898629296E+02  0.11356372313E+03  0.00000000000E+00 0.  1.
         12    1    5    5    0    0  0.59872461034E+01  0.18750079785E+02  0.19228821891E+02  0.27516544099E+02  0.00000000000E+00 0. -1.
         11    1    3    3    0    0  0.22517175879E+03  0.20180988676E+03 -0.46427616919E+02  0.30591677784E+03  0.00000000000E+00 0. -1.
        -12    1    3    3    0    0  0.13412721635E+02  0.57163682341E+02 -0.12906018426E+02  0.60117825909E+02  0.00000000000E+00 0.  1.
          5    1    4    4  501    0 -0.24370165467E+03 -0.92020193668E+02 -0.32867636231E+02  0.26259468092E+03  0.41800000000E+01 0.  1.
         -5    1    4    4    0  501 -0.99271924740E+02 -0.13128812515E+03  0.17911014109E+02  0.16561933363E+03  0.41800000000E+01 0.  1.
</event>
<event>
11    1  0.7577197E-009  0.1710003E+03  0.7561462E-02  0.1077164E+00
         22   -1    0    0    0    0  0.00000000000E+00  0.00000000000E+00  0.71719024904E+03  0.71719024904E+03  0.00000000000E+00 0. -1.
         22   -1    0    0    0    0 -0.00000000000E+00 -0.00000000000E+00 -0.10194409201E+04  0.10194409201E+04  0.00000000000E+00 0. -1.
         24    2    1    2    0    0  0.30259551162E+02  0.13286473633E+01 -0.92487685619E+03  0.92885263987E+03  0.80328212579E+02 0.  0.
         25    2    1    2    0    0 -0.22836847626E+02 -0.11770571814E+03  0.42393099034E+01  0.17332554633E+03  0.12509042957E+03 0.  0.
        -24    2    1    2    0    0 -0.74227035355E+01  0.11637707078E+03  0.61838687526E+03  0.63445298289E+03  0.80805574535E+02 0.  0.
        -13    1    3    3    0    0 -0.82906370623E+01 -0.11551095831E+02 -0.31598493351E+02  0.34650068685E+02  0.00000000000E+00 0.  1.
         14    1    3    3    0    0  0.38550188224E+02  0.12879743195E+02 -0.89327836284E+03  0.89420257118E+03  0.00000000000E+00 0. -1.
         11    1    5    5    0    0  0.14720486361E+02  0.10021779030E+03  0.56920482042E+03  0.57814740837E+03  0.00000000000E+00 0. -1.
        -12    1    5    5    0    0 -0.22143189897E+02  0.16159280476E+02  0.49182054839E+02  0.56305574524E+02  0.00000000000E+00 0.  1.
          5    1    4    4  501    0 -0.25548632461E+02 -0.11481451901E+03 -0.43321877368E+02  0.12541676066E+03  0.41800000000E+01 0.  1.
         -5    1    4    4    0  501  0.27117848345E+01 -0.28911991308E+01  0.47561187272E+02  0.47908785667E+02  0.41800000000E+01 0.  1.
</event>
<event>
11    1  0.7577197E-009  0.2090960E+03  0.7561462E-02  0.1048271E+00
         22   -1    0    0    0    0  0.00000000000E+00  0.00000000000E+00  0.37109368326E+03  0.37109368326E+03  0.00000000000E+00 0. -1.
         22   -1    0    0    0    0 -0.00000000000E+00 -0.00000000000E+00 -0.68284972561E+03  0.68284972561E+03  0.00000000000E+00 0. -1.
        -24    2    1    2    0    0 -0.10407527508E+02 -0.13572889163E+02 -0.41954193161E+03  0.42736597525E+03  0.79584574298E+02 0.  0.
         25    2    1    2    0    0  0.10698771212E+03 -0.12398204917E+03 -0.18692154095E+03  0.27821709161E+03  0.12508864270E+03 0.  0.
         24    2    1    2    0    0 -0.96580184612E+02  0.13755493833E+03  0.29470743021E+03  0.34836034201E+03  0.79078222937E+02 0.  0.
        -13    1    5    5    0    0 -0.68149085944E+02  0.45702424534E+02  0.18561036864E+03  0.20293895257E+03  0.00000000000E+00 0.  1.
         14    1    5    5    0    0 -0.28431098667E+02  0.91852513798E+02  0.10909706157E+03  0.14542138944E+03  0.00000000000E+00 0. -1.
         11    1    3    3    0    0 -0.18363602797E+02 -0.42668995281E+01 -0.41310243275E+03  0.41353240294E+03  0.00000000000E+00 0. -1.
        -12    1    3    3    0    0  0.79560752892E+01 -0.93059896354E+01 -0.64394988672E+01  0.13833572307E+02  0.00000000000E+00 0.  1.
          5    1    4    4  501    0  0.12686584793E+03 -0.95111462179E+02 -0.18380164418E+03  0.24277901559E+03  0.41800000000E+01 0. -1.
         -5    1    4    4    0  501 -0.19878135808E+02 -0.28870586990E+02 -0.31198967736E+01  0.35438076024E+02  0.41800000000E+01 0. -1.
</event>
<event>
11    1  0.7577197E-009  0.1551315E+03  0.7561462E-02  0.1091748E+00
         22   -1    0    0    0    0  0.00000000000E+00  0.00000000000E+00  0.48345446957E+03  0.48345446957E+03  0.00000000000E+00 0.  1.
         22   -1    0    0    0    0 -0.00000000000E+00 -0.00000000000E+00 -0.82097996731E+03  0.82097996731E+03  0.00000000000E+00 0. -1.
         24    2    1    2    0    0  0.88789950578E+02  0.15573887606E+02 -0.74971412213E+03  0.75915159457E+03  0.78190007791E+02 0.  0.
         25    2    1    2    0    0 -0.14001484485E+03 -0.37133345562E+02  0.95551242342E+02  0.21391793027E+03  0.12509116216E+03 0.  0.
        -24    2    1    2    0    0  0.51224894268E+02  0.21559457956E+02  0.31663738205E+03  0.33136491204E+03  0.80340980795E+02 0.  0.
        -11    1    3    3    0    0  0.42559864245E+02 -0.31447814368E+02 -0.36762248062E+03  0.37141162520E+03  0.00000000000E+00 0.  1.
         12    1    3    3    0    0  0.46230086333E+02  0.47021701974E+02 -0.38209164151E+03  0.38773996937E+03  0.00000000000E+00 0. -1.
         13    1    5    5    0    0  0.86927200102E+01 -0.19950537851E+02  0.22572354121E+02  0.31354401800E+02  0.00000000000E+00 0. -1.
        -14    1    5    5    0    0  0.42532174257E+02  0.41509995806E+02  0.29406502793E+03  0.30001051024E+03  0.00000000000E+00 0.  1.
          5    1    4    4  501    0 -0.24259116141E+02  0.38975244327E+02  0.94235883709E+00  0.46107860789E+02  0.41800000000E+01 0. -1.
         -5    1    4    4    0  501 -0.11575572870E+03 -0.76108589889E+02  0.94608883505E+02  0.16781006949E+03  0.41800000000E+01 0. -1.
</event>
<event>
11    1  0.7577197E-009  0.1660098E+03  0.7561462E-02  0.1081557E+00
         22   -1    0    0    0    0  0.00000000000E+00  0.00000000000E+00  0.14585042333E+04  0.14585042333E+04  0.00000000000E+00 0. -1.
         22   -1    0    0    0    0 -0.00000000000E+00 -0.00000000000E+00 -0.11290582598E+04  0.11290582598E+04  0.00000000000E+00 0. -1.
        -24    2    1    2    0    0 -0.17316135096E+02  0.10857708805E+03 -0.10916129918E+04  0.11001011960E+04  0.80714836894E+02 0.  0.
         25    2    1    2    0    0 -0.54776696075E+02 -0.79152216058E+02  0.17048090982E+03  0.23233708893E+03  0.12510484619E+03 0.  0.
         24    2    1    2    0    0  0.72092831172E+02 -0.29424871995E+02  0.12505780555E+04  0.12551242081E+04  0.72993872038E+02 0.  0.
        -11    1    5    5    0    0  0.41866734643E+02 -0.37206112487E+02  0.39223247214E+03  0.39621134572E+03  0.00000000000E+00 0.  1.
         12    1    5    5    0    0  0.30226096529E+02  0.77812404929E+01  0.85834558339E+03  0.85891286237E+03  0.00000000000E+00 0. -1.
         13    1    3    3    0    0  0.28914858030E+01  0.11174441389E+03 -0.80000065037E+03  0.80777237841E+03  0.00000000000E+00 0. -1.
        -14    1    3    3    0    0 -0.20207620899E+02 -0.31673258383E+01 -0.29161234148E+03  0.29232881759E+03  0.00000000000E+00 0.  1.
          5    1    4    4  501    0  0.73706555256E+01 -0.81226729398E+02  0.14201272574E+03  0.16382061776E+03  0.41800000000E+01 0.  1.
         -5    1    4    4    0  501 -0.62147351601E+02  0.20745133401E+01  0.28468184075E+02  0.68516471167E+02  0.41800000000E+01 0.  1.
</event>
<event>
11    1  0.7577197E-009  0.4526608E+03  0.7561462E-02  0.9506005E-01
         22   -1    0    0    0    0  0.00000000000E+00  0.00000000000E+00  0.24486789701E+04  0.24486789701E+04  0.00000000000E+00 0. -1.
         22   -1    0    0    0    0 -0.00000000000E+00 -0.00000000000E+00 -0.49568800961E+03  0.49568800961E+03  0.00000000000E+00 0. -1.
        -24    2    1    2    0    0 -0.11714713792E+03  0.41657491091E+03 -0.28369332282E+03  0.52358625660E+03  0.80015988193E+02 0.  0.
         25    2    1    2    0    0  0.12677459701E+03 -0.42800448755E+03  0.49886623754E+03  0.68100978218E+03  0.12508861121E+03 0.  0.
         24    2    1    2    0    0 -0.96274590908E+01  0.11429576649E+02  0.17378180458E+04  0.17397709409E+04  0.81043467133E+02 0.  0.
        -11    1    5    5    0    0 -0.83811524807E+01 -0.30021626945E+02  0.36556347405E+03  0.36688989542E+03  0.00000000000E+00 0.  1.
         12    1    5    5    0    0 -0.12463066101E+01  0.41451203594E+02  0.13722545717E+04  0.13728810455E+04  0.00000000000E+00 0. -1.
         11    1    3    3    0    0 -0.95189562017E+02  0.32362654400E+03 -0.17903913950E+03  0.38190339900E+03  0.00000000000E+00 0. -1.
        -12    1    3    3    0    0 -0.21957575898E+02  0.92948366911E+02 -0.10465418331E+03  0.14168285759E+03  0.00000000000E+00 0.  1.
          5    1    4    4  501    0  0.25163664989E+02 -0.24052980210E+03  0.32902120644E+03  0.40836285632E+03  0.41800000000E+01 0.  1.
         -5    1    4    4    0  501  0.10161093202E+03 -0.18747468545E+03  0.16984503110E+03  0.27264692586E+03  0.41800000000E+01 0.  1.
</event>
<event>
11    1  0.7577197E-009  0.1368745E+03  0.7561462E-02  0.1111100E+00
         22   -1    0    0    0    0  0.00000000000E+00  0.00000000000E+00  0.39306652008E+03  0.39306652008E+03  0.00000000000E+00 0.  1.
         22   -1    0    0    0    0 -0.00000000000E+00 -0.00000000000E+00 -0.19469087019E+03  0.19469087019E+03  0.00000000000E+00 0. -1.
        -24    2    1    2    0    0  0.43432374427E+01 -0.54997356533E+01 -0.99575109891E+02  0.12741736776E+03  0.79188839447E+02 0.  0.
         25    2    1    2    0    0 -0.10457549357E+01  0.60463640064E+02 -0.78808564857E+01  0.13916505873E+03  0.12509140777E+03 0.  0.
         24    2    1    2    0    0 -0.32974825070E+01 -0.54963904411E+02  0.30583161627E+03  0.32117496378E+03  0.81169425702E+02 0.  0.
        -11    1    5    5    0    0  0.13854417927E+02 -0.51630771967E+02  0.29666652250E+03  0.30144436814E+03  0.00000000000E+00 0.  1.
         12    1    5    5    0    0 -0.17151900434E+02 -0.33331324437E+01  0.91650937645E+01  0.19730595635E+02  0.00000000000E+00 0. -1.
         13    1    3    3    0    0 -0.18492993197E+02  0.31202360863E+02 -0.45723389907E+02  0.58362715028E+02  0.00000000000E+00 0. -1.
        -14    1    3    3    0    0  0.22836230639E+02 -0.36702096516E+02 -0.53851719984E+02  0.69054652731E+02  0.00000000000E+00 0.  1.
          5    1    4    4  501    0 -0.59142052088E+02  0.53670498856E+02  0.16950123673E+00  0.79973782600E+02  0.41800000000E+01 0.  1.
         -5    1    4    4    0  501  0.58096297152E+02  0.67931412084E+01 -0.80503577225E+01  0.59191276129E+02  0.41800000000E+01 0.  1.
</event>
<event>
11    1  0.7577197E-009  0.1475484E+03  0.7561462E-02  0.1099410E+00
         22   -1    0    0    0    0  0.00000000000E+00  0.00000000000E+00  0.29318718611E+04  0.29318718611E+04  0.00000000000E+00 0.  1.
         22   -1    0    0    0    0 -0.00000000000E+00 -0.00000000000E+00 -0.13688365596E+03  0.13688365596E+03  0.00000000000E+00 0.  1.
        -24    2    1    2    0    0 -0.18310974231E+02  0.65197271953E+02 -0.73973629004E+02  0.12699023465E+03  0.77900230169E+02 0.  0.
         25    2    1    2    0    0  0.32185740670E+01 -0.14001958352E+03  0.21488613970E+03  0.28537531367E+03  0.12508866308E+03 0.  0.
         24    2    1    2    0    0  0.15092400164E+02  0.74822311571E+02  0.26540756945E+04  0.26563899688E+04  0.80397234733E+02 0.  0.
        -13    1    5    5    0    0  0.10674077978E+02  0.63901103659E+02  0.26088714481E+04  0.26096757499E+04  0.00000000000E+00 0.  1.
         14    1    5    5    0    0  0.44183221860E+01  0.10921207911E+02  0.45204246360E+02  0.46714218843E+02  0.00000000000E+00 0. -1.
         13    1    3    3    0    0 -0.38348012412E+02  0.68381019297E+01 -0.15318259252E+02  0.41856645356E+02  0.00000000000E+00 0. -1.
        -14    1    3    3    0    0  0.20037038181E+02  0.58359170024E+02 -0.58655369752E+02  0.85133589292E+02  0.00000000000E+00 0.  1.
          5    1    4    4  501    0 -0.63434310101E+01 -0.11835935083E+02  0.13116729101E+03  0.13191913851E+03  0.41800000000E+01 0. -1.
         -5    1    4    4    0  501  0.95620050771E+01 -0.12818364844E+03  0.83718848689E+02  0.15345617516E+03  0.41800000000E+01 0. -1.
</event>
<event>
11    1  0.7577197E-009  0.1358646E+03  0.7561462E-02  0.1112266E+00
         22   -1    0    0    0    0  0.00000000000E+00  0.00000000000E+00  0.24184234336E+03  0.24184234336E+03  0.00000000000E+00 0. -1.
         22   -1    0    0    0    0 -0.00000000000E+00 -0.00000000000E+00 -0.88904481624E+03  0.88904481624E+03  0.00000000000E+00 0.  1.
         24    2    1    2    0    0  0.56886165337E+02 -0.23245929388E+02 -0.64710904075E+03  0.65517971509E+03  0.82060583802E+02 0.  0.
         25    2    1    2    0    0 -0.20907426571E+02 -0.10532849378E+02 -0.20997580004E+03  0.24553033664E+03  0.12508896118E+03 0.  0.
        -24    2    1    2    0    0 -0.35978738766E+02  0.33778778766E+02  0.20988236791E+03  0.23017710787E+03  0.80594150470E+02 0.  0.
        -11    1    3    3    0    0  0.19799468197E+02  0.25300970112E+02 -0.37121960382E+03  0.37260723596E+03  0.00000000000E+00 0.  1.
         12    1    3    3    0    0  0.37086697140E+02 -0.48546899500E+02 -0.27588943692E+03  0.28257247913E+03  0.00000000000E+00 0. -1.
         11    1    5    5    0    0  0.10469907456E+02  0.32088996231E+02  0.32685535209E+02  0.46985815446E+02  0.00000000000E+00 0. -1.
        -12    1    5    5    0    0 -0.46448646222E+02  0.16897825351E+01  0.17719683270E+03  0.18319129242E+03  0.00000000000E+00 0.  1.
          5    1    4    4  501    0 -0.20517383867E+02 -0.48902181054E+02 -0.19814193352E+03  0.20515868145E+03  0.41800000000E+01 0. -1.
         -5    1    4    4    0  501 -0.39004270476E+00  0.38369331676E+02 -0.11833866511E+02  0.40371655195E+02  0.41800000000E+01 0. -1.
</event>
<event>
11    1  0.1346984E-008  0.1860195E+03  0.7561462E-02  0.1064875E+00
         22   -1    0    0    0    0  0.00000000000E+00  0.00000000000E+00  0.14617202710E+04  0.14617202710E+04  0.00000000000E+00 0.  1.
         22   -1    0    0    0    0 -0.00000000000E+00 -0.00000000000E+00 -0.11700224603E+04  0.11700224603E+04  0.00000000000E+00 0.  1.
         24    2    1    2    0    0  0.34914024727E+00  0.10836763639E+02 -0.10127401995E+04  0.10164788643E+04  0.86423449567E+02 0.  0.
         25    2    1    2    0    0 -0.40225162105E+02  0.12125925140E+03 -0.97809778694E+02  0.20380467902E+03  0.12509086564E+03 0.  0.
        -24    2    1    2    0    0  0.39876021858E+02 -0.13209601504E+03  0.14022477889E+04  0.14114591879E+04  0.82938070499E+02 0.  0.
        -11    1    3    3    0    0 -0.20875807249E+02  0.30748183264E+02 -0.87044605389E+03  0.87123910773E+03  0.00000000000E+00 0.  1.
         12    1    3    3    0    0  0.21224947496E+02 -0.19911419625E+02 -0.14229414561E+03  0.14523975662E+03  0.00000000000E+00 0. -1.
         13    1    5    5    0    0  0.12478955633E+02 -0.10564315843E+02  0.35950768698E+02  0.39494137196E+02  0.00000000000E+00 0. -1.
        -14    1    5    5    0    0  0.27397066225E+02 -0.12153169920E+03  0.13662970202E+04  0.13719650507E+04  0.00000000000E+00 0.  1.
          5    1    4    4  501    0 -0.56078782528E+02  0.14089390486E+03 -0.73713194843E+02  0.16866247291E+03  0.41800000000E+01 0.  1.
         -5    1    4    4    0  501  0.15853620423E+02 -0.19634653455E+02 -0.24096583852E+02  0.35142206108E+02  0.41800000000E+01 0.  1.
</event>
<event>
11    1  0.7577197E-009  0.3104609E+03  0.7561462E-02  0.9958586E-01
         22   -1    0    0    0    0  0.00000000000E+00  0.00000000000E+00  0.24843651228E+04  0.24843651228E+04  0.00000000000E+00 0. -1.
         22   -1    0    0    0    0 -0.00000000000E+00 -0.00000000000E+00 -0.64752889882E+02  0.64752889882E+02  0.00000000000E+00 0. -1.
         24    2    1    2    0    0  0.17156419194E+03 -0.22531723955E+03  0.49962222303E+03  0.57949634608E+03  0.77404902780E+02 0.  0.
         25    2    1    2    0    0 -0.23761932534E+03  0.17567142873E+03  0.15218744888E+04  0.15553368795E+04  0.12508978538E+03 0.  0.
        -24    2    1    2    0    0  0.66055133401E+02  0.49645810814E+02  0.39811552103E+03  0.41428478706E+03  0.79422474922E+02 0.  0.
        -13    1    3    3    0    0  0.10857960559E+03 -0.79003534957E+02  0.22580075737E+03  0.26271100341E+03  0.00000000000E+00 0.  1.
         14    1    3    3    0    0  0.62984586353E+02 -0.14631370459E+03  0.27382146566E+03  0.31678534266E+03  0.00000000000E+00 0. -1.
         11    1    5    5    0    0  0.83442020630E+02  0.42626352253E+02  0.29647603486E+03  0.31093024291E+03  0.00000000000E+00 0. -1.
        -12    1    5    5    0    0 -0.17386887229E+02  0.70194585608E+01  0.10163948617E+03  0.10335454414E+03  0.00000000000E+00 0.  1.
          5    1    4    4  501    0 -0.18377122822E+03  0.10973952009E+03  0.13027006617E+04  0.13201746525E+04  0.41800000000E+01 0. -1.
         -5    1    4    4    0  501 -0.53848097125E+02  0.65931908639E+02  0.21917382711E+03  0.23516222705E+03  0.41800000000E+01 0. -1.
</event>
<event>
11    1  0.7577197E-009  0.2057296E+03  0.7561462E-02  0.1050544E+00
         22   -1    0    0    0    0  0.00000000000E+00  0.00000000000E+00  0.11093455081E+04  0.11093455081E+04  0.00000000000E+00 0. -1.
         22   -1    0    0    0    0 -0.00000000000E+00 -0.00000000000E+00 -0.14673067251E+04  0.14673067251E+04  0.00000000000E+00 0.  1.
         24    2    1    2    0    0  0.12666987773E+03  0.99299751508E+02 -0.12930308018E+04  0.13055492422E+04  0.81390852459E+02 0.  0.
         25    2    1    2    0    0 -0.16121599359E+03 -0.10847253106E+03 -0.85991534286E+02  0.24657461096E+03  0.12509040018E+03 0.  0.
        -24    2    1    2    0    0  0.34546115865E+02  0.91727795486E+01  0.10210611191E+04  0.10245283801E+04  0.76256269033E+02 0.  0.
        -13    1    3    3    0    0  0.11177143751E+03  0.92332558763E+02 -0.85458456848E+03  0.86679463562E+03  0.00000000000E+00 0.  1.
         14    1    3    3    0    0  0.14898440217E+02  0.69671927455E+01 -0.43844623331E+03  0.43875460659E+03  0.00000000000E+00 0. -1.
         11    1    5    5    0    0 -0.52435277443E+01  0.33341682201E+02  0.28401540300E+03  0.28601383095E+03  0.00000000000E+00 0. -1.
        -12    1    5    5    0    0  0.39789643610E+02 -0.24168902652E+02  0.73704571612E+03  0.73851454911E+03  0.00000000000E+00 0.  1.
          5    1    4    4  501    0 -0.66130480654E+02 -0.98177621350E+02 -0.83661808076E+00  0.11844939061E+03  0.41800000000E+01 0.  1.
         -5    1    4    4    0  501 -0.95085512939E+02 -0.10294909707E+02 -0.85154916205E+02  0.12812522035E+03  0.41800000000E+01 0.  1.
</event>
<event>
11    1  0.7577197E-009  0.1463601E+03  0.7561462E-02  0.1100657E+00
         22   -1    0    0    0    0  0.00000000000E+00  0.00000000000E+00  0.13270482489E+04  0.13270482489E+04  0.00000000000E+00 0. -1.
         22   -1    0    0    0    0 -0.00000000000E+00 -0.00000000000E+00 -0.10898318096E+04  0.10898318096E+04  0.00000000000E+00 0. -1.
        -24    2    1    2    0    0  0.26520573375E+02 -0.19369296492E+02 -0.10486571895E+04  0.10521208233E+04  0.78726204487E+02 0.  0.
         25    2    1    2    0    0 -0.48008931758E+02  0.90453713959E+02  0.14033137478E+03  0.21407414214E+03  0.12509241259E+03 0.  0.
         24    2    1    2    0    0  0.21488358383E+02 -0.71084417466E+02  0.11455422540E+04  0.11506850932E+04  0.79337153769E+02 0.  0.
        -11    1    5    5    0    0  0.10282459431E+02 -0.13568716650E+02  0.38536634032E+02  0.42129695062E+02  0.00000000000E+00 0.  1.
         12    1    5    5    0    0  0.11205898952E+02 -0.57515700816E+02  0.11070056200E+04  0.11085553981E+04  0.00000000000E+00 0. -1.
         11    1    3    3    0    0  0.18859300295E+02 -0.33451358468E+02 -0.10029300191E+04  0.10036649290E+04  0.00000000000E+00 0. -1.
        -12    1    3    3    0    0  0.76612730794E+01  0.14082061976E+02 -0.45727170361E+02  0.48455894212E+02  0.00000000000E+00 0.  1.
          5    1    4    4  501    0  0.44185474068E+00  0.22545641428E+02 -0.21832064530E+02  0.31664058878E+02  0.41800000000E+01 0.  1.
         -5    1    4    4    0  501 -0.48450786498E+02  0.67908072531E+02  0.16216343931E+03  0.18241008327E+03  0.41800000000E+01 0.  1.
</event>
<event>
11    1  0.7577197E-009  0.3145220E+03  0.7561462E-02  0.9942258E-01
         22   -1    0    0    0    0  0.00000000000E+00  0.00000000000E+00  0.50894381165E+03  0.50894381165E+03  0.00000000000E+00 0.  1.
         22   -1    0    0    0    0 -0.00000000000E+00 -0.00000000000E+00 -0.37239761298E+03  0.37239761298E+03  0.00000000000E+00 0.  1.
        -24    2    1    2    0    0 -0.96233282141E+02  0.43490045145E+02 -0.23494423464E+02  0.13334378190E+03  0.77950930839E+02 0.  0.
         25    2    1    2    0    0  0.30398500255E+01 -0.31317582184E+03 -0.10072462618E+03  0.35196897087E+03  0.12509344534E+03 0.  0.
         24    2    1    2    0    0  0.93193432116E+02  0.26968577669E+03  0.26076524831E+03  0.39602867185E+03  0.86167048610E+02 0.  0.
        -11    1    5    5    0    0  0.46420658477E+02  0.21964931257E+03  0.16648935125E+03  0.27949848322E+03  0.00000000000E+00 0.  1.
         12    1    5    5    0    0  0.46772773639E+02  0.50036464123E+02  0.94275897062E+02  0.11653018863E+03  0.00000000000E+00 0. -1.
         13    1    3    3    0    0 -0.82803886738E+02  0.63038901491E+02 -0.30792508308E+02  0.10852909899E+03  0.00000000000E+00 0. -1.
        -14    1    3    3    0    0 -0.13429395403E+02 -0.19548856346E+02  0.72980848437E+01  0.24814682906E+02  0.00000000000E+00 0.  1.
          5    1    4    4  501    0 -0.57013197938E+02 -0.11410649988E+03 -0.55314212207E+02  0.13909684585E+03  0.41800000000E+01 0. -1.
         -5    1    4    4    0  501  0.60053047963E+02 -0.19906932195E+03 -0.45410413971E+02  0.21287212502E+03  0.41800000000E+01 0. -1.
</event>
<event>
11    1  0.7577197E-009  0.1394697E+03  0.7561462E-02  0.1108152E+00
         22   -1    0    0    0    0  0.00000000000E+00  0.00000000000E+00  0.10019418263E+03  0.10019418263E+03  0.00000000000E+00 0.  1.
         22   -1    0    0    0    0 -0.00000000000E+00 -0.00000000000E+00 -0.15881902260E+04  0.15881902260E+04  0.00000000000E+00 0. -1.
         24    2    1    2    0    0 -0.20483181681E+02 -0.15963976013E+02 -0.14182575730E+04  0.14207654018E+04  0.80283087193E+02 0.  0.
         25    2    1    2    0    0 -0.21192219145E+02  0.61617820367E+02 -0.86205074722E+02  0.16531100945E+03  0.12510215426E+03 0.  0.
        -24    2    1    2    0    0  0.41675400826E+02 -0.45653844355E+02  0.16466604419E+02  0.10230799739E+03  0.79841497546E+02 0.  0.
        -13    1    3    3    0    0 -0.98925853838E+01  0.29243921078E+02 -0.30946278470E+03  0.31099885093E+03  0.00000000000E+00 0.  1.
         14    1    3    3    0    0 -0.10590596297E+02 -0.45207897091E+02 -0.11087947883E+04  0.11097665508E+04  0.00000000000E+00 0. -1.
         11    1    5    5    0    0 -0.84751970742E+01  0.16199305028E+02 -0.65471344957E+01  0.19419356810E+02  0.00000000000E+00 0. -1.
        -12    1    5    5    0    0  0.50150597900E+02 -0.61853149382E+02  0.23013738914E+02  0.82888640579E+02  0.00000000000E+00 0.  1.
          5    1    4    4  501    0 -0.16644512052E+02  0.49107514561E+02  0.21803974493E+02  0.56404551869E+02  0.41800000000E+01 0. -1.
         -5    1    4    4    0  501 -0.45477070928E+01  0.12510305806E+02 -0.10800904922E+03  0.10890645758E+03  0.41800000000E+01 0. -1.
</event>
<event>
11    1  0.7577197E-009  0.1989857E+03  0.7561462E-02  0.1055243E+00
         22   -1    0    0    0    0  0.00000000000E+00  0.00000000000E+00  0.59479641967E+03  0.59479641967E+03  0.00000000000E+00 0. -1.
         22   -1    0    0    0    0 -0.00000000000E+00 -0.00000000000E+00 -0.13267991774E+03  0.13267991774E+03  0.00000000000E+00 0.  1.
         24    2    1    2    0    0  0.13370728598E+03 -0.73001967758E+02 -0.13919693094E+02  0.17021288117E+03  0.74644098489E+02 0.  0.
         25    2    1    2    0    0 -0.16105658643E+03  0.46126975008E+02  0.27559052774E+03  0.34592621767E+03  0.12509151545E+03 0.  0.
        -24    2    1    2    0    0  0.27349300449E+02  0.26874992750E+02  0.20044566728E+03  0.21133723857E+03  0.54906405850E+02 0.  0.
        -13    1    3    3    0    0  0.11581869882E+03 -0.45996044859E+02 -0.37509345834E+02  0.13014053237E+03  0.00000000000E+00 0.  1.
         14    1    3    3    0    0  0.17888587155E+02 -0.27005922900E+02  0.23589652740E+02  0.40072348802E+02  0.00000000000E+00 0. -1.
         13    1    5    5    0    0  0.39658623610E+02  0.15317298512E+02  0.89151385561E+02  0.98769406234E+02  0.00000000000E+00 0. -1.
        -14    1    5    5    0    0 -0.12309323161E+02  0.11557694238E+02  0.11129428172E+03  0.11256783233E+03  0.00000000000E+00 0.  1.
          5    1    4    4  501    0 -0.88567193839E+02  0.74101065665E+02  0.96090658544E+02  0.15028640263E+03  0.41800000000E+01 0.  1.
         -5    1    4    4    0  501 -0.72489392589E+02 -0.27974090657E+02  0.17949986920E+03  0.19563981504E+03  0.41800000000E+01 0.  1.
</event>
<event>
11    1  0.7577197E-009  0.1615645E+03  0.7561462E-02  0.1085615E+00
         22   -1    0    0    0    0  0.00000000000E+00  0.00000000000E+00  0.19103155472E+03  0.19103155472E+03  0.00000000000E+00 0.  1.
         22   -1    0    0    0    0 -0.00000000000E+00 -0.00000000000E+00 -0.51947334409E+03  0.51947334409E+03  0.00000000000E+00 0.  1.
         24    2    1    2    0    0 -0.53616954361E+02  0.96639900694E+02 -0.40917230389E+03  0.43110573178E+03  0.78842434645E+02 0.  0.
         25    2    1    2    0    0  0.64677343658E+02 -0.12826312015E+02  0.12268034467E+02  0.14193635849E+03  0.12509097541E+03 0.  0.
        -24    2    1    2    0    0 -0.11060389296E+02 -0.83813588679E+02  0.68462480062E+02  0.13746280854E+03  0.84034889752E+02 0.  0.
        -13    1    3    3    0    0 -0.42803463489E+02  0.69868425893E+02 -0.38448078770E+03  0.39311475364E+03  0.00000000000E+00 0.  1.
         14    1    3    3    0    0 -0.10813490873E+02  0.26771474801E+02 -0.24691516195E+02  0.37990978138E+02  0.00000000000E+00 0. -1.
         11    1    5    5    0    0  0.49997947842E+01 -0.10399788663E+02 -0.18950244135E+02  0.22187052641E+02  0.00000000000E+00 0. -1.
        -12    1    5    5    0    0 -0.16060184081E+02 -0.73413800017E+02  0.87412724197E+02  0.11527575589E+03  0.00000000000E+00 0.  1.
          5    1    4    4  501    0 -0.34088106934E+02  0.16653013022E+02  0.54550602428E+01  0.38555829122E+02  0.41800000000E+01 0. -1.
         -5    1    4    4    0  501  0.98765450591E+02 -0.29479325037E+02  0.68129742240E+01  0.10338052937E+03  0.41800000000E+01 0. -1.
</event>
<event>
11    1  0.7577197E-009  0.1864376E+03  0.7561462E-02  0.1064551E+00
         22   -1    0    0    0    0  0.00000000000E+00  0.00000000000E+00  0.13708913338E+04  0.13708913338E+04  0.00000000000E+00 0. -1.
         22   -1    0    0    0    0 -0.00000000000E+00 -0.00000000000E+00 -0.32615231996E+04  0.32615231996E+04  0.00000000000E+00 0.  1.
        -24    2    1    2    0    0 -0.10932363057E+01 -0.27274320044E+02 -0.29622403091E+04  0.29635128056E+04  0.82434314920E+02 0.  0.
         25    2    1    2    0    0 -0.73240729783E+02  0.14341759155E+03 -0.25849625902E+03  0.32923902740E+03  0.12508081854E+03 0.  0.
         24    2    1    2    0    0  0.74333966089E+02 -0.11614327151E+03  0.13301047024E+04  0.13396627003E+04  0.80640146783E+02 0.  0.
        -11    1    5    5    0    0  0.21150970141E+02 -0.88063725131E+02  0.56657048253E+03  0.57376362284E+03  0.00000000000E+00 0.  1.
         12    1    5    5    0    0  0.53182995948E+02 -0.28079546376E+02  0.76353421986E+03  0.76589907747E+03  0.00000000000E+00 0. -1.
         13    1    3    3    0    0 -0.36648263639E+02 -0.14582093333E+02 -0.82830617476E+03  0.82924474784E+03  0.00000000000E+00 0. -1.
        -14    1    3    3    0    0  0.35555027333E+02 -0.12692226710E+02 -0.21339341344E+04  0.21342680578E+04  0.00000000000E+00 0.  1.
          5    1    4    4  501    0  0.84024249967E+01  0.68185883221E+02 -0.18137722025E+03  0.19399763875E+03  0.41800000000E+01 0. -1.
         -5    1    4    4    0  501 -0.81643154780E+02  0.75231708330E+02 -0.77119038776E+02  0.13524138864E+03  0.41800000000E+01 0. -1.
</event>
<event>
11    1  0.7577197E-009  0.1998072E+03  0.7561462E-02  0.1054660E+00
         22   -1    0    0    0    0  0.00000000000E+00  0.00000000000E+00  0.78129839723E+03  0.78129839723E+03  0.00000000000E+00 0.  1.
         22   -1    0    0    0    0 -0.00000000000E+00 -0.00000000000E+00 -0.10886867312E+03  0.10886867312E+03  0.00000000000E+00 0. -1.
        -24    2    1    2    0    0 -0.17053770981E+02 -0.16797333014E+03  0.39358495389E+02  0.19085256397E+03  0.79810646368E+02 0.  0.
         25    2    1    2    0    0 -0.16788743468E+02  0.10007662413E+03  0.49723712965E+03  0.52266320994E+03  0.12503949502E+03 0.  0.
         24    2    1    2    0    0  0.33842514450E+02  0.67896706012E+02  0.13583409907E+03  0.17665129644E+03  0.83663012090E+02 0.  0.
        -11    1    5    5    0    0  0.18532220377E+02  0.41562254618E+02  0.13877720713E+03  0.14604786003E+03  0.00000000000E+00 0.  1.
         12    1    5    5    0    0  0.15310294073E+02  0.26334451394E+02 -0.29431080617E+01  0.30603436406E+02  0.00000000000E+00 0. -1.
         13    1    3    3    0    0 -0.28284208489E+02 -0.14292414747E+03  0.35588739155E+01  0.14573940429E+03  0.00000000000E+00 0. -1.
        -14    1    3    3    0    0  0.11230437508E+02 -0.25049182673E+02  0.35799621473E+02  0.45113159686E+02  0.00000000000E+00 0.  1.
          5    1    4    4  501    0 -0.60361576383E+02  0.98967643300E+02  0.33020098727E+03  0.34998325491E+03  0.41800000000E+01 0.  1.
         -5    1    4    4    0  501  0.43572832915E+02  0.11089808269E+01  0.16703614238E+03  0.17267995502E+03  0.41800000000E+01 0.  1.
</event>
<event>
11    1  0.7577197E-009  0.3123890E+03  0.7561462E-02  0.9950801E-01
         22   -1    0    0    0    0  0.00000000000E+00  0.00000000000E+00  0.42793081550E+03  0.42793081550E+03  0.00000000000E+00 0.  1.
         22   -1    0    0    0    0 -0.00000000000E+00 -0.00000000000E+00 -0.20171522830E+04  0.20171522830E+04  0.00000000000E+00 0.  1.
        -24    2    1    2    0    0 -0.12308395633E+03 -0.27739521732E+03 -0.17301910343E+04  0.17584518364E+04  0.80585847459E+02 0.  0.
         25    2    1    2    0    0  0.14178400981E+03  0.16706413524E+03 -0.19792911536E+03  0.32067659308E+03  0.12507762360E+03 0.  0.
         24    2    1    2    0    0 -0.18700053479E+02  0.11033108208E+03  0.33889868218E+03  0.36595466902E+03  0.80918868744E+02 0.  0.
        -11    1    5    5    0    0 -0.22421580296E+02  0.10461956395E+01  0.11015044230E+03  0.11241415270E+03  0.00000000000E+00 0.  1.
         12    1    5    5    0    0  0.37215268171E+01  0.10928488644E+03  0.22874823988E+03  0.25354051631E+03  0.00000000000E+00 0. -1.
         11    1    3    3    0    0 -0.21926463966E+02 -0.36755249634E+02 -0.12378389640E+03  0.13097393331E+03  0.00000000000E+00 0. -1.
        -12    1    3    3    0    0 -0.10115749236E+03 -0.24063996769E+03 -0.16064071379E+04  0.16274779031E+04  0.00000000000E+00 0.  1.
          5    1    4    4  501    0  0.56842903157E+02  0.13643273746E+03 -0.68873453954E+02  0.16311355722E+03  0.41800000000E+01 0.  1.
         -5    1    4    4    0  501  0.84941106650E+02  0.30631397779E+02 -0.12905566140E+03  0.15756303586E+03  0.41800000000E+01 0.  1.
</event>
<event>
11    1  0.7577197E-009  0.1566380E+03  0.7561462E-02  0.1090283E+00
         22   -1    0    0    0    0  0.00000000000E+00  0.00000000000E+00  0.31442937489E+03  0.31442937489E+03  0.00000000000E+00 0.  1.
         22   -1    0    0    0    0 -0.00000000000E+00 -0.00000000000E+00 -0.31666252803E+04  0.31666252803E+04  0.00000000000E+00 0. -1.
        -24    2    1    2    0    0  0.45048596475E+02 -0.84214578671E+02 -0.28004667923E+04  0.28032831900E+04  0.81614440977E+02 0.  0.
         25    2    1    2    0    0  0.79011026900E+01  0.93094090548E+02 -0.33975807829E+03  0.37391341781E+03  0.12508699027E+03 0.  0.
         24    2    1    2    0    0 -0.52949699165E+02 -0.88795118778E+01  0.28802896520E+03  0.30385804741E+03  0.80538883823E+02 0.  0.
        -11    1    5    5    0    0 -0.59193415974E+02 -0.11088059218E+02  0.29058439377E+03  0.29675932244E+03  0.00000000000E+00 0.  1.
         12    1    5    5    0    0  0.62437168095E+01  0.22085473397E+01 -0.25554285728E+01  0.70987249658E+01  0.00000000000E+00 0. -1.
         13    1    3    3    0    0  0.56897151182E+02 -0.92123966351E+02 -0.26277499463E+04  0.26299798272E+04  0.00000000000E+00 0. -1.
        -14    1    3    3    0    0 -0.11848554707E+02  0.79093876807E+01 -0.17271684601E+03  0.17330336280E+03  0.00000000000E+00 0.  1.
          5    1    4    4  501    0  0.55677744647E+02  0.91764231994E+02 -0.25098982496E+03  0.27300924921E+03  0.41800000000E+01 0.  1.
         -5    1    4    4    0  501 -0.47776641957E+02  0.13298585542E+01 -0.88768253334E+02  0.10090416860E+03  0.41800000000E+01 0.  1.
</event>
<event>
11    1  0.7577197E-009  0.1778959E+03  0.7561462E-02  0.1071358E+00
         22   -1    0    0    0    0  0.00000000000E+00  0.00000000000E+00  0.13715319539E+03  0.13715319539E+03  0.00000000000E+00 0.  1.
         22   -1    0    0    0    0 -0.00000000000E+00 -0.00000000000E+00 -0.27060315385E+04  0.27060315385E+04  0.00000000000E+00 0.  1.
         24    2    1    2    0    0 -0.17786502541E+02  0.47765965997E+02 -0.21071912892E+04  0.21097733860E+04  0.91053080389E+02 0.  0.
         25    2    1    2    0    0  0.11636100491E+03  0.33531999615E+02 -0.53598026265E+03  0.56354576208E+03  0.12507879735E+03 0.  0.
        -24    2    1    2    0    0 -0.98574502370E+02 -0.81297965612E+02  0.74293208794E+02  0.16986558585E+03  0.83717051140E+02 0.  0.
        -13    1    3    3    0    0  0.23084329899E+02  0.55052248405E+02 -0.14844362784E+04  0.14856361267E+04  0.00000000000E+00 0.  1.
         14    1    3    3    0    0 -0.40870832440E+02 -0.72862824079E+01 -0.62275501081E+03  0.62413725922E+03  0.00000000000E+00 0. -1.
         11    1    5    5    0    0  0.24708576180E+01  0.12933718263E+02  0.13684503974E+02  0.18990836066E+02  0.00000000000E+00 0. -1.
        -12    1    5    5    0    0 -0.10104535999E+03 -0.94231683875E+02  0.60608704819E+02  0.15087474978E+03  0.00000000000E+00 0.  1.
          5    1    4    4  501    0  0.10841463031E+03 -0.20128586765E+02 -0.43571098541E+03  0.44946682556E+03  0.41800000000E+01 0.  1.
         -5    1    4    4    0  501  0.79463746024E+01  0.53660586380E+02 -0.10026927724E+03  0.11407893652E+03  0.41800000000E+01 0.  1.
</event>
<event>
11    1  0.7577197E-009  0.1450386E+03  0.7561462E-02  0.1102059E+00
         22   -1    0    0    0    0  0.00000000000E+00  0.00000000000E+00  0.14723843646E+03  0.14723843646E+03  0.00000000000E+00 0.  1.
         22   -1    0    0    0    0 -0.00000000000E+00 -0.00000000000E+00 -0.64686052245E+03  0.64686052245E+03  0.00000000000E+00 0.  1.
        -24    2    1    2    0    0  0.39754556836E+02 -0.55422280391E+02 -0.46755733238E+03  0.47922561471E+03  0.79970474445E+02 0.  0.
         25    2    1    2    0    0 -0.66337552301E+02 -0.19510404929E+02 -0.10783328704E+03  0.17904347506E+03  0.12508885411E+03 0.  0.
         24    2    1    2    0    0  0.26582995465E+02  0.74932685320E+02  0.75768533427E+02  0.13582986913E+03  0.79920708914E+02 0.  0.
        -11    1    5    5    0    0  0.39420366718E+02  0.59813546877E+02  0.87267452150E+02  0.11290364878E+03  0.00000000000E+00 0.  1.
         12    1    5    5    0    0 -0.12837371253E+02  0.15119138443E+02 -0.11498918723E+02  0.22926220355E+02  0.00000000000E+00 0. -1.
         11    1    3    3    0    0  0.25453457653E+02 -0.54843013616E+02 -0.15551012508E+03  0.16685033309E+03  0.00000000000E+00 0. -1.
        -12    1    3    3    0    0  0.14301099183E+02 -0.57926677584E+00 -0.31204720730E+03  0.31237528162E+03  0.00000000000E+00 0.  1.
          5    1    4    4  501    0 -0.14798112378E+02  0.34041126413E+02  0.10893569572E+02  0.38909184975E+02  0.41800000000E+01 0. -1.
         -5    1    4    4    0  501 -0.51539439923E+02 -0.53551531341E+02 -0.11872685661E+03  0.14013429008E+03  0.41800000000E+01 0. -1.
</event>
<event>
11    1  0.7577197E-009  0.1276503E+03  0.7561462E-02  0.1122190E+00
         22   -1    0    0    0    0  0.00000000000E+00  0.00000000000E+00  0.37083178901E+03  0.37083178901E+03  0.00000000000E+00 0. -1.
         22   -1    0    0    0    0 -0.00000000000E+00 -0.00000000000E+00 -0.41562264262E+03  0.41562264262E+03  0.00000000000E+00 0.  1.
         24    2    1    2    0    0 -0.38226235744E+00  0.35104489014E+02 -0.23205051830E+03  0.25264549541E+03  0.93540536843E+02 0.  0.
         25    2    1    2    0    0 -0.20334724764E+02 -0.57668891795E+00 -0.14266076450E+03  0.19082305596E+03  0.12509001302E+03 0.  0.
        -24    2    1    2    0    0  0.20716987121E+02 -0.34527800096E+02  0.32992042920E+03  0.34298588025E+03  0.84678580009E+02 0.  0.
        -11    1    3    3    0    0  0.36426741707E+02 -0.10557612823E+01 -0.15954398168E+03  0.16365299946E+03  0.00000000000E+00 0.  1.
         12    1    3    3    0    0 -0.36809004064E+02  0.36160250296E+02 -0.72506536624E+02  0.88992495947E+02  0.00000000000E+00 0. -1.
         13    1    5    5    0    0  0.22279681392E+02 -0.59930578990E+02  0.27672653080E+03  0.28401695609E+03  0.00000000000E+00 0. -1.
        -14    1    5    5    0    0 -0.15626942705E+01  0.25402778894E+02  0.53193898400E+02  0.58968924155E+02  0.00000000000E+00 0.  1.
          5    1    4    4  501    0  0.49513614338E+02 -0.20255607970E+02 -0.68008441964E+02  0.86628564789E+02  0.41800000000E+01 0. -1.
         -5    1    4    4    0  501 -0.69848339102E+02  0.19678919052E+02 -0.74652322540E+02  0.10419449117E+03  0.41800000000E+01 0. -1.
</event>
<event>
11    1  0.7577197E-009  0.2335710E+03  0.7561462E-02  0.1033034E+00
         22   -1    0    0    0    0  0.00000000000E+00  0.00000000000E+00  0.20751314637E+04  0.20751314637E+04  0.00000000000E+00 0.  1.
         22   -1    0    0    0    0 -0.00000000000E+00 -0.00000000000E+00 -0.10873831362E+04  0.10873831362E+04  0.00000000000E+00 0.  1.
         24    2    1    2    0    0 -0.66709327129E+02  0.18665881491E+03 -0.10403118904E+04  0.10620248830E+04  0.79726879338E+02 0.  0.
         25    2    1    2    0    0  0.91162876986E+01 -0.17450794221E+03  0.29695609763E+03  0.36656042004E+03  0.12508992376E+03 0.  0.
        -24    2    1    2    0    0  0.57593039430E+02 -0.12150872698E+02  0.17311041202E+04  0.17339292969E+04  0.79528169680E+02 0.  0.
        -13    1    3    3    0    0 -0.51176000169E+02  0.14065754137E+03 -0.92307703140E+03  0.93513353743E+03  0.00000000000E+00 0.  1.
         14    1    3    3    0    0 -0.15533326960E+02  0.46001273537E+02 -0.11723485898E+03  0.12689134554E+03  0.00000000000E+00 0. -1.
         11    1    5    5    0    0  0.11085745744E+02  0.30089415617E+02  0.37418501048E+03  0.37555650542E+03  0.00000000000E+00 0. -1.
        -12    1    5    5    0    0  0.46507293686E+02 -0.42240288315E+02  0.13569191097E+04  0.13583727915E+04  0.00000000000E+00 0.  1.
          5    1    4    4  501    0 -0.31832498212E+02  0.18556737242E+01  0.62654548785E+02  0.70425963613E+02  0.41800000000E+01 0.  1.
         -5    1    4    4    0  501  0.40948785910E+02 -0.17636361593E+03  0.23430154885E+03  0.29613445643E+03  0.41800000000E+01 0.  1.
</event>
<event>
11    1  0.7577197E-009  0.1632754E+03  0.7561462E-02  0.1084036E+00
         22   -1    0    0    0    0  0.00000000000E+00  0.00000000000E+00  0.23679275205E+03  0.23679275205E+03  0.00000000000E+00 0.  1.
         22   -1    0    0    0    0 -0.00000000000E+00 -0.00000000000E+00 -0.15959905368E+04  0.15959905368E+04  0.00000000000E+00 0.  1.
         24    2    1    2    0    0  0.10346928920E+03 -0.97704342179E+01 -0.12644670743E+04  0.12711969756E+04  0.79141732229E+02 0.  0.
         25    2    1    2    0    0 -0.11297990152E+03 -0.12872538681E+02 -0.29777979913E+03  0.34241823991E+03  0.12508909566E+03 0.  0.
        -24    2    1    2    0    0  0.95106123181E+01  0.22642972899E+02  0.20304908865E+03  0.21916807329E+03  0.78756307576E+02 0.  0.
        -11    1    3    3    0    0  0.40034370959E+02 -0.14029945308E+01 -0.91784735166E+03  0.91872111122E+03  0.00000000000E+00 0.  1.
         12    1    3    3    0    0  0.63434918239E+02 -0.83674396871E+01 -0.34661972261E+03  0.35247586442E+03  0.00000000000E+00 0. -1.
         13    1    5    5    0    0  0.19289038479E+02 -0.15860301158E+02  0.20390556569E+02  0.32239586776E+02  0.00000000000E+00 0. -1.
        -14    1    5    5    0    0 -0.97784261611E+01  0.38503274057E+02  0.18265853208E+03  0.18692848652E+03  0.00000000000E+00 0.  1.
          5    1    4    4  501    0 -0.13943972679E+03 -0.20807115012E+02 -0.25199190800E+03  0.28877979074E+03  0.41800000000E+01 0. -1.
         -5    1    4    4    0  501  0.26459825275E+02  0.79345763310E+01 -0.45787891135E+02  0.53638449173E+02  0.41800000000E+01 0. -1.
</event>
<event>
11    1  0.7577197E-009  0.2128442E+03  0.7561462E-02  0.1045795E+00
         22   -1    0    0    0    0  0.00000000000E+00  0.00000000000E+00  0.10314491557E+04  0.10314491557E+04  0.00000000000E+00 0.  1.
         22   -1    0    0    0    0 -0.00000000000E+00 -0.00000000000E+00 -0.11787230961E+04  0.11787230961E+04  0.00000000000E+00 0. -1.
         24    2    1    2    0    0  0.35614557497E+01 -0.16656013019E+03 -0.95057829968E+03  0.96879636896E+03  0.84925495245E+02 0.  0.
         25    2    1    2    0    0 -0.36244835717E+02  0.21652965498E+03 -0.14282062396E+03  0.29024942775E+03  0.12509284584E+03 0.  0.
        -24    2    1    2    0    0  0.32683379967E+02 -0.49969524781E+02  0.94612498328E+03  0.95112645512E+03  0.76966829974E+02 0.  0.
        -13    1    3    3    0    0 -0.22742039165E+01  0.90851999905E+01 -0.88014872868E+02  0.88511754634E+02  0.00000000000E+00 0.  1.
         14    1    3    3    0    0  0.58356596662E+01 -0.17564533019E+03 -0.86256342681E+03  0.88028461432E+03  0.00000000000E+00 0. -1.
         11    1    5    5    0    0 -0.95246022364E+01  0.14088401046E+02  0.29657197186E+03  0.29705914493E+03  0.00000000000E+00 0. -1.
        -12    1    5    5    0    0  0.42207982204E+02 -0.64057925827E+02  0.64955301142E+03  0.65406731020E+03  0.00000000000E+00 0.  1.
          5    1    4    4  501    0 -0.75937924447E+02  0.17072349298E+03 -0.13130856826E+03  0.22841298545E+03  0.41800000000E+01 0.  1.
         -5    1    4    4    0  501  0.39693088730E+02  0.45806161996E+02 -0.11512055703E+02  0.61836442299E+02  0.41800000000E+01 0.  1.
</event>
<event>
11    1  0.7577197E-009  0.1402369E+03  0.7561462E-02  0.1107294E+00
         22   -1    0    0    0    0  0.00000000000E+00  0.00000000000E+00  0.14067167065E+04  0.14067167065E+04  0.00000000000E+00 0. -1.
         22   -1    0    0    0    0 -0.00000000000E+00 -0.00000000000E+00 -0.22122656825E+03  0.22122656825E+03  0.00000000000E+00 0.  1.
        -24    2    1    2    0    0  0.24897955194E+02  0.51001915992E+02 -0.18507683628E+03  0.20987750160E+03  0.81080372120E+02 0.  0.
         25    2    1    2    0    0 -0.71917715622E+02 -0.63579422660E+01  0.22187645758E+03  0.26474383898E+03  0.12509019386E+03 0.  0.
         24    2    1    2    0    0  0.47019760428E+02 -0.44643973726E+02  0.11486905170E+04  0.11533219342E+04  0.80359429172E+02 0.  0.
        -13    1    5    5    0    0 -0.14099577139E+02 -0.29469983558E+01  0.47192434154E+02  0.49341754288E+02  0.00000000000E+00 0.  1.
         14    1    5    5    0    0  0.61119337567E+02 -0.41696975370E+02  0.11014980828E+04  0.11039801799E+04  0.00000000000E+00 0. -1.
         13    1    3    3    0    0  0.32314461320E+02  0.67600559132E+02 -0.11330170699E+03  0.13583569786E+03  0.00000000000E+00 0. -1.
        -14    1    3    3    0    0 -0.74165061257E+01 -0.16598643140E+02 -0.71775129284E+02  0.74041803739E+02  0.00000000000E+00 0.  1.
          5    1    4    4  501    0  0.92331864975E+01 -0.11270760224E+02  0.16438580874E+03  0.16508315567E+03  0.41800000000E+01 0. -1.
         -5    1    4    4    0  501 -0.81150902119E+02  0.49128179584E+01  0.57490648841E+02  0.99660683317E+02  0.41800000000E+01 0. -1.
</event>
<event>
11    1  0.7577197E-009  0.3252415E+03  0.7561462E-02  0.9900403E-01
         22   -1    0    0    0    0  0.00000000000E+00  0.00000000000E+00  0.21470467297E+03  0.21470467297E+03  0.00000000000E+00 0. -1.
         22   -1    0    0    0    0 -0.00000000000E+00 -0.00000000000E+00 -0.13941520317E+04  0.13941520317E+04  0.00000000000E+00 0.  1.
        -24    2    1    2    0    0  0.18137561582E+03 -0.22399660625E+03 -0.94995593516E+03  0.99585841288E+03  0.79032310694E+02 0.  0.
         25    2    1    2    0    0 -0.22326708778E+03  0.26222402207E+03 -0.31419013039E+03  0.48266694312E+03  0.12506921968E+03 0.  0.
         24    2    1    2    0    0  0.41891471960E+02 -0.38227415820E+02  0.84698706763E+02  0.13033134872E+03  0.81216739589E+02 0.  0.
        -11    1    5    5    0    0  0.83578335706E+01  0.19450588245E+02  0.51767337935E+02  0.55928848030E+02  0.00000000000E+00 0.  1.
         12    1    5    5    0    0  0.33533638389E+02 -0.57678004065E+02  0.32931368828E+02  0.74402500693E+02  0.00000000000E+00 0. -1.
         11    1    3    3    0    0  0.33152501184E+02 -0.75657541813E+02 -0.37129587937E+03  0.38037321410E+03  0.00000000000E+00 0. -1.
        -12    1    3    3    0    0  0.14822311464E+03 -0.14833906444E+03 -0.57866005579E+03  0.61548519878E+03  0.00000000000E+00 0.  1.
          5    1    4    4  501    0 -0.17054514183E+03  0.10661538241E+03 -0.18949408721E+03  0.27636563943E+03  0.41800000000E+01 0. -1.
         -5    1    4    4    0  501 -0.52721945954E+02  0.15560863966E+03 -0.12469604317E+03  0.20630130369E+03  0.41800000000E+01 0. -1.
</event>
<event>
11    1  0.7577197E-009  0.2033904E+03  0.7561462E-02  0.1052152E+00
         22   -1    0    0    0    0  0.00000000000E+00  0.00000000000E+00  0.39929313448E+03  0.39929313448E+03  0.00000000000E+00 0.  1.
         22   -1    0    0    0    0 -0.00000000000E+00 -0.00000000000E+00 -0.58565056016E+03  0.58565056016E+03  0.00000000000E+00 0.  1.
         24    2    1    2    0    0 -0.95778292632E+02  0.10349014821E+03 -0.29912675817E+03  0.34055940949E+03  0.81364622682E+02 0.  0.
         25    2    1    2    0    0  0.27928985534E+02  0.75091731002E+02 -0.21186134992E+03  0.25875626568E+03  0.12510306607E+03 0.  0.
        -24    2    1    2    0    0  0.67849307097E+02 -0.17858187921E+03  0.32463068241E+03  0.38562801948E+03  0.82636997710E+02 0.  0.
        -13    1    3    3    0    0 -0.46369397004E+01  0.62827369178E+02 -0.11515060891E+03  0.13125716079E+03  0.00000000000E+00 0.  1.
         14    1    3    3    0    0 -0.91141352931E+02  0.40662779027E+02 -0.18397614926E+03  0.20930224870E+03  0.00000000000E+00 0. -1.
         13    1    5    5    0    0  0.33416476948E+00 -0.14875769593E+02  0.92372413252E+02  0.93563149354E+02  0.00000000000E+00 0. -1.
        -14    1    5    5    0    0  0.67515142328E+02 -0.16370610961E+03  0.23225826916E+03  0.29206487012E+03  0.00000000000E+00 0.  1.
          5    1    4    4  501    0  0.54433865330E+02  0.60313306158E+01 -0.15766903000E+03  0.16696232529E+03  0.41800000000E+01 0.  1.
         -5    1    4    4    0  501 -0.26504879796E+02  0.69060400386E+02 -0.54192319917E+02  0.91793940391E+02  0.41800000000E+01 0.  1.
</event>
<event>
11    1  0.7577197E-009  0.1354621E+03  0.7561462E-02  0.1112734E+00
         22   -1    0    0    0    0  0.00000000000E+00  0.00000000000E+00  0.64717364734E+03  0.64717364734E+03  0.00000000000E+00 0. -1.
         22   -1    0    0    0    0 -0.00000000000E+00 -0.00000000000E+00 -0.10678769958E+04  0.10678769958E+04  0.00000000000E+00 0.  1.
         24    2    1    2    0    0  0.17624332340E+02 -0.23530879130E+02 -0.86660823074E+03  0.87072071855E+03  0.79249130960E+02 0.  0.
         25    2    1    2    0    0  0.24042656587E+02 -0.83319405628E+01 -0.17500884784E+03  0.21662075968E+03  0.12509590774E+03 0.  0.
        -24    2    1    2    0    0 -0.41666988927E+02  0.31862819693E+02  0.62091373012E+03  0.62770916492E+03  0.75720262988E+02 0.  0.
        -13    1    3    3    0    0 -0.58635085085E+01  0.25335733418E+02 -0.16676917402E+03  0.16878458911E+03  0.00000000000E+00 0.  1.
         14    1    3    3    0    0  0.23487840848E+02 -0.48866612548E+02 -0.69983905673E+03  0.70193612944E+03  0.00000000000E+00 0. -1.
         13    1    5    5    0    0 -0.42278065230E+02  0.50293878585E+02  0.56557547202E+03  0.56937906844E+03  0.00000000000E+00 0. -1.
        -14    1    5    5    0    0  0.61107630346E+00 -0.18431058892E+02  0.55338258094E+02  0.58330096477E+02  0.00000000000E+00 0.  1.
          5    1    4    4  501    0  0.48875271367E+02 -0.53747659062E+02 -0.78577343556E+02  0.10709563169E+03  0.41800000000E+01 0.  1.
         -5    1    4    4    0  501 -0.24832614780E+02  0.45415718499E+02 -0.96431504280E+02  0.10952512799E+03  0.41800000000E+01 0.  1.
</event>
<event>
11    1  0.7577197E-009  0.1859862E+03  0.7561462E-02  0.1064901E+00
         22   -1    0    0    0    0  0.00000000000E+00  0.00000000000E+00  0.49278808650E+02  0.49278808650E+02  0.00000000000E+00 0.  1.
         22   -1    0    0    0    0 -0.00000000000E+00 -0.00000000000E+00 -0.25880508633E+04  0.25880508633E+04  0.00000000000E+00 0. -1.
        -24    2    1    2    0    0  0.39541321359E+02 -0.42971004174E+02 -0.13170183385E+04  0.13208298517E+04  0.81511778668E+02 0.  0.
         25    2    1    2    0    0 -0.13132409940E+03  0.13498176347E+03 -0.10906218552E+04  0.11138085034E+04  0.12508899142E+03 0.  0.
         24    2    1    2    0    0  0.91782778043E+02 -0.92010759296E+02 -0.13113186102E+03  0.20269131680E+03  0.83654926702E+02 0.  0.
        -11    1    5    5    0    0  0.86726055673E+02 -0.10027035977E+03 -0.89518756528E+02  0.15996612626E+03  0.00000000000E+00 0.  1.
         12    1    5    5    0    0  0.50567223694E+01  0.82596004775E+01 -0.41613104491E+02  0.42725190539E+02  0.00000000000E+00 0. -1.
         11    1    3    3    0    0  0.33853880225E+01 -0.53757294907E+02 -0.10205165787E+04  0.10219370798E+04  0.00000000000E+00 0. -1.
        -12    1    3    3    0    0  0.36155933337E+02  0.10786290734E+02 -0.29650175974E+03  0.29889277193E+03  0.00000000000E+00 0.  1.
          5    1    4    4  501    0  0.45644225939E+01  0.19599706136E+02 -0.20851183627E+02  0.29278433921E+02  0.41800000000E+01 0.  1.
         -5    1    4    4    0  501 -0.13588852200E+03  0.11538205733E+03 -0.10697706715E+04  0.10845300695E+04  0.41800000000E+01 0.  1.
</event>
<event>
11    1  0.7577197E-009  0.1701590E+03  0.7561462E-02  0.1077893E+00
         22   -1    0    0    0    0  0.00000000000E+00  0.00000000000E+00  0.69702257295E+03  0.69702257295E+03  0.00000000000E+00 0. -1.
         22   -1    0    0    0    0 -0.00000000000E+00 -0.00000000000E+00 -0.81863104417E+03  0.81863104417E+03  0.00000000000E+00 0. -1.
        -24    2    1    2    0    0  0.98666485320E+02 -0.55472927457E+02 -0.71178646377E+03  0.72463710140E+03  0.75144112979E+02 0.  0.
         25    2    1    2    0    0 -0.18085140145E+03 -0.48883752377E+00  0.36564474155E+02  0.22291677267E+03  0.12508980134E+03 0.  0.
         24    2    1    2    0    0  0.82184916132E+02  0.55961764981E+02  0.55361351839E+03  0.56809974306E+03  0.79770362533E+02 0.  0.
        -11    1    5    5    0    0  0.21577845527E+01  0.29604526049E+02  0.28599316116E+03  0.28752942845E+03  0.00000000000E+00 0.  1.
         12    1    5    5    0    0  0.80027131580E+02  0.26357238932E+02  0.26762035723E+03  0.28057031460E+03  0.00000000000E+00 0. -1.
         13    1    3    3    0    0  0.39114034250E+02 -0.60836894728E+02 -0.47193152284E+03  0.47744151232E+03  0.00000000000E+00 0. -1.
        -14    1    3    3    0    0  0.59552451069E+02  0.53639672714E+01 -0.23985494093E+03  0.24719558908E+03  0.00000000000E+00 0.  1.
          5    1    4    4  501    0 -0.17275678378E+03  0.27666467971E+02 -0.11077280911E+01  0.17501154034E+03  0.41800000000E+01 0. -1.
         -5    1    4    4    0  501 -0.80946176769E+01 -0.28155305495E+02  0.37672202246E+02  0.47905232333E+02  0.41800000000E+01 0. -1.
</event>
<event>
11    1  0.7577197E-009  0.1376678E+03  0.7561462E-02  0.1110191E+00
         22   -1    0    0    0    0  0.00000000000E+00  0.00000000000E+00  0.47428222979E+03  0.47428222979E+03  0.00000000000E+00 0. -1.
         22   -1    0    0    0    0 -0.00000000000E+00 -0.00000000000E+00 -0.14887163383E+03  0.14887163383E+03  0.00000000000E+00 0. -1.
        -24    2    1    2    0    0 -0.36227080305E+02  0.27987303154E+02 -0.82038816528E+02  0.12329893040E+03  0.79853417799E+02 0.  0.
         25    2    1    2    0    0  0.83429721619E+02 -0.22615710300E+01  0.11051290448E+03  0.18661943994E+03  0.12509228654E+03 0.  0.
         24    2    1    2    0    0 -0.47202641314E+02 -0.25725732124E+02  0.29693650801E+03  0.31323549329E+03  0.83995725076E+02 0.  0.
        -13    1    5    5    0    0 -0.39173123102E+02  0.49693916329E+00  0.44393521399E+02  0.59207814217E+02  0.00000000000E+00 0.  1.
         14    1    5    5    0    0 -0.80295182113E+01 -0.26222671287E+02  0.25254298661E+03  0.25402767908E+03  0.00000000000E+00 0. -1.
         11    1    3    3    0    0 -0.57080645451E+02  0.16707142282E+02 -0.79741702887E+02  0.99478982040E+02  0.00000000000E+00 0. -1.
        -12    1    3    3    0    0  0.20853565146E+02  0.11280160872E+02 -0.22971136406E+01  0.23819948356E+02  0.00000000000E+00 0.  1.
          5    1    4    4  501    0  0.57982630057E+02  0.41221185063E+02  0.11560851978E+03  0.13580859226E+03  0.41800000000E+01 0. -1.
         -5    1    4    4    0  501  0.25447091562E+02 -0.43482756093E+02 -0.50956152926E+01  0.50810847677E+02  0.41800000000E+01 0. -1.
</event>
<event>
11    1  0.7577197E-009  0.1751094E+03  0.7561462E-02  0.1073669E+00
         22   -1    0    0    0    0  0.00000000000E+00  0.00000000000E+00  0.12323371746E+03  0.12323371746E+03  0.00000000000E+00 0.  1.
         22   -1    0    0    0    0 -0.00000000000E+00 -0.00000000000E+00 -0.91001891560E+03  0.91001891560E+03  0.00000000000E+00 0. -1.
         24    2    1    2    0    0  0.34025928200E+02 -0.10604851361E+03 -0.53571448414E+03  0.55307390836E+03  0.80602038218E+02 0.  0.
         25    2    1    2    0    0 -0.13683529676E+01  0.17278630909E+03 -0.29362972775E+03  0.36293674560E+03  0.12509070025E+03 0.  0.
        -24    2    1    2    0    0 -0.32657575233E+02 -0.66737795479E+02  0.42559013760E+02  0.11724197909E+03  0.80087211485E+02 0.  0.
        -13    1    3    3    0    0  0.18600361755E+02  0.49456332205E+01 -0.34701153976E+02  0.39681265512E+02  0.00000000000E+00 0.  1.
         14    1    3    3    0    0  0.15425566446E+02 -0.11099414683E+03 -0.50101333017E+03  0.51339264285E+03  0.00000000000E+00 0. -1.
         11    1    5    5    0    0 -0.13084862972E+02 -0.22675418112E+02 -0.23689085243E+02  0.35306670548E+02  0.00000000000E+00 0. -1.
        -12    1    5    5    0    0 -0.19572712260E+02 -0.44062377367E+02  0.66248099003E+02  0.81935308542E+02  0.00000000000E+00 0.  1.
          5    1    4    4  501    0 -0.10482183953E+02  0.11049615376E+02 -0.13584943068E+03  0.13676443396E+03  0.41800000000E+01 0.  1.
         -5    1    4    4    0  501  0.91138309855E+01  0.16173669372E+03 -0.15778029707E+03  0.22617231164E+03  0.41800000000E+01 0.  1.
</event>
<event>
11    1  0.7577197E-009  0.1645878E+03  0.7561462E-02  0.1082840E+00
         22   -1    0    0    0    0  0.00000000000E+00  0.00000000000E+00  0.13026578082E+04  0.13026578082E+04  0.00000000000E+00 0. -1.
         22   -1    0    0    0    0 -0.00000000000E+00 -0.00000000000E+00 -0.39287876829E+03  0.39287876829E+03  0.00000000000E+00 0.  1.
        -24    2    1    2    0    0  0.89939453957E+02  0.63620818324E+02 -0.26727882718E+03  0.29995775514E+03  0.79999809413E+02 0.  0.
         25    2    1    2    0    0 -0.97655466952E+02 -0.24843886681E+02 -0.47699534405E+02  0.16753956717E+03  0.12506179294E+03 0.  0.
         24    2    1    2    0    0  0.77160129949E+01 -0.38776931643E+02  0.12247574015E+04  0.12280392542E+04  0.80538996757E+02 0.  0.
        -11    1    5    5    0    0  0.14994441859E+02  0.20706931770E+02  0.21684927583E+03  0.21835113634E+03  0.00000000000E+00 0.  1.
         12    1    5    5    0    0 -0.72784288645E+01 -0.59483863413E+02  0.10079081257E+04  0.10096881179E+04  0.00000000000E+00 0. -1.
         13    1    3    3    0    0 -0.10513649153E+02 -0.76314002114E+01 -0.25827030079E+02  0.28910388624E+02  0.00000000000E+00 0. -1.
        -14    1    3    3    0    0  0.10045310311E+03  0.71252218535E+02 -0.24145179710E+03  0.27104736651E+03  0.00000000000E+00 0.  1.
          5    1    4    4  501    0 -0.11301965145E+02  0.30838077679E+02  0.25097718012E+02  0.41546230881E+02  0.41800000000E+01 0.  1.
         -5    1    4    4    0  501 -0.86353501807E+02 -0.55681964360E+02 -0.72797252417E+02  0.12599333629E+03  0.41800000000E+01 0.  1.
</event>
<event>
11    1  0.7577197E-009  0.1672947E+03  0.7561462E-02  0.1080410E+00
         22   -1    0    0    0    0  0.00000000000E+00  0.00000000000E+00  0.41454990349E+04  0.41454990349E+04  0.00000000000E+00 0.  1.
         22   -1    0    0    0    0 -0.00000000000E+00 -0.00000000000E+00 -0.10492117037E+04  0.10492117037E+04  0.00000000000E+00 0.  1.
         24    2    1    2    0    0 -0.11442661219E+02  0.39586961574E+02 -0.10272361077E+04  0.10311506791E+04  0.79747351147E+02 0.  0.
         25    2    1    2    0    0  0.11691234157E+03 -0.45296267545E+01  0.37211659750E+03  0.40964669047E+03  0.12510250099E+03 0.  0.
        -24    2    1    2    0    0 -0.10546968035E+03 -0.35057334820E+02  0.37514068415E+04  0.37539133691E+04  0.80370530374E+02 0.  0.
        -13    1    3    3    0    0  0.17008699472E+02  0.36196136340E+02 -0.89278880922E+03  0.89368412429E+03  0.00000000000E+00 0.  1.
         14    1    3    3    0    0 -0.28451360691E+02  0.33908252339E+01 -0.13444729847E+03  0.13746655479E+03  0.00000000000E+00 0. -1.
         13    1    5    5    0    0 -0.61899030035E+02  0.16006603820E+02  0.12807763121E+04  0.12823711097E+04  0.00000000000E+00 0. -1.
        -14    1    5    5    0    0 -0.43570650318E+02 -0.51063938639E+02  0.24706305293E+04  0.24715422594E+04  0.00000000000E+00 0.  1.
          5    1    4    4  501    0  0.43763580480E+02 -0.21509158874E+02  0.30482014437E+03  0.30872429076E+03  0.41800000000E+01 0.  1.
         -5    1    4    4    0  501  0.73148761092E+02  0.16979532119E+02  0.67296453123E+02  0.10092239971E+03  0.41800000000E+01 0.  1.
</event>
<event>
11    1  0.1112765E-008  0.1952412E+03  0.7561462E-02  0.1057941E+00
         22   -1    0    0    0    0  0.00000000000E+00  0.00000000000E+00  0.10845394502E+04  0.10845394502E+04  0.00000000000E+00 0.  1.
         22   -1    0    0    0    0 -0.00000000000E+00 -0.00000000000E+00 -0.26662300646E+03  0.26662300646E+03  0.00000000000E+00 0.  1.
        -24    2    1    2    0    0 -0.95275556989E+02 -0.14191487473E+02 -0.12932726344E+03  0.17900894419E+03  0.77716349339E+02 0.  0.
         25    2    1    2    0    0  0.14510982748E+03  0.15216466020E+03  0.37922402311E+02  0.24758018433E+03  0.12508754227E+03 0.  0.
         24    2    1    2    0    0 -0.49834270494E+02 -0.13797317272E+03  0.90932130489E+03  0.92457332816E+03  0.80315333011E+02 0.  0.
        -13    1    5    5    0    0 -0.45348152347E+02 -0.13920615206E+03  0.90801299616E+03  0.91974040298E+03  0.00000000000E+00 0.  1.
         14    1    5    5    0    0 -0.44861181467E+01  0.12329793345E+01  0.13083087366E+01  0.48329251821E+01  0.00000000000E+00 0. -1.
         13    1    3    3    0    0 -0.52979760930E+02 -0.15650024097E+02 -0.15212374290E+02  0.57299168004E+02  0.00000000000E+00 0. -1.
        -14    1    3    3    0    0 -0.42295796059E+02  0.14585366238E+01 -0.11411488915E+03  0.12170977618E+03  0.00000000000E+00 0.  1.
          5    1    4    4  501    0  0.19473677771E+02 -0.17466039784E+02 -0.14275024389E+02  0.30092115130E+02  0.41800000000E+01 0.  1.
         -5    1    4    4    0  501  0.12563614971E+03  0.16963069998E+03  0.52197426700E+02  0.21748806920E+03  0.41800000000E+01 0.  1.
</event>
<event>
11    1  0.7577197E-009  0.1305074E+03  0.7561462E-02  0.1118647E+00
         22   -1    0    0    0    0  0.00000000000E+00  0.00000000000E+00  0.11252643674E+04  0.11252643674E+04  0.00000000000E+00 0. -1.
         22   -1    0    0    0    0 -0.00000000000E+00 -0.00000000000E+00 -0.29134719304E+03  0.29134719304E+03  0.00000000000E+00 0. -1.
         24    2    1    2    0    0 -0.17149613856E+02  0.26124807535E+02 -0.26751695205E+03  0.28045901516E+03  0.78200541719E+02 0.  0.
         25    2    1    2    0    0 -0.22063790691E+02 -0.27882281835E+02  0.26823016696E+03  0.29809264867E+03  0.12509025631E+03 0.  0.
        -24    2    1    2    0    0  0.39213404547E+02  0.17574742997E+01  0.83320395949E+03  0.83805989665E+03  0.81084970647E+02 0.  0.
        -11    1    3    3    0    0 -0.26715287894E+02  0.96078918287E+01 -0.26978580703E+02  0.39164550418E+02  0.00000000000E+00 0.  1.
         12    1    3    3    0    0  0.95656740376E+01  0.16516915707E+02 -0.24053837135E+03  0.24129446474E+03  0.00000000000E+00 0. -1.
         11    1    5    5    0    0  0.58707239677E+02 -0.18052297000E+02  0.62460770715E+03  0.62762027791E+03  0.00000000000E+00 0. -1.
        -12    1    5    5    0    0 -0.19493835129E+02  0.19809771299E+02  0.20859625234E+03  0.21043961874E+03  0.00000000000E+00 0.  1.
          5    1    4    4  501    0  0.19185865746E+02  0.34765170157E+02  0.16888609327E+03  0.17354163593E+03  0.41800000000E+01 0. -1.
         -5    1    4    4    0  501 -0.41249656437E+02 -0.62647451992E+02  0.99344073689E+02  0.12455101274E+03  0.41800000000E+01 0. -1.
</event>
<event>
11    1  0.7577197E-009  0.1364816E+03  0.7561462E-02  0.1111552E+00
         22   -1    0    0    0    0  0.00000000000E+00  0.00000000000E+00  0.41433479856E+03  0.41433479856E+03  0.00000000000E+00 0. -1.
         22   -1    0    0    0    0 -0.00000000000E+00 -0.00000000000E+00 -0.68334927017E+03  0.68334927017E+03  0.00000000000E+00 0.  1.
         24    2    1    2    0    0  0.10542003690E+02  0.36461036150E+02 -0.64434219130E+03  0.65067000959E+03  0.82183093719E+02 0.  0.
         25    2    1    2    0    0  0.51256632388E+01  0.27672200922E+02  0.13907481345E+03  0.18915767378E+03  0.12508716436E+03 0.  0.
        -24    2    1    2    0    0 -0.15667666929E+02 -0.64133237073E+02  0.23625290625E+03  0.25785638536E+03  0.79472837331E+02 0.  0.
        -11    1    3    3    0    0 -0.64117908333E+01  0.29349734465E+02 -0.61694466551E+03  0.61767567402E+03  0.00000000000E+00 0.  1.
         12    1    3    3    0    0  0.16953794524E+02  0.71113016856E+01 -0.27397525794E+02  0.32994335575E+02  0.00000000000E+00 0. -1.
         13    1    5    5    0    0 -0.42498491748E+02 -0.42830206750E+02  0.19558998675E+03  0.20468510285E+03  0.00000000000E+00 0. -1.
        -14    1    5    5    0    0  0.26830824818E+02 -0.21303030322E+02  0.40662919500E+02  0.53171282509E+02  0.00000000000E+00 0.  1.
          5    1    4    4  501    0 -0.94681695057E+01  0.76426481511E+02  0.81773563400E+02  0.11240569995E+03  0.41800000000E+01 0. -1.
         -5    1    4    4    0  501  0.14593832744E+02 -0.48754280588E+02  0.57301250046E+02  0.76751973829E+02  0.41800000000E+01 0. -1.
</event>
<event>
11    1  0.7577197E-009  0.1584378E+03  0.7561462E-02  0.1088556E+00
         22   -1    0    0    0    0  0.00000000000E+00  0.00000000000E+00  0.72885905148E+03  0.72885905148E+03  0.00000000000E+00 0. -1.
         22   -1    0    0    0    0 -0.00000000000E+00 -0.00000000000E+00 -0.53597858870E+03  0.53597858870E+03  0.00000000000E+00 0. -1.
        -24    2    1    2    0    0  0.37522234545E+01  0.10161059606E+03 -0.49549741812E+03  0.51214646949E+03  0.80234172468E+02 0.  0.
         25    2    1    2    0    0  0.11575977153E+02 -0.14819773218E+02  0.12942752300E+03  0.18097636971E+03  0.12508930312E+03 0.  0.
         24    2    1    2    0    0 -0.15328200607E+02 -0.86790822840E+02  0.55895035790E+03  0.57171480100E+03  0.81637677695E+02 0.  0.
        -11    1    5    5    0    0  0.10110775393E+02 -0.73471225547E+00  0.65418830088E+01  0.12064982985E+02  0.00000000000E+00 0.  1.
         12    1    5    5    0    0 -0.25438976000E+02 -0.86056110584E+02  0.55240847489E+03  0.55964981801E+03  0.00000000000E+00 0. -1.
         11    1    3    3    0    0  0.67817239083E+01  0.92241128296E+02 -0.49350837364E+03  0.50210052020E+03  0.00000000000E+00 0. -1.
        -12    1    3    3    0    0 -0.30295004537E+01  0.93694677615E+01 -0.19890444761E+01  0.10045949286E+02  0.00000000000E+00 0.  1.
          5    1    4    4  501    0 -0.32411596888E+02 -0.20315992546E+02  0.13088691824E+03  0.13642620325E+03  0.41800000000E+01 0. -1.
         -5    1    4    4    0  501  0.43987574041E+02  0.54962193286E+01 -0.14593952401E+01  0.44550166457E+02  0.41800000000E+01 0. -1.
</event>
<event>
11    1  0.7577197E-009  0.1349345E+03  0.7561462E-02  0.1113351E+00
         22   -1    0    0    0    0  0.00000000000E+00  0.00000000000E+00  0.30053310551E+04  0.30053310551E+04  0.00000000000E+00 0.  1.
         22   -1    0    0    0    0 -0.00000000000E+00 -0.00000000000E+00 -0.60908225721E+03  0.60908225721E+03  0.00000000000E+00 0. -1.
         24    2    1    2    0    0  0.26416487627E+02 -0.43241666393E+02 -0.60040601166E+03  0.60754618463E+03  0.77828754898E+02 0.  0.
         25    2    1    2    0    0  0.72007800658E+00  0.36153023708E+02  0.98675913326E+03  0.99531307520E+03  0.12508785295E+03 0.  0.
        -24    2    1    2    0    0 -0.27136565634E+02  0.70886426847E+01  0.20098956763E+04  0.20115540525E+04  0.76697030161E+02 0.  0.
        -13    1    3    3    0    0 -0.17628350878E+02 -0.22432478441E+02 -0.81321925873E+02  0.86181381234E+02  0.00000000000E+00 0.  1.
         14    1    3    3    0    0  0.44044838505E+02 -0.20809187952E+02 -0.51908408578E+03  0.52136480339E+03  0.00000000000E+00 0. -1.
         11    1    5    5    0    0 -0.10518581028E+02 -0.29814550896E+01  0.37464028815E+02  0.39026696969E+02  0.00000000000E+00 0. -1.
        -12    1    5    5    0    0 -0.16617984606E+02  0.10070097774E+02  0.19724316475E+04  0.19725273555E+04  0.00000000000E+00 0.  1.
          5    1    4    4  501    0  0.17669862867E+02  0.34951970027E+02  0.88330955512E+02  0.96714499245E+02  0.41800000000E+01 0.  1.
         -5    1    4    4    0  501 -0.16949784861E+02  0.12010536808E+01  0.89842817775E+03  0.89859857595E+03  0.41800000000E+01 0.  1.
</event>
<event>
11    1  0.7577197E-009  0.1776397E+03  0.7561462E-02  0.1071568E+00
         22   -1    0    0    0    0  0.00000000000E+00  0.00000000000E+00  0.10351673867E+03  0.10351673867E+03  0.00000000000E+00 0.  1.
         22   -1    0    0    0    0 -0.00000000000E+00 -0.00000000000E+00 -0.22223819673E+04  0.22223819673E+04  0.00000000000E+00 0. -1.
         24    2    1    2    0    0 -0.76867183937E+02 -0.33671009452E+02 -0.15454696660E+04  0.15499383670E+04  0.82402379518E+02 0.  0.
         25    2    1    2    0    0  0.17049993097E+03  0.10598025873E+03 -0.58704633441E+03  0.63290870475E+03  0.12509191863E+03 0.  0.
        -24    2    1    2    0    0 -0.93632747035E+02 -0.72309249277E+02  0.13650771791E+02  0.14305163420E+03  0.79257224463E+02 0.  0.
        -13    1    3    3    0    0  0.13437751813E+02 -0.92551458479E+01 -0.50735822022E+03  0.50762052217E+03  0.00000000000E+00 0.  1.
         14    1    3    3    0    0 -0.90304935750E+02 -0.24415863604E+02 -0.10381114458E+04  0.10423178449E+04  0.00000000000E+00 0. -1.
         11    1    5    5    0    0 -0.83765301698E+02 -0.16850896055E+02  0.14772890119E+02  0.86711110873E+02  0.00000000000E+00 0. -1.
        -12    1    5    5    0    0 -0.98674453369E+01 -0.55458353222E+02 -0.11221183281E+01  0.56340523330E+02  0.00000000000E+00 0.  1.
          5    1    4    4  501    0  0.95751458347E+02  0.38292469485E+02 -0.45582106902E+03  0.46735957715E+03  0.41800000000E+01 0. -1.
         -5    1    4    4    0  501  0.74748472624E+02  0.67687789244E+02 -0.13122526539E+03  0.16554912760E+03  0.41800000000E+01 0. -1.
</event>
<event>
11    1  0.7577197E-009  0.1761291E+03  0.7561462E-02  0.1072818E+00
         22   -1    0    0    0    0  0.00000000000E+00  0.00000000000E+00  0.77985219260E+03  0.77985219260E+03  0.00000000000E+00 0.  1.
         22   -1    0    0    0    0 -0.00000000000E+00 -0.00000000000E+00 -0.51097836209E+03  0.51097836209E+03  0.00000000000E+00 0.  1.
         24    2    1    2    0    0 -0.12575585266E+03  0.28032477557E+02 -0.45726119293E+03  0.48197783693E+03  0.81329468567E+02 0.  0.
         25    2    1    2    0    0  0.58691659221E+02 -0.45833779495E+02  0.10700429514E+03  0.18067078714E+03  0.12508624202E+03 0.  0.
        -24    2    1    2    0    0  0.67064193438E+02  0.17801301938E+02  0.61913072830E+03  0.62818193061E+03  0.80468545570E+02 0.  0.
        -11    1    3    3    0    0 -0.42365871348E+02  0.16773006614E+02 -0.30165435506E+03  0.30507630313E+03  0.00000000000E+00 0.  1.
         12    1    3    3    0    0 -0.83389981311E+02  0.11259470943E+02 -0.15560683788E+03  0.17690153380E+03  0.00000000000E+00 0. -1.
         13    1    5    5    0    0  0.33941876251E+02  0.48523048343E+02  0.40775869917E+03  0.41203603475E+03  0.00000000000E+00 0. -1.
        -14    1    5    5    0    0  0.33122317187E+02 -0.30721746405E+02  0.21137202913E+03  0.21614589585E+03  0.00000000000E+00 0.  1.
          5    1    4    4  501    0  0.23021615774E+02 -0.40708167013E+02  0.12965988394E+03  0.13789962856E+03  0.41800000000E+01 0. -1.
         -5    1    4    4    0  501  0.35670043447E+02 -0.51256124817E+01 -0.22655588795E+02  0.42771158582E+02  0.41800000000E+01 0. -1.
</event>
<event>
11    1  0.7577197E-009  0.1271734E+03  0.7561462E-02  0.1122791E+00
         22   -1    0    0    0    0  0.00000000000E+00  0.00000000000E+00  0.38917150896E+03  0.38917150896E+03  0.00000000000E+00 0.  1.
         22   -1    0    0    0    0 -0.00000000000E+00 -0.00000000000E+00 -0.10557130637E+04  0.10557130637E+04  0.00000000000E+00 0.  1.
        -24    2    1    2    0    0  0.21443674403E+02  0.79016272988E+01 -0.95491191087E+03  0.95937387484E+03  0.89550026952E+02 0.  0.
         25    2    1    2    0    0 -0.20527281152E+02 -0.13438409483E+02 -0.50653993752E+02  0.13717202735E+03  0.12509347658E+03 0.  0.
         24    2    1    2    0    0 -0.91639325090E+00  0.55367821843E+01  0.33902434990E+03  0.34833867045E+03  0.79817440302E+02 0.  0.
        -11    1    5    5    0    0  0.20322026170E+02 -0.23013073649E+02  0.63570409902E+02  0.70595915757E+02  0.00000000000E+00 0.  1.
         12    1    5    5    0    0 -0.21238419421E+02  0.28549855834E+02  0.27545393999E+03  0.27774275469E+03  0.00000000000E+00 0. -1.
         11    1    3    3    0    0  0.20065392797E+02  0.47256399723E+02 -0.44726580197E+03  0.45020271536E+03  0.00000000000E+00 0. -1.
        -12    1    3    3    0    0  0.13782816064E+01 -0.39354772424E+02 -0.50764610889E+03  0.50917115948E+03  0.00000000000E+00 0.  1.
          5    1    4    4  501    0 -0.33112889833E+02 -0.23444091693E+02 -0.87618180756E+02  0.96646297950E+02  0.41800000000E+01 0. -1.
         -5    1    4    4    0  501  0.12585608681E+02  0.10005682210E+02  0.36964187005E+02  0.40525729398E+02  0.41800000000E+01 0. -1.
</event>
<event>
11    1  0.7577197E-009  0.1286473E+03  0.7561462E-02  0.1120942E+00
         22   -1    0    0    0    0  0.00000000000E+00  0.00000000000E+00  0.99564267045E+02  0.99564267045E+02  0.00000000000E+00 0.  1.
         22   -1    0    0    0    0 -0.00000000000E+00 -0.00000000000E+00 -0.34563146135E+04  0.34563146135E+04  0.00000000000E+00 0. -1.
        -24    2    1    2    0    0 -0.17713443233E+02  0.13227389056E+02 -0.31932399624E+04  0.31943292654E+04  0.80431761918E+02 0.  0.
         25    2    1    2    0    0 -0.12162374205E+02 -0.22253595779E+02 -0.22178463005E+03  0.25588599087E+03  0.12508426091E+03 0.  0.
         24    2    1    2    0    0  0.29875817438E+02  0.90262067231E+01  0.58274246041E+02  0.10566362424E+03  0.82431043062E+02 0.  0.
        -13    1    5    5    0    0  0.15400473109E+02 -0.35930898238E+02  0.37135206327E+02  0.53918712606E+02  0.00000000000E+00 0.  1.
         14    1    5    5    0    0  0.14475344329E+02  0.44957104961E+02  0.21139039714E+02  0.51744911633E+02  0.00000000000E+00 0. -1.
         13    1    3    3    0    0  0.14500841520E+01 -0.27677047025E+02 -0.20642128427E+04  0.20643988911E+04  0.00000000000E+00 0. -1.
        -14    1    3    3    0    0 -0.19163527385E+02  0.40904436081E+02 -0.11290271198E+04  0.11299303743E+04  0.00000000000E+00 0.  1.
          5    1    4    4  501    0  0.17103593848E+02 -0.59588976749E+02 -0.18660660191E+03  0.19667962616E+03  0.41800000000E+01 0. -1.
         -5    1    4    4    0  501 -0.29265968053E+02  0.37335380970E+02 -0.35178028139E+02  0.59206364709E+02  0.41800000000E+01 0. -1.
</event>
<event>
11    1  0.7577197E-009  0.1922224E+03  0.7561462E-02  0.1060164E+00
         22   -1    0    0    0    0  0.00000000000E+00  0.00000000000E+00  0.85546601201E+03  0.85546601201E+03  0.00000000000E+00 0. -1.
         22   -1    0    0    0    0 -0.00000000000E+00 -0.00000000000E+00 -0.44488083170E+03  0.44488083170E+03  0.00000000000E+00 0.  1.
        -24    2    1    2    0    0 -0.12735189593E+03 -0.72312595351E+02 -0.40456537390E+03  0.43773966208E+03  0.80593133390E+02 0.  0.
         25    2    1    2    0    0  0.12145641484E+03  0.55819840931E+02  0.40563702321E+03  0.44503507489E+03  0.12508919994E+03 0.  0.
         24    2    1    2    0    0  0.58954810944E+01  0.16492754421E+02  0.40951353100E+03  0.41757210674E+03  0.79739354194E+02 0.  0.
        -11    1    5    5    0    0  0.33804424433E+02  0.34333420083E+02  0.22382333881E+03  0.22895067119E+03  0.00000000000E+00 0.  1.
         12    1    5    5    0    0 -0.27908943338E+02 -0.17840665662E+02  0.18569019219E+03  0.18862143554E+03  0.00000000000E+00 0. -1.
         13    1    3    3    0    0 -0.25936434399E+01  0.67824219157E+01 -0.89173698729E+02  0.89468859266E+02  0.00000000000E+00 0. -1.
        -14    1    3    3    0    0 -0.12475825249E+03 -0.79095017267E+02 -0.31539167517E+03  0.34827080281E+03  0.00000000000E+00 0.  1.
          5    1    4    4  501    0  0.56861588593E+02 -0.28646378236E+02  0.79287287204E+02  0.10177328508E+03  0.41800000000E+01 0. -1.
         -5    1    4    4    0  501  0.64594826243E+02  0.84466219167E+02  0.32634973600E+03  0.34326178982E+03  0.41800000000E+01 0. -1.
</event>
<event>
11    1  0.7577197E-009  0.1388778E+03  0.7561462E-02  0.1108818E+00
         22   -1    0    0    0    0  0.00000000000E+00  0.00000000000E+00  0.35465303881E+03  0.35465303881E+03  0.00000000000E+00 0.  1.
         22   -1    0    0    0    0 -0.00000000000E+00 -0.00000000000E+00 -0.30921546773E+03  0.30921546773E+03  0.00000000000E+00 0. -1.
        -24    2    1    2    0    0  0.11414966724E+02  0.55224591579E+02 -0.22579195645E+03  0.24613980149E+03  0.80141982116E+02 0.  0.
         25    2    1    2    0    0 -0.18003105479E+02  0.12170694847E+02  0.68634730143E+00  0.12696565270E+03  0.12509024052E+03 0.  0.
         24    2    1    2    0    0  0.65881387548E+01 -0.67395286426E+02  0.27054318022E+03  0.29076305236E+03  0.82243614007E+02 0.  0.
        -11    1    5    5    0    0 -0.16083230130E+02 -0.36630526289E+02  0.23562421483E+03  0.23899631036E+03  0.00000000000E+00 0.  1.
         12    1    5    5    0    0  0.22671368884E+02 -0.30764760137E+02  0.34918965389E+02  0.51766741999E+02  0.00000000000E+00 0. -1.
         11    1    3    3    0    0  0.90457728242E+01  0.49711768266E+02 -0.23203966136E+03  0.23747734703E+03  0.00000000000E+00 0. -1.
        -12    1    3    3    0    0  0.23691939002E+01  0.55128233128E+01  0.62477049056E+01  0.86624544560E+01  0.00000000000E+00 0.  1.
          5    1    4    4  501    0 -0.26049781143E+02 -0.86183101299E+01  0.58561120263E+02  0.64805428580E+02  0.41800000000E+01 0.  1.
         -5    1    4    4    0  501  0.80466756634E+01  0.20789004977E+02 -0.57874772961E+02  0.62160224119E+02  0.41800000000E+01 0.  1.
</event>
<event>
11    1  0.7577197E-009  0.1298847E+03  0.7561462E-02  0.1119411E+00
         22   -1    0    0    0    0  0.00000000000E+00  0.00000000000E+00  0.10393849096E+04  0.10393849096E+04  0.00000000000E+00 0.  1.
         22   -1    0    0    0    0 -0.00000000000E+00 -0.00000000000E+00 -0.10403503178E+03  0.10403503178E+03  0.00000000000E+00 0. -1.
        -24    2    1    2    0    0  0.48094864447E+01  0.14122096535E+02 -0.59204434359E+02  0.99426763801E+02  0.78472616509E+02 0.  0.
         25    2    1    2    0    0 -0.74605392777E+01 -0.47679618230E+02  0.17804892791E+03  0.22287809801E+03  0.12507685717E+03 0.  0.
         24    2    1    2    0    0  0.26510528330E+01  0.33557521695E+02  0.81650538430E+03  0.82111507961E+03  0.80098664263E+02 0.  0.
        -13    1    5    5    0    0  0.16067583266E+02  0.29208518573E+02  0.12217212261E+03  0.12663858943E+03  0.00000000000E+00 0.  1.
         14    1    5    5    0    0 -0.13416530433E+02  0.43490031220E+01  0.69433326169E+03  0.69447649018E+03  0.00000000000E+00 0. -1.
         13    1    3    3    0    0  0.29725357023E+01  0.35471858079E+02  0.90939891970E+00  0.35607803786E+02  0.00000000000E+00 0. -1.
        -14    1    3    3    0    0  0.18369507424E+01 -0.21349761543E+02 -0.60113833278E+02  0.63818960015E+02  0.00000000000E+00 0.  1.
          5    1    4    4  501    0 -0.39910597850E+02 -0.66186672421E+02  0.56994217793E+02  0.96121510021E+02  0.41800000000E+01 0. -1.
         -5    1    4    4    0  501  0.32450058572E+02  0.18507054191E+02  0.12105471012E+03  0.12675658799E+03  0.41800000000E+01 0. -1.
</event>
<event>
11    1  0.7577197E-009  0.1442624E+03  0.7561462E-02  0.1102890E+00
         22   -1    0    0    0    0  0.00000000000E+00  0.00000000000E+00  0.29799418385E+03  0.29799418385E+03  0.00000000000E+00 0.  1.
         22   -1    0    0    0    0 -0.00000000000E+00 -0.00000000000E+00 -0.23522486678E+03  0.23522486678E+03  0.00000000000E+00 0. -1.
        -24    2    1    2    0    0 -0.17000218060E+01  0.11618341159E+02 -0.98979520840E+02  0.11370728740E+03  0.54722259966E+02 0.  0.
         25    2    1    2    0    0 -0.14486115255E+02  0.59499468927E+02 -0.75668595612E+02  0.15850173688E+03  0.12508808854E+03 0.  0.
         24    2    1    2    0    0  0.16186137061E+02 -0.71117810086E+02  0.23741743352E+03  0.26101002635E+03  0.80246259548E+02 0.  0.
        -11    1    5    5    0    0  0.40981703209E+02 -0.10336379173E+02  0.80654289023E+02  0.91057427319E+02  0.00000000000E+00 0.  1.
         12    1    5    5    0    0 -0.24795566148E+02 -0.60781430912E+02  0.15676314450E+03  0.16995259903E+03  0.00000000000E+00 0. -1.
         13    1    3    3    0    0 -0.86410039745E+00  0.23729091708E+02 -0.98750942417E+02  0.10156557040E+03  0.00000000000E+00 0. -1.
        -14    1    3    3    0    0 -0.83592140850E+00 -0.12110750549E+02 -0.22857842301E+00  0.12141716994E+02  0.00000000000E+00 0.  1.
          5    1    4    4  501    0 -0.21033578098E+02  0.90972942518E+02 -0.83298265332E+02  0.12519808739E+03  0.41800000000E+01 0.  1.
         -5    1    4    4    0  501  0.65474628429E+01 -0.31473473592E+02  0.76296697203E+01  0.33303649494E+02  0.41800000000E+01 0.  1.
</event>
<event>
11    1  0.7577197E-009  0.1878307E+03  0.7561462E-02  0.1063479E+00
         22   -1    0    0    0    0  0.00000000000E+00  0.00000000000E+00  0.10849293645E+04  0.10849293645E+04  0.00000000000E+00 0. -1.
         22   -1    0    0    0    0 -0.00000000000E+00 -0.00000000000E+00 -0.12752985491E+04  0.12752985491E+04  0.00000000000E+00 0.  1.
        -24    2    1    2    0    0 -0.14031014403E+03  0.61496970581E+01 -0.11874109533E+04  0.11984342488E+04  0.81087122230E+02 0.  0.
         25    2    1    2    0    0  0.13492212017E+03  0.98308258303E+02  0.62342022799E+02  0.21771742389E+03  0.12508339897E+03 0.  0.
         24    2    1    2    0    0  0.53880238583E+01 -0.10445795536E+03  0.93469974585E+03  0.94407624089E+03  0.81705804505E+02 0.  0.
        -13    1    5    5    0    0 -0.28844633910E+02 -0.83675747137E+01  0.25552765171E+03  0.25728663004E+03  0.00000000000E+00 0.  1.
         14    1    5    5    0    0  0.34232657768E+02 -0.96090380647E+02  0.67917209414E+03  0.68678961085E+03  0.00000000000E+00 0. -1.
         13    1    3    3    0    0 -0.34228700555E+02  0.19158629537E+02 -0.13422127592E+03  0.13983564616E+03  0.00000000000E+00 0. -1.
        -14    1    3    3    0    0 -0.10608144347E+03 -0.13008932478E+02 -0.10531896774E+04  0.10585986026E+04  0.00000000000E+00 0.  1.
          5    1    4    4  501    0  0.14922593642E+03  0.51773455869E+02  0.59270868405E+02  0.16875834520E+03  0.41800000000E+01 0. -1.
         -5    1    4    4    0  501 -0.14303816253E+02  0.46534802434E+02  0.30711543940E+01  0.48959078692E+02  0.41800000000E+01 0. -1.
</event>
<event>
11    1  0.7577197E-009  0.3233326E+03  0.7561462E-02  0.9907729E-01
         22   -1    0    0    0    0  0.00000000000E+00  0.00000000000E+00  0.16871085031E+04  0.16871085031E+04  0.00000000000E+00 0. -1.
         22   -1    0    0    0    0 -0.00000000000E+00 -0.00000000000E+00 -0.45337399403E+03  0.45337399403E+03  0.00000000000E+00 0.  1.
         24    2    1    2    0    0  0.43146129847E+02 -0.89541566429E+02 -0.23155306300E+03  0.27076006030E+03  0.99070220703E+02 0.  0.
         25    2    1    2    0    0 -0.29323550533E+03  0.23958890754E+03  0.26740649740E+02  0.39969894101E+03  0.12511704479E+03 0.  0.
        -24    2    1    2    0    0  0.25008937548E+03 -0.15004734111E+03  0.14385469223E+04  0.14700234958E+04  0.80578720561E+02 0.  0.
        -13    1    3    3    0    0  0.69409277680E+01 -0.81810579624E+02 -0.21511905962E+03  0.23025498307E+03  0.00000000000E+00 0.  1.
         14    1    3    3    0    0  0.36205202079E+02 -0.77309868049E+01 -0.16434003384E+02  0.40505077234E+02  0.00000000000E+00 0. -1.
         13    1    5    5    0    0  0.86258754397E+02 -0.31592371748E+02  0.62596821093E+03  0.63267278411E+03  0.00000000000E+00 0. -1.
        -14    1    5    5    0    0  0.16383062109E+03 -0.11845496936E+03  0.81257871142E+03  0.83735071173E+03  0.00000000000E+00 0.  1.
          5    1    4    4  501    0 -0.20921036107E+03  0.12794382552E+03  0.66943402575E+02  0.25423903952E+03  0.41800000000E+01 0. -1.
         -5    1    4    4    0  501 -0.84025144260E+02  0.11164508201E+03 -0.40202752835E+02  0.14545990149E+03  0.41800000000E+01 0. -1.
</event>
<event>
11    1  0.7577197E-009  0.1433169E+03  0.7561462E-02  0.1103910E+00
         22   -1    0    0    0    0  0.00000000000E+00  0.00000000000E+00  0.10716764019E+04  0.10716764019E+04  0.00000000000E+00 0. -1.
         22   -1    0    0    0    0 -0.00000000000E+00 -0.00000000000E+00 -0.75211090669E+03  0.75211090669E+03  0.00000000000E+00 0.  1.
        -24    2    1    2    0    0 -0.44108267661E+02 -0.71490926401E+01 -0.63990482484E+03  0.64648917998E+03  0.80457604772E+02 0.  0.
         25    2    1    2    0    0 -0.19140765401E+02  0.39148089619E+02 -0.64730984468E+02  0.14743214937E+03  0.12508875447E+03 0.  0.
         24    2    1    2    0    0  0.63249033062E+02 -0.31998996978E+02  0.10242013045E+04  0.10298659792E+04  0.81309575248E+02 0.  0.
        -11    1    5    5    0    0  0.75716027397E+02 -0.23304554022E+02  0.57776346155E+03  0.58316947498E+03  0.00000000000E+00 0.  1.
         12    1    5    5    0    0 -0.12466994335E+02 -0.86944429565E+01  0.44643784294E+03  0.44669650423E+03  0.00000000000E+00 0. -1.
         11    1    3    3    0    0 -0.65179689864E+02 -0.15440897739E+02 -0.40573636159E+03  0.41122841392E+03  0.00000000000E+00 0. -1.
        -12    1    3    3    0    0  0.21071422202E+02  0.82918050992E+01 -0.23416846325E+03  0.23526076606E+03  0.00000000000E+00 0.  1.
          5    1    4    4  501    0  0.43122096018E+02  0.91489697432E+01 -0.64446379243E+02  0.78192243925E+02  0.41800000000E+01 0.  1.
         -5    1    4    4    0  501 -0.62262861420E+02  0.29999119875E+02 -0.28460522481E+00  0.69239905442E+02  0.41800000000E+01 0.  1.
</event>
<event>
11    1  0.7577197E-009  0.1277695E+03  0.7561462E-02  0.1122040E+00
         22   -1    0    0    0    0  0.00000000000E+00  0.00000000000E+00  0.38967139049E+03  0.38967139049E+03  0.00000000000E+00 0. -1.
         22   -1    0    0    0    0 -0.00000000000E+00 -0.00000000000E+00 -0.29322084317E+04  0.29322084317E+04  0.00000000000E+00 0.  1.
         24    2    1    2    0    0 -0.68988350819E+00 -0.23332356910E+02 -0.21222104680E+04  0.21238797043E+04  0.80887902655E+02 0.  0.
         25    2    1    2    0    0 -0.17038043371E+02  0.43413453885E+02 -0.79977398212E+03  0.81084010984E+03  0.12509291888E+03 0.  0.
        -24    2    1    2    0    0  0.17727926879E+02 -0.20081096975E+02  0.37944740892E+03  0.38716000810E+03  0.72076389220E+02 0.  0.
        -13    1    3    3    0    0  0.23651099255E+02 -0.44681178707E+02 -0.14653154815E+04  0.14661873150E+04  0.00000000000E+00 0.  1.
         14    1    3    3    0    0 -0.24340982763E+02  0.21348821798E+02 -0.65689498650E+03  0.65769238928E+03  0.00000000000E+00 0. -1.
         11    1    5    5    0    0  0.10644679684E+02  0.92502478370E+01  0.32165889347E+03  0.32196788665E+03  0.00000000000E+00 0. -1.
        -12    1    5    5    0    0  0.70832471955E+01 -0.29331344812E+02  0.57788515456E+02  0.65192121441E+02  0.00000000000E+00 0.  1.
          5    1    4    4  501    0 -0.42679304004E+02 -0.31479623219E+02 -0.27297328289E+03  0.27810856736E+03  0.41800000000E+01 0. -1.
         -5    1    4    4    0  501  0.25641260633E+02  0.74893077104E+02 -0.52680069923E+03  0.53273154248E+03  0.41800000000E+01 0. -1.
</event>
<event>
11    1  0.7577197E-009  0.1392721E+03  0.7561462E-02  0.1108374E+00
         22   -1    0    0    0    0  0.00000000000E+00  0.00000000000E+00  0.30149431640E+03  0.30149431640E+03  0.00000000000E+00 0.  1.
         22   -1    0    0    0    0 -0.00000000000E+00 -0.00000000000E+00 -0.42333763475E+03  0.42333763475E+03  0.00000000000E+00 0. -1.
         24    2    1    2    0    0  0.25149707999E+02 -0.54458139973E+02 -0.36112907527E+03  0.37486337360E+03  0.80685457427E+02 0.  0.
         25    2    1    2    0    0 -0.37230393332E+02  0.75538544353E+02  0.80025116392E+02  0.17071122450E+03  0.12508448763E+03 0.  0.
        -24    2    1    2    0    0  0.12080685333E+02 -0.21080404381E+02  0.15926064054E+03  0.17925735305E+03  0.78606110390E+02 0.  0.
        -11    1    3    3    0    0 -0.17090355626E+02  0.80541449452E+01 -0.31679364804E+02  0.36885385461E+02  0.00000000000E+00 0.  1.
         12    1    3    3    0    0  0.42240063626E+02 -0.62512284918E+02 -0.32944971047E+03  0.33797798814E+03  0.00000000000E+00 0. -1.
         11    1    5    5    0    0 -0.30642391047E+02  0.62961368446E+01  0.54056405661E+02  0.62455523865E+02  0.00000000000E+00 0. -1.
        -12    1    5    5    0    0  0.42723076380E+02 -0.27376541225E+02  0.10520423488E+03  0.11680182918E+03  0.00000000000E+00 0.  1.
          5    1    4    4  501    0 -0.79852026296E+02  0.26263443164E+02  0.56256035320E+02  0.10123402817E+03  0.41800000000E+01 0.  1.
         -5    1    4    4    0  501  0.42621632964E+02  0.49275101189E+02  0.23769081072E+02  0.69477196322E+02  0.41800000000E+01 0.  1.
</event>
<event>
11    1  0.7577197E-009  0.1278138E+03  0.7561462E-02  0.1121985E+00
         22   -1    0    0    0    0  0.00000000000E+00  0.00000000000E+00  0.36852335914E+03  0.36852335914E+03  0.00000000000E+00 0. -1.
         22   -1    0    0    0    0 -0.00000000000E+00 -0.00000000000E+00 -0.54775256693E+03  0.54775256693E+03  0.00000000000E+00 0. -1.
         24    2    1    2    0    0  0.25665808120E+02  0.88736488631E+01 -0.47522140447E+03  0.48272442215E+03  0.80311948834E+02 0.  0.
         25    2    1    2    0    0 -0.79464463587E+01 -0.10437008578E+02 -0.12538685198E+01  0.12578408611E+03  0.12509191411E+03 0.  0.
        -24    2    1    2    0    0 -0.17719361761E+02  0.15633597153E+01  0.29724606519E+03  0.30776741780E+03  0.77776219455E+02 0.  0.
        -11    1    3    3    0    0 -0.11763870442E+02  0.14845388973E+02 -0.27445074877E+02  0.33346759311E+02  0.00000000000E+00 0.  1.
         12    1    3    3    0    0  0.37429678562E+02 -0.59717401103E+01 -0.44777632959E+03  0.44937766284E+03  0.00000000000E+00 0. -1.
         11    1    5    5    0    0 -0.34263383966E+02 -0.64275918862E+01  0.28126377970E+03  0.28341596142E+03  0.00000000000E+00 0. -1.
        -12    1    5    5    0    0  0.16544022205E+02  0.79909516015E+01  0.15982285495E+02  0.24351456381E+02  0.00000000000E+00 0.  1.
          5    1    4    4  501    0 -0.15900483763E+02  0.88211483237E+01 -0.60252318259E+02  0.63074973620E+02  0.41800000000E+01 0.  1.
         -5    1    4    4    0  501  0.79540374039E+01 -0.19258156902E+02  0.58998449739E+02  0.62709112495E+02  0.41800000000E+01 0.  1.
</event>
<event>
11    1  0.7577197E-009  0.1325794E+03  0.7561462E-02  0.1116140E+00
         22   -1    0    0    0    0  0.00000000000E+00  0.00000000000E+00  0.43026080211E+03  0.43026080211E+03  0.00000000000E+00 0. -1.
         22   -1    0    0    0    0 -0.00000000000E+00 -0.00000000000E+00 -0.40500503039E+03  0.40500503039E+03  0.00000000000E+00 0. -1.
         24    2    1    2    0    0  0.21549977246E+02 -0.18762458228E+02 -0.18802102156E+03  0.20628091222E+03  0.79896676035E+02 0.  0.
         25    2    1    2    0    0 -0.64868700441E+02  0.20859955638E+02 -0.17768868037E+03  0.22773691209E+03  0.12509095871E+03 0.  0.
        -24    2    1    2    0    0  0.43318723196E+02 -0.20974974099E+01  0.39096547365E+03  0.40124800818E+03  0.79152076491E+02 0.  0.
        -11    1    3    3    0    0 -0.15056558020E+02  0.24125762548E+02 -0.60590051797E+02  0.66932105410E+02  0.00000000000E+00 0.  1.
         12    1    3    3    0    0  0.36606535266E+02 -0.42888220776E+02 -0.12743096976E+03  0.13934880681E+03  0.00000000000E+00 0. -1.
         11    1    5    5    0    0  0.27455234627E+02  0.25304328807E+02  0.33395058301E+03  0.33603138374E+03  0.00000000000E+00 0. -1.
        -12    1    5    5    0    0  0.15863488569E+02 -0.27401826216E+02  0.57014890631E+02  0.65216624439E+02  0.00000000000E+00 0.  1.
          5    1    4    4  501    0  0.34640820703E+02  0.92368501607E+01 -0.79903130555E+02  0.87677183648E+02  0.41800000000E+01 0. -1.
         -5    1    4    4    0  501 -0.99509521144E+02  0.11623105478E+02 -0.97785549819E+02  0.14005972845E+03  0.41800000000E+01 0. -1.
</event>
<event>
11    1  0.7577197E-009  0.1428032E+03  0.7561462E-02  0.1104468E+00
         22   -1    0    0    0    0  0.00000000000E+00  0.00000000000E+00  0.50448288751E+03  0.50448288751E+03  0.00000000000E+00 0. -1.
         22   -1    0    0    0    0 -0.00000000000E+00 -0.00000000000E+00 -0.45606667666E+03  0.45606667666E+03  0.00000000000E+00 0. -1.
        -24    2    1    2    0    0 -0.56730072061E+02  0.30375123017E+02 -0.28951076295E+03  0.30772362594E+03  0.82075568355E+02 0.  0.
         25    2    1    2    0    0 -0.11719334455E+02 -0.10113755066E+02 -0.12491725411E+03  0.17746008114E+03  0.12509248251E+03 0.  0.
         24    2    1    2    0    0  0.68449406516E+02 -0.20261367950E+02  0.46284422791E+03  0.47536585709E+03  0.81560250690E+02 0.  0.
        -11    1    5    5    0    0  0.56210744977E+02 -0.49932505702E+02  0.29141021634E+03  0.30095318102E+03  0.00000000000E+00 0.  1.
         12    1    5    5    0    0  0.12238661539E+02  0.29671137752E+02  0.17143401157E+03  0.17441267607E+03  0.00000000000E+00 0. -1.
         13    1    3    3    0    0 -0.35141852795E+02  0.56299589265E+02 -0.22923717377E+03  0.23865094889E+03  0.00000000000E+00 0. -1.
        -14    1    3    3    0    0 -0.21588219265E+02 -0.25924466248E+02 -0.60273589182E+02  0.69072677045E+02  0.00000000000E+00 0.  1.
          5    1    4    4  501    0 -0.21253074604E+02  0.26681424553E+02 -0.13384977492E+03  0.13819126689E+03  0.41800000000E+01 0. -1.
         -5    1    4    4    0  501  0.95337401488E+01 -0.36795179620E+02  0.89325208169E+01  0.39268814250E+02  0.41800000000E+01 0. -1.
</event>
<event>
11    1  0.7577197E-009  0.1329828E+03  0.7561462E-02  0.1115657E+00
         22   -1    0    0    0    0  0.00000000000E+00  0.00000000000E+00  0.92070732341E+03  0.92070732341E+03  0.00000000000E+00 0.  1.
         22   -1    0    0    0    0 -0.00000000000E+00 -0.00000000000E+00 -0.47148455126E+03  0.47148455126E+03  0.00000000000E+00 0.  1.
        -24    2    1    2    0    0  0.36094478963E+02 -0.28507370304E+02 -0.42984083756E+03  0.43998102399E+03  0.81882075336E+02 0.  0.
         25    2    1    2    0    0 -0.22691869557E+02  0.10987215809E+02  0.83188980403E+02  0.15233296980E+03  0.12509711177E+03 0.  0.
         24    2    1    2    0    0 -0.13402609406E+02  0.17520154495E+02  0.79587462930E+03  0.79987788088E+03  0.76821956544E+02 0.  0.
        -11    1    5    5    0    0 -0.15934218475E+02 -0.24342423909E+02  0.52205977401E+03  0.52286983137E+03  0.00000000000E+00 0.  1.
         12    1    5    5    0    0  0.25316090696E+01  0.41862578404E+02  0.27381485529E+03  0.27700804951E+03  0.00000000000E+00 0. -1.
         11    1    3    3    0    0  0.13320263141E+02  0.24503080379E+01 -0.67216257662E+01  0.15119975945E+02  0.00000000000E+00 0. -1.
        -12    1    3    3    0    0  0.22774215822E+02 -0.30957678342E+02 -0.42311921179E+03  0.42486104804E+03  0.00000000000E+00 0.  1.
          5    1    4    4  501    0 -0.56897336881E+02  0.40650606470E+02  0.17091705919E+02  0.72106709548E+02  0.41800000000E+01 0. -1.
         -5    1    4    4    0  501  0.34205467324E+02 -0.29663390661E+02  0.66097274484E+02  0.80226260256E+02  0.41800000000E+01 0. -1.
</event>
<event>
11    1  0.7577197E-009  0.1360128E+03  0.7561462E-02  0.1112094E+00
         22   -1    0    0    0    0  0.00000000000E+00  0.00000000000E+00  0.27289821410E+03  0.27289821410E+03  0.00000000000E+00 0. -1.
         22   -1    0    0    0    0 -0.00000000000E+00 -0.00000000000E+00 -0.37845508372E+03  0.37845508372E+03  0.00000000000E+00 0.  1.
         24    2    1    2    0    0 -0.25086922127E+01  0.45567472773E+02 -0.30127967759E+03  0.31522266327E+03  0.80704369156E+02 0.  0.
         25    2    1    2    0    0  0.55425178162E+02 -0.38295916009E+02  0.31259032581E+02  0.14547759049E+03  0.12509226459E+03 0.  0.
        -24    2    1    2    0    0 -0.52916485950E+02 -0.72715567633E+01  0.16446377538E+03  0.19065304405E+03  0.80294581197E+02 0.  0.
        -11    1    3    3    0    0  0.11484662591E+02  0.44920074167E+02 -0.29696823023E+03  0.30056586683E+03  0.00000000000E+00 0.  1.
         12    1    3    3    0    0 -0.13993354803E+02  0.64739860602E+00 -0.43114473598E+01  0.14656796442E+02  0.00000000000E+00 0. -1.
         11    1    5    5    0    0 -0.13127579978E+02  0.31178345484E+02  0.10069385341E+03  0.10622464261E+03  0.00000000000E+00 0. -1.
        -12    1    5    5    0    0 -0.39788905971E+02 -0.38449902247E+02  0.63769921970E+02  0.84428401438E+02  0.00000000000E+00 0.  1.
          5    1    4    4  501    0  0.48433767273E+01  0.40453811683E+02  0.31695058027E+02  0.51788206004E+02  0.41800000000E+01 0. -1.
         -5    1    4    4    0  501  0.50581801435E+02 -0.78749727692E+02 -0.43602544668E+00  0.93689384490E+02  0.41800000000E+01 0. -1.
</event>
<event>
11    1  0.7577197E-009  0.2054275E+04  0.7561462E-02  0.8045091E-01
         22   -1    0    0    0    0  0.00000000000E+00  0.00000000000E+00  0.14669523814E+04  0.14669523814E+04  0.00000000000E+00 0. -1.
         22   -1    0    0    0    0 -0.00000000000E+00 -0.00000000000E+00 -0.71918606752E+03  0.71918606752E+03  0.00000000000E+00 0. -1.
         24    2    1    2    0    0  0.89977810520E+01 -0.73199037448E+02  0.20456058253E+01  0.10995232059E+03  0.81524653657E+02 0.  0.
         25    2    1    2    0    0 -0.25176066878E+03  0.96203607518E+03  0.27860658964E+03  0.10402720728E+04  0.12509000501E+03 0.  0.
        -24    2    1    2    0    0  0.24276288773E+03 -0.88883703774E+03  0.46711411843E+03  0.10359140555E+04  0.77183103863E+02 0.  0.
        -13    1    3    3    0    0  0.27304415879E+02 -0.17898991422E+02 -0.29242819616E+02  0.43829756097E+02  0.00000000000E+00 0.  1.
         14    1    3    3    0    0 -0.18306634827E+02 -0.55300046026E+02  0.31288425442E+02  0.66122564498E+02  0.00000000000E+00 0. -1.
         11    1    5    5    0    0  0.14806750991E+03 -0.41860445415E+03  0.24773695970E+03  0.50845577755E+03  0.00000000000E+00 0. -1.
        -12    1    5    5    0    0  0.94695377822E+02 -0.47023258359E+03  0.21937715872E+03  0.52745827799E+03  0.00000000000E+00 0.  1.
          5    1    4    4  501    0 -0.51168104364E+02  0.35116175409E+03  0.52831488008E+02  0.35880550576E+03  0.41800000000E+01 0.  1.
         -5    1    4    4    0  501 -0.20059256442E+03  0.61087432109E+03  0.22577510163E+03  0.68146656704E+03  0.41800000000E+01 0.  1.
</event>
<event>
11    1  0.7577197E-009  0.1654210E+03  0.7561462E-02  0.1082087E+00
         22   -1    0    0    0    0  0.00000000000E+00  0.00000000000E+00  0.12488099351E+04  0.12488099351E+04  0.00000000000E+00 0.  1.
         22   -1    0    0    0    0 -0.00000000000E+00 -0.00000000000E+00 -0.14684539910E+03  0.14684539910E+03  0.00000000000E+00 0. -1.
         24    2    1    2    0    0  0.20841913154E+02  0.12152412832E+02 -0.10750458997E+03  0.13475175371E+03  0.77580485832E+02 0.  0.
         25    2    1    2    0    0  0.64444697277E+02 -0.81349441921E+02  0.29808581538E+03  0.33951502289E+03  0.12507776274E+03 0.  0.
        -24    2    1    2    0    0 -0.85286610430E+02  0.69197029089E+02  0.91138331059E+03  0.92138855760E+03  0.79216794329E+02 0.  0.
        -11    1    3    3    0    0  0.12540170881E+02  0.40171926240E+02 -0.29337062483E+02  0.51300124548E+02  0.00000000000E+00 0.  1.
         12    1    3    3    0    0  0.83017422729E+01 -0.28019513408E+02 -0.78167527487E+02  0.83451629163E+02  0.00000000000E+00 0. -1.
         13    1    5    5    0    0  0.47043743473E+00 -0.98394714991E+01  0.22136573200E+03  0.22158480051E+03  0.00000000000E+00 0. -1.
        -14    1    5    5    0    0 -0.85757047865E+02  0.79036500589E+02  0.69001757858E+03  0.69980375709E+03  0.00000000000E+00 0.  1.
          5    1    4    4  501    0  0.17565932440E+02  0.33532419325E+02  0.61602929697E+02  0.72424985160E+02  0.41800000000E+01 0. -1.
         -5    1    4    4    0  501  0.46878764836E+02 -0.11488186125E+03  0.23648288568E+03  0.26709003773E+03  0.41800000000E+01 0. -1.
</event>
<event>
11    1  0.7577197E-009  0.1347312E+03  0.7561462E-02  0.1113589E+00
         22   -1    0    0    0    0  0.00000000000E+00  0.00000000000E+00  0.21793641019E+04  0.21793641019E+04  0.00000000000E+00 0.  1.
         22   -1    0    0    0    0 -0.00000000000E+00 -0.00000000000E+00 -0.48279193284E+02  0.48279193284E+02  0.00000000000E+00 0.  1.
         24    2    1    2    0    0  0.16387985869E+02 -0.74176502361E+01  0.28118918411E+02  0.86626480229E+02  0.79936761808E+02 0.  0.
         25    2    1    2    0    0 -0.61356284710E+02 -0.12781923645E+02  0.25685820740E+03  0.29249013184E+03  0.12508543987E+03 0.  0.
        -24    2    1    2    0    0  0.44968298841E+02  0.20199573881E+02  0.18461077828E+04  0.18485266831E+04  0.80664625330E+02 0.  0.
        -11    1    3    3    0    0  0.29690290531E+02  0.18623989051E+00 -0.20216838200E+02  0.35920308795E+02  0.00000000000E+00 0.  1.
         12    1    3    3    0    0 -0.13302304662E+02 -0.76038901266E+01  0.48335756611E+02  0.50706171434E+02  0.00000000000E+00 0. -1.
         11    1    5    5    0    0 -0.10477633058E+02 -0.14933391598E+02  0.14361148234E+03  0.14476548220E+03  0.00000000000E+00 0. -1.
        -12    1    5    5    0    0  0.55445931899E+02  0.35132965478E+02  0.17024963005E+04  0.17037612009E+04  0.00000000000E+00 0.  1.
          5    1    4    4  501    0 -0.37240618294E+02  0.55600908401E+02  0.11499965967E+03  0.13311919017E+03  0.41800000000E+01 0.  1.
         -5    1    4    4    0  501 -0.24115666416E+02 -0.68382832046E+02  0.14185854773E+03  0.15937094167E+03  0.41800000000E+01 0.  1.
</event>
<event>
11    1  0.7577197E-009  0.1750225E+03  0.7561462E-02  0.1073742E+00
         22   -1    0    0    0    0  0.00000000000E+00  0.00000000000E+00  0.19511412276E+04  0.19511412276E+04  0.00000000000E+00 0. -1.
         22   -1    0    0    0    0 -0.00000000000E+00 -0.00000000000E+00 -0.60632974478E+03  0.60632974478E+03  0.00000000000E+00 0.  1.
        -24    2    1    2    0    0  0.12544204878E+03  0.15372495417E+02 -0.53639247134E+03  0.55703035805E+03  0.81202926451E+02 0.  0.
         25    2    1    2    0    0 -0.86326233400E+02  0.36937564406E+02  0.46960671182E+02  0.16330811897E+03  0.12509050662E+03 0.  0.
         24    2    1    2    0    0 -0.39115815377E+02 -0.52310059823E+02  0.18342432830E+04  0.18371324954E+04  0.79630364880E+02 0.  0.
        -13    1    5    5    0    0  0.17900848346E+02 -0.31594260146E+02  0.41238604871E+03  0.41398175179E+03  0.00000000000E+00 0.  1.
         14    1    5    5    0    0 -0.57016663723E+02 -0.20715799677E+02  0.14218572343E+04  0.14231507436E+04  0.00000000000E+00 0. -1.
         13    1    3    3    0    0  0.82406686419E+02  0.23344189825E+02 -0.19681282815E+03  0.21464180043E+03  0.00000000000E+00 0. -1.
        -14    1    3    3    0    0  0.43035362359E+02 -0.79716944077E+01 -0.33957964319E+03  0.34238855763E+03  0.00000000000E+00 0.  1.
          5    1    4    4  501    0 -0.11503866350E+03  0.12907964964E+02  0.48554987284E+02  0.12560083140E+03  0.41800000000E+01 0.  1.
         -5    1    4    4    0  501  0.28712430099E+02  0.24029599442E+02 -0.15943161019E+01  0.37707287563E+02  0.41800000000E+01 0.  1.
</event>
<event>
11    1  0.7577197E-009  0.1484347E+03  0.7561462E-02  0.1098489E+00
         22   -1    0    0    0    0  0.00000000000E+00  0.00000000000E+00  0.17801827944E+03  0.17801827944E+03  0.00000000000E+00 0. -1.
         22   -1    0    0    0    0 -0.00000000000E+00 -0.00000000000E+00 -0.20803299866E+03  0.20803299866E+03  0.00000000000E+00 0.  1.
        -24    2    1    2    0    0 -0.45091760735E+02  0.34564364508E+02 -0.48663015077E+02  0.11345253200E+03  0.85296106604E+02 0.  0.
         25    2    1    2    0    0 -0.53975135192E+02 -0.25857775520E+02 -0.59433579614E+01  0.13879516715E+03  0.12508731009E+03 0.  0.
         24    2    1    2    0    0  0.99066895927E+02 -0.87065889873E+01  0.24591653818E+02  0.13380357896E+03  0.86073188296E+02 0.  0.
        -13    1    5    5    0    0  0.29663967611E+02  0.18660102381E+02 -0.26023344556E+02  0.43650485189E+02  0.00000000000E+00 0.  1.
         14    1    5    5    0    0  0.69402928316E+02 -0.27366691369E+02  0.50614998375E+02  0.90153093767E+02  0.00000000000E+00 0. -1.
         11    1    3    3    0    0  0.23017637445E+02 -0.31403143580E+01 -0.36194722698E+01  0.23511141770E+02  0.00000000000E+00 0. -1.
        -12    1    3    3    0    0 -0.68109398180E+02  0.37704678866E+02 -0.45043542807E+02  0.89941390235E+02  0.00000000000E+00 0.  1.
          5    1    4    4  501    0  0.22873958466E+02  0.33718390215E+02  0.29357152373E+01  0.41063836140E+02  0.41800000000E+01 0.  1.
         -5    1    4    4    0  501 -0.76849093657E+02 -0.59576165736E+02 -0.88790731987E+01  0.97731331008E+02  0.41800000000E+01 0.  1.
</event>
<event>
11    1  0.7577197E-009  0.1330373E+03  0.7561462E-02  0.1115592E+00
         22   -1    0    0    0    0  0.00000000000E+00  0.00000000000E+00  0.61613189972E+03  0.61613189972E+03  0.00000000000E+00 0. -1.
         22   -1    0    0    0    0 -0.00000000000E+00 -0.00000000000E+00 -0.21936106480E+03  0.21936106480E+03  0.00000000000E+00 0.  1.
         24    2    1    2    0    0  0.95436343874E+01  0.38524696843E+02 -0.83755528868E+02  0.12231126482E+03  0.79811175040E+02 0.  0.
         25    2    1    2    0    0 -0.64789520570E+02 -0.34204913045E+02 -0.66299556097E+02  0.15941252859E+03  0.12509622328E+03 0.  0.
        -24    2    1    2    0    0  0.55245886182E+02 -0.43197837978E+01  0.54682591989E+03  0.55376917112E+03  0.67608725427E+02 0.  0.
        -11    1    3    3    0    0 -0.23272060329E+02  0.49005305158E+02 -0.57025511339E+02  0.78708434549E+02  0.00000000000E+00 0.  1.
         12    1    3    3    0    0  0.32815694717E+02 -0.10480608315E+02 -0.26730017529E+02  0.43602830269E+02  0.00000000000E+00 0. -1.
         13    1    5    5    0    0  0.45701464278E+02  0.16407165792E+02  0.49191329964E+03  0.49430406967E+03  0.00000000000E+00 0. -1.
        -14    1    5    5    0    0  0.95444219046E+01 -0.20726949590E+02  0.54912620246E+02  0.59465101455E+02  0.00000000000E+00 0.  1.
          5    1    4    4  501    0  0.10494042665E+02  0.23638899896E+02 -0.58455143252E+02  0.64057776205E+02  0.41800000000E+01 0. -1.
         -5    1    4    4    0  501 -0.75283563235E+02 -0.57843812942E+02 -0.78444128453E+01  0.95354752382E+02  0.41800000000E+01 0. -1.
</event>
<event>
11    1  0.7577197E-009  0.2182418E+03  0.7561462E-02  0.1042324E+00
         22   -1    0    0    0    0  0.00000000000E+00  0.00000000000E+00  0.18469237412E+04  0.18469237412E+04  0.00000000000E+00 0. -1.
         22   -1    0    0    0    0 -0.00000000000E+00 -0.00000000000E+00 -0.29534159255E+03  0.29534159255E+03  0.00000000000E+00 0. -1.
         24    2    1    2    0    0  0.17854819653E+03  0.57550721068E+01 -0.23180951262E+03  0.30346630062E+03  0.80271826515E+02 0.  0.
         25    2    1    2    0    0 -0.18215392158E+03  0.27896309857E+02  0.44624592030E+03  0.49873986773E+03  0.12509108292E+03 0.  0.
        -24    2    1    2    0    0  0.36057250484E+01 -0.33651381963E+02  0.13371457409E+04  0.13400591654E+04  0.81574612619E+02 0.  0.
        -13    1    3    3    0    0 -0.97086608441E+00  0.14534679296E+02 -0.87023376691E+01  0.16968505064E+02  0.00000000000E+00 0.  1.
         14    1    3    3    0    0  0.17951906261E+03 -0.87796071892E+01 -0.22310717495E+03  0.28649779556E+03  0.00000000000E+00 0. -1.
         11    1    5    5    0    0  0.16123363994E+02 -0.55793399687E+02  0.11047841452E+04  0.11063095741E+04  0.00000000000E+00 0. -1.
        -12    1    5    5    0    0 -0.12517638945E+02  0.22142017723E+02  0.23236159573E+03  0.23374959124E+03  0.00000000000E+00 0.  1.
          5    1    4    4  501    0 -0.95653449079E+02 -0.22298391311E+02  0.10821906437E+03  0.14620410004E+03  0.41800000000E+01 0.  1.
         -5    1    4    4    0  501 -0.86500472496E+02  0.50194701168E+02  0.33802685593E+03  0.35253576769E+03  0.41800000000E+01 0.  1.
</event>
<event>
11    1  0.7577197E-009  0.1349644E+03  0.7561462E-02  0.1113315E+00
         22   -1    0    0    0    0  0.00000000000E+00  0.00000000000E+00  0.27278345288E+04  0.27278345288E+04  0.00000000000E+00 0. -1.
         22   -1    0    0    0    0 -0.00000000000E+00 -0.00000000000E+00 -0.24818451286E+03  0.24818451286E+03  0.00000000000E+00 0.  1.
        -24    2    1    2    0    0 -0.24478001592E+02 -0.47395066258E+02 -0.20971892685E+03  0.22991324123E+03  0.77669848396E+02 0.  0.
         25    2    1    2    0    0  0.18940398902E+02  0.41282950302E+01  0.11753235636E+03  0.17273080329E+03  0.12508514734E+03 0.  0.
         24    2    1    2    0    0  0.55376026894E+01  0.43266771228E+02  0.25718365864E+04  0.25733749971E+04  0.77542053584E+02 0.  0.
        -11    1    5    5    0    0 -0.30640108118E+02 -0.92981049624E+00  0.11096355890E+04  0.11100589268E+04  0.00000000000E+00 0.  1.
         12    1    5    5    0    0  0.36177710807E+02  0.44196581724E+02  0.14622009974E+04  0.14633160703E+04  0.00000000000E+00 0. -1.
         13    1    3    3    0    0 -0.20930051357E+02 -0.32509929322E+02 -0.28460451726E+02  0.48009997571E+02  0.00000000000E+00 0. -1.
        -14    1    3    3    0    0 -0.35479502351E+01 -0.14885136936E+02 -0.18125847512E+03  0.18190324366E+03  0.00000000000E+00 0.  1.
          5    1    4    4  501    0  0.46856530168E+02  0.33100681087E+02  0.10714075574E+02  0.58510283910E+02  0.41800000000E+01 0.  1.
         -5    1    4    4    0  501 -0.27916131265E+02 -0.28972386057E+02  0.10681828078E+03  0.11422051938E+03  0.41800000000E+01 0.  1.
</event>
<event>
11    1  0.7577197E-009  0.1333748E+03  0.7561462E-02  0.1115191E+00
         22   -1    0    0    0    0  0.00000000000E+00  0.00000000000E+00  0.49946867839E+03  0.49946867839E+03  0.00000000000E+00 0. -1.
         22   -1    0    0    0    0 -0.00000000000E+00 -0.00000000000E+00 -0.38505639390E+04  0.38505639390E+04  0.00000000000E+00 0. -1.
        -24    2    1    2    0    0 -0.97543991173E+01  0.40497962782E+02 -0.37828177361E+04  0.37839109564E+04  0.80850901880E+02 0.  0.
         25    2    1    2    0    0  0.19954506818E+02  0.75296337960E+01  0.26824621158E+01  0.12692249464E+03  0.12508895361E+03 0.  0.
         24    2    1    2    0    0 -0.10200107700E+02 -0.48027596578E+02  0.42904001336E+03  0.43919916634E+03  0.80061741244E+02 0.  0.
        -13    1    5    5    0    0 -0.43666831344E+02 -0.17983729242E+02  0.26137747189E+03  0.26560946799E+03  0.00000000000E+00 0.  1.
         14    1    5    5    0    0  0.33466723643E+02 -0.30043867336E+02  0.16766254148E+03  0.17358969834E+03  0.00000000000E+00 0. -1.
         13    1    3    3    0    0  0.15210919850E+02  0.55599305171E+01 -0.29036496101E+04  0.29036947744E+04  0.00000000000E+00 0. -1.
        -14    1    3    3    0    0 -0.24965318967E+02  0.34938032265E+02 -0.87916812597E+03  0.88021618196E+03  0.00000000000E+00 0.  1.
          5    1    4    4  501    0  0.32657007595E+02  0.21067430659E+02  0.57143540181E+02  0.69232747772E+02  0.41800000000E+01 0.  1.
         -5    1    4    4    0  501 -0.12702500777E+02 -0.13537796863E+02 -0.54461078065E+02  0.57689746870E+02  0.41800000000E+01 0.  1.
</event>
<event>
11    1  0.7577197E-009  0.2039701E+03  0.7561462E-02  0.1051751E+00
         22   -1    0    0    0    0  0.00000000000E+00  0.00000000000E+00  0.42369201081E+03  0.42369201081E+03  0.00000000000E+00 0.  1.
         22   -1    0    0    0    0 -0.00000000000E+00 -0.00000000000E+00 -0.46251047331E+03  0.46251047331E+03  0.00000000000E+00 0. -1.
         24    2    1    2    0    0  0.82947218925E+02 -0.12972859890E+03 -0.31831648378E+03  0.36250224548E+03  0.79829465971E+02 0.  0.
         25    2    1    2    0    0 -0.11592246486E+03  0.16393038432E+03  0.80734751187E+01  0.23669425874E+03  0.12509117617E+03 0.  0.
        -24    2    1    2    0    0  0.32975245936E+02 -0.34201785427E+02  0.27142454615E+03  0.28700597990E+03  0.80274648985E+02 0.  0.
        -11    1    3    3    0    0 -0.36964453230E+01 -0.10247991927E+02  0.78472695994E+00  0.10922492526E+02  0.00000000000E+00 0.  1.
         12    1    3    3    0    0  0.86643664248E+02 -0.11948060697E+03 -0.31910121074E+03  0.35157975296E+03  0.00000000000E+00 0. -1.
         13    1    5    5    0    0 -0.26653587583E+02 -0.77658892469E+01  0.91764506664E+02  0.95872036852E+02  0.00000000000E+00 0. -1.
        -14    1    5    5    0    0  0.59628833519E+02 -0.26435896180E+02  0.17966003949E+03  0.19113394304E+03  0.00000000000E+00 0.  1.
          5    1    4    4  501    0 -0.25457731173E+01  0.92152647226E+02 -0.30189889095E+02  0.97095278747E+02  0.41800000000E+01 0.  1.
         -5    1    4    4    0  501 -0.11337669174E+03  0.71777737096E+02  0.38263364213E+02  0.13959897999E+03  0.41800000000E+01 0.  1.
</event>
<event>
11    1  0.7577197E-009  0.1367516E+03  0.7561462E-02  0.1111241E+00
         22   -1    0    0    0    0  0.00000000000E+00  0.00000000000E+00  0.65434926229E+03  0.65434926229E+03  0.00000000000E+00 0. -1.
         22   -1    0    0    0    0 -0.00000000000E+00 -0.00000000000E+00 -0.29385306629E+03  0.29385306629E+03  0.00000000000E+00 0.  1.
         24    2    1    2    0    0 -0.19183835830E+02  0.55056853003E+01 -0.26344875799E+03  0.27734129921E+03  0.84348183368E+02 0.  0.
         25    2    1    2    0    0 -0.27317744322E+02  0.32945746997E+02  0.24259002182E+03  0.27628290869E+03  0.12510254015E+03 0.  0.
        -24    2    1    2    0    0  0.46501580151E+02 -0.38451432298E+02  0.38135493216E+03  0.39457812067E+03  0.81359691665E+02 0.  0.
        -11    1    3    3    0    0  0.61256534894E+01  0.18156969301E+02 -0.23951753019E+03  0.24028284674E+03  0.00000000000E+00 0.  1.
         12    1    3    3    0    0 -0.25309489319E+02 -0.12651284001E+02 -0.23931227791E+02  0.37058452478E+02  0.00000000000E+00 0. -1.
         11    1    5    5    0    0 -0.37619206323E+01 -0.18182383896E+02  0.27097827333E+03  0.27161365162E+03  0.00000000000E+00 0. -1.
        -12    1    5    5    0    0  0.50263500784E+02 -0.20269048402E+02  0.11037665884E+03  0.12296446905E+03  0.00000000000E+00 0.  1.
          5    1    4    4  501    0 -0.33339897356E+02 -0.40072300170E+02  0.60545426880E+02  0.80003494378E+02  0.41800000000E+01 0.  1.
         -5    1    4    4    0  501  0.60221530342E+01  0.73018047167E+02  0.18204459494E+03  0.19627941432E+03  0.41800000000E+01 0.  1.
</event>
<event>
11    1  0.7577197E-009  0.1699590E+03  0.7561462E-02  0.1078067E+00
         22   -1    0    0    0    0  0.00000000000E+00  0.00000000000E+00  0.68179754877E+03  0.68179754877E+03  0.00000000000E+00 0. -1.
         22   -1    0    0    0    0 -0.00000000000E+00 -0.00000000000E+00 -0.47242872085E+03  0.47242872085E+03  0.00000000000E+00 0. -1.
         24    2    1    2    0    0 -0.21712835842E+02 -0.10895754303E+03 -0.38272541743E+03  0.40677164900E+03  0.81493778007E+02 0.  0.
         25    2    1    2    0    0  0.48096078170E+02  0.15584739273E+03  0.70078298875E+02  0.21716444178E+03  0.12509110379E+03 0.  0.
        -24    2    1    2    0    0 -0.26383242328E+02 -0.46889849693E+02  0.52201594648E+03  0.53029017885E+03  0.76238388787E+02 0.  0.
        -13    1    3    3    0    0 -0.22484253371E+02 -0.44726199745E+01 -0.24216208286E+02  0.33346225017E+02  0.00000000000E+00 0.  1.
         14    1    3    3    0    0  0.77141752896E+00 -0.10448492306E+03 -0.35850920915E+03  0.37342542398E+03  0.00000000000E+00 0. -1.
         13    1    5    5    0    0 -0.22917488009E+01 -0.63695353788E+02  0.37309029305E+03  0.37849533283E+03  0.00000000000E+00 0. -1.
        -14    1    5    5    0    0 -0.24091493527E+02  0.16805504095E+02  0.14892565343E+03  0.15179484602E+03  0.00000000000E+00 0.  1.
          5    1    4    4  501    0 -0.34612579548E+02  0.76602930297E+01  0.97146690034E+01  0.36994025817E+02  0.41800000000E+01 0. -1.
         -5    1    4    4    0  501  0.82708657719E+02  0.14818709970E+03  0.60363629872E+02  0.18017041597E+03  0.41800000000E+01 0. -1.
</event>
<event>
11    1  0.7577197E-009  0.1448617E+03  0.7561462E-02  0.1102248E+00
         22   -1    0    0    0    0  0.00000000000E+00  0.00000000000E+00  0.77883939712E+03  0.77883939712E+03  0.00000000000E+00 0. -1.
         22   -1    0    0    0    0 -0.00000000000E+00 -0.00000000000E+00 -0.41075173513E+03  0.41075173513E+03  0.00000000000E+00 0. -1.
         24    2    1    2    0    0  0.11840927168E+02  0.62521460908E+00 -0.33657250353E+03  0.34619896072E+03  0.80200198422E+02 0.  0.
         25    2    1    2    0    0  0.59837245650E+02  0.16927034965E+02  0.10083791849E+02  0.14005637964E+03  0.12508831337E+03 0.  0.
        -24    2    1    2    0    0 -0.71678172817E+02 -0.17552249574E+02  0.69457637367E+03  0.70333579188E+03  0.82456384591E+02 0.  0.
        -13    1    3    3    0    0  0.30991700738E+02  0.26084541492E+02 -0.26190553446E+03  0.26501961777E+03  0.00000000000E+00 0.  1.
         14    1    3    3    0    0 -0.19150773570E+02 -0.25459326883E+02 -0.74666969063E+02  0.81179342956E+02  0.00000000000E+00 0. -1.
         13    1    5    5    0    0 -0.29972683739E+02  0.25790413468E+02  0.43898452768E+03  0.44076175281E+03  0.00000000000E+00 0. -1.
        -14    1    5    5    0    0 -0.41705489078E+02 -0.43342663042E+02  0.25559184600E+03  0.26257403908E+03  0.00000000000E+00 0.  1.
          5    1    4    4  501    0  0.69827074856E+02  0.61848622346E+02  0.41117085835E+01  0.93463634727E+02  0.41800000000E+01 0.  1.
         -5    1    4    4    0  501 -0.99898292058E+01 -0.44921587381E+02  0.59720832658E+01  0.46592744917E+02  0.41800000000E+01 0.  1.
</event>
<event>
11    1  0.7577197E-009  0.1455865E+03  0.7561462E-02  0.1101476E+00
         22   -1    0    0    0    0  0.00000000000E+00  0.00000000000E+00  0.36190636826E+03  0.36190636826E+03  0.00000000000E+00 0. -1.
         22   -1    0    0    0    0 -0.00000000000E+00 -0.00000000000E+00 -0.33288702933E+03  0.33288702933E+03  0.00000000000E+00 0.  1.
         24    2    1    2    0    0 -0.19894717124E+02  0.26426261722E+02 -0.19461258323E+03  0.21070079403E+03  0.73665595595E+02 0.  0.
         25    2    1    2    0    0 -0.55928444142E+02 -0.19527771470E+02 -0.80667298897E+02  0.16019816349E+03  0.12508762429E+03 0.  0.
        -24    2    1    2    0    0  0.75823161266E+02 -0.68984902521E+01  0.30429922105E+03  0.32389444008E+03  0.80702239295E+02 0.  0.
        -13    1    3    3    0    0 -0.76626712308E+01  0.26959756114E+01 -0.18015895812E+03  0.18034199457E+03  0.00000000000E+00 0.  1.
         14    1    3    3    0    0 -0.12232045893E+02  0.23730286110E+02 -0.14453625109E+02  0.30358799456E+02  0.00000000000E+00 0. -1.
         11    1    5    5    0    0  0.45029206657E+02 -0.38318110166E+01  0.28237620118E+03  0.28596963339E+03  0.00000000000E+00 0. -1.
        -12    1    5    5    0    0  0.30793954609E+02 -0.30666792355E+01  0.21923019874E+02  0.37924806689E+02  0.00000000000E+00 0.  1.
          5    1    4    4  501    0 -0.20416344474E+02 -0.49818548003E+02 -0.96626371316E+02  0.11069256019E+03  0.41800000000E+01 0. -1.
         -5    1    4    4    0  501 -0.35512099669E+02  0.30290776533E+02  0.15959072419E+02  0.49505603302E+02  0.41800000000E+01 0. -1.
</event>
<event>
11    1  0.7577197E-009  0.1358034E+03  0.7561462E-02  0.1112337E+00
         22   -1    0    0    0    0  0.00000000000E+00  0.00000000000E+00  0.27539405602E+03  0.27539405602E+03  0.00000000000E+00 0. -1.
         22   -1    0    0    0    0 -0.00000000000E+00 -0.00000000000E+00 -0.44213718016E+03  0.44213718016E+03  0.00000000000E+00 0. -1.
        -24    2    1    2    0    0  0.22317265122E+01  0.35976635052E+02 -0.33378748327E+03  0.34525530470E+03  0.80547144938E+02 0.  0.
         25    2    1    2    0    0 -0.39389658179E+02 -0.69506876906E+02 -0.31588277818E+02  0.15175077408E+03  0.12509087508E+03 0.  0.
         24    2    1    2    0    0  0.37157931667E+02  0.33530241854E+02  0.19863263695E+03  0.22052515740E+03  0.81678831897E+02 0.  0.
        -11    1    5    5    0    0  0.23385425815E+02  0.15600036843E+02  0.89525072847E+01  0.29502316464E+02  0.00000000000E+00 0.  1.
         12    1    5    5    0    0  0.13772505851E+02  0.17930205010E+02  0.18968012967E+03  0.19102284094E+03  0.00000000000E+00 0. -1.
         11    1    3    3    0    0 -0.13326545554E+02  0.19654506467E+02 -0.31503128328E+03  0.31592500041E+03  0.00000000000E+00 0. -1.
        -12    1    3    3    0    0  0.15558272066E+02  0.16322128585E+02 -0.18756199999E+02  0.29330304288E+02  0.00000000000E+00 0.  1.
          5    1    4    4  501    0  0.12964754832E+02 -0.29791030471E+02 -0.68739948755E+02  0.76146197011E+02  0.41800000000E+01 0.  1.
         -5    1    4    4    0  501 -0.52354413011E+02 -0.39715846435E+02  0.37151670937E+02  0.75604577065E+02  0.41800000000E+01 0.  1.
</event>
<event>
11    1  0.7577197E-009  0.1376940E+03  0.7561462E-02  0.1110161E+00
         22   -1    0    0    0    0  0.00000000000E+00  0.00000000000E+00  0.44097134439E+03  0.44097134439E+03  0.00000000000E+00 0. -1.
         22   -1    0    0    0    0 -0.00000000000E+00 -0.00000000000E+00 -0.19902208500E+04  0.19902208500E+04  0.00000000000E+00 0.  1.
        -24    2    1    2    0    0  0.13005127730E+02  0.43807566207E+02 -0.16158411981E+04  0.16184494057E+04  0.79670980908E+02 0.  0.
         25    2    1    2    0    0  0.28098100715E+02 -0.27227968266E+01 -0.35658737711E+03  0.37894552123E+03  0.12509290011E+03 0.  0.
         24    2    1    2    0    0 -0.41103228445E+02 -0.41084769380E+02  0.42317906964E+03  0.43379726739E+03  0.75644633303E+02 0.  0.
        -13    1    5    5    0    0 -0.43966161062E+02 -0.51441574824E+02  0.21627813027E+03  0.22661749397E+03  0.00000000000E+00 0.  1.
         14    1    5    5    0    0  0.28629326171E+01  0.10356805444E+02  0.20690093937E+03  0.20717977342E+03  0.00000000000E+00 0. -1.
         13    1    3    3    0    0  0.33724012871E+02 -0.60051905565E+01 -0.42117811056E+03  0.42256877804E+03  0.00000000000E+00 0. -1.
        -14    1    3    3    0    0 -0.20718885141E+02  0.49812756763E+02 -0.11946630876E+04  0.11958806277E+04  0.00000000000E+00 0.  1.
          5    1    4    4  501    0  0.34870043066E+02  0.41841552842E+01 -0.17082869286E+02  0.39277523877E+02  0.41800000000E+01 0. -1.
         -5    1    4    4    0  501 -0.67719423508E+01 -0.69069521108E+01 -0.33950450782E+03  0.33966799735E+03  0.41800000000E+01 0. -1.
</event>
<event>
11    1  0.7577197E-009  0.6851148E+03  0.7561462E-02  0.9054532E-01
         22   -1    0    0    0    0  0.00000000000E+00  0.00000000000E+00  0.97711394966E+03  0.97711394966E+03  0.00000000000E+00 0. -1.
         22   -1    0    0    0    0 -0.00000000000E+00 -0.00000000000E+00 -0.15097211013E+04  0.15097211013E+04  0.00000000000E+00 0. -1.
         24    2    1    2    0    0 -0.67896520114E+02  0.61280421398E+02 -0.43226079806E+03  0.44899216279E+03  0.79870753169E+02 0.  0.
         25    2    1    2    0    0 -0.17693955518E+02 -0.72263401934E+03 -0.78800575355E+03  0.10766214692E+04  0.12509084023E+03 0.  0.
        -24    2    1    2    0    0  0.85590475632E+02  0.66135359795E+03  0.68765940002E+03  0.96122141894E+03  0.79729886162E+02 0.  0.
        -13    1    3    3    0    0 -0.72259547870E+02  0.74378079290E+02 -0.33291498799E+03  0.34869174089E+03  0.00000000000E+00 0.  1.
         14    1    3    3    0    0  0.43630277562E+01 -0.13097657891E+02 -0.99345810075E+02  0.10030042190E+03  0.00000000000E+00 0. -1.
         11    1    5    5    0    0  0.93569956869E+02  0.44677949635E+03  0.45159688567E+03  0.64211136287E+03  0.00000000000E+00 0. -1.
        -12    1    5    5    0    0 -0.79794812363E+01  0.21457410160E+03  0.23606251435E+03  0.31911005606E+03  0.00000000000E+00 0.  1.
          5    1    4    4  501    0  0.44587278371E+02 -0.12807341730E+03 -0.13931180579E+03  0.19446356277E+03  0.41800000000E+01 0.  1.
         -5    1    4    4    0  501 -0.62281233889E+02 -0.59456060204E+03 -0.64869394776E+03  0.88215790641E+03  0.41800000000E+01 0.  1.
</event>
<event>
11    1  0.7577197E-009  0.1639091E+03  0.7561462E-02  0.1083457E+00
         22   -1    0    0    0    0  0.00000000000E+00  0.00000000000E+00  0.30521554089E+03  0.30521554089E+03  0.00000000000E+00 0. -1.
         22   -1    0    0    0    0 -0.00000000000E+00 -0.00000000000E+00 -0.88514872111E+03  0.88514872111E+03  0.00000000000E+00 0. -1.
        -24    2    1    2    0    0  0.94010022250E+02  0.29612028707E+02 -0.58221497907E+03  0.59615964975E+03  0.81959072759E+02 0.  0.
         25    2    1    2    0    0 -0.12527493596E+03 -0.58597898578E+02 -0.25815227628E+03  0.31848323669E+03  0.12514571909E+03 0.  0.
         24    2    1    2    0    0  0.31264913709E+02  0.28985869871E+02  0.26043407514E+03  0.27572137556E+03  0.79866726257E+02 0.  0.
        -11    1    5    5    0    0  0.58553832330E+01 -0.10198626538E+02  0.65550743471E+00  0.11778250552E+02  0.00000000000E+00 0.  1.
         12    1    5    5    0    0  0.25409530476E+02  0.39184496409E+02  0.25977856771E+03  0.26394312500E+03  0.00000000000E+00 0. -1.
         11    1    3    3    0    0  0.93395124078E+02  0.43291794066E+02 -0.38674470242E+03  0.40021031157E+03  0.00000000000E+00 0. -1.
        -12    1    3    3    0    0  0.61489817149E+00 -0.13679765359E+02 -0.19547027665E+03  0.19594933818E+03  0.00000000000E+00 0.  1.
          5    1    4    4  501    0  0.25517996612E+02 -0.48304494260E+01 -0.39438700042E+02  0.47406590826E+02  0.41800000000E+01 0. -1.
         -5    1    4    4    0  501 -0.15079293257E+03 -0.53767449152E+02 -0.21871357624E+03  0.27107664586E+03  0.41800000000E+01 0. -1.
</event>
<event>
11    1  0.7577197E-009  0.1641005E+03  0.7561462E-02  0.1083283E+00
         22   -1    0    0    0    0  0.00000000000E+00  0.00000000000E+00  0.19214505289E+03  0.19214505289E+03  0.00000000000E+00 0.  1.
         22   -1    0    0    0    0 -0.00000000000E+00 -0.00000000000E+00 -0.11603230217E+04  0.11603230217E+04  0.00000000000E+00 0. -1.
         24    2    1    2    0    0 -0.95399626490E+02  0.44020699039E+01 -0.59876433968E+03  0.61155474059E+03  0.79749603862E+02 0.  0.
         25    2    1    2    0    0  0.13211073046E+03  0.67143601538E+02 -0.51721610729E+03  0.55237867769E+03  0.12509273999E+03 0.  0.
        -24    2    1    2    0    0 -0.36711103973E+02 -0.71545671442E+02  0.14780247811E+03  0.18853465635E+03  0.85048549963E+02 0.  0.
        -13    1    3    3    0    0 -0.23488239451E+02  0.26164600937E+02 -0.80106227649E+02  0.87483092325E+02  0.00000000000E+00 0.  1.
         14    1    3    3    0    0 -0.71911387039E+02 -0.21762531033E+02 -0.51865811203E+03  0.52407164827E+03  0.00000000000E+00 0. -1.
         13    1    5    5    0    0 -0.29575048750E+02 -0.22008827713E+01  0.56233221372E+01  0.30185247148E+02  0.00000000000E+00 0. -1.
        -14    1    5    5    0    0 -0.71360552231E+01 -0.69344788671E+02  0.14217915597E+03  0.15834940920E+03  0.00000000000E+00 0.  1.
          5    1    4    4  501    0  0.14116133965E+03  0.71286589120E+02 -0.34183443457E+03  0.37666504305E+03  0.41800000000E+01 0. -1.
         -5    1    4    4    0  501 -0.90506091848E+01 -0.41429875818E+01 -0.17538167272E+03  0.17571363464E+03  0.41800000000E+01 0. -1.
</event>
<event>
11    1  0.7577197E-009  0.6026293E+03  0.7561462E-02  0.9189545E-01
         22   -1    0    0    0    0  0.00000000000E+00  0.00000000000E+00  0.27145141613E+04  0.27145141613E+04  0.00000000000E+00 0. -1.
         22   -1    0    0    0    0 -0.00000000000E+00 -0.00000000000E+00 -0.92720739838E+03  0.92720739838E+03  0.00000000000E+00 0.  1.
         24    2    1    2    0    0  0.90181632545E+02 -0.57683409426E+03 -0.69060670764E+03  0.90782787677E+03  0.79646280888E+02 0.  0.
         25    2    1    2    0    0 -0.79109940755E+02  0.62755374777E+03  0.69364995725E+03  0.94703724050E+03  0.12508869904E+03 0.  0.
        -24    2    1    2    0    0 -0.11071691790E+02 -0.50719653518E+02  0.17842635133E+04  0.17868564424E+04  0.81022189942E+02 0.  0.
        -11    1    3    3    0    0  0.11675036944E+02 -0.21807624157E+03 -0.21004642412E+03  0.30300668955E+03  0.00000000000E+00 0.  1.
         12    1    3    3    0    0  0.78506595601E+02 -0.35875785268E+03 -0.48056028352E+03  0.60482118722E+03  0.00000000000E+00 0. -1.
         13    1    5    5    0    0  0.48747746801E+01 -0.14326836916E+02  0.14716739979E+04  0.14717518058E+04  0.00000000000E+00 0. -1.
        -14    1    5    5    0    0 -0.15946466470E+02 -0.36392816602E+02  0.31258951533E+03  0.31510463657E+03  0.00000000000E+00 0.  1.
          5    1    4    4  501    0 -0.11179639964E+03  0.50543186504E+03  0.57348714104E+03  0.77257024180E+03  0.41800000000E+01 0.  1.
         -5    1    4    4    0  501  0.32686458884E+02  0.12212188273E+03  0.12016281621E+03  0.17446699870E+03  0.41800000000E+01 0.  1.
</event>
<event>
11    1  0.7577197E-009  0.1295193E+03  0.7561462E-02  0.1119861E+00
         22   -1    0    0    0    0  0.00000000000E+00  0.00000000000E+00  0.31713870610E+02  0.31713870610E+02  0.00000000000E+00 0.  1.
         22   -1    0    0    0    0 -0.00000000000E+00 -0.00000000000E+00 -0.41195863455E+04  0.41195863455E+04  0.00000000000E+00 0. -1.
         24    2    1    2    0    0 -0.31376592912E+02  0.12062413497E+02 -0.36583559660E+04  0.36593772712E+04  0.79647011867E+02 0.  0.
         25    2    1    2    0    0  0.19454238130E+02 -0.40933909834E+02 -0.35114220851E+03  0.37550054077E+03  0.12508298511E+03 0.  0.
        -24    2    1    2    0    0  0.11922354781E+02  0.28871496337E+02 -0.78374300306E+02  0.11642240409E+03  0.80224306667E+02 0.  0.
        -11    1    3    3    0    0 -0.89132701823E+01  0.35018797803E+02 -0.77455805902E+03  0.77540050901E+03  0.00000000000E+00 0.  1.
         12    1    3    3    0    0 -0.22463322730E+02 -0.22956384306E+02 -0.28837979070E+04  0.28839767622E+04  0.00000000000E+00 0. -1.
         13    1    5    5    0    0 -0.14387491466E+02 -0.23191871535E+02 -0.30770756586E+02  0.41130308495E+02  0.00000000000E+00 0. -1.
        -14    1    5    5    0    0  0.26309846247E+02  0.52063367872E+02 -0.47603543720E+02  0.75292095591E+02  0.00000000000E+00 0.  1.
          5    1    4    4  501    0 -0.32076300579E+01 -0.73790557896E+02 -0.12052993255E+03  0.14142231919E+03  0.41800000000E+01 0.  1.
         -5    1    4    4    0  501  0.22661868188E+02  0.32856648062E+02 -0.23061227596E+03  0.23407822158E+03  0.41800000000E+01 0.  1.
</event>
<event>
11    1  0.7577197E-009  0.1756234E+03  0.7561462E-02  0.1073239E+00
         22   -1    0    0    0    0  0.00000000000E+00  0.00000000000E+00  0.14349888941E+03  0.14349888941E+03  0.00000000000E+00 0. -1.
         22   -1    0    0    0    0 -0.00000000000E+00 -0.00000000000E+00 -0.80524070127E+03  0.80524070127E+03  0.00000000000E+00 0. -1.
        -24    2    1    2    0    0 -0.18672883848E+02 -0.10660958683E+03 -0.38863737713E+03  0.41116416700E+03  0.79389424534E+02 0.  0.
         25    2    1    2    0    0  0.82544725001E+02  0.14712189537E+03 -0.34390704778E+03  0.40296392183E+03  0.12509748625E+03 0.  0.
         24    2    1    2    0    0 -0.63871841154E+02 -0.40512308535E+02  0.70802613037E+02  0.13461150185E+03  0.85944093352E+02 0.  0.
        -11    1    5    5    0    0  0.44686454173E+01  0.19360473586E+02  0.27592054864E+02  0.34001738499E+02  0.00000000000E+00 0.  1.
         12    1    5    5    0    0 -0.68340486571E+02 -0.59872782121E+02  0.43210558173E+02  0.10060976335E+03  0.00000000000E+00 0. -1.
         11    1    3    3    0    0  0.30094576083E+02 -0.49219707074E+02 -0.19650685749E+03  0.20480041043E+03  0.00000000000E+00 0. -1.
        -12    1    3    3    0    0 -0.48767459931E+02 -0.57389879758E+02 -0.19213051964E+03  0.20636375657E+03  0.00000000000E+00 0.  1.
          5    1    4    4  501    0 -0.14653382010E+02  0.80331804487E+02 -0.82493978498E+02  0.11614925443E+03  0.41800000000E+01 0. -1.
         -5    1    4    4    0  501  0.97198107012E+02  0.66790090881E+02 -0.26141306928E+03  0.28681466740E+03  0.41800000000E+01 0. -1.
</event>
<event>
11    1  0.7577197E-009  0.1286625E+03  0.7561462E-02  0.1120923E+00
         22   -1    0    0    0    0  0.00000000000E+00  0.00000000000E+00  0.11509350396E+04  0.11509350396E+04  0.00000000000E+00 0. -1.
         22   -1    0    0    0    0 -0.00000000000E+00 -0.00000000000E+00 -0.12498002829E+03  0.12498002829E+03  0.00000000000E+00 0. -1.
         24    2    1    2    0    0 -0.28831471359E+02  0.34295987477E+01 -0.92435959811E+02  0.12555967730E+03  0.79861192134E+02 0.  0.
         25    2    1    2    0    0  0.28817845971E+02 -0.32875699611E+02  0.30606447433E+03  0.33350922539E+03  0.12506662665E+03 0.  0.
        -24    2    1    2    0    0  0.13625387574E-01  0.29446100863E+02  0.81232649677E+03  0.81684616518E+03  0.80599300176E+02 0.  0.
        -13    1    3    3    0    0 -0.39092447472E+02 -0.33519660490E+01 -0.77610059196E+01  0.39996104043E+02  0.00000000000E+00 0.  1.
         14    1    3    3    0    0  0.10260976113E+02  0.67815647967E+01 -0.84674953892E+02  0.85563573257E+02  0.00000000000E+00 0. -1.
         11    1    5    5    0    0 -0.11636600001E+01  0.56776501808E+02  0.61799523105E+03  0.62059892915E+03  0.00000000000E+00 0. -1.
        -12    1    5    5    0    0  0.11772853876E+01 -0.27330400945E+02  0.19433126571E+03  0.19624723603E+03  0.00000000000E+00 0.  1.
          5    1    4    4  501    0 -0.32934543143E+02  0.29441611270E+02  0.92642291667E+02  0.10272078276E+03  0.41800000000E+01 0.  1.
         -5    1    4    4    0  501  0.61752389114E+02 -0.62317310880E+02  0.21342218266E+03  0.23078844263E+03  0.41800000000E+01 0.  1.
</event>
<event>
11    1  0.7577197E-009  0.1328786E+03  0.7561462E-02  0.1115782E+00
         22   -1    0    0    0    0  0.00000000000E+00  0.00000000000E+00  0.37370372200E+03  0.37370372200E+03  0.00000000000E+00 0.  1.
         22   -1    0    0    0    0 -0.00000000000E+00 -0.00000000000E+00 -0.12807949119E+04  0.12807949119E+04  0.00000000000E+00 0. -1.
        -24    2    1    2    0    0 -0.43322709302E+02 -0.11180800592E+01 -0.99192402243E+03  0.99611834285E+03  0.80376485628E+02 0.  0.
         25    2    1    2    0    0  0.56117306411E+02 -0.42188338098E+02 -0.26273295772E+03  0.29935049855E+03  0.12511237333E+03 0.  0.
         24    2    1    2    0    0 -0.12794597108E+02  0.43306418157E+02  0.34756579025E+03  0.35902979250E+03  0.77854131433E+02 0.  0.
        -13    1    5    5    0    0 -0.54063004978E+01  0.58904750762E+02  0.32641054073E+03  0.33172705474E+03  0.00000000000E+00 0.  1.
         14    1    5    5    0    0 -0.73882966106E+01 -0.15598332604E+02  0.21155249519E+02  0.27302737757E+02  0.00000000000E+00 0. -1.
         13    1    3    3    0    0  0.13679567783E+02 -0.19745587952E+02 -0.49605712997E+03  0.49663839462E+03  0.00000000000E+00 0. -1.
        -14    1    3    3    0    0 -0.57002277085E+02  0.18627507892E+02 -0.49586689247E+03  0.49947994823E+03  0.00000000000E+00 0.  1.
          5    1    4    4  501    0  0.44779445283E+02 -0.16557110588E+02 -0.26649049240E+03  0.27076556571E+03  0.41800000000E+01 0. -1.
         -5    1    4    4    0  501  0.11337861128E+02 -0.25631227510E+02  0.37575346862E+01  0.28584932841E+02  0.41800000000E+01 0. -1.
</event>
<event>
11    1  0.7577197E-009  0.1271894E+03  0.7561462E-02  0.1122771E+00
         22   -1    0    0    0    0  0.00000000000E+00  0.00000000000E+00  0.18280802526E+02  0.18280802526E+02  0.00000000000E+00 0. -1.
         22   -1    0    0    0    0 -0.00000000000E+00 -0.00000000000E+00 -0.25455474140E+04  0.25455474140E+04  0.00000000000E+00 0. -1.
        -24    2    1    2    0    0 -0.56514565653E+01  0.15419513272E+02 -0.12664866058E+04  0.12690965798E+04  0.79675000473E+02 0.  0.
         25    2    1    2    0    0 -0.10741539173E+02 -0.30596123723E+02 -0.11390919873E+04  0.11463975084E+04  0.12508072715E+03 0.  0.
         24    2    1    2    0    0  0.16392995738E+02  0.15176610451E+02 -0.12168801830E+03  0.14833412830E+03  0.81828968013E+02 0.  0.
        -11    1    5    5    0    0 -0.30086035003E+02 -0.10107250264E+02 -0.41087880514E+02  0.51918589496E+02  0.00000000000E+00 0.  1.
         12    1    5    5    0    0  0.46479030741E+02  0.25283860716E+02 -0.80600137791E+02  0.96415538806E+02  0.00000000000E+00 0. -1.
         11    1    3    3    0    0  0.83190406380E+01 -0.13841042158E+02 -0.10563209150E+04  0.10564443461E+04  0.00000000000E+00 0. -1.
        -12    1    3    3    0    0 -0.13970497203E+02  0.29260555429E+02 -0.21016569081E+03  0.21265223368E+03  0.00000000000E+00 0.  1.
          5    1    4    4  501    0 -0.35550370684E+02  0.40332979021E+02 -0.46325250785E+03  0.46638067765E+03  0.41800000000E+01 0. -1.
         -5    1    4    4    0  501  0.24808831511E+02 -0.70929102744E+02 -0.67583947946E+03  0.68001683077E+03  0.41800000000E+01 0. -1.
</event>
<event>
11    1  0.7577197E-009  0.2503170E+03  0.7561462E-02  0.1023730E+00
         22   -1    0    0    0    0  0.00000000000E+00  0.00000000000E+00  0.14854255217E+04  0.14854255217E+04  0.00000000000E+00 0.  1.
         22   -1    0    0    0    0 -0.00000000000E+00 -0.00000000000E+00 -0.74568423149E+02  0.74568423149E+02  0.00000000000E+00 0.  1.
        -24    2    1    2    0    0  0.19746358008E+03  0.12203778662E+03  0.22411603973E+03  0.33174842826E+03  0.77096910255E+02 0.  0.
         25    2    1    2    0    0 -0.13461339416E+03 -0.10821193556E+03  0.80589765373E+03  0.83363581561E+03  0.12508819251E+03 0.  0.
         24    2    1    2    0    0 -0.62850185917E+02 -0.13825851058E+02  0.38084340511E+03  0.39460970099E+03  0.80832028728E+02 0.  0.
        -13    1    5    5    0    0 -0.65532346846E+02  0.18188991569E+02  0.20893981944E+03  0.21972977960E+03  0.00000000000E+00 0.  1.
         14    1    5    5    0    0  0.26821609295E+01 -0.32014842626E+02  0.17190358568E+03  0.17487992139E+03  0.00000000000E+00 0. -1.
         11    1    3    3    0    0  0.45084303613E+02  0.28053328717E+02  0.10212610483E+03  0.11510571216E+03  0.00000000000E+00 0. -1.
        -12    1    3    3    0    0  0.15237927647E+03  0.93984457902E+02  0.12198993490E+03  0.21664271610E+03  0.00000000000E+00 0.  1.
          5    1    4    4  501    0 -0.92385315427E+01 -0.84516068369E+02  0.29564927622E+03  0.30765936230E+03  0.41800000000E+01 0.  1.
         -5    1    4    4    0  501 -0.12537486262E+03 -0.23695867192E+02  0.51024837750E+03  0.52597645332E+03  0.41800000000E+01 0.  1.
</event>
<event>
11    1  0.7577197E-009  0.1582533E+03  0.7561462E-02  0.1088732E+00
         22   -1    0    0    0    0  0.00000000000E+00  0.00000000000E+00  0.23107894415E+03  0.23107894415E+03  0.00000000000E+00 0.  1.
         22   -1    0    0    0    0 -0.00000000000E+00 -0.00000000000E+00 -0.67334896098E+03  0.67334896098E+03  0.00000000000E+00 0.  1.
         24    2    1    2    0    0 -0.55698322058E+01 -0.72363259199E+02 -0.57091051796E+03  0.58121309901E+03  0.81255046768E+02 0.  0.
         25    2    1    2    0    0 -0.57970258396E+02  0.11718806443E+03  0.88461695456E+02  0.20140710939E+03  0.12508300782E+03 0.  0.
        -24    2    1    2    0    0  0.63540090601E+02 -0.44824805228E+02  0.40178805677E+02  0.12180769673E+03  0.84712291198E+02 0.  0.
        -11    1    3    3    0    0 -0.21175339223E+02 -0.80926607963E+02 -0.53051411937E+03  0.53706865643E+03  0.00000000000E+00 0.  1.
         12    1    3    3    0    0  0.15605507017E+02  0.85633487644E+01 -0.40396398591E+02  0.44144442577E+02  0.00000000000E+00 0. -1.
         11    1    5    5    0    0 -0.84389228805E+00  0.10108936094E+02 -0.16909638958E+02  0.19718991679E+02  0.00000000000E+00 0. -1.
        -12    1    5    5    0    0  0.64383982889E+02 -0.54933741322E+02  0.57088444635E+02  0.10208870505E+03  0.00000000000E+00 0.  1.
          5    1    4    4  501    0 -0.69387345218E+02  0.73740710516E+01  0.26680846176E+02  0.74821925617E+02  0.41800000000E+01 0.  1.
         -5    1    4    4    0  501  0.11417086823E+02  0.10981399338E+03  0.61780849280E+02  0.12658518377E+03  0.41800000000E+01 0.  1.
</event>
<event>
11    1  0.7577197E-009  0.1532788E+03  0.7561462E-02  0.1093575E+00
         22   -1    0    0    0    0  0.00000000000E+00  0.00000000000E+00  0.44818626679E+03  0.44818626679E+03  0.00000000000E+00 0.  1.
         22   -1    0    0    0    0 -0.00000000000E+00 -0.00000000000E+00 -0.67838713272E+03  0.67838713272E+03  0.00000000000E+00 0. -1.
         24    2    1    2    0    0  0.68948778999E+02 -0.58305473564E+02 -0.53680518655E+03  0.55063687983E+03  0.82992184868E+02 0.  0.
         25    2    1    2    0    0 -0.16228728971E+02  0.95083051226E+02 -0.79031755430E+02  0.17662818412E+03  0.12508932322E+03 0.  0.
        -24    2    1    2    0    0 -0.52720050028E+02 -0.36777577662E+02  0.38563607606E+03  0.39930833556E+03  0.81240198151E+02 0.  0.
        -13    1    3    3    0    0  0.60224482171E+02 -0.74575579033E+02 -0.34894342151E+03  0.36187016547E+03  0.00000000000E+00 0.  1.
         14    1    3    3    0    0  0.87242968280E+01  0.16270105469E+02 -0.18786176504E+03  0.18876671436E+03  0.00000000000E+00 0. -1.
         11    1    5    5    0    0 -0.16442779341E+02 -0.45674780165E+02  0.99133799493E+02  0.11038143294E+03  0.00000000000E+00 0. -1.
        -12    1    5    5    0    0 -0.36277270687E+02  0.88972025029E+01  0.28650227657E+03  0.28892690262E+03  0.00000000000E+00 0.  1.
          5    1    4    4  501    0  0.32544713242E+02  0.88519959664E+02 -0.14730833960E+02  0.95547953867E+02  0.41800000000E+01 0.  1.
         -5    1    4    4    0  501 -0.48773442213E+02  0.65630915618E+01 -0.64300921469E+02  0.81080230253E+02  0.41800000000E+01 0.  1.
</event>
<event>
11    1  0.7577197E-009  0.1627995E+03  0.7561462E-02  0.1084473E+00
         22   -1    0    0    0    0  0.00000000000E+00  0.00000000000E+00  0.14529743773E+03  0.14529743773E+03  0.00000000000E+00 0.  1.
         22   -1    0    0    0    0 -0.00000000000E+00 -0.00000000000E+00 -0.20292997439E+04  0.20292997439E+04  0.00000000000E+00 0.  1.
         24    2    1    2    0    0 -0.92658560941E+02  0.42527037260E+02 -0.17502711067E+04  0.17550683290E+04  0.80135726693E+02 0.  0.
         25    2    1    2    0    0  0.10912009626E+03 -0.93009375337E+02 -0.21673731803E+03  0.28839313585E+03  0.12505037573E+03 0.  0.
        -24    2    1    2    0    0 -0.16461535319E+02  0.50482338078E+02  0.83006118551E+02  0.13113571678E+03  0.86528098881E+02 0.  0.
        -11    1    3    3    0    0 -0.10005252946E+03  0.41735259367E+02 -0.17313163805E+04  0.17347071078E+04  0.00000000000E+00 0.  1.
         12    1    3    3    0    0  0.73939685150E+01  0.79177789244E+00 -0.18954726181E+02  0.20361221162E+02  0.00000000000E+00 0. -1.
         11    1    5    5    0    0 -0.25099779237E+01 -0.70817924029E+01 -0.14911458513E+02  0.16697406020E+02  0.00000000000E+00 0. -1.
        -12    1    5    5    0    0 -0.13951557395E+02  0.57564130480E+02  0.97917577064E+02  0.11443831076E+03  0.00000000000E+00 0.  1.
          5    1    4    4  501    0  0.11908909854E+03 -0.79154840920E+02 -0.22679634987E+03  0.26814503342E+03  0.41800000000E+01 0. -1.
         -5    1    4    4    0  501 -0.99690022796E+01 -0.13854534418E+02  0.10059031844E+02  0.20248102430E+02  0.41800000000E+01 0. -1.
</event>
<event>
11    1  0.7577197E-009  0.2843442E+03  0.7561462E-02  0.1007044E+00
         22   -1    0    0    0    0  0.00000000000E+00  0.00000000000E+00  0.33683831682E+04  0.33683831682E+04  0.00000000000E+00 0.  1.
         22   -1    0    0    0    0 -0.00000000000E+00 -0.00000000000E+00 -0.12954704293E+04  0.12954704293E+04  0.00000000000E+00 0.  1.
         24    2    1    2    0    0  0.20138966258E+03 -0.15635344884E+03 -0.12631632860E+04  0.12912679277E+04  0.82384323735E+02 0.  0.
         25    2    1    2    0    0 -0.19995121532E+03  0.23675344735E+03  0.16998074056E+04  0.17323467897E+04  0.12508996866E+03 0.  0.
        -24    2    1    2    0    0 -0.14384472587E+01 -0.80399998516E+02  0.16362686194E+04  0.16402388801E+04  0.80884856870E+02 0.  0.
        -11    1    3    3    0    0  0.13286721129E+03 -0.14739859506E+03 -0.96650871827E+03  0.98667073746E+03  0.00000000000E+00 0.  1.
         12    1    3    3    0    0  0.68522451282E+02 -0.89548537796E+01 -0.29665456775E+03  0.30459719024E+03  0.00000000000E+00 0. -1.
         13    1    5    5    0    0  0.32276816765E+02 -0.70128602933E+01  0.42589299783E+03  0.42717188427E+03  0.00000000000E+00 0. -1.
        -14    1    5    5    0    0 -0.33715264024E+02 -0.73387138222E+02  0.12103756215E+04  0.12130669958E+04  0.00000000000E+00 0.  1.
          5    1    4    4  501    0 -0.96719230190E+02  0.59365374922E+02  0.87681424158E+03  0.88413774033E+03  0.41800000000E+01 0.  1.
         -5    1    4    4    0  501 -0.10323198513E+03  0.17738807243E+03  0.82299316403E+03  0.84820904937E+03  0.41800000000E+01 0.  1.
</event>
<event>
11    1  0.7577197E-009  0.1481387E+03  0.7561462E-02  0.1098796E+00
         22   -1    0    0    0    0  0.00000000000E+00  0.00000000000E+00  0.19225928323E+03  0.19225928323E+03  0.00000000000E+00 0. -1.
         22   -1    0    0    0    0 -0.00000000000E+00 -0.00000000000E+00 -0.35844414283E+03  0.35844414283E+03  0.00000000000E+00 0. -1.
         24    2    1    2    0    0  0.74356032118E+01 -0.43298521416E+00 -0.23344366145E+03  0.24709116368E+03  0.80638851852E+02 0.  0.
         25    2    1    2    0    0  0.16386968447E+02 -0.75824256045E+02 -0.35876427428E+02  0.15149940217E+03  0.12508836985E+03 0.  0.
        -24    2    1    2    0    0 -0.23822571659E+02  0.76257241259E+02  0.10313522928E+03  0.15211286021E+03  0.78222534844E+02 0.  0.
        -13    1    3    3    0    0  0.31214383020E+02  0.14258308269E+01 -0.33810608336E+02  0.46038331170E+02  0.00000000000E+00 0.  1.
         14    1    3    3    0    0 -0.23778779808E+02 -0.18588160411E+01 -0.19963305311E+03  0.20105283251E+03  0.00000000000E+00 0. -1.
         13    1    5    5    0    0 -0.72072020652E+01  0.86123854865E+02  0.61079252664E+02  0.10582975595E+03  0.00000000000E+00 0. -1.
        -14    1    5    5    0    0 -0.16615369594E+02 -0.98666136061E+01  0.42055976611E+02  0.46283104255E+02  0.00000000000E+00 0.  1.
          5    1    4    4  501    0 -0.15795145713E+02  0.23107024370E+02 -0.37974987186E+02  0.47360249736E+02  0.41800000000E+01 0.  1.
         -5    1    4    4    0  501  0.32182114161E+02 -0.98931280415E+02  0.20985597577E+01  0.10413915243E+03  0.41800000000E+01 0.  1.
</event>
<event>
11    1  0.7577197E-009  0.1714118E+03  0.7561462E-02  0.1076810E+00
         22   -1    0    0    0    0  0.00000000000E+00  0.00000000000E+00  0.99778784492E+02  0.99778784492E+02  0.00000000000E+00 0.  1.
         22   -1    0    0    0    0 -0.00000000000E+00 -0.00000000000E+00 -0.15294804986E+04  0.15294804986E+04  0.00000000000E+00 0. -1.
         24    2    1    2    0    0 -0.13997405237E+02 -0.28936424910E+01 -0.10704819931E+04  0.10736690656E+04  0.81420294888E+02 0.  0.
         25    2    1    2    0    0  0.25944182389E+02 -0.11387661790E+03 -0.37531484537E+03  0.41249200250E+03  0.12508970488E+03 0.  0.
        -24    2    1    2    0    0 -0.11946777152E+02  0.11677026039E+03  0.16095124272E+02  0.14309821505E+03  0.80249778382E+02 0.  0.
        -11    1    3    3    0    0 -0.34407098999E+02  0.53498129008E+01 -0.20712404440E+03  0.21003056618E+03  0.00000000000E+00 0.  1.
         12    1    3    3    0    0  0.20409693762E+02 -0.82434553918E+01 -0.86335794865E+03  0.86363849941E+03  0.00000000000E+00 0. -1.
         11    1    5    5    0    0  0.15646127732E+02 -0.49298977473E+01 -0.35177173009E+01  0.16777351990E+02  0.00000000000E+00 0. -1.
        -12    1    5    5    0    0 -0.27592904884E+02  0.12170015814E+03  0.19612841573E+02  0.12632086306E+03  0.00000000000E+00 0.  1.
          5    1    4    4  501    0 -0.29042118656E+02 -0.70880156926E+01 -0.18470122130E+03  0.18715153799E+03  0.41800000000E+01 0. -1.
         -5    1    4    4    0  501  0.54986301045E+02 -0.10678860221E+03 -0.19061362407E+03  0.22534046451E+03  0.41800000000E+01 0. -1.
</event>
<event>
11    1  0.7577197E-009  0.1571153E+03  0.7561462E-02  0.1089822E+00
         22   -1    0    0    0    0  0.00000000000E+00  0.00000000000E+00  0.22982726835E+03  0.22982726835E+03  0.00000000000E+00 0. -1.
         22   -1    0    0    0    0 -0.00000000000E+00 -0.00000000000E+00 -0.36225606455E+03  0.36225606455E+03  0.00000000000E+00 0. -1.
        -24    2    1    2    0    0 -0.44847589028E+02  0.81810530192E+02 -0.13675617927E+03  0.18359728540E+03  0.79381619700E+02 0.  0.
         25    2    1    2    0    0  0.70596097097E+02 -0.70720724396E+02 -0.15826778469E+03  0.22511664055E+03  0.12507429951E+03 0.  0.
         24    2    1    2    0    0 -0.25748508068E+02 -0.11089805795E+02  0.16259516777E+03  0.18336940694E+03  0.80007383148E+02 0.  0.
        -11    1    5    5    0    0 -0.26420144836E+01 -0.42001237019E+02  0.11262630240E+03  0.12023214272E+03  0.00000000000E+00 0.  1.
         12    1    5    5    0    0 -0.23106493585E+02  0.30911431224E+02  0.49968865375E+02  0.63137264218E+02  0.00000000000E+00 0. -1.
         11    1    3    3    0    0 -0.53302375397E+02  0.89615067521E+02 -0.97727763989E+02  0.14290808026E+03  0.00000000000E+00 0. -1.
        -12    1    3    3    0    0  0.84547863689E+01 -0.78045373290E+01 -0.39028415285E+02  0.40689205143E+02  0.00000000000E+00 0.  1.
          5    1    4    4  501    0 -0.59536705075E+01 -0.67822932566E+02 -0.12306982697E+03  0.14070910093E+03  0.41800000000E+01 0.  1.
         -5    1    4    4    0  501  0.76549767604E+02 -0.28977918305E+01 -0.35197957728E+02  0.84407539627E+02  0.41800000000E+01 0.  1.
</event>
<event>
11    1  0.7577197E-009  0.2357462E+03  0.7561462E-02  0.1031779E+00
         22   -1    0    0    0    0  0.00000000000E+00  0.00000000000E+00  0.51876096933E+02  0.51876096933E+02  0.00000000000E+00 0. -1.
         22   -1    0    0    0    0 -0.00000000000E+00 -0.00000000000E+00 -0.25269118951E+04  0.25269118951E+04  0.00000000000E+00 0. -1.
        -24    2    1    2    0    0 -0.19246137113E+03  0.33070850549E+02 -0.18351782730E+04  0.18472757140E+04  0.80082516561E+02 0.  0.
         25    2    1    2    0    0  0.21828325811E+03 -0.66409807040E+02 -0.43729507472E+03  0.50885425004E+03  0.12509125535E+03 0.  0.
         24    2    1    2    0    0 -0.25821886975E+02  0.33338956491E+02 -0.20256245046E+03  0.22265802797E+03  0.82260532555E+02 0.  0.
        -11    1    5    5    0    0 -0.20901407835E+01  0.57478911615E+02 -0.11057578217E+03  0.12464027267E+03  0.00000000000E+00 0.  1.
         12    1    5    5    0    0 -0.23731746192E+02 -0.24139955124E+02 -0.91986668292E+02  0.98017755301E+02  0.00000000000E+00 0. -1.
         11    1    3    3    0    0 -0.26859614248E+02  0.21291565565E+02 -0.14649990677E+03  0.15045594812E+03  0.00000000000E+00 0. -1.
        -12    1    3    3    0    0 -0.16560175688E+03  0.11779284984E+02 -0.16886783662E+04  0.16968197659E+04  0.00000000000E+00 0.  1.
          5    1    4    4  501    0  0.21407455306E+03 -0.80258463049E+02 -0.33588871093E+03  0.40633487875E+03  0.41800000000E+01 0. -1.
         -5    1    4    4    0  501  0.42087050417E+01  0.13848656009E+02 -0.10140636379E+03  0.10251937129E+03  0.41800000000E+01 0. -1.
</event>
<event>
11    1  0.7577197E-009  0.1519056E+03  0.7561462E-02  0.1094947E+00
         22   -1    0    0    0    0  0.00000000000E+00  0.00000000000E+00  0.14580008759E+04  0.14580008759E+04  0.00000000000E+00 0. -1.
         22   -1    0    0    0    0 -0.00000000000E+00 -0.00000000000E+00 -0.22746360871E+04  0.22746360871E+04  0.00000000000E+00 0.  1.
         24    2    1    2    0    0 -0.46581545021E+02  0.71820716463E+02 -0.22000604502E+04  0.22031956463E+04  0.80479907585E+02 0.  0.
         25    2    1    2    0    0  0.63849802897E+02 -0.11071188765E+03  0.40446604216E+02  0.18335033517E+03  0.12508996050E+03 0.  0.
        -24    2    1    2    0    0 -0.17268257876E+02  0.38891171186E+02  0.13429786349E+04  0.13460909815E+04  0.80985188589E+02 0.  0.
        -11    1    3    3    0    0 -0.58537682873E+02  0.18585979658E+02 -0.13395253986E+04  0.13409326577E+04  0.00000000000E+00 0.  1.
         12    1    3    3    0    0  0.11956137853E+02  0.53234736806E+02 -0.86053505160E+03  0.86226298858E+03  0.00000000000E+00 0. -1.
         13    1    5    5    0    0  0.25473001968E+01  0.50474597336E+02  0.45198120315E+03  0.45479795702E+03  0.00000000000E+00 0. -1.
        -14    1    5    5    0    0 -0.19815558072E+02 -0.11583426149E+02  0.89099743171E+03  0.89129302444E+03  0.00000000000E+00 0.  1.
          5    1    4    4  501    0  0.20227471706E+02  0.22884262778E+02  0.28936077695E+02  0.42280126383E+02  0.41800000000E+01 0. -1.
         -5    1    4    4    0  501  0.43622331190E+02 -0.13359615043E+03  0.11510526521E+02  0.14107020879E+03  0.41800000000E+01 0. -1.
</event>
<event>
11    1  0.7577197E-009  0.2206734E+03  0.7561462E-02  0.1040796E+00
         22   -1    0    0    0    0  0.00000000000E+00  0.00000000000E+00  0.49427330569E+03  0.49427330569E+03  0.00000000000E+00 0. -1.
         22   -1    0    0    0    0 -0.00000000000E+00 -0.00000000000E+00 -0.60711841480E+03  0.60711841480E+03  0.00000000000E+00 0.  1.
        -24    2    1    2    0    0  0.29385330379E+02  0.11748278267E+02 -0.31232264465E+03  0.32395571106E+03  0.80002179243E+02 0.  0.
         25    2    1    2    0    0  0.15274407540E+03  0.15740548336E+02 -0.22969652253E+03  0.30329204775E+03  0.12508819422E+03 0.  0.
         24    2    1    2    0    0 -0.18212940578E+03 -0.27488826603E+02  0.42917405807E+03  0.47414396168E+03  0.81825229877E+02 0.  0.
        -13    1    5    5    0    0 -0.13260694580E+03 -0.46312063862E+02  0.24401014476E+03  0.28154992466E+03  0.00000000000E+00 0.  1.
         14    1    5    5    0    0 -0.49522459985E+02  0.18823237258E+02  0.18516391331E+03  0.19259403703E+03  0.00000000000E+00 0. -1.
         11    1    3    3    0    0  0.51235672411E+02 -0.50372906102E+01 -0.13459856018E+03  0.14410843426E+03  0.00000000000E+00 0. -1.
        -12    1    3    3    0    0 -0.21850342032E+02  0.16785568877E+02 -0.17772408447E+03  0.17984727680E+03  0.00000000000E+00 0.  1.
          5    1    4    4  501    0 -0.11460788282E+02  0.30435800192E+02 -0.31647065432E+02  0.45570788361E+02  0.41800000000E+01 0.  1.
         -5    1    4    4    0  501  0.16420486368E+03 -0.14695251856E+02 -0.19804945710E+03  0.25772125939E+03  0.41800000000E+01 0.  1.
</event>
<event>
11    1  0.7577197E-009  0.1946078E+03  0.7561462E-02  0.1058404E+00
         22   -1    0    0    0    0  0.00000000000E+00  0.00000000000E+00  0.18688213421E+04  0.18688213421E+04  0.00000000000E+00 0. -1.
         22   -1    0    0    0    0 -0.00000000000E+00 -0.00000000000E+00 -0.46094207448E+03  0.46094207448E+03  0.00000000000E+00 0. -1.
        -24    2    1    2    0    0  0.25295187477E+02  0.14796704516E+03 -0.38761520653E+03  0.42361822625E+03  0.81686965399E+02 0.  0.
         25    2    1    2    0    0 -0.53184565374E+02 -0.13216382995E+03  0.11154817876E+03  0.21997055742E+03  0.12509266167E+03 0.  0.
         24    2    1    2    0    0  0.27889377897E+02 -0.15803215207E+02  0.16839462954E+04  0.16861746329E+04  0.80512160126E+02 0.  0.
        -13    1    5    5    0    0  0.27568479081E+02  0.98155778682E+01  0.21252355131E+03  0.21452884764E+03  0.00000000000E+00 0.  1.
         14    1    5    5    0    0  0.32089881608E+00 -0.25618793076E+02  0.14714227441E+04  0.14716457853E+04  0.00000000000E+00 0. -1.
         11    1    3    3    0    0  0.20176841302E+02  0.65143811943E+02 -0.27738360869E+03  0.28564398739E+03  0.00000000000E+00 0. -1.
        -12    1    3    3    0    0  0.51183461752E+01  0.82823233217E+02 -0.11023159783E+03  0.13797423886E+03  0.00000000000E+00 0.  1.
          5    1    4    4  501    0 -0.84695641604E+02 -0.53462225732E+02  0.83841203322E+02  0.13068428009E+03  0.41800000000E+01 0. -1.
         -5    1    4    4    0  501  0.31511076230E+02 -0.78701604221E+02  0.27706975443E+02  0.89286277335E+02  0.41800000000E+01 0. -1.
</event>
<event>
11    1  0.7577197E-009  0.1595858E+03  0.7561462E-02  0.1087468E+00
         22   -1    0    0    0    0  0.00000000000E+00  0.00000000000E+00  0.14196098415E+04  0.14196098415E+04  0.00000000000E+00 0. -1.
         22   -1    0    0    0    0 -0.00000000000E+00 -0.00000000000E+00 -0.80824472336E+03  0.80824472336E+03  0.00000000000E+00 0.  1.
        -24    2    1    2    0    0  0.33854598863E+02  0.47295708385E+02 -0.74987404031E+03  0.75634772555E+03  0.79798419231E+02 0.  0.
         25    2    1    2    0    0 -0.70826817404E+02  0.46589247824E+02  0.58065563526E+02  0.16188370686E+03  0.12509088218E+03 0.  0.
         24    2    1    2    0    0  0.36972218541E+02 -0.93884956208E+02  0.13031735949E+04  0.13096231325E+04  0.81670071745E+02 0.  0.
        -13    1    5    5    0    0  0.17315498874E+02 -0.32089603973E+02  0.93991181632E+03  0.94061883441E+03  0.00000000000E+00 0.  1.
         14    1    5    5    0    0  0.19656719667E+02 -0.61795352235E+02  0.36326177860E+03  0.36900429805E+03  0.00000000000E+00 0. -1.
         13    1    3    3    0    0  0.37185973587E+02  0.31294122880E+02 -0.18625284435E+03  0.19248958618E+03  0.00000000000E+00 0. -1.
        -14    1    3    3    0    0 -0.33313747236E+01  0.16001585505E+02 -0.56362119596E+03  0.56385813937E+03  0.00000000000E+00 0.  1.
          5    1    4    4  501    0 -0.65889038814E+01  0.12358649242E+02 -0.38329312124E+02  0.41021438704E+02  0.41800000000E+01 0.  1.
         -5    1    4    4    0  501 -0.64237913523E+02  0.34230598582E+02  0.96394875650E+02  0.12086226816E+03  0.41800000000E+01 0.  1.
</event>
<event>
11    1  0.7577197E-009  0.1333288E+03  0.7561462E-02  0.1115245E+00
         22   -1    0    0    0    0  0.00000000000E+00  0.00000000000E+00  0.47957431475E+03  0.47957431475E+03  0.00000000000E+00 0.  1.
         22   -1    0    0    0    0 -0.00000000000E+00 -0.00000000000E+00 -0.24852276429E+03  0.24852276429E+03  0.00000000000E+00 0.  1.
         24    2    1    2    0    0 -0.27152371787E+02 -0.10476843675E+02 -0.20414334086E+03  0.22191457514E+03  0.82003411483E+02 0.  0.
         25    2    1    2    0    0  0.65179578961E+02 -0.75977815299E+01  0.14523090072E+03  0.20260127915E+03  0.12509660264E+03 0.  0.
        -24    2    1    2    0    0 -0.38027207173E+02  0.18074625205E+02  0.28996399060E+03  0.30358122475E+03  0.79433516945E+02 0.  0.
        -11    1    3    3    0    0 -0.15555734115E+02  0.25874200625E+02 -0.16311734083E+03  0.16588767887E+03  0.00000000000E+00 0.  1.
         12    1    3    3    0    0 -0.11596637672E+02 -0.36351044299E+02 -0.41026000027E+02  0.56026896266E+02  0.00000000000E+00 0. -1.
         11    1    5    5    0    0  0.36602448258E+01 -0.11090744831E+02  0.28868370434E+01  0.12030620982E+02  0.00000000000E+00 0. -1.
        -12    1    5    5    0    0 -0.41687451999E+02  0.29165370036E+02  0.28707715355E+03  0.29155060376E+03  0.00000000000E+00 0.  1.
          5    1    4    4  501    0  0.29495771132E+02 -0.55068774652E+02  0.12486014255E+03  0.13967855260E+03  0.41800000000E+01 0.  1.
         -5    1    4    4    0  501  0.35683807829E+02  0.47470993122E+02  0.20370758169E+02  0.62922726558E+02  0.41800000000E+01 0.  1.
</event>
<event>
11    1  0.7577197E-009  0.1438537E+03  0.7561462E-02  0.1103330E+00
         22   -1    0    0    0    0  0.00000000000E+00  0.00000000000E+00  0.51342804567E+03  0.51342804567E+03  0.00000000000E+00 0. -1.
         22   -1    0    0    0    0 -0.00000000000E+00 -0.00000000000E+00 -0.73210193663E+03  0.73210193663E+03  0.00000000000E+00 0.  1.
         24    2    1    2    0    0  0.27873479697E+02 -0.30208975063E+02 -0.64820019678E+03  0.65444640569E+03  0.80293771706E+02 0.  0.
         25    2    1    2    0    0  0.22615138346E+02 -0.24472276205E+02 -0.17674830926E+02  0.13064275208E+03  0.12507914390E+03 0.  0.
        -24    2    1    2    0    0 -0.50488618042E+02  0.54681251268E+02  0.44720113675E+03  0.46044082452E+03  0.80484510225E+02 0.  0.
        -13    1    3    3    0    0  0.21524002964E+02  0.13529842850E+02 -0.47554272828E+03  0.47622182412E+03  0.00000000000E+00 0.  1.
         14    1    3    3    0    0  0.63494767332E+01 -0.43738817913E+02 -0.17265746850E+03  0.17822458157E+03  0.00000000000E+00 0. -1.
         11    1    5    5    0    0  0.12233324030E+02  0.29515162543E+02  0.24884421538E+03  0.25088691190E+03  0.00000000000E+00 0. -1.
        -12    1    5    5    0    0 -0.62721942073E+02  0.25166088725E+02  0.19835692137E+03  0.20955391262E+03  0.00000000000E+00 0.  1.
          5    1    4    4  501    0 -0.25593655166E+02  0.30821746977E+02 -0.36969487666E+02  0.54673857462E+02  0.41800000000E+01 0.  1.
         -5    1    4    4    0  501  0.48208793511E+02 -0.55294023182E+02  0.19294656740E+02  0.75968894623E+02  0.41800000000E+01 0.  1.
</event>
<event>
11    1  0.7577197E-009  0.8060181E+03  0.7561462E-02  0.8889175E-01
         22   -1    0    0    0    0  0.00000000000E+00  0.00000000000E+00  0.74285147534E+03  0.74285147534E+03  0.00000000000E+00 0.  1.
         22   -1    0    0    0    0 -0.00000000000E+00 -0.00000000000E+00 -0.15213739835E+04  0.15213739835E+04  0.00000000000E+00 0.  1.
         24    2    1    2    0    0  0.39693256925E+01  0.14467872045E+03 -0.52330847972E+03  0.54972650433E+03  0.86021956048E+02 0.  0.
         25    2    1    2    0    0  0.79085492879E+03 -0.28364888519E+02 -0.39841412689E+03  0.89478282489E+03  0.12508557840E+03 0.  0.
        -24    2    1    2    0    0 -0.79482425448E+03 -0.11631383193E+03  0.14320009846E+03  0.81971612961E+03  0.78445917271E+02 0.  0.
        -11    1    3    3    0    0  0.33829479898E+02  0.64228718166E+02 -0.33517817530E+03  0.34294922532E+03  0.00000000000E+00 0.  1.
         12    1    3    3    0    0 -0.29860154206E+02  0.80450002282E+02 -0.18813030442E+03  0.20677727901E+03  0.00000000000E+00 0. -1.
         13    1    5    5    0    0 -0.19420790803E+03 -0.42148713826E+02  0.41667229974E+01  0.19877270235E+03  0.00000000000E+00 0. -1.
        -14    1    5    5    0    0 -0.60061634644E+03 -0.74165118103E+02  0.13903337547E+03  0.62094342726E+03  0.00000000000E+00 0.  1.
          5    1    4    4  501    0  0.13644737211E+03 -0.50660813416E+02 -0.87952493808E+02  0.17011030815E+03  0.41800000000E+01 0. -1.
         -5    1    4    4    0  501  0.65440755667E+03  0.22295924897E+02 -0.31046163308E+03  0.72467251674E+03  0.41800000000E+01 0. -1.
</event>
<event>
11    1  0.7577197E-009  0.1436546E+03  0.7561462E-02  0.1103545E+00
         22   -1    0    0    0    0  0.00000000000E+00  0.00000000000E+00  0.96608005854E+02  0.96608005854E+02  0.00000000000E+00 0. -1.
         22   -1    0    0    0    0 -0.00000000000E+00 -0.00000000000E+00 -0.18269996647E+04  0.18269996647E+04  0.00000000000E+00 0. -1.
         24    2    1    2    0    0  0.49453128920E+02  0.61747027307E+02 -0.12897521820E+04  0.12946307491E+04  0.79685495613E+02 0.  0.
         25    2    1    2    0    0 -0.30893404084E+00 -0.49071321211E+02 -0.50107862968E+03  0.51878154319E+03  0.12508559640E+03 0.  0.
        -24    2    1    2    0    0 -0.49144194879E+02 -0.12675706096E+02  0.60439152790E+02  0.11019537831E+03  0.76904517387E+02 0.  0.
        -11    1    3    3    0    0 -0.18609104513E+02  0.33981889199E+02 -0.43002577917E+03  0.43176757441E+03  0.00000000000E+00 0.  1.
         12    1    3    3    0    0  0.68062233433E+02  0.27765138108E+02 -0.85972640279E+03  0.86286317465E+03  0.00000000000E+00 0. -1.
         11    1    5    5    0    0  0.71766408619E+01  0.18797816687E+02  0.35926453380E+02  0.41177325541E+02  0.00000000000E+00 0. -1.
        -12    1    5    5    0    0 -0.56320835741E+02 -0.31473522783E+02  0.24512699410E+02  0.69018052764E+02  0.00000000000E+00 0.  1.
          5    1    4    4  501    0 -0.54477752782E+02 -0.15293657860E+02 -0.35218540764E+03  0.35672644320E+03  0.41800000000E+01 0. -1.
         -5    1    4    4    0  501  0.54168818741E+02 -0.33777663351E+02 -0.14889322204E+03  0.16205510000E+03  0.41800000000E+01 0. -1.
</event>
<event>
11    1  0.7577197E-009  0.1741300E+03  0.7561462E-02  0.1074493E+00
         22   -1    0    0    0    0  0.00000000000E+00  0.00000000000E+00  0.76856034875E+03  0.76856034875E+03  0.00000000000E+00 0. -1.
         22   -1    0    0    0    0 -0.00000000000E+00 -0.00000000000E+00 -0.95517489626E+03  0.95517489626E+03  0.00000000000E+00 0.  1.
        -24    2    1    2    0    0 -0.11883640623E+03  0.21075761305E+02 -0.80812157779E+03  0.82110655787E+03  0.81173984288E+02 0.  0.
         25    2    1    2    0    0  0.12654844260E+03 -0.80647640104E+00 -0.80830593479E+02  0.19544629323E+03  0.12510199825E+03 0.  0.
         24    2    1    2    0    0 -0.77120363694E+01 -0.20269284904E+02  0.70233762376E+03  0.70718239391E+03  0.79740084655E+02 0.  0.
        -13    1    5    5    0    0  0.25778600159E+02  0.17523063981E+02  0.32251962141E+03  0.32402237606E+03  0.00000000000E+00 0.  1.
         14    1    5    5    0    0 -0.33490636529E+02 -0.37792348885E+02  0.37981800235E+03  0.38316001785E+03  0.00000000000E+00 0. -1.
         13    1    3    3    0    0 -0.20072834654E+02  0.38895618572E+02 -0.29914678882E+03  0.30233191875E+03  0.00000000000E+00 0. -1.
        -14    1    3    3    0    0 -0.98763571575E+02 -0.17819857267E+02 -0.50897478898E+03  0.51877463912E+03  0.00000000000E+00 0.  1.
          5    1    4    4  501    0  0.64403355320E+02  0.32362487305E+02  0.17620203242E+02  0.74317337972E+02  0.41800000000E+01 0. -1.
         -5    1    4    4    0  501  0.62145087279E+02 -0.33168963706E+02 -0.98450796721E+02  0.12112895526E+03  0.41800000000E+01 0. -1.
</event>
<event>
11    1  0.7577197E-009  0.1277241E+03  0.7561462E-02  0.1122097E+00
         22   -1    0    0    0    0  0.00000000000E+00  0.00000000000E+00  0.73304040551E+02  0.73304040551E+02  0.00000000000E+00 0. -1.
         22   -1    0    0    0    0 -0.00000000000E+00 -0.00000000000E+00 -0.30238225068E+04  0.30238225068E+04  0.00000000000E+00 0.  1.
         24    2    1    2    0    0  0.67312735874E+01  0.66956731362E+01 -0.28422984694E+04  0.28434406119E+04  0.80023632803E+02 0.  0.
         25    2    1    2    0    0 -0.24502821313E+02 -0.22330658250E+02 -0.10986872533E+03  0.16975475983E+03  0.12508595097E+03 0.  0.
        -24    2    1    2    0    0  0.17771547726E+02  0.15634985114E+02  0.16487285234E+01  0.83931175640E+02  0.80507411277E+02 0.  0.
        -13    1    3    3    0    0 -0.16203543602E+02  0.83277462125E+01 -0.25976878497E+04  0.25977517339E+04  0.00000000000E+00 0.  1.
         14    1    3    3    0    0  0.22934817189E+02 -0.16320730762E+01 -0.24461061969E+03  0.24568887799E+03  0.00000000000E+00 0. -1.
         11    1    5    5    0    0  0.40893212955E+01  0.41648488889E+02  0.22859111732E+02  0.47684988881E+02  0.00000000000E+00 0. -1.
        -12    1    5    5    0    0  0.13682226430E+02 -0.26013503775E+02 -0.21210383209E+02  0.36246186759E+02  0.00000000000E+00 0.  1.
          5    1    4    4  501    0 -0.17205507530E+01 -0.54005362282E+02 -0.11882745110E+01  0.54207230574E+02  0.41800000000E+01 0. -1.
         -5    1    4    4    0  501 -0.22782270560E+02  0.31674704033E+02 -0.10868045082E+03  0.11554752926E+03  0.41800000000E+01 0. -1.
</event>
<event>
11    1  0.7577197E-009  0.2048653E+03  0.7561462E-02  0.1051135E+00
         22   -1    0    0    0    0  0.00000000000E+00  0.00000000000E+00  0.45456137241E+03  0.45456137241E+03  0.00000000000E+00 0.  1.
         22   -1    0    0    0    0 -0.00000000000E+00 -0.00000000000E+00 -0.55713330069E+03  0.55713330069E+03  0.00000000000E+00 0. -1.
         24    2    1    2    0    0 -0.69731074180E+02 -0.18432062491E+02 -0.45618355074E+03  0.46940221928E+03  0.83862076407E+02 0.  0.
         25    2    1    2    0    0  0.31127822262E+02 -0.14947280487E+03  0.95231540563E+02  0.21915098166E+03  0.12508815184E+03 0.  0.
        -24    2    1    2    0    0  0.38603251918E+02  0.16790486736E+03  0.25838008191E+03  0.32314147216E+03  0.89319028007E+02 0.  0.
        -13    1    3    3    0    0 -0.31095466164E+02 -0.39507096489E+02 -0.11658414207E+03  0.12696299016E+03  0.00000000000E+00 0.  1.
         14    1    3    3    0    0 -0.38635608016E+02  0.21075033997E+02 -0.33959940868E+03  0.34243922912E+03  0.00000000000E+00 0. -1.
         13    1    5    5    0    0  0.59286843901E+02  0.61414604169E+02  0.12145012624E+03  0.14844802670E+03  0.00000000000E+00 0. -1.
        -14    1    5    5    0    0 -0.20683591983E+02  0.10649026319E+03  0.13692995566E+03  0.17469344547E+03  0.00000000000E+00 0.  1.
          5    1    4    4  501    0 -0.27615024745E+02 -0.85041544175E+02  0.96805946907E+02  0.13184656834E+03  0.41800000000E+01 0.  1.
         -5    1    4    4    0  501  0.58742847007E+02 -0.64431260696E+02 -0.15744063444E+01  0.87304413318E+02  0.41800000000E+01 0.  1.
</event>
<event>
11    1  0.7577197E-009  0.1422810E+03  0.7561462E-02  0.1105038E+00
         22   -1    0    0    0    0  0.00000000000E+00  0.00000000000E+00  0.71355122079E+03  0.71355122079E+03  0.00000000000E+00 0. -1.
         22   -1    0    0    0    0 -0.00000000000E+00 -0.00000000000E+00 -0.37500176964E+03  0.37500176964E+03  0.00000000000E+00 0.  1.
         24    2    1    2    0    0  0.23820949382E+02 -0.16919831370E+02 -0.28799283623E+03  0.30040580815E+03  0.80312250177E+02 0.  0.
         25    2    1    2    0    0  0.13757186888E+02 -0.41396212756E+02 -0.18437824916E+02  0.13375421246E+03  0.12508928548E+03 0.  0.
        -24    2    1    2    0    0 -0.37578136270E+02  0.58316044126E+02  0.64498011230E+03  0.65439296982E+03  0.86127442535E+02 0.  0.
        -11    1    3    3    0    0  0.16165663934E+01  0.19912543480E+02 -0.21316401718E+03  0.21409815715E+03  0.00000000000E+00 0.  1.
         12    1    3    3    0    0  0.22204382989E+02 -0.36832374850E+02 -0.74828819051E+02  0.86307651003E+02  0.00000000000E+00 0. -1.
         13    1    5    5    0    0  0.72047825118E+01  0.56105239878E+02  0.48369726698E+03  0.48699358611E+03  0.00000000000E+00 0. -1.
        -14    1    5    5    0    0 -0.44782918782E+02  0.22108042483E+01  0.16128284532E+03  0.16739938371E+03  0.00000000000E+00 0.  1.
          5    1    4    4  501    0  0.10438367908E+02  0.38842950165E+02  0.19435109181E+02  0.44865690355E+02  0.41800000000E+01 0. -1.
         -5    1    4    4    0  501  0.33188189799E+01 -0.80239162921E+02 -0.37872934097E+02  0.88888522110E+02  0.41800000000E+01 0. -1.
</event>
<event>
11    1  0.7577197E-009  0.1325216E+03  0.7561462E-02  0.1116209E+00
         22   -1    0    0    0    0  0.00000000000E+00  0.00000000000E+00  0.53806523887E+03  0.53806523887E+03  0.00000000000E+00 0.  1.
         22   -1    0    0    0    0 -0.00000000000E+00 -0.00000000000E+00 -0.60397177898E+02  0.60397177898E+02  0.00000000000E+00 0.  1.
         24    2    1    2    0    0  0.33218684469E+02 -0.12108895828E+02  0.27355793584E+02  0.93828687387E+02  0.82494707576E+02 0.  0.
         25    2    1    2    0    0  0.57188977161E+00 -0.31559301377E+02  0.24123811808E+03  0.27356468333E+03  0.12508193231E+03 0.  0.
        -24    2    1    2    0    0 -0.33790574240E+02  0.43668197204E+02  0.20907414930E+03  0.23106904605E+03  0.81438257467E+02 0.  0.
        -11    1    3    3    0    0 -0.40597211019E+00 -0.22019606930E+02 -0.23406561873E+02  0.32138684500E+02  0.00000000000E+00 0.  1.
         12    1    3    3    0    0  0.33624656579E+02  0.99107111026E+01  0.50762355457E+02  0.61690002887E+02  0.00000000000E+00 0. -1.
         11    1    5    5    0    0 -0.15011278394E+02  0.10531220094E+02 -0.21906892619E+00  0.18338295093E+02  0.00000000000E+00 0. -1.
        -12    1    5    5    0    0 -0.18779295846E+02  0.33136977110E+02  0.20929321823E+03  0.21273075095E+03  0.00000000000E+00 0.  1.
          5    1    4    4  501    0  0.10040650286E+02 -0.45999167310E+02  0.24952381671E+03  0.25396130720E+03  0.41800000000E+01 0. -1.
         -5    1    4    4    0  501 -0.94687605149E+01  0.14439865934E+02 -0.82856986277E+01  0.19603376128E+02  0.41800000000E+01 0. -1.
</event>
<event>
11    1  0.7577197E-009  0.1701257E+03  0.7561462E-02  0.1077922E+00
         22   -1    0    0    0    0  0.00000000000E+00  0.00000000000E+00  0.46871848236E+03  0.46871848236E+03  0.00000000000E+00 0. -1.
         22   -1    0    0    0    0 -0.00000000000E+00 -0.00000000000E+00 -0.10912936386E+04  0.10912936386E+04  0.00000000000E+00 0.  1.
        -24    2    1    2    0    0 -0.43209367571E+02  0.28946889532E+02 -0.87017692108E+03  0.87569521027E+03  0.83242149531E+02 0.  0.
         25    2    1    2    0    0  0.41381755838E+02 -0.14240767939E+03 -0.15838911138E+03  0.25045026591E+03  0.12508328515E+03 0.  0.
         24    2    1    2    0    0  0.18276117332E+01  0.11346078986E+03  0.40599087620E+03  0.43386664480E+03  0.10264006485E+03 0.  0.
        -11    1    5    5    0    0 -0.29641714607E+02  0.81637678648E+02  0.14465243537E+03  0.16872364647E+03  0.00000000000E+00 0.  1.
         12    1    5    5    0    0  0.31469326341E+02  0.31823111207E+02  0.26133844084E+03  0.26514299834E+03  0.00000000000E+00 0. -1.
         11    1    3    3    0    0 -0.66701293005E+02  0.16774323989E+02 -0.52149820684E+03  0.52601408742E+03  0.00000000000E+00 0. -1.
        -12    1    3    3    0    0  0.23491925433E+02  0.12172565543E+02 -0.34867871424E+03  0.34968112285E+03  0.00000000000E+00 0.  1.
          5    1    4    4  501    0 -0.29432333880E+01 -0.10140711899E+03 -0.25894025972E+02  0.10478568312E+03  0.41800000000E+01 0.  1.
         -5    1    4    4    0  501  0.44324989226E+02 -0.41000560396E+02 -0.13249508541E+03  0.14566458279E+03  0.41800000000E+01 0.  1.
</event>
<event>
11    1  0.7577197E-009  0.2534251E+03  0.7561462E-02  0.1022090E+00
         22   -1    0    0    0    0  0.00000000000E+00  0.00000000000E+00  0.23891570511E+04  0.23891570511E+04  0.00000000000E+00 0.  1.
         22   -1    0    0    0    0 -0.00000000000E+00 -0.00000000000E+00 -0.13760902152E+03  0.13760902152E+03  0.00000000000E+00 0.  1.
        -24    2    1    2    0    0  0.79019168547E+02  0.12349957213E+02 -0.40551482727E+02  0.11759878625E+03  0.76082201165E+02 0.  0.
         25    2    1    2    0    0 -0.91801724311E+02 -0.23020103459E+03  0.32112488694E+03  0.42448664520E+03  0.12509055129E+03 0.  0.
         24    2    1    2    0    0  0.12782555764E+02  0.21785107738E+03  0.19709746254E+04  0.19846806412E+04  0.81202142885E+02 0.  0.
        -11    1    5    5    0    0 -0.32471838140E+02  0.96118641224E+02  0.75377818267E+03  0.76057528367E+03  0.00000000000E+00 0.  1.
         12    1    5    5    0    0  0.45254393905E+02  0.12173243616E+03  0.12171964427E+04  0.12241053575E+04  0.00000000000E+00 0. -1.
         13    1    3    3    0    0 -0.45806103907E+01  0.12095053547E+02  0.12983889985E+02  0.18326311986E+02  0.00000000000E+00 0. -1.
        -14    1    3    3    0    0  0.83599778938E+02  0.25490366532E+00 -0.53535372712E+02  0.99272474260E+02  0.00000000000E+00 0.  1.
          5    1    4    4  501    0 -0.56476833952E+02 -0.81612437641E+02  0.45312319191E+02  0.10918288062E+03  0.41800000000E+01 0. -1.
         -5    1    4    4    0  501 -0.35324890360E+02 -0.14858859695E+03  0.27581256775E+03  0.31530376457E+03  0.41800000000E+01 0. -1.
</event>
<event>
11    1  0.7577197E-009  0.1305581E+03  0.7561462E-02  0.1118585E+00
         22   -1    0    0    0    0  0.00000000000E+00  0.00000000000E+00  0.62519762512E+03  0.62519762512E+03  0.00000000000E+00 0. -1.
         22   -1    0    0    0    0 -0.00000000000E+00 -0.00000000000E+00 -0.17608694571E+04  0.17608694571E+04  0.00000000000E+00 0. -1.
        -24    2    1    2    0    0 -0.32801036720E+02  0.18761395946E+02 -0.16531006351E+04  0.16558380944E+04  0.87350942856E+02 0.  0.
         25    2    1    2    0    0 -0.94273218250E-01 -0.48452422142E+02 -0.58970296540E+02  0.14653497673E+03  0.12508939776E+03 0.  0.
         24    2    1    2    0    0  0.32895309938E+02  0.29691026196E+02  0.57639909965E+03  0.58369401106E+03  0.80617107459E+02 0.  0.
        -11    1    5    5    0    0 -0.98378287412E+01  0.14072289402E+02  0.24471358745E+02  0.29894139930E+02  0.00000000000E+00 0.  1.
         12    1    5    5    0    0  0.42733138680E+02  0.15618736795E+02  0.55192774091E+03  0.55379987113E+03  0.00000000000E+00 0. -1.
         13    1    3    3    0    0 -0.32325880612E+02 -0.29603140802E+02 -0.99353303988E+03  0.99449947705E+03  0.00000000000E+00 0. -1.
        -14    1    3    3    0    0 -0.47515610815E+00  0.48364536748E+02 -0.65956759523E+03  0.66133861740E+03  0.00000000000E+00 0.  1.
          5    1    4    4  501    0  0.39705044000E+01  0.41178636594E+02 -0.32857765522E+02  0.52995756170E+02  0.41800000000E+01 0. -1.
         -5    1    4    4    0  501 -0.40647776183E+01 -0.89631058736E+02 -0.26112531018E+02  0.93539220562E+02  0.41800000000E+01 0. -1.
</event>
<event>
11    1  0.7577197E-009  0.1417386E+03  0.7561462E-02  0.1105632E+00
         22   -1    0    0    0    0  0.00000000000E+00  0.00000000000E+00  0.58818362592E+02  0.58818362592E+02  0.00000000000E+00 0. -1.
         22   -1    0    0    0    0 -0.00000000000E+00 -0.00000000000E+00 -0.32946412792E+04  0.32946412792E+04  0.00000000000E+00 0.  1.
        -24    2    1    2    0    0  0.93888057637E+01  0.26968419262E+01 -0.24152293098E+04  0.24166196990E+04  0.81380145747E+02 0.  0.
         25    2    1    2    0    0  0.21734143748E+02  0.56706305400E+02 -0.81963431703E+03  0.83134548598E+03  0.12508767057E+03 0.  0.
         24    2    1    2    0    0 -0.31122949511E+02 -0.59403147326E+02 -0.95928974882E+00  0.10549445677E+03  0.81429652297E+02 0.  0.
        -11    1    5    5    0    0 -0.21069488656E+02  0.27310888039E+01 -0.29523975174E+02  0.36373717274E+02  0.00000000000E+00 0.  1.
         12    1    5    5    0    0 -0.10053460856E+02 -0.62134236130E+02  0.28564685425E+02  0.69120739493E+02  0.00000000000E+00 0. -1.
         11    1    3    3    0    0 -0.21592236852E+02 -0.27497828945E+02 -0.73190573777E+03  0.73274031162E+03  0.00000000000E+00 0. -1.
        -12    1    3    3    0    0  0.30981042616E+02  0.30194670872E+02 -0.16833235720E+04  0.16838793874E+04  0.00000000000E+00 0.  1.
          5    1    4    4  501    0 -0.37637234853E+02  0.52637953218E+02 -0.23852780298E+03  0.24718475026E+03  0.41800000000E+01 0.  1.
         -5    1    4    4    0  501  0.59371378601E+02  0.40683521823E+01 -0.58110651405E+03  0.58416073572E+03  0.41800000000E+01 0.  1.
</event>
<event>
11    1  0.7577197E-009  0.1300653E+03  0.7561462E-02  0.1119189E+00
         22   -1    0    0    0    0  0.00000000000E+00  0.00000000000E+00  0.52112645168E+03  0.52112645168E+03  0.00000000000E+00 0.  1.
         22   -1    0    0    0    0 -0.00000000000E+00 -0.00000000000E+00 -0.81100884612E+03  0.81100884612E+03  0.00000000000E+00 0. -1.
        -24    2    1    2    0    0 -0.27145298729E+02 -0.22030235378E+02 -0.75239769499E+03  0.75739742354E+03  0.79538463912E+02 0.  0.
         25    2    1    2    0    0  0.46546040594E+02  0.39070745424E+02  0.40958720467E+02  0.14497504512E+03  0.12508832832E+03 0.  0.
         24    2    1    2    0    0 -0.19400741866E+02 -0.17040510046E+02  0.42155658008E+03  0.42976282915E+03  0.79494473616E+02 0.  0.
        -13    1    5    5    0    0 -0.90681704733E+01 -0.18625770365E+02  0.41830168555E+03  0.41881433974E+03  0.00000000000E+00 0.  1.
         14    1    5    5    0    0 -0.10332571392E+02  0.15852603193E+01  0.32548945346E+01  0.10948489407E+02  0.00000000000E+00 0. -1.
         13    1    3    3    0    0  0.12254285593E+02  0.19573912479E+02 -0.37116231468E+03  0.37188004707E+03  0.00000000000E+00 0. -1.
        -14    1    3    3    0    0 -0.39399584322E+02 -0.41604147857E+02 -0.38123538031E+03  0.38551737647E+03  0.00000000000E+00 0.  1.
          5    1    4    4  501    0  0.79641629570E+02  0.93877155061E+01  0.55951798112E+02  0.97872337639E+02  0.41800000000E+01 0.  1.
         -5    1    4    4    0  501 -0.33095588976E+02  0.29683029918E+02 -0.14993077645E+02  0.47102707481E+02  0.41800000000E+01 0.  1.
</event>
<event>
11    1  0.7577197E-009  0.1381512E+03  0.7561462E-02  0.1109641E+00
         22   -1    0    0    0    0  0.00000000000E+00  0.00000000000E+00  0.45557153109E+03  0.45557153109E+03  0.00000000000E+00 0.  1.
         22   -1    0    0    0    0 -0.00000000000E+00 -0.00000000000E+00 -0.23825712063E+04  0.23825712063E+04  0.00000000000E+00 0.  1.
        -24    2    1    2    0    0  0.21126573972E+02  0.18412156194E+02 -0.22160014398E+04  0.22177304759E+04  0.82950242127E+02 0.  0.
         25    2    1    2    0    0 -0.23153844339E+01 -0.73564573564E+02 -0.12718109218E+03  0.19297499387E+03  0.12508881070E+03 0.  0.
         24    2    1    2    0    0 -0.18811189538E+02  0.55152417369E+02  0.41618285678E+03  0.42743726766E+03  0.78094798231E+02 0.  0.
        -11    1    5    5    0    0  0.13659104780E+02  0.62501716352E+02  0.26149578514E+03  0.26920824901E+03  0.00000000000E+00 0.  1.
         12    1    5    5    0    0 -0.32470294317E+02 -0.73492989828E+01  0.15468707164E+03  0.15822901865E+03  0.00000000000E+00 0. -1.
         13    1    3    3    0    0  0.10581542669E+02  0.45209162363E+02 -0.74401606166E+03  0.74546343801E+03  0.00000000000E+00 0. -1.
        -14    1    3    3    0    0  0.10545031302E+02 -0.26797006169E+02 -0.14719853782E+04  0.14722670379E+04  0.00000000000E+00 0.  1.
          5    1    4    4  501    0 -0.48210087006E+02 -0.62388555177E+02 -0.29309254453E+02  0.84220241645E+02  0.41800000000E+01 0.  1.
         -5    1    4    4    0  501  0.45894702572E+02 -0.11176018387E+02 -0.97871837730E+02  0.10875475223E+03  0.41800000000E+01 0.  1.
</event>
<event>
11    1  0.7577197E-009  0.5330649E+03  0.7561462E-02  0.9322528E-01
         22   -1    0    0    0    0  0.00000000000E+00  0.00000000000E+00  0.22458610100E+04  0.22458610100E+04  0.00000000000E+00 0. -1.
         22   -1    0    0    0    0 -0.00000000000E+00 -0.00000000000E+00 -0.16349992659E+04  0.16349992659E+04  0.00000000000E+00 0. -1.
        -24    2    1    2    0    0  0.29569721796E+03  0.42244239142E+03 -0.14542986618E+04  0.15450952801E+04  0.80252153445E+02 0.  0.
         25    2    1    2    0    0 -0.63623824073E+03 -0.27029940403E+03  0.12046384779E+04  0.13945110246E+04  0.12508504517E+03 0.  0.
         24    2    1    2    0    0  0.34054102277E+03 -0.15214298739E+03  0.86052192808E+03  0.94125397125E+03  0.79657848861E+02 0.  0.
        -11    1    5    5    0    0  0.15543045396E+02  0.95704519822E+01  0.46766702337E+02  0.50202631990E+02  0.00000000000E+00 0.  1.
         12    1    5    5    0    0  0.32499797737E+03 -0.16171343937E+03  0.81375522574E+03  0.89105133926E+03  0.00000000000E+00 0. -1.
         11    1    3    3    0    0  0.28349622953E+03  0.41840732157E+03 -0.13788035191E+04  0.14685141958E+04  0.00000000000E+00 0. -1.
        -12    1    3    3    0    0  0.12200988433E+02  0.40350698456E+01 -0.75495142681E+02  0.76581084321E+02  0.00000000000E+00 0.  1.
          5    1    4    4  501    0 -0.50217183013E+03 -0.21263001778E+03  0.83749297289E+03  0.99939983164E+03  0.41800000000E+01 0.  1.
         -5    1    4    4    0  501 -0.13406641060E+03 -0.57669386255E+02  0.36714550498E+03  0.39511119295E+03  0.41800000000E+01 0.  1.
</event>
<event>
11    1  0.7577197E-009  0.1933608E+03  0.7561462E-02  0.1059320E+00
         22   -1    0    0    0    0  0.00000000000E+00  0.00000000000E+00  0.14645361340E+04  0.14645361340E+04  0.00000000000E+00 0. -1.
         22   -1    0    0    0    0 -0.00000000000E+00 -0.00000000000E+00 -0.25562008974E+03  0.25562008974E+03  0.00000000000E+00 0.  1.
         24    2    1    2    0    0  0.14851244750E+02 -0.25232815318E+02 -0.21134606469E+03  0.22809125779E+03  0.80630071183E+02 0.  0.
         25    2    1    2    0    0  0.12589940108E+01  0.16773288043E+03  0.33811004902E+03  0.39762121124E+03  0.12509323780E+03 0.  0.
        -24    2    1    2    0    0 -0.16110238761E+02 -0.14250006511E+03  0.10821520599E+04  0.10944437547E+04  0.78665386644E+02 0.  0.
        -13    1    3    3    0    0  0.41175789845E+02 -0.59649724308E+01 -0.17209695124E+03  0.17705475760E+03  0.00000000000E+00 0.  1.
         14    1    3    3    0    0 -0.26324545095E+02 -0.19267842887E+02 -0.39249113458E+02  0.51036500186E+02  0.00000000000E+00 0. -1.
         11    1    5    5    0    0  0.23287035002E+02 -0.86758498658E+02  0.74925487100E+03  0.75462055684E+03  0.00000000000E+00 0. -1.
        -12    1    5    5    0    0 -0.39397273762E+02 -0.55741566454E+02  0.33289718891E+03  0.33982319785E+03  0.00000000000E+00 0.  1.
          5    1    4    4  501    0 -0.18359151048E+00  0.13777880360E+03  0.34040587962E+03  0.36725558907E+03  0.41800000000E+01 0. -1.
         -5    1    4    4    0  501  0.14425855212E+01  0.29954076830E+02 -0.22958306008E+01  0.30365622172E+02  0.41800000000E+01 0. -1.
</event>
<event>
11    1  0.7577197E-009  0.1699606E+03  0.7561462E-02  0.1078066E+00
         22   -1    0    0    0    0  0.00000000000E+00  0.00000000000E+00  0.25085629804E+03  0.25085629804E+03  0.00000000000E+00 0.  1.
         22   -1    0    0    0    0 -0.00000000000E+00 -0.00000000000E+00 -0.88370289721E+03  0.88370289721E+03  0.00000000000E+00 0. -1.
         24    2    1    2    0    0 -0.97702200419E+02  0.40292072568E+02 -0.59004645892E+03  0.60438294892E+03  0.77167053732E+02 0.  0.
         25    2    1    2    0    0  0.13740771563E+03 -0.11942868376E+03 -0.22272709285E+03  0.31368598279E+03  0.12508975613E+03 0.  0.
        -24    2    1    2    0    0 -0.39705515213E+02  0.79136611196E+02  0.17992695260E+03  0.21649026354E+03  0.81579377096E+02 0.  0.
        -13    1    3    3    0    0 -0.43115031280E+02  0.33886621397E+01 -0.88234171696E+02  0.98263207806E+02  0.00000000000E+00 0.  1.
         14    1    3    3    0    0 -0.54587169139E+02  0.36903410428E+02 -0.50181228723E+03  0.50611974112E+03  0.00000000000E+00 0. -1.
         13    1    5    5    0    0  0.21730189334E+01  0.52040416512E+02  0.33817361169E+02  0.62101053763E+02  0.00000000000E+00 0. -1.
        -14    1    5    5    0    0 -0.41878534146E+02  0.27096194684E+02  0.14610959143E+03  0.15438920978E+03  0.00000000000E+00 0.  1.
          5    1    4    4  501    0  0.17784133174E+02 -0.66956975986E+02 -0.19551093521E+02  0.72105684130E+02  0.41800000000E+01 0.  1.
         -5    1    4    4    0  501  0.11962358246E+03 -0.52471707778E+02 -0.20317599933E+03  0.24158029866E+03  0.41800000000E+01 0.  1.
</event>
<event>
11    1  0.7577197E-009  0.1364950E+03  0.7561462E-02  0.1111537E+00
         22   -1    0    0    0    0  0.00000000000E+00  0.00000000000E+00  0.65544844662E+03  0.65544844662E+03  0.00000000000E+00 0.  1.
         22   -1    0    0    0    0 -0.00000000000E+00 -0.00000000000E+00 -0.97622542349E+03  0.97622542349E+03  0.00000000000E+00 0.  1.
         24    2    1    2    0    0  0.44600268967E+02  0.32361538423E+02 -0.95318635759E+03  0.95856903820E+03  0.85169921564E+02 0.  0.
         25    2    1    2    0    0 -0.11952651463E+02  0.14593224443E+02  0.29421030229E+03  0.32025207942E+03  0.12508342943E+03 0.  0.
        -24    2    1    2    0    0 -0.32647617504E+02 -0.46954762866E+02  0.33819907844E+03  0.35285275249E+03  0.82799949279E+02 0.  0.
        -13    1    3    3    0    0  0.75127275822E+01 -0.22257384655E+01 -0.71504299234E+03  0.71508592203E+03  0.00000000000E+00 0.  1.
         14    1    3    3    0    0  0.37087541385E+02  0.34587276888E+02 -0.23814336525E+03  0.24348311617E+03  0.00000000000E+00 0. -1.
         13    1    5    5    0    0 -0.29024625921E+02 -0.70781680303E+02  0.26068188493E+03  0.27167539511E+03  0.00000000000E+00 0. -1.
        -14    1    5    5    0    0 -0.36229915830E+01  0.23826917437E+02  0.77517193505E+02  0.81177357381E+02  0.00000000000E+00 0.  1.
          5    1    4    4  501    0  0.42758208788E+02  0.31097231846E+01  0.23421134806E+03  0.23813937675E+03  0.41800000000E+01 0.  1.
         -5    1    4    4    0  501 -0.54710860251E+02  0.11483501258E+02  0.59998954233E+02  0.82112702669E+02  0.41800000000E+01 0.  1.
</event>
<event>
11    1  0.7577197E-009  0.2150888E+03  0.7561462E-02  0.1044338E+00
         22   -1    0    0    0    0  0.00000000000E+00  0.00000000000E+00  0.57928999131E+03  0.57928999131E+03  0.00000000000E+00 0.  1.
         22   -1    0    0    0    0 -0.00000000000E+00 -0.00000000000E+00 -0.41945002507E+03  0.41945002507E+03  0.00000000000E+00 0. -1.
        -24    2    1    2    0    0  0.78133050950E+02  0.11997349101E+03 -0.95487040128E+02  0.19094929953E+03  0.82737222352E+02 0.  0.
         25    2    1    2    0    0 -0.17787535772E+03 -0.13205434639E+03 -0.20700714246E+03  0.32799155355E+03  0.12509400019E+03 0.  0.
         24    2    1    2    0    0  0.99742306767E+02  0.12080855388E+02  0.46233414882E+03  0.47979916331E+03  0.79748963145E+02 0.  0.
        -13    1    5    5    0    0  0.81460799945E+02  0.24879054818E+02  0.44021145642E+03  0.44837590887E+03  0.00000000000E+00 0.  1.
         14    1    5    5    0    0  0.18281506822E+02 -0.12798199430E+02  0.22122692402E+02  0.31423254438E+02  0.00000000000E+00 0. -1.
         13    1    3    3    0    0  0.74914164668E+02  0.39603279431E+02 -0.44446807950E+02  0.95687358342E+02  0.00000000000E+00 0. -1.
        -14    1    3    3    0    0  0.32188862825E+01  0.80370211576E+02 -0.51040232178E+02  0.95261941185E+02  0.00000000000E+00 0.  1.
          5    1    4    4  501    0 -0.62476350119E+02 -0.11804414000E+03 -0.79885655055E+02  0.15568205933E+03  0.41800000000E+01 0.  1.
         -5    1    4    4    0  501 -0.11539900760E+03 -0.14010206391E+02 -0.12712148740E+03  0.17230949422E+03  0.41800000000E+01 0.  1.
</event>
<event>
11    1  0.7577197E-009  0.1632954E+03  0.7561462E-02  0.1084018E+00
         22   -1    0    0    0    0  0.00000000000E+00  0.00000000000E+00  0.69285518673E+02  0.69285518673E+02  0.00000000000E+00 0. -1.
         22   -1    0    0    0    0 -0.00000000000E+00 -0.00000000000E+00 -0.14509006378E+04  0.14509006378E+04  0.00000000000E+00 0.  1.
         24    2    1    2    0    0 -0.87548107320E+02 -0.66598306219E+02 -0.11537901458E+04  0.11618063642E+04  0.80388568001E+02 0.  0.
         25    2    1    2    0    0  0.52682866616E+02  0.58238920887E+02 -0.22597031496E+03  0.26995805891E+03  0.12509002352E+03 0.  0.
        -24    2    1    2    0    0  0.34865240704E+02  0.83593853321E+01 -0.18546583398E+01  0.88421733337E+02  0.80805314406E+02 0.  0.
        -11    1    3    3    0    0 -0.98456245763E+02 -0.73288393848E+02 -0.10050587014E+04  0.10125254635E+04  0.00000000000E+00 0.  1.
         12    1    3    3    0    0  0.10908138443E+02  0.66900876292E+01 -0.14873144438E+03  0.14928090067E+03  0.00000000000E+00 0. -1.
         11    1    5    5    0    0 -0.23292897038E+02 -0.11791291803E+02  0.46877521358E+01  0.26524868235E+02  0.00000000000E+00 0. -1.
        -12    1    5    5    0    0  0.58158137742E+02  0.20150677135E+02 -0.65424104755E+01  0.61896865102E+02  0.00000000000E+00 0.  1.
          5    1    4    4  501    0  0.18772578086E+02 -0.61315336717E+01 -0.18550710582E+03  0.18660215461E+03  0.41800000000E+01 0.  1.
         -5    1    4    4    0  501  0.33910288530E+02  0.64370454558E+02 -0.40463209139E+02  0.83355904302E+02  0.41800000000E+01 0.  1.
</event>
<event>
11    1  0.7577197E-009  0.1362512E+03  0.7561462E-02  0.1111818E+00
         22   -1    0    0    0    0  0.00000000000E+00  0.00000000000E+00  0.50892376399E+03  0.50892376399E+03  0.00000000000E+00 0.  1.
         22   -1    0    0    0    0 -0.00000000000E+00 -0.00000000000E+00 -0.86680459799E+03  0.86680459799E+03  0.00000000000E+00 0. -1.
        -24    2    1    2    0    0  0.22756174830E+02 -0.37788438646E+02 -0.80990820487E+03  0.81505464291E+03  0.80105936219E+02 0.  0.
         25    2    1    2    0    0  0.29697348245E+02  0.54261870062E+02  0.51590623781E+02  0.14875646457E+03  0.12506242543E+03 0.  0.
         24    2    1    2    0    0 -0.52453523075E+02 -0.16473431415E+02  0.40043674709E+03  0.41191725450E+03  0.79394521937E+02 0.  0.
        -11    1    5    5    0    0 -0.50272497226E+02  0.20881745029E+02  0.29636308329E+03  0.30132117149E+03  0.00000000000E+00 0.  1.
         12    1    5    5    0    0 -0.21810258497E+01 -0.37355176444E+02  0.10407366380E+03  0.11059608301E+03  0.00000000000E+00 0. -1.
         13    1    3    3    0    0 -0.16390951696E+02  0.39370508779E+01 -0.47466113317E+03  0.47496037204E+03  0.00000000000E+00 0. -1.
        -14    1    3    3    0    0  0.39147126526E+02 -0.41725489524E+02 -0.33524707170E+03  0.34009427087E+03  0.00000000000E+00 0.  1.
          5    1    4    4  501    0 -0.46133638855E+02  0.35630041593E+00  0.14965627384E+02  0.48681433699E+02  0.41800000000E+01 0.  1.
         -5    1    4    4    0  501  0.75830987100E+02  0.53905569646E+02  0.36624996396E+02  0.10007503087E+03  0.41800000000E+01 0.  1.
</event>
<event>
11    1  0.7577197E-009  0.1395223E+03  0.7561462E-02  0.1108093E+00
         22   -1    0    0    0    0  0.00000000000E+00  0.00000000000E+00  0.12744818316E+04  0.12744818316E+04  0.00000000000E+00 0.  1.
         22   -1    0    0    0    0 -0.00000000000E+00 -0.00000000000E+00 -0.34864529285E+03  0.34864529285E+03  0.00000000000E+00 0.  1.
        -24    2    1    2    0    0 -0.40061054999E+02  0.56452030339E+01 -0.32673792487E+03  0.33928425189E+03  0.81971797512E+02 0.  0.
         25    2    1    2    0    0  0.58827066923E+02 -0.60292213066E+02  0.44020618474E+03  0.46532210323E+03  0.12508956756E+03 0.  0.
         24    2    1    2    0    0 -0.18766011925E+02  0.54647010032E+02  0.81236827891E+03  0.81852076935E+03  0.81826464936E+02 0.  0.
        -11    1    5    5    0    0  0.20810749564E+02 -0.66686388801E+01  0.32327314069E+03  0.32401092811E+03  0.00000000000E+00 0.  1.
         12    1    5    5    0    0 -0.39576761489E+02  0.61315648912E+02  0.48909513822E+03  0.49450984124E+03  0.00000000000E+00 0. -1.
         11    1    3    3    0    0 -0.11197005910E+01 -0.16249751603E+02 -0.93774629450E+01  0.18794812259E+02  0.00000000000E+00 0. -1.
        -12    1    3    3    0    0 -0.38941354408E+02  0.21894954637E+02 -0.31736046193E+03  0.32048943963E+03  0.00000000000E+00 0.  1.
          5    1    4    4  501    0 -0.27663754365E+02 -0.48536171973E+01  0.22534493980E+03  0.22712695832E+03  0.41800000000E+01 0.  1.
         -5    1    4    4    0  501  0.86490821289E+02 -0.55438595869E+02  0.21486124495E+03  0.23819514491E+03  0.41800000000E+01 0.  1.
</event>
<event>
11    1  0.7577197E-009  0.2586709E+03  0.7561462E-02  0.1019379E+00
         22   -1    0    0    0    0  0.00000000000E+00  0.00000000000E+00  0.41042476414E+03  0.41042476414E+03  0.00000000000E+00 0. -1.
         22   -1    0    0    0    0 -0.00000000000E+00 -0.00000000000E+00 -0.37238579323E+03  0.37238579323E+03  0.00000000000E+00 0. -1.
        -24    2    1    2    0    0  0.22803353689E+03  0.45501608443E+02 -0.17923845855E+03  0.30422862561E+03  0.79742970203E+02 0.  0.
         25    2    1    2    0    0 -0.19077120879E+03 -0.11281475241E+03  0.21662082584E+02  0.25541655486E+03  0.12509016032E+03 0.  0.
         24    2    1    2    0    0 -0.37262328099E+02  0.67313143966E+02  0.19561534687E+03  0.22316537691E+03  0.74952525454E+02 0.  0.
        -11    1    5    5    0    0  0.20006030913E+02  0.13996550046E+01  0.38971698990E+02  0.43829141324E+02  0.00000000000E+00 0.  1.
         12    1    5    5    0    0 -0.57268359012E+02  0.65913488962E+02  0.15664364788E+03  0.17933623558E+03  0.00000000000E+00 0. -1.
         11    1    3    3    0    0  0.21628055523E+03  0.20031742865E+02 -0.16500584001E+03  0.27277367272E+03  0.00000000000E+00 0. -1.
        -12    1    3    3    0    0  0.11752981666E+02  0.25469865577E+02 -0.14232618531E+02  0.31454952882E+02  0.00000000000E+00 0.  1.
          5    1    4    4  501    0 -0.88093397687E+02 -0.10297199645E+03  0.55906850120E+02  0.14665172028E+03  0.41800000000E+01 0. -1.
         -5    1    4    4    0  501 -0.10267781111E+03 -0.98427559563E+01 -0.34244767536E+02  0.10876483459E+03  0.41800000000E+01 0. -1.
</event>
<event>
11    1  0.7577197E-009  0.3343650E+03  0.7561462E-02  0.9866122E-01
         22   -1    0    0    0    0  0.00000000000E+00  0.00000000000E+00  0.18218591856E+04  0.18218591856E+04  0.00000000000E+00 0. -1.
         22   -1    0    0    0    0 -0.00000000000E+00 -0.00000000000E+00 -0.96324637922E+02  0.96324637922E+02  0.00000000000E+00 0. -1.
         24    2    1    2    0    0 -0.20980944326E+02 -0.31742773272E+03  0.33744387254E+03  0.47060849149E+03  0.80021369785E+02 0.  0.
         25    2    1    2    0    0  0.61086126365E+01  0.29081562642E+03  0.95037539061E+03  0.10017349425E+04  0.12509383747E+03 0.  0.
        -24    2    1    2    0    0  0.14872331690E+02  0.26612106293E+02  0.43771528454E+03  0.44584038957E+03  0.79054362335E+02 0.  0.
        -11    1    3    3    0    0 -0.29170920762E+02 -0.62215879144E+02  0.43869207864E+02  0.81524632072E+02  0.00000000000E+00 0.  1.
         12    1    3    3    0    0  0.81899764359E+01 -0.25521185357E+03  0.29357466468E+03  0.38908385942E+03  0.00000000000E+00 0. -1.
         13    1    5    5    0    0  0.46754153782E+02  0.14393093291E+02  0.29959289520E+03  0.30356056213E+03  0.00000000000E+00 0. -1.
        -14    1    5    5    0    0 -0.31881822092E+02  0.12219013002E+02  0.13812238934E+03  0.14227982744E+03  0.00000000000E+00 0.  1.
          5    1    4    4  501    0  0.33807833999E+02  0.28548128592E+03  0.88105890606E+03  0.92678196066E+03  0.41800000000E+01 0.  1.
         -5    1    4    4    0  501 -0.27699221363E+02  0.53343405046E+01  0.69316484542E+02  0.74952981809E+02  0.41800000000E+01 0.  1.
</event>
<event>
11    1  0.7577197E-009  0.1547079E+03  0.7561462E-02  0.1092163E+00
         22   -1    0    0    0    0  0.00000000000E+00  0.00000000000E+00  0.15690557129E+03  0.15690557129E+03  0.00000000000E+00 0. -1.
         22   -1    0    0    0    0 -0.00000000000E+00 -0.00000000000E+00 -0.59428106395E+03  0.59428106395E+03  0.00000000000E+00 0. -1.
        -24    2    1    2    0    0  0.16411777309E+02  0.86470635800E+02 -0.45942682108E+03  0.47462723289E+03  0.80321161479E+02 0.  0.
         25    2    1    2    0    0  0.17749993082E+01 -0.12729239136E+03 -0.76477430130E+01  0.17863954422E+03  0.12508834984E+03 0.  0.
         24    2    1    2    0    0 -0.18186776617E+02  0.40821755559E+02  0.29699071434E+02  0.97919858132E+02  0.81909030038E+02 0.  0.
        -13    1    5    5    0    0 -0.64242222477E+01 -0.12661330382E+02 -0.19623466863E+02  0.24221072855E+02  0.00000000000E+00 0.  1.
         14    1    5    5    0    0 -0.11762554369E+02  0.53483085942E+02  0.49322538297E+02  0.73698785276E+02  0.00000000000E+00 0. -1.
         13    1    3    3    0    0  0.21169991119E+02 -0.32935335956E+01 -0.17569843737E+03  0.17699987791E+03  0.00000000000E+00 0. -1.
        -14    1    3    3    0    0 -0.47582138100E+01  0.89764169396E+02 -0.28372838371E+03  0.29762735498E+03  0.00000000000E+00 0.  1.
          5    1    4    4  501    0 -0.17948665005E+02 -0.10000259666E+03  0.48791671442E+02  0.11278640661E+03  0.41800000000E+01 0.  1.
         -5    1    4    4    0  501  0.19723664313E+02 -0.27289794697E+02 -0.56439414455E+02  0.65853137607E+02  0.41800000000E+01 0.  1.
</event>
<event>
11    1  0.7577197E-009  0.1541895E+03  0.7561462E-02  0.1092673E+00
         22   -1    0    0    0    0  0.00000000000E+00  0.00000000000E+00  0.25354537632E+04  0.25354537632E+04  0.00000000000E+00 0.  1.
         22   -1    0    0    0    0 -0.00000000000E+00 -0.00000000000E+00 -0.49798802826E+02  0.49798802826E+02  0.00000000000E+00 0.  1.
         24    2    1    2    0    0  0.21024079310E+02  0.39213246022E+01  0.70281820611E+01  0.83942208304E+02  0.80867238697E+02 0.  0.
         25    2    1    2    0    0  0.65528129953E+02  0.31940565439E+02  0.54692684448E+03  0.56576623620E+03  0.12509326631E+03 0.  0.
        -24    2    1    2    0    0 -0.86552209263E+02 -0.35861890041E+02  0.19316999338E+04  0.19355441215E+04  0.78032377241E+02 0.  0.
        -13    1    3    3    0    0 -0.17686498203E+02 -0.19543169060E+02  0.23951879443E+02  0.35615168179E+02  0.00000000000E+00 0.  1.
         14    1    3    3    0    0  0.38710577513E+02  0.23464493662E+02 -0.16923697381E+02  0.48327040125E+02  0.00000000000E+00 0. -1.
         11    1    5    5    0    0 -0.39716129177E+02  0.52060452870E+01  0.30083201538E+03  0.30348702658E+03  0.00000000000E+00 0. -1.
        -12    1    5    5    0    0 -0.46836080085E+02 -0.41067935328E+02  0.16308679185E+04  0.16320570949E+04  0.00000000000E+00 0.  1.
          5    1    4    4  501    0  0.19073612056E+02  0.22075987007E+02  0.49262695991E+03  0.49350779722E+03  0.41800000000E+01 0.  1.
         -5    1    4    4    0  501  0.46454517897E+02  0.98645784318E+01  0.54299884570E+02  0.72258438988E+02  0.41800000000E+01 0.  1.
</event>
<event>
11    1  0.1510684E-008  0.2115372E+03  0.7561462E-02  0.1046652E+00
         22   -1    0    0    0    0  0.00000000000E+00  0.00000000000E+00  0.81626696251E+03  0.81626696251E+03  0.00000000000E+00 0.  1.
         22   -1    0    0    0    0 -0.00000000000E+00 -0.00000000000E+00 -0.94040331859E+03  0.94040331859E+03  0.00000000000E+00 0. -1.
        -24    2    1    2    0    0  0.65096344280E+02  0.39707075252E+02 -0.56782572289E+03  0.57849938815E+03  0.80133043419E+02 0.  0.
         25    2    1    2    0    0  0.34504991372E+02 -0.17840209706E+03 -0.32136602893E+03  0.38979664788E+03  0.12508956587E+03 0.  0.
         24    2    1    2    0    0 -0.99601335653E+02  0.13869502180E+03  0.76505539574E+03  0.78837424506E+03  0.84068166355E+02 0.  0.
        -11    1    5    5    0    0 -0.81191038738E+02  0.12977292916E+03  0.74167149799E+03  0.75730417195E+03  0.00000000000E+00 0.  1.
         12    1    5    5    0    0 -0.18410296915E+02  0.89220926445E+01  0.23383897744E+02  0.31070073114E+02  0.00000000000E+00 0. -1.
         13    1    3    3    0    0  0.58246212560E+02  0.34847721314E+02 -0.56580422463E+03  0.56986086510E+03  0.00000000000E+00 0. -1.
        -14    1    3    3    0    0  0.68501317199E+01  0.48593539374E+01 -0.20214982577E+01  0.86385230494E+01  0.00000000000E+00 0.  1.
          5    1    4    4  501    0 -0.11281456979E+02 -0.14029440011E+03 -0.28992217821E+03  0.32230751122E+03  0.41800000000E+01 0. -1.
         -5    1    4    4    0  501  0.45786448352E+02 -0.38107696951E+02 -0.31443850721E+02  0.67489136664E+02  0.41800000000E+01 0. -1.
</event>
<event>
11    1  0.7577197E-009  0.1878659E+03  0.7561462E-02  0.1063452E+00
         22   -1    0    0    0    0  0.00000000000E+00  0.00000000000E+00  0.14380153649E+04  0.14380153649E+04  0.00000000000E+00 0. -1.
         22   -1    0    0    0    0 -0.00000000000E+00 -0.00000000000E+00 -0.16082825364E+03  0.16082825364E+03  0.00000000000E+00 0.  1.
         24    2    1    2    0    0  0.12398912244E+03 -0.60655666819E+02 -0.70010700441E+02  0.17396241180E+03  0.79429277607E+02 0.  0.
         25    2    1    2    0    0 -0.11306817317E+03  0.11050829217E+03  0.23957867769E+03  0.31311608825E+03  0.12508895832E+03 0.  0.
        -24    2    1    2    0    0 -0.10920949274E+02 -0.49852625351E+02  0.11076191340E+04  0.11117651185E+04  0.81221803129E+02 0.  0.
        -11    1    3    3    0    0  0.12977836752E+03 -0.67768670553E+02 -0.55050354639E+02  0.15641470177E+03  0.00000000000E+00 0.  1.
         12    1    3    3    0    0 -0.57892450767E+01  0.71130037340E+01 -0.14960345802E+02  0.17547710027E+02  0.00000000000E+00 0. -1.
         13    1    5    5    0    0 -0.74789808252E+01 -0.64042995851E+02  0.10599592403E+04  0.10619185616E+04  0.00000000000E+00 0. -1.
        -14    1    5    5    0    0 -0.34419684486E+01  0.14190370500E+02  0.47659893681E+02  0.49846556826E+02  0.00000000000E+00 0.  1.
          5    1    4    4  501    0  0.21456454065E+02 -0.63621562783E+01  0.35266030743E+02  0.41976443130E+02  0.41800000000E+01 0.  1.
         -5    1    4    4    0  501 -0.13452462723E+03  0.11687044845E+03  0.20431264695E+03  0.27113964512E+03  0.41800000000E+01 0.  1.
</event>
<event>
11    1  0.7577197E-009  0.1583086E+03  0.7561462E-02  0.1088679E+00
         22   -1    0    0    0    0  0.00000000000E+00  0.00000000000E+00  0.33934450602E+03  0.33934450602E+03  0.00000000000E+00 0.  1.
         22   -1    0    0    0    0 -0.00000000000E+00 -0.00000000000E+00 -0.18836124363E+04  0.18836124363E+04  0.00000000000E+00 0.  1.
        -24    2    1    2    0    0  0.70068733850E+02  0.77020655683E+02 -0.16173825192E+04  0.16227026174E+04  0.79973509258E+02 0.  0.
         25    2    1    2    0    0 -0.95211233745E+01 -0.55537615890E+02 -0.23849238077E+03  0.27514044594E+03  0.12509424741E+03 0.  0.
         24    2    1    2    0    0 -0.60547610476E+02 -0.21483039792E+02  0.31160696978E+03  0.32511387891E+03  0.66877473857E+02 0.  0.
        -13    1    5    5    0    0 -0.51375402396E+02  0.13480421896E+02  0.22658534484E+03  0.23272746345E+03  0.00000000000E+00 0.  1.
         14    1    5    5    0    0 -0.91722080793E+01 -0.34963461688E+02  0.85021624944E+02  0.92386415465E+02  0.00000000000E+00 0. -1.
         11    1    3    3    0    0  0.17274457974E+02 -0.22026238226E+01 -0.73369388485E+03  0.73390052127E+03  0.00000000000E+00 0. -1.
        -12    1    3    3    0    0  0.52794275876E+02  0.79223279505E+02 -0.88368863440E+03  0.88880209616E+03  0.00000000000E+00 0.  1.
          5    1    4    4  501    0 -0.25004939685E+02  0.18003207888E+02 -0.72108917726E+01  0.31919145713E+02  0.41800000000E+01 0. -1.
         -5    1    4    4    0  501  0.15483816310E+02 -0.73540823778E+02 -0.23128148900E+03  0.24322130022E+03  0.41800000000E+01 0. -1.
</event>
<event>
11    1  0.7577197E-009  0.1364979E+03  0.7561462E-02  0.1111533E+00
         22   -1    0    0    0    0  0.00000000000E+00  0.00000000000E+00  0.60714492006E+03  0.60714492006E+03  0.00000000000E+00 0. -1.
         22   -1    0    0    0    0 -0.00000000000E+00 -0.00000000000E+00 -0.22343128548E+04  0.22343128548E+04  0.00000000000E+00 0. -1.
         24    2    1    2    0    0 -0.47480463894E+02 -0.25485287890E+02 -0.20111687282E+04  0.20134007958E+04  0.77969333515E+02 0.  0.
         25    2    1    2    0    0  0.10115688027E+03  0.25229611290E+02 -0.18710919696E+03  0.24804531889E+03  0.12508949165E+03 0.  0.
        -24    2    1    2    0    0 -0.53676416372E+02  0.25567660085E+00  0.57110999041E+03  0.58001166016E+03  0.85823549942E+02 0.  0.
        -13    1    3    3    0    0 -0.29681153070E+02 -0.26361313986E+01 -0.22123167126E+03  0.22322941653E+03  0.00000000000E+00 0.  1.
         14    1    3    3    0    0 -0.17799310823E+02 -0.22849156492E+02 -0.17899370569E+04  0.17901713793E+04  0.00000000000E+00 0. -1.
         11    1    5    5    0    0 -0.68962651990E+02 -0.18752021580E+02  0.49380643965E+03  0.49895118551E+03  0.00000000000E+00 0. -1.
        -12    1    5    5    0    0  0.15286235618E+02  0.19007698180E+02  0.77303550766E+02  0.81060474650E+02  0.00000000000E+00 0.  1.
          5    1    4    4  501    0 -0.12647039598E+01 -0.40402372737E+02 -0.38825971092E+02  0.56203911164E+02  0.41800000000E+01 0.  1.
         -5    1    4    4    0  501  0.10242158423E+03  0.65631984026E+02 -0.14828322587E+03  0.19184140772E+03  0.41800000000E+01 0.  1.
</event>
<event>
11    1  0.7577197E-009  0.1939891E+03  0.7561462E-02  0.1058858E+00
         22   -1    0    0    0    0  0.00000000000E+00  0.00000000000E+00  0.20060928292E+03  0.20060928292E+03  0.00000000000E+00 0.  1.
         22   -1    0    0    0    0 -0.00000000000E+00 -0.00000000000E+00 -0.96491445314E+03  0.96491445314E+03  0.00000000000E+00 0. -1.
        -24    2    1    2    0    0  0.13750540885E+03  0.11253729358E+03 -0.75617581937E+03  0.78088912889E+03  0.80084841933E+02 0.  0.
         25    2    1    2    0    0  0.21864136677E+02 -0.51799945798E+02 -0.10493962914E+03  0.17269036061E+03  0.12509340521E+03 0.  0.
         24    2    1    2    0    0 -0.15936954553E+03 -0.60737347781E+02  0.96810278291E+02  0.21194424656E+03  0.80376963184E+02 0.  0.
        -11    1    5    5    0    0 -0.14013823394E+03 -0.64359573276E+02  0.51490252199E+02  0.16257959699E+03  0.00000000000E+00 0.  1.
         12    1    5    5    0    0 -0.19231311588E+02  0.36222254947E+01  0.45320026092E+02  0.49364649578E+02  0.00000000000E+00 0. -1.
         11    1    3    3    0    0  0.37948603950E+02  0.79982020938E+02 -0.39706757073E+03  0.40681675966E+03  0.00000000000E+00 0. -1.
        -12    1    3    3    0    0  0.99556804904E+02  0.32555272642E+02 -0.35910824864E+03  0.37407236923E+03  0.00000000000E+00 0.  1.
          5    1    4    4  501    0 -0.14879589333E+02 -0.11637378620E+01 -0.10877215019E+03  0.10987087659E+03  0.41800000000E+01 0. -1.
         -5    1    4    4    0  501  0.36743726010E+02 -0.50636207936E+02  0.38325210550E+01  0.62819484023E+02  0.41800000000E+01 0. -1.
</event>
<event>
11    1  0.7577197E-009  0.1468077E+03  0.7561462E-02  0.1100186E+00
         22   -1    0    0    0    0  0.00000000000E+00  0.00000000000E+00  0.65215946756E+03  0.65215946756E+03  0.00000000000E+00 0.  1.
         22   -1    0    0    0    0 -0.00000000000E+00 -0.00000000000E+00 -0.18156663299E+04  0.18156663299E+04  0.00000000000E+00 0. -1.
         24    2    1    2    0    0  0.64313492334E+02 -0.43847893032E+02 -0.17564087220E+04  0.17600217145E+04  0.81522840034E+02 0.  0.
         25    2    1    2    0    0 -0.34740981991E+02  0.84097762185E+01  0.25222736652E+02  0.13251861587E+03  0.12508931585E+03 0.  0.
        -24    2    1    2    0    0 -0.29572510342E+02  0.35438116813E+02  0.56767912301E+03  0.57528546719E+03  0.81014742907E+02 0.  0.
        -11    1    3    3    0    0  0.56547230055E+02 -0.10890729631E+02 -0.52522916883E+03  0.52837664313E+03  0.00000000000E+00 0.  1.
         12    1    3    3    0    0  0.77662622784E+01 -0.32957163401E+02 -0.12311795532E+04  0.12316450713E+04  0.00000000000E+00 0. -1.
         11    1    5    5    0    0 -0.31583423820E+02  0.19554658055E+02  0.90356222359E+02  0.97694136112E+02  0.00000000000E+00 0. -1.
        -12    1    5    5    0    0  0.20109134773E+01  0.15883458759E+02  0.47732290065E+03  0.47759133108E+03  0.00000000000E+00 0.  1.
          5    1    4    4  501    0 -0.49467509716E+02 -0.26796416691E+02  0.58821726367E+02  0.81501842665E+02  0.41800000000E+01 0.  1.
         -5    1    4    4    0  501  0.14726527724E+02  0.35206192910E+02 -0.33598989715E+02  0.51016773201E+02  0.41800000000E+01 0.  1.
</event>
<event>
11    1  0.7577197E-009  0.1396538E+03  0.7561462E-02  0.1107946E+00
         22   -1    0    0    0    0  0.00000000000E+00  0.00000000000E+00  0.97114879050E+02  0.97114879050E+02  0.00000000000E+00 0.  1.
         22   -1    0    0    0    0 -0.00000000000E+00 -0.00000000000E+00 -0.16699595638E+04  0.16699595638E+04  0.00000000000E+00 0.  1.
         24    2    1    2    0    0 -0.10487033799E+02 -0.32112779598E+02 -0.14353226106E+04  0.14379943017E+04  0.80841862309E+02 0.  0.
         25    2    1    2    0    0 -0.18387281293E+02  0.82766138171E+02 -0.16639256344E+03  0.22476785360E+03  0.12508308080E+03 0.  0.
        -24    2    1    2    0    0  0.28874315091E+02 -0.50653358573E+02  0.28870489247E+02  0.10431228760E+03  0.81535632631E+02 0.  0.
        -13    1    3    3    0    0  0.15484580491E+02 -0.47869213203E+02 -0.59517131977E+03  0.59729400942E+03  0.00000000000E+00 0.  1.
         14    1    3    3    0    0 -0.25971614289E+02  0.15756433605E+02 -0.84015129079E+03  0.84070029223E+03  0.00000000000E+00 0. -1.
         11    1    5    5    0    0  0.85353331634E+00  0.21616108898E+02  0.99069150460E-01  0.21633180481E+02  0.00000000000E+00 0. -1.
        -12    1    5    5    0    0  0.28020781775E+02 -0.72269467471E+02  0.28771420097E+02  0.82679107121E+02  0.00000000000E+00 0.  1.
          5    1    4    4  501    0  0.31403795854E+02  0.28469801053E+02  0.16878384956E+00  0.42593765436E+02  0.41800000000E+01 0. -1.
         -5    1    4    4    0  501 -0.49791077147E+02  0.54296337118E+02 -0.16656134729E+03  0.18217408817E+03  0.41800000000E+01 0. -1.
</event>
<event>
11    1  0.7577197E-009  0.1388032E+03  0.7561462E-02  0.1108902E+00
         22   -1    0    0    0    0  0.00000000000E+00  0.00000000000E+00  0.19362152231E+03  0.19362152231E+03  0.00000000000E+00 0.  1.
         22   -1    0    0    0    0 -0.00000000000E+00 -0.00000000000E+00 -0.59225283250E+03  0.59225283250E+03  0.00000000000E+00 0. -1.
         24    2    1    2    0    0 -0.36566700495E+02 -0.45345956039E+02 -0.47114497044E+03  0.48158204355E+03  0.80933937152E+02 0.  0.
         25    2    1    2    0    0  0.47454984472E+02  0.94371016760E+02 -0.23154562286E+02  0.16535199538E+03  0.12508910531E+03 0.  0.
        -24    2    1    2    0    0 -0.10888283977E+02 -0.49025060721E+02  0.95668222544E+02  0.13894031588E+03  0.87349821208E+02 0.  0.
        -13    1    3    3    0    0 -0.45390327202E+01  0.44729518205E+00  0.21197526699E+01  0.50295369963E+01  0.00000000000E+00 0.  1.
         14    1    3    3    0    0 -0.32027667775E+02 -0.45793251221E+02 -0.47326472311E+03  0.47655250655E+03  0.00000000000E+00 0. -1.
         11    1    5    5    0    0 -0.27521594840E+02  0.10419327556E+02  0.59262550645E+01  0.30018678657E+02  0.00000000000E+00 0. -1.
        -12    1    5    5    0    0  0.16633310863E+02 -0.59444388277E+02  0.89741967479E+02  0.10892163722E+03  0.00000000000E+00 0.  1.
          5    1    4    4  501    0 -0.10476715162E+01  0.10806385957E+03 -0.34508147146E+02  0.11352171590E+03  0.41800000000E+01 0. -1.
         -5    1    4    4    0  501  0.48502655988E+02 -0.13692842812E+02  0.11353584860E+02  0.51830279483E+02  0.41800000000E+01 0. -1.
</event>
<event>
11    1  0.7577197E-009  0.2194193E+03  0.7561462E-02  0.1041582E+00
         22   -1    0    0    0    0  0.00000000000E+00  0.00000000000E+00  0.74842879492E+03  0.74842879492E+03  0.00000000000E+00 0.  1.
         22   -1    0    0    0    0 -0.00000000000E+00 -0.00000000000E+00 -0.79387761678E+03  0.79387761678E+03  0.00000000000E+00 0.  1.
         24    2    1    2    0    0  0.21925522966E+02 -0.66957327975E+01 -0.72693491275E+03  0.73158081733E+03  0.79060505340E+02 0.  0.
         25    2    1    2    0    0 -0.15892938345E+03  0.11294022071E+03  0.26180756818E+03  0.34957955901E+03  0.12509445609E+03 0.  0.
        -24    2    1    2    0    0  0.13700386049E+03 -0.10624448791E+03  0.41967852271E+03  0.46114603536E+03  0.80421729046E+02 0.  0.
        -11    1    3    3    0    0  0.34429167514E+02 -0.27732496576E+02 -0.63193402453E+03  0.63347854763E+03  0.00000000000E+00 0.  1.
         12    1    3    3    0    0 -0.12503644548E+02  0.21036763779E+02 -0.95000888218E+02  0.98102269696E+02  0.00000000000E+00 0. -1.
         11    1    5    5    0    0  0.13799102760E+02 -0.28479244347E+01  0.28685429204E+01  0.14378958552E+02  0.00000000000E+00 0. -1.
        -12    1    5    5    0    0  0.12320475773E+03 -0.10339656348E+03  0.41680997979E+03  0.44676707681E+03  0.00000000000E+00 0.  1.
          5    1    4    4  501    0 -0.13022118818E+03  0.49036048876E+02  0.23752981758E+03  0.27531795906E+03  0.41800000000E+01 0.  1.
         -5    1    4    4    0  501 -0.28708195269E+02  0.63904171832E+02  0.24277750597E+02  0.74261599951E+02  0.41800000000E+01 0.  1.
</event>
<event>
11    1  0.7577197E-009  0.3009667E+03  0.7561462E-02  0.9997829E-01
         22   -1    0    0    0    0  0.00000000000E+00  0.00000000000E+00  0.81244098742E+03  0.81244098742E+03  0.00000000000E+00 0.  1.
         22   -1    0    0    0    0 -0.00000000000E+00 -0.00000000000E+00 -0.70343547172E+03  0.70343547172E+03  0.00000000000E+00 0. -1.
        -24    2    1    2    0    0  0.38504256433E+02 -0.81735015255E+01 -0.58560217696E+03  0.59231238203E+03  0.79716148657E+02 0.  0.
         25    2    1    2    0    0 -0.23278002418E+03  0.18323413736E+03  0.27708238964E+03  0.42447867516E+03  0.12508479631E+03 0.  0.
         24    2    1    2    0    0  0.19427576774E+03 -0.17506063583E+03  0.41752530302E+03  0.49908540195E+03  0.79809520902E+02 0.  0.
        -11    1    5    5    0    0  0.15361875958E+03 -0.13967291182E+03  0.38123861760E+03  0.43410843016E+03  0.00000000000E+00 0.  1.
         12    1    5    5    0    0  0.40657008166E+02 -0.35387724010E+02  0.36286685426E+02  0.64976971789E+02  0.00000000000E+00 0. -1.
         13    1    3    3    0    0  0.34809610084E+02  0.30177695402E+02 -0.22570538162E+03  0.23035911431E+03  0.00000000000E+00 0. -1.
        -14    1    3    3    0    0  0.36946463493E+01 -0.38351196927E+02 -0.35989679534E+03  0.36195326772E+03  0.00000000000E+00 0.  1.
          5    1    4    4  501    0 -0.14958199077E+01  0.44559611524E+02  0.75439342845E+02  0.87728919435E+02  0.41800000000E+01 0.  1.
         -5    1    4    4    0  501 -0.23128420427E+03  0.13867452583E+03  0.20164304679E+03  0.33674975572E+03  0.41800000000E+01 0.  1.
</event>
<event>
11    1  0.7577197E-009  0.1403188E+03  0.7561462E-02  0.1107203E+00
         22   -1    0    0    0    0  0.00000000000E+00  0.00000000000E+00  0.45499262645E+03  0.45499262645E+03  0.00000000000E+00 0. -1.
         22   -1    0    0    0    0 -0.00000000000E+00 -0.00000000000E+00 -0.56077119430E+03  0.56077119430E+03  0.00000000000E+00 0.  1.
         24    2    1    2    0    0 -0.11266464076E+02 -0.61920269753E+02 -0.29373136924E+03  0.31093768298E+03  0.80268751102E+02 0.  0.
         25    2    1    2    0    0  0.71973887580E+02  0.42422508341E+02 -0.22956254037E+03  0.27445630759E+03  0.12508954844E+03 0.  0.
        -24    2    1    2    0    0 -0.60707423504E+02  0.19497761412E+02  0.41751534176E+03  0.43036983018E+03  0.82665447127E+02 0.  0.
        -11    1    3    3    0    0 -0.29785585398E+02 -0.23909861618E+02 -0.23766860911E+03  0.24071815540E+03  0.00000000000E+00 0.  1.
         12    1    3    3    0    0  0.18519121322E+02 -0.38010408135E+02 -0.56062760124E+02  0.70219527582E+02  0.00000000000E+00 0. -1.
         11    1    5    5    0    0 -0.38459442965E+02  0.42637940968E+02  0.35957993625E+03  0.36413576220E+03  0.00000000000E+00 0. -1.
        -12    1    5    5    0    0 -0.22247980539E+02 -0.23140179556E+02  0.57935405519E+02  0.66234067975E+02  0.00000000000E+00 0.  1.
          5    1    4    4  501    0  0.92550324051E+02 -0.84176119784E+01 -0.11974736587E+03  0.15163549290E+03  0.41800000000E+01 0.  1.
         -5    1    4    4    0  501 -0.20576436471E+02  0.50840120320E+02 -0.10981517450E+03  0.12282081470E+03  0.41800000000E+01 0.  1.
</event>
<event>
11    1  0.7577197E-009  0.1572457E+03  0.7561462E-02  0.1089697E+00
         22   -1    0    0    0    0  0.00000000000E+00  0.00000000000E+00  0.74154332480E+02  0.74154332480E+02  0.00000000000E+00 0.  1.
         22   -1    0    0    0    0 -0.00000000000E+00 -0.00000000000E+00 -0.17585158234E+04  0.17585158234E+04  0.00000000000E+00 0.  1.
        -24    2    1    2    0    0 -0.54571114212E+00  0.87366644181E-01 -0.14584340604E+04  0.14607167259E+04  0.81628053938E+02 0.  0.
         25    2    1    2    0    0  0.24810051956E+02 -0.92154071499E+02 -0.18815433707E+03  0.24527416939E+03  0.12509776992E+03 0.  0.
         24    2    1    2    0    0 -0.24264340814E+02  0.92066704855E+02 -0.37773093439E+02  0.12667926064E+03  0.74537186091E+02 0.  0.
        -11    1    5    5    0    0 -0.26823394829E+02  0.96897553185E+02 -0.13080800075E+02  0.10138904109E+03  0.00000000000E+00 0.  1.
         12    1    5    5    0    0  0.25590540158E+01 -0.48308483302E+01 -0.24692293365E+02  0.25290219546E+02  0.00000000000E+00 0. -1.
         11    1    3    3    0    0 -0.18813490703E+01 -0.34456871643E+02 -0.33960947240E+03  0.34135818317E+03  0.00000000000E+00 0. -1.
        -12    1    3    3    0    0  0.13356379282E+01  0.34544238287E+02 -0.11188245880E+04  0.11193585427E+04  0.00000000000E+00 0.  1.
          5    1    4    4  501    0 -0.32641021014E+02  0.15841312232E+01 -0.75553613930E+01  0.33800911384E+02  0.41800000000E+01 0.  1.
         -5    1    4    4    0  501  0.57451072970E+02 -0.93738202722E+02 -0.18059897568E+03  0.21147325801E+03  0.41800000000E+01 0.  1.
</event>
<event>
11    1  0.7577197E-009  0.1739056E+03  0.7561462E-02  0.1074682E+00
         22   -1    0    0    0    0  0.00000000000E+00  0.00000000000E+00  0.10471921893E+03  0.10471921893E+03  0.00000000000E+00 0.  1.
         22   -1    0    0    0    0 -0.00000000000E+00 -0.00000000000E+00 -0.14338049781E+04  0.14338049781E+04  0.00000000000E+00 0.  1.
         24    2    1    2    0    0  0.65945652089E+02  0.99959269859E+02 -0.11643874505E+04  0.11731186871E+04  0.77901440819E+02 0.  0.
         25    2    1    2    0    0 -0.41272459310E+02 -0.12723021546E+03 -0.19969009378E+03  0.27094935320E+03  0.12508586980E+03 0.  0.
        -24    2    1    2    0    0 -0.24673192779E+02  0.27270945606E+02  0.34991785125E+02  0.94456156721E+02  0.79655945165E+02 0.  0.
        -13    1    3    3    0    0  0.64474734264E+02  0.11264857839E+03 -0.10366006175E+04  0.10446949477E+04  0.00000000000E+00 0.  1.
         14    1    3    3    0    0  0.14709178250E+01 -0.12689308536E+02 -0.12778683304E+03  0.12842373943E+03  0.00000000000E+00 0. -1.
         11    1    5    5    0    0 -0.25312721217E+01  0.95475691618E+01 -0.25662908491E+02  0.27498150623E+02  0.00000000000E+00 0. -1.
        -12    1    5    5    0    0 -0.22141920658E+02  0.17723376444E+02  0.60654693616E+02  0.66958006098E+02  0.00000000000E+00 0.  1.
          5    1    4    4  501    0 -0.49334935175E+01 -0.61869314266E+02 -0.18425882576E+03  0.19447606196E+03  0.41800000000E+01 0. -1.
         -5    1    4    4    0  501 -0.36338965792E+02 -0.65360901199E+02 -0.15431268019E+02  0.76473291239E+02  0.41800000000E+01 0. -1.
</event>
<event>
11    1  0.7577197E-009  0.1635127E+03  0.7561462E-02  0.1083819E+00
         22   -1    0    0    0    0  0.00000000000E+00  0.00000000000E+00  0.56456390262E+03  0.56456390262E+03  0.00000000000E+00 0.  1.
         22   -1    0    0    0    0 -0.00000000000E+00 -0.00000000000E+00 -0.46815026031E+03  0.46815026031E+03  0.00000000000E+00 0. -1.
        -24    2    1    2    0    0  0.45657759762E+01  0.12147845484E+01 -0.33819392271E+03  0.34900783355E+03  0.86075644088E+02 0.  0.
         25    2    1    2    0    0  0.32611609448E+02  0.97515718638E+02 -0.58997231489E+02  0.17234045632E+03  0.12509087540E+03 0.  0.
         24    2    1    2    0    0 -0.37177385424E+02 -0.98730503186E+02  0.49360479651E+03  0.51136587307E+03  0.81972500011E+02 0.  0.
        -13    1    5    5    0    0 -0.58297396994E+02 -0.95127549699E+02  0.39461022858E+03  0.41007934562E+03  0.00000000000E+00 0.  1.
         14    1    5    5    0    0  0.21120011570E+02 -0.36029534869E+01  0.98994567931E+02  0.10128652745E+03  0.00000000000E+00 0. -1.
         13    1    3    3    0    0  0.44318461497E+02  0.54645847593E+01 -0.21122360759E+03  0.21589210296E+03  0.00000000000E+00 0. -1.
        -14    1    3    3    0    0 -0.39752685520E+02 -0.42498002108E+01 -0.12697031512E+03  0.13311573059E+03  0.00000000000E+00 0.  1.
          5    1    4    4  501    0 -0.30995559265E+02  0.92434923029E+02 -0.29703006929E+02  0.10200333676E+03  0.41800000000E+01 0. -1.
         -5    1    4    4    0  501  0.63607168713E+02  0.50807956092E+01 -0.29294224560E+02  0.70337119562E+02  0.41800000000E+01 0. -1.
</event>
<event>
11    1  0.7577197E-009  0.1413908E+03  0.7561462E-02  0.1106015E+00
         22   -1    0    0    0    0  0.00000000000E+00  0.00000000000E+00  0.24002530066E+03  0.24002530066E+03  0.00000000000E+00 0. -1.
         22   -1    0    0    0    0 -0.00000000000E+00 -0.00000000000E+00 -0.85250001585E+03  0.85250001585E+03  0.00000000000E+00 0. -1.
        -24    2    1    2    0    0 -0.13217774551E+02  0.12819189134E+02 -0.72206157273E+03  0.72662074322E+03  0.79156480981E+02 0.  0.
         25    2    1    2    0    0 -0.19526872201E+02  0.46574414291E+02 -0.74159360108E+02  0.15394930683E+03  0.12510117336E+03 0.  0.
         24    2    1    2    0    0  0.32744646753E+02 -0.59393603425E+02  0.18374621765E+03  0.21195526647E+03  0.81009570188E+02 0.  0.
        -11    1    5    5    0    0 -0.16154971577E+02  0.69545092989E+01  0.11526077063E+02  0.21028522504E+02  0.00000000000E+00 0.  1.
         12    1    5    5    0    0  0.48899618330E+02 -0.66348112724E+02  0.17222014059E+03  0.19092674396E+03  0.00000000000E+00 0. -1.
         13    1    3    3    0    0  0.11146883532E+02  0.40788443112E+02 -0.30576778239E+03  0.30867764229E+03  0.00000000000E+00 0. -1.
        -14    1    3    3    0    0 -0.24364658083E+02 -0.27969253979E+02 -0.41629379035E+03  0.41794310093E+03  0.00000000000E+00 0.  1.
          5    1    4    4  501    0 -0.62512998015E+02  0.20559363505E+01 -0.78890802534E+01  0.63180786497E+02  0.41800000000E+01 0. -1.
         -5    1    4    4    0  501  0.42986125814E+02  0.44518477941E+02 -0.66270279854E+02  0.90768520329E+02  0.41800000000E+01 0. -1.
</event>
<event>
11    1  0.7577197E-009  0.2939696E+03  0.7561462E-02  0.1002776E+00
         22   -1    0    0    0    0  0.00000000000E+00  0.00000000000E+00  0.20900067493E+04  0.20900067493E+04  0.00000000000E+00 0.  1.
         22   -1    0    0    0    0 -0.00000000000E+00 -0.00000000000E+00 -0.33331821112E+03  0.33331821112E+03  0.00000000000E+00 0.  1.
         24    2    1    2    0    0 -0.16967027984E+03 -0.21086847357E+03 -0.22853653665E+03  0.36289694217E+03  0.78814497709E+02 0.  0.
         25    2    1    2    0    0  0.10729177879E+03  0.21051675873E+03  0.46115154350E+03  0.53304483861E+03  0.12508885799E+03 0.  0.
        -24    2    1    2    0    0  0.62378501048E+02  0.35171484458E+00  0.15240735313E+04  0.15273831796E+04  0.78791163534E+02 0.  0.
        -13    1    3    3    0    0 -0.85916744807E+02 -0.14093158969E+03 -0.17767429481E+03  0.24251093800E+03  0.00000000000E+00 0.  1.
         14    1    3    3    0    0 -0.83753535032E+02 -0.69936883876E+02 -0.50862241838E+02  0.12038600418E+03  0.00000000000E+00 0. -1.
         11    1    5    5    0    0  0.27711113914E+02 -0.38638128095E+02  0.82172947211E+03  0.82310396434E+03  0.00000000000E+00 0. -1.
        -12    1    5    5    0    0  0.34667387135E+02  0.38989842940E+02  0.70234405919E+03  0.70427921528E+03  0.00000000000E+00 0.  1.
          5    1    4    4  501    0 -0.15802592706E+02  0.92583867247E+02  0.12834526148E+03  0.15909579804E+03  0.41800000000E+01 0. -1.
         -5    1    4    4    0  501  0.12309437150E+03  0.11793289148E+03  0.33280628202E+03  0.37394904056E+03  0.41800000000E+01 0. -1.
</event>
<event>
11    1  0.7577197E-009  0.1593258E+03  0.7561462E-02  0.1087713E+00
         22   -1    0    0    0    0  0.00000000000E+00  0.00000000000E+00  0.35669218059E+03  0.35669218059E+03  0.00000000000E+00 0. -1.
         22   -1    0    0    0    0 -0.00000000000E+00 -0.00000000000E+00 -0.75107019111E+03  0.75107019111E+03  0.00000000000E+00 0. -1.
         24    2    1    2    0    0 -0.67954141589E+01 -0.96352355982E+01 -0.56893604402E+03  0.57440730265E+03  0.78208130840E+02 0.  0.
         25    2    1    2    0    0 -0.43552040430E+02  0.94093819094E+02 -0.12683433921E+03  0.20611962833E+03  0.12509166464E+03 0.  0.
        -24    2    1    2    0    0  0.50347454589E+02 -0.84458583496E+02  0.30139237272E+03  0.32723544072E+03  0.81102113563E+02 0.  0.
        -11    1    3    3    0    0 -0.13962193867E+02 -0.41546082480E+02 -0.25146914225E+03  0.25526016010E+03  0.00000000000E+00 0.  1.
         12    1    3    3    0    0  0.71667797077E+01  0.31910846882E+02 -0.31746690177E+03  0.31914714255E+03  0.00000000000E+00 0. -1.
         13    1    5    5    0    0  0.72200351943E+01 -0.65077335333E+02  0.24522684455E+03  0.25381763881E+03  0.00000000000E+00 0. -1.
        -14    1    5    5    0    0  0.43127419394E+02 -0.19381248163E+02  0.56165528168E+02  0.73417801918E+02  0.00000000000E+00 0.  1.
          5    1    4    4  501    0  0.22994984159E+02  0.57849619249E+02 -0.50144476007E+01  0.62593648467E+02  0.41800000000E+01 0. -1.
         -5    1    4    4    0  501 -0.66547024589E+02  0.36244199846E+02 -0.12181989161E+03  0.14352597986E+03  0.41800000000E+01 0. -1.
</event>
<event>
11    1  0.7577197E-009  0.1586181E+03  0.7561462E-02  0.1088384E+00
         22   -1    0    0    0    0  0.00000000000E+00  0.00000000000E+00  0.60110904983E+03  0.60110904983E+03  0.00000000000E+00 0. -1.
         22   -1    0    0    0    0 -0.00000000000E+00 -0.00000000000E+00 -0.16651176078E+04  0.16651176078E+04  0.00000000000E+00 0.  1.
        -24    2    1    2    0    0  0.32495540114E+02 -0.35975803254E+02 -0.15837763831E+04  0.15865537568E+04  0.80342847613E+02 0.  0.
         25    2    1    2    0    0 -0.79687488828E+02  0.11587399102E+03  0.51025586041E+02  0.19500836858E+03  0.12509106969E+03 0.  0.
         24    2    1    2    0    0  0.47191948714E+02 -0.79898187764E+02  0.46874223904E+03  0.48466453224E+03  0.81053203000E+02 0.  0.
        -13    1    5    5    0    0  0.66111568868E+01  0.13336249352E+02  0.22458560968E+02  0.26943457516E+02  0.00000000000E+00 0.  1.
         14    1    5    5    0    0  0.40580791827E+02 -0.93234437116E+02  0.44628367807E+03  0.45772107472E+03  0.00000000000E+00 0. -1.
         11    1    3    3    0    0  0.14063479463E+02  0.20566028199E+02 -0.20706996801E+03  0.20856345466E+03  0.00000000000E+00 0. -1.
        -12    1    3    3    0    0  0.18432060651E+02 -0.56541831453E+02 -0.13767064151E+04  0.13779903022E+04  0.00000000000E+00 0.  1.
          5    1    4    4  501    0 -0.20552761734E+02  0.77150120768E+01  0.67008856916E+02  0.70637077597E+02  0.41800000000E+01 0. -1.
         -5    1    4    4    0  501 -0.59134727094E+02  0.10815897894E+03 -0.15983270875E+02  0.12437129099E+03  0.41800000000E+01 0. -1.
</event>
<event>
11    1  0.7577197E-009  0.1198340E+04  0.7561462E-02  0.8510321E-01
         22   -1    0    0    0    0  0.00000000000E+00  0.00000000000E+00  0.25853716806E+04  0.25853716806E+04  0.00000000000E+00 0. -1.
         22   -1    0    0    0    0 -0.00000000000E+00 -0.00000000000E+00 -0.10647005522E+04  0.10647005522E+04  0.00000000000E+00 0. -1.
        -24    2    1    2    0    0 -0.99934316122E+03  0.61695417412E+03 -0.35051055790E+03  0.12282625314E+04  0.80324267816E+02 0.  0.
         25    2    1    2    0    0  0.11070246360E+04 -0.58544059901E+03  0.12089365604E+04  0.17451125496E+04  0.12508382877E+03 0.  0.
         24    2    1    2    0    0 -0.10768147473E+03 -0.31513575111E+02  0.66224512585E+03  0.67669715181E+03  0.82231521525E+02 0.  0.
        -11    1    5    5    0    0 -0.11918158240E+03 -0.38094481665E+02  0.57537959501E+03  0.58882689941E+03  0.00000000000E+00 0.  1.
         12    1    5    5    0    0  0.11500107670E+02  0.65809065542E+01  0.86865530842E+02  0.87870252395E+02  0.00000000000E+00 0. -1.
         13    1    3    3    0    0 -0.77492007678E+03  0.45138402294E+03 -0.29350563155E+03  0.94360702483E+03  0.00000000000E+00 0. -1.
        -14    1    3    3    0    0 -0.22442308444E+03  0.16557015118E+03 -0.57004926357E+02  0.28465550657E+03  0.00000000000E+00 0.  1.
          5    1    4    4  501    0  0.87936266889E+03 -0.50370581464E+03  0.92507427075E+03  0.13721436258E+04  0.41800000000E+01 0.  1.
         -5    1    4    4    0  501  0.22766196707E+03 -0.81734784366E+02  0.28386228965E+03  0.37296892379E+03  0.41800000000E+01 0.  1.
</event>
<event>
11    1  0.7577197E-009  0.1975109E+03  0.7561462E-02  0.1056298E+00
         22   -1    0    0    0    0  0.00000000000E+00  0.00000000000E+00  0.11751140577E+04  0.11751140577E+04  0.00000000000E+00 0. -1.
         22   -1    0    0    0    0 -0.00000000000E+00 -0.00000000000E+00 -0.11415388738E+03  0.11415388738E+03  0.00000000000E+00 0.  1.
        -24    2    1    2    0    0 -0.34402914546E+02  0.10279648559E+02 -0.20526154814E+02  0.99102319637E+02  0.90059508228E+02 0.  0.
         25    2    1    2    0    0 -0.12251000915E+03 -0.26652349294E+02  0.12332508519E+03  0.21581955952E+03  0.12509978244E+03 0.  0.
         24    2    1    2    0    0  0.15691292370E+03  0.16372700735E+02  0.95816123991E+03  0.97434606589E+03  0.79922234111E+02 0.  0.
        -13    1    5    5    0    0  0.40017454579E+02 -0.30045555030E+02  0.22749943031E+03  0.23293802361E+03  0.00000000000E+00 0.  1.
         14    1    5    5    0    0  0.11689546912E+03  0.46418255764E+02  0.73066180959E+03  0.74140804228E+03  0.00000000000E+00 0. -1.
         11    1    3    3    0    0 -0.25327764363E+02  0.42810314917E+02  0.13106584234E+02  0.51439296858E+02  0.00000000000E+00 0. -1.
        -12    1    3    3    0    0 -0.90751501828E+01 -0.32530666358E+02 -0.33632739048E+02  0.47663022779E+02  0.00000000000E+00 0.  1.
          5    1    4    4  501    0  0.17425519561E+02  0.22355491461E+02  0.16936401087E+02  0.33282590227E+02  0.41800000000E+01 0. -1.
         -5    1    4    4    0  501 -0.13993552871E+03 -0.49007840755E+02  0.10638868411E+03  0.18253696929E+03  0.41800000000E+01 0. -1.
</event>
<event>
11    1  0.7577197E-009  0.1467152E+03  0.7561462E-02  0.1100283E+00
         22   -1    0    0    0    0  0.00000000000E+00  0.00000000000E+00  0.11367022638E+03  0.11367022638E+03  0.00000000000E+00 0. -1.
         22   -1    0    0    0    0 -0.00000000000E+00 -0.00000000000E+00 -0.68268286229E+03  0.68268286229E+03  0.00000000000E+00 0.  1.
        -24    2    1    2    0    0 -0.63409649269E+02 -0.61509314861E+02 -0.48889657852E+03  0.50339397281E+03  0.81126123655E+02 0.  0.
         25    2    1    2    0    0  0.39688733289E+02  0.30415367407E+01 -0.12554703394E+03  0.18164426617E+03  0.12509250659E+03 0.  0.
         24    2    1    2    0    0  0.23720915980E+02  0.58467778120E+02  0.45430976546E+02  0.11131484969E+03  0.79660901320E+02 0.  0.
        -11    1    5    5    0    0 -0.24058631900E+02  0.20871538270E+02 -0.51044519541E+01  0.32256694009E+02  0.00000000000E+00 0.  1.
         12    1    5    5    0    0  0.47779547880E+02  0.37596239851E+02  0.50535428500E+02  0.79058155684E+02  0.00000000000E+00 0. -1.
         11    1    3    3    0    0  0.63462829349E+01 -0.75816706946E+01 -0.41986044341E+01  0.10741755760E+02  0.00000000000E+00 0. -1.
        -12    1    3    3    0    0 -0.69755932204E+02 -0.53927644166E+02 -0.48469797408E+03  0.49265221705E+03  0.00000000000E+00 0.  1.
          5    1    4    4  501    0  0.85113140943E+02  0.65208448473E+01 -0.79156096078E+02  0.11649003445E+03  0.41800000000E+01 0.  1.
         -5    1    4    4    0  501 -0.45424407654E+02 -0.34793081066E+01 -0.46390937863E+02  0.65154231723E+02  0.41800000000E+01 0.  1.
</event>
<event>
11    1  0.7577197E-009  0.1294644E+03  0.7561462E-02  0.1119929E+00
         22   -1    0    0    0    0  0.00000000000E+00  0.00000000000E+00  0.58427674958E+02  0.58427674958E+02  0.00000000000E+00 0. -1.
         22   -1    0    0    0    0 -0.00000000000E+00 -0.00000000000E+00 -0.18903954437E+04  0.18903954437E+04  0.00000000000E+00 0.  1.
         24    2    1    2    0    0  0.36768634044E+02  0.51146701419E+01 -0.14168501417E+04  0.14195782027E+04  0.79748712555E+02 0.  0.
         25    2    1    2    0    0 -0.91049322875E+01  0.62277494201E+01 -0.42431065676E+03  0.44250351467E+03  0.12509253536E+03 0.  0.
        -24    2    1    2    0    0 -0.27663701756E+02 -0.11342419562E+02  0.91930297785E+01  0.86741401258E+02  0.80905055586E+02 0.  0.
        -11    1    3    3    0    0  0.45905140684E+02 -0.16027466055E+01 -0.13851387169E+04  0.13859001103E+04  0.00000000000E+00 0.  1.
         12    1    3    3    0    0 -0.91365066396E+01  0.67174167473E+01 -0.31711424849E+02  0.33678092394E+02  0.00000000000E+00 0. -1.
         11    1    5    5    0    0 -0.44467116294E+02 -0.35036540654E+02  0.10868221950E+02  0.57645484306E+02  0.00000000000E+00 0. -1.
        -12    1    5    5    0    0  0.16803414538E+02  0.23694121092E+02 -0.16751921720E+01  0.29095916952E+02  0.00000000000E+00 0.  1.
          5    1    4    4  501    0  0.54794868529E+02 -0.16555056713E+02 -0.18139676674E+03  0.19025984049E+03  0.41800000000E+01 0.  1.
         -5    1    4    4    0  501 -0.63899800816E+02  0.22782806133E+02 -0.24291389003E+03  0.25224367419E+03  0.41800000000E+01 0.  1.
</event>
<event>
11    1  0.8176076E-009  0.2172240E+03  0.7561462E-02  0.1042970E+00
         22   -1    0    0    0    0  0.00000000000E+00  0.00000000000E+00  0.24420604155E+03  0.24420604155E+03  0.00000000000E+00 0. -1.
         22   -1    0    0    0    0 -0.00000000000E+00 -0.00000000000E+00 -0.15752289310E+04  0.15752289310E+04  0.00000000000E+00 0.  1.
         24    2    1    2    0    0  0.75537767637E+01  0.96750766751E-01 -0.77521857658E+03  0.77962480133E+03  0.82425241686E+02 0.  0.
         25    2    1    2    0    0 -0.18452663589E+03  0.88380555791E+01 -0.73933236697E+03  0.77226080242E+03  0.12508480134E+03 0.  0.
        -24    2    1    2    0    0  0.17697285912E+03 -0.89348063458E+01  0.18352805408E+03  0.26754936881E+03  0.80628124667E+02 0.  0.
        -11    1    3    3    0    0  0.28398065457E+02 -0.11567090162E+02 -0.11633052675E+03  0.12030394486E+03  0.00000000000E+00 0.  1.
         12    1    3    3    0    0 -0.20844288693E+02  0.11663840929E+02 -0.65888804984E+03  0.65932085647E+03  0.00000000000E+00 0. -1.
         11    1    5    5    0    0  0.14436080815E+03 -0.24912748764E+02  0.17845198411E+03  0.23088048556E+03  0.00000000000E+00 0. -1.
        -12    1    5    5    0    0  0.32612050973E+02  0.15977942418E+02  0.50760699717E+01  0.36668883252E+02  0.00000000000E+00 0.  1.
          5    1    4    4  501    0  0.18205648153E+02  0.78875382495E+01 -0.62740421715E+02  0.65935512444E+02  0.41800000000E+01 0. -1.
         -5    1    4    4    0  501 -0.20273228404E+03  0.95051732957E+00 -0.67659194526E+03  0.70632528998E+03  0.41800000000E+01 0. -1.
</event>
<event>
11    1  0.7577197E-009  0.2730704E+03  0.7561462E-02  0.1012280E+00
         22   -1    0    0    0    0  0.00000000000E+00  0.00000000000E+00  0.77724868452E+03  0.77724868452E+03  0.00000000000E+00 0.  1.
         22   -1    0    0    0    0 -0.00000000000E+00 -0.00000000000E+00 -0.26182810818E+03  0.26182810818E+03  0.00000000000E+00 0.  1.
        -24    2    1    2    0    0  0.85556700513E+01  0.15363116171E+02 -0.10877098619E+03  0.13631665744E+03  0.80261315898E+02 0.  0.
         25    2    1    2    0    0  0.21593803112E+03  0.83942561991E+02  0.42805327398E+02  0.26675071288E+03  0.12509220507E+03 0.  0.
         24    2    1    2    0    0 -0.22449370117E+03 -0.99305678161E+02  0.58138623514E+03  0.63600942238E+03  0.78987286110E+02 0.  0.
        -13    1    5    5    0    0 -0.21044625972E+03 -0.71114928239E+02  0.54072975989E+03  0.58457987861E+03  0.00000000000E+00 0.  1.
         14    1    5    5    0    0 -0.14047441454E+02 -0.28190749922E+02  0.40656475250E+02  0.51429543769E+02  0.00000000000E+00 0. -1.
         11    1    3    3    0    0 -0.34110240612E+02 -0.95795191806E+00 -0.30897086923E+02  0.46033207219E+02  0.00000000000E+00 0. -1.
        -12    1    3    3    0    0  0.42665910664E+02  0.16321068089E+02 -0.77873899270E+02  0.90283450221E+02  0.00000000000E+00 0.  1.
          5    1    4    4  501    0  0.15904231044E+03  0.33631105892E+01  0.52442437048E+02  0.16755133132E+03  0.41800000000E+01 0.  1.
         -5    1    4    4    0  501  0.56895720685E+02  0.80579451401E+02 -0.96371096501E+01  0.99199381565E+02  0.41800000000E+01 0.  1.
</event>
<event>
11    1  0.7577197E-009  0.1429231E+03  0.7561462E-02  0.1104338E+00
         22   -1    0    0    0    0  0.00000000000E+00  0.00000000000E+00  0.44190965597E+03  0.44190965597E+03  0.00000000000E+00 0.  1.
         22   -1    0    0    0    0 -0.00000000000E+00 -0.00000000000E+00 -0.16925791165E+03  0.16925791165E+03  0.00000000000E+00 0. -1.
        -24    2    1    2    0    0  0.24251763346E+02 -0.66056306169E+02 -0.10569531679E+03  0.15088072170E+03  0.81497905367E+02 0.  0.
         25    2    1    2    0    0 -0.80405859698E+02  0.28794745648E+02  0.17927826325E+03  0.23469721335E+03  0.12509135314E+03 0.  0.
         24    2    1    2    0    0  0.56154096352E+02  0.37261560521E+02  0.19906879787E+03  0.22558963257E+03  0.81979202295E+02 0.  0.
        -11    1    5    5    0    0  0.35422242350E+02 -0.22489953389E+02  0.94255025012E+02  0.10317239455E+03  0.00000000000E+00 0.  1.
         12    1    5    5    0    0  0.20731854002E+02  0.59751513910E+02  0.10481377286E+03  0.12241723802E+03  0.00000000000E+00 0. -1.
         11    1    3    3    0    0  0.54223570171E+02 -0.36620457927E+02 -0.69155338263E+02  0.95203541484E+02  0.00000000000E+00 0. -1.
        -12    1    3    3    0    0 -0.29971806824E+02 -0.29435848242E+02 -0.36539978529E+02  0.55677180217E+02  0.00000000000E+00 0.  1.
          5    1    4    4  501    0 -0.85043668491E+02  0.63149217278E+02  0.90803454935E+02  0.13958147807E+03  0.41800000000E+01 0.  1.
         -5    1    4    4    0  501  0.46378087928E+01 -0.34354471629E+02  0.88474808311E+02  0.95115735275E+02  0.41800000000E+01 0.  1.
</event>
<event>
11    1  0.7577197E-009  0.1263782E+03  0.7561462E-02  0.1123801E+00
         22   -1    0    0    0    0  0.00000000000E+00  0.00000000000E+00  0.39118752256E+03  0.39118752256E+03  0.00000000000E+00 0.  1.
         22   -1    0    0    0    0 -0.00000000000E+00 -0.00000000000E+00 -0.16230596971E+03  0.16230596971E+03  0.00000000000E+00 0.  1.
         24    2    1    2    0    0 -0.73718792273E+01  0.14232343321E+02 -0.81205207534E+02  0.11499956458E+03  0.79835517925E+02 0.  0.
         25    2    1    2    0    0  0.48059304621E+02  0.72969636785E+01  0.17353477714E+02  0.13531952054E+03  0.12508911628E+03 0.  0.
        -24    2    1    2    0    0 -0.40687425394E+02 -0.21529307000E+02  0.29273328268E+03  0.30317440715E+03  0.64054419965E+02 0.  0.
        -11    1    3    3    0    0  0.46536818048E+01  0.46478541240E+02 -0.51602164653E+02  0.69603842904E+02  0.00000000000E+00 0.  1.
         12    1    3    3    0    0 -0.12025561032E+02 -0.32246197918E+02 -0.29603042880E+02  0.45395721672E+02  0.00000000000E+00 0. -1.
         11    1    5    5    0    0 -0.20993347516E+01 -0.35232412306E+02  0.97468833043E+02  0.10366244980E+03  0.00000000000E+00 0. -1.
        -12    1    5    5    0    0 -0.38588090642E+02  0.13703105307E+02  0.19526444963E+03  0.19951195735E+03  0.00000000000E+00 0.  1.
          5    1    4    4  501    0  0.77598954230E+01 -0.48163865890E+02 -0.24641702871E+02  0.54814777887E+02  0.41800000000E+01 0. -1.
         -5    1    4    4    0  501  0.40299409198E+02  0.55460829568E+02  0.41995180585E+02  0.80504742658E+02  0.41800000000E+01 0. -1.
</event>
<event>
11    1  0.7577197E-009  0.1507750E+03  0.7561462E-02  0.1096090E+00
         22   -1    0    0    0    0  0.00000000000E+00  0.00000000000E+00  0.28303932879E+04  0.28303932879E+04  0.00000000000E+00 0. -1.
         22   -1    0    0    0    0 -0.00000000000E+00 -0.00000000000E+00 -0.50146199423E+02  0.50146199423E+02  0.00000000000E+00 0. -1.
         24    2    1    2    0    0 -0.78817319217E+02 -0.20919591488E+02  0.44860227739E+02  0.12496904447E+03  0.83396780066E+02 0.  0.
         25    2    1    2    0    0  0.11333170372E+03 -0.63788513725E+01  0.78028333407E+03  0.79835729181E+03  0.12509004416E+03 0.  0.
        -24    2    1    2    0    0 -0.34514384504E+02  0.27298442860E+02  0.19551035267E+04  0.19572131511E+04  0.79480003222E+02 0.  0.
        -11    1    3    3    0    0 -0.19973321483E+02  0.15877969824E+02  0.49208883242E+02  0.55430656561E+02  0.00000000000E+00 0.  1.
         12    1    3    3    0    0 -0.58843997734E+02 -0.36797561312E+02 -0.43486555030E+01  0.69538387906E+02  0.00000000000E+00 0. -1.
         13    1    5    5    0    0 -0.19697680033E+02 -0.27386711534E+02  0.82703916387E+03  0.82772689284E+03  0.00000000000E+00 0. -1.
        -14    1    5    5    0    0 -0.14816704471E+02  0.54685154395E+02  0.11280643628E+04  0.11294862582E+04  0.00000000000E+00 0.  1.
          5    1    4    4  501    0  0.30499764122E+02 -0.51541073637E+02  0.15935409198E+03  0.17028774740E+03  0.41800000000E+01 0. -1.
         -5    1    4    4    0  501  0.82831939599E+02  0.45162222264E+02  0.62092924209E+03  0.62806954442E+03  0.41800000000E+01 0. -1.
</event>
<event>
11    1  0.7577197E-009  0.1732580E+03  0.7561462E-02  0.1075231E+00
         22   -1    0    0    0    0  0.00000000000E+00  0.00000000000E+00  0.63979183499E+03  0.63979183499E+03  0.00000000000E+00 0. -1.
         22   -1    0    0    0    0 -0.00000000000E+00 -0.00000000000E+00 -0.20265866852E+04  0.20265866852E+04  0.00000000000E+00 0. -1.
        -24    2    1    2    0    0  0.16460216788E+02 -0.11889089964E+03 -0.19798601748E+04  0.19851461698E+04  0.80950719501E+02 0.  0.
         25    2    1    2    0    0 -0.52876561596E+01  0.11011676493E+03  0.13955997856E+03  0.21743678303E+03  0.12509238894E+03 0.  0.
         24    2    1    2    0    0 -0.11172560628E+02  0.87741347159E+01  0.45350534599E+03  0.46379556738E+03  0.96111486986E+02 0.  0.
        -13    1    5    5    0    0 -0.10237412915E+02  0.28291072838E+02  0.41139840664E+02  0.50967400516E+02  0.00000000000E+00 0.  1.
         14    1    5    5    0    0 -0.93514771333E+00 -0.19516938122E+02  0.41236550533E+03  0.41282816687E+03  0.00000000000E+00 0. -1.
         13    1    3    3    0    0 -0.31428763682E+02 -0.53438956296E+02 -0.10100737284E+04  0.10119745185E+04  0.00000000000E+00 0. -1.
        -14    1    3    3    0    0  0.47888980469E+02 -0.65451943345E+02 -0.96978644638E+03  0.97317165132E+03  0.00000000000E+00 0.  1.
          5    1    4    4  501    0 -0.47328850596E+02  0.52303472653E+02  0.12744844553E+02  0.71802345455E+02  0.41800000000E+01 0. -1.
         -5    1    4    4    0  501  0.42041194436E+02  0.57813292273E+02  0.12681513401E+03  0.14563443757E+03  0.41800000000E+01 0. -1.
</event>
<event>
11    1  0.7577197E-009  0.1671219E+03  0.7561462E-02  0.1080564E+00
         22   -1    0    0    0    0  0.00000000000E+00  0.00000000000E+00  0.24575413624E+03  0.24575413624E+03  0.00000000000E+00 0.  1.
         22   -1    0    0    0    0 -0.00000000000E+00 -0.00000000000E+00 -0.90476044635E+03  0.90476044635E+03  0.00000000000E+00 0. -1.
        -24    2    1    2    0    0  0.65596308493E+02 -0.98516715248E+02 -0.71141412063E+03  0.72513604271E+03  0.75523576005E+02 0.  0.
         25    2    1    2    0    0 -0.94551498005E+02  0.17525345399E+02 -0.13207653106E+03  0.20576473076E+03  0.12509113022E+03 0.  0.
         24    2    1    2    0    0  0.28955189512E+02  0.80991369849E+02  0.18448434159E+03  0.21961380911E+03  0.82448455855E+02 0.  0.
        -11    1    5    5    0    0 -0.22534410668E+02  0.22153144984E+02  0.98273115124E+02  0.10322871041E+03  0.00000000000E+00 0.  1.
         12    1    5    5    0    0  0.51489600180E+02  0.58838224865E+02  0.86211226464E+02  0.11638509870E+03  0.00000000000E+00 0. -1.
         11    1    3    3    0    0  0.44367939048E+02 -0.54528708944E+02 -0.21226697531E+03  0.22360492598E+03  0.00000000000E+00 0. -1.
        -12    1    3    3    0    0  0.21228369445E+02 -0.43988006304E+02 -0.49914714533E+03  0.50153111674E+03  0.00000000000E+00 0.  1.
          5    1    4    4  501    0 -0.39164117879E+02 -0.25405636042E+02 -0.12700799111E+03  0.13538011921E+03  0.41800000000E+01 0.  1.
         -5    1    4    4    0  501 -0.55387380126E+02  0.42930981441E+02 -0.50685399513E+01  0.70384611542E+02  0.41800000000E+01 0.  1.
</event>
<event>
11    1  0.7577197E-009  0.1458689E+03  0.7561462E-02  0.1101176E+00
         22   -1    0    0    0    0  0.00000000000E+00  0.00000000000E+00  0.41219998756E+03  0.41219998756E+03  0.00000000000E+00 0.  1.
         22   -1    0    0    0    0 -0.00000000000E+00 -0.00000000000E+00 -0.23001134103E+04  0.23001134103E+04  0.00000000000E+00 0.  1.
        -24    2    1    2    0    0  0.17169702050E+02 -0.72909707530E+02 -0.22487384583E+04  0.22514380740E+04  0.80858661231E+02 0.  0.
         25    2    1    2    0    0  0.10971895280E+02 -0.17005536594E+02  0.70774657420E+02  0.14513582750E+03  0.12508311449E+03 0.  0.
         24    2    1    2    0    0 -0.28141597330E+02  0.89915244124E+02  0.29005037813E+03  0.31573949637E+03  0.81764950227E+02 0.  0.
        -11    1    5    5    0    0  0.22085465753E+02  0.62388954070E+02  0.17786562506E+03  0.18977968796E+03  0.00000000000E+00 0.  1.
         12    1    5    5    0    0 -0.50227063083E+02  0.27526290054E+02  0.11218475307E+03  0.12595980840E+03  0.00000000000E+00 0. -1.
         11    1    3    3    0    0 -0.26418668847E+01 -0.67689341468E+02 -0.90064050322E+03  0.90318444542E+03  0.00000000000E+00 0. -1.
        -12    1    3    3    0    0  0.19811568935E+02 -0.52203660619E+01 -0.13480979551E+04  0.13482536286E+04  0.00000000000E+00 0.  1.
          5    1    4    4  501    0  0.24718889028E+02  0.47624597117E+02  0.89676788243E+01  0.54562050812E+02  0.41800000000E+01 0.  1.
         -5    1    4    4    0  501 -0.13746993749E+02 -0.64630133711E+02  0.61806978596E+02  0.90573776689E+02  0.41800000000E+01 0.  1.
</event>
<event>
11    1  0.7577197E-009  0.1461331E+03  0.7561462E-02  0.1100897E+00
         22   -1    0    0    0    0  0.00000000000E+00  0.00000000000E+00  0.54518502628E+03  0.54518502628E+03  0.00000000000E+00 0. -1.
         22   -1    0    0    0    0 -0.00000000000E+00 -0.00000000000E+00 -0.23066271785E+03  0.23066271785E+03  0.00000000000E+00 0.  1.
        -24    2    1    2    0    0 -0.96861438385E+01 -0.16421257077E+02 -0.14421637292E+03  0.16615965432E+03  0.80294392328E+02 0.  0.
         25    2    1    2    0    0  0.42673366235E+02 -0.52576914325E+02  0.50129163932E+01  0.14233877951E+03  0.12509936338E+03 0.  0.
         24    2    1    2    0    0 -0.32987222397E+02  0.68998171402E+02  0.45372576495E+03  0.46734931030E+03  0.81849884254E+02 0.  0.
        -11    1    5    5    0    0  0.19215338574E+02  0.33033466463E+02  0.84752279032E+02  0.92969822761E+02  0.00000000000E+00 0.  1.
         12    1    5    5    0    0 -0.52202560971E+02  0.35964704939E+02  0.36897348592E+03  0.37437948753E+03  0.00000000000E+00 0. -1.
         13    1    3    3    0    0  0.22043980864E+02  0.16829252031E+02 -0.21415777280E+02  0.35039924839E+02  0.00000000000E+00 0. -1.
        -14    1    3    3    0    0 -0.31730124703E+02 -0.33250509108E+02 -0.12280059564E+03  0.13111972948E+03  0.00000000000E+00 0.  1.
          5    1    4    4  501    0  0.23728824014E+02 -0.83967922745E+02 -0.29109132393E+02  0.92078679008E+02  0.41800000000E+01 0.  1.
         -5    1    4    4    0  501  0.18944542221E+02  0.31391008420E+02  0.34122048786E+02  0.50260100507E+02  0.41800000000E+01 0.  1.
</event>
<event>
11    1  0.7577197E-009  0.1702343E+03  0.7561462E-02  0.1077828E+00
         22   -1    0    0    0    0  0.00000000000E+00  0.00000000000E+00  0.78559824582E+03  0.78559824582E+03  0.00000000000E+00 0.  1.
         22   -1    0    0    0    0 -0.00000000000E+00 -0.00000000000E+00 -0.29930954833E+03  0.29930954833E+03  0.00000000000E+00 0. -1.
         24    2    1    2    0    0 -0.45287388404E+01 -0.52174216080E+02 -0.23594226297E+03  0.25483506133E+03  0.80805313720E+02 0.  0.
         25    2    1    2    0    0 -0.95076130953E+02  0.10383927988E+03  0.14800057375E+03  0.23952805200E+03  0.12508977233E+03 0.  0.
        -24    2    1    2    0    0  0.99604869794E+02 -0.51665063803E+02  0.57423038671E+03  0.59054468082E+03  0.80075427692E+02 0.  0.
        -13    1    3    3    0    0 -0.40945205659E+02 -0.15205952242E+02 -0.92463483865E+02  0.10226058233E+03  0.00000000000E+00 0.  1.
         14    1    3    3    0    0  0.36416466818E+02 -0.36968263837E+02 -0.14347877911E+03  0.15257447900E+03  0.00000000000E+00 0. -1.
         11    1    5    5    0    0  0.17179814258E+00 -0.20075976406E+02  0.28082575797E+02  0.34521086406E+02  0.00000000000E+00 0. -1.
        -12    1    5    5    0    0  0.99433071651E+02 -0.31589087396E+02  0.54614781091E+03  0.55602359441E+03  0.00000000000E+00 0.  1.
          5    1    4    4  501    0  0.30112735533E+02  0.21562242946E+02  0.40852078089E+02  0.55299835861E+02  0.41800000000E+01 0. -1.
         -5    1    4    4    0  501 -0.12518886649E+03  0.82277036937E+02  0.10714849566E+03  0.18422821614E+03  0.41800000000E+01 0. -1.
</event>
<event>
11    1  0.7577197E-009  0.1722987E+03  0.7561462E-02  0.1076048E+00
         22   -1    0    0    0    0  0.00000000000E+00  0.00000000000E+00  0.11466700625E+04  0.11466700625E+04  0.00000000000E+00 0. -1.
         22   -1    0    0    0    0 -0.00000000000E+00 -0.00000000000E+00 -0.12067741525E+03  0.12067741525E+03  0.00000000000E+00 0. -1.
         24    2    1    2    0    0  0.14270153912E+02 -0.16120431096E+02 -0.62520781657E+02  0.10729327156E+03  0.84495516993E+02 0.  0.
         25    2    1    2    0    0  0.92831384492E+02 -0.41717815884E+02  0.18637506936E+03  0.24645677326E+03  0.12508889839E+03 0.  0.
        -24    2    1    2    0    0 -0.10710153840E+03  0.57838246981E+02  0.90213835957E+03  0.91359743294E+03  0.77399272158E+02 0.  0.
        -11    1    3    3    0    0  0.34851881267E+02  0.23657090322E+02 -0.25970576814E+02  0.49485173642E+02  0.00000000000E+00 0.  1.
         12    1    3    3    0    0 -0.20581727355E+02 -0.39777521418E+02 -0.36550204843E+02  0.57808097920E+02  0.00000000000E+00 0. -1.
         13    1    5    5    0    0 -0.80547991699E+02  0.72990978736E+02  0.78691196198E+03  0.79438409969E+03  0.00000000000E+00 0. -1.
        -14    1    5    5    0    0 -0.26553546705E+02 -0.15152731755E+02  0.11522639759E+03  0.11921333325E+03  0.00000000000E+00 0.  1.
          5    1    4    4  501    0 -0.11640387256E+02 -0.28887592670E+02 -0.10679337711E+01  0.31442081806E+02  0.41800000000E+01 0. -1.
         -5    1    4    4    0  501  0.10447177175E+03 -0.12830223214E+02  0.18744300313E+03  0.21501469146E+03  0.41800000000E+01 0. -1.
</event>
<event>
11    1  0.7577197E-009  0.1375289E+03  0.7561462E-02  0.1110350E+00
         22   -1    0    0    0    0  0.00000000000E+00  0.00000000000E+00  0.87437730950E+02  0.87437730950E+02  0.00000000000E+00 0.  1.
         22   -1    0    0    0    0 -0.00000000000E+00 -0.00000000000E+00 -0.44938683793E+03  0.44938683793E+03  0.00000000000E+00 0.  1.
         24    2    1    2    0    0 -0.43450380771E+02  0.50602272465E+01 -0.25238545003E+03  0.26924635015E+03  0.82955651961E+02 0.  0.
         25    2    1    2    0    0 -0.18425752629E+02  0.30528048822E+02 -0.85008030895E+02  0.15538832172E+03  0.12509074741E+03 0.  0.
        -24    2    1    2    0    0  0.61876133400E+02 -0.35588276068E+02 -0.24555626055E+02  0.11218989701E+03  0.82996463427E+02 0.  0.
        -11    1    3    3    0    0  0.17036336377E+01  0.24805138959E+01 -0.20006378763E+03  0.20008641742E+03  0.00000000000E+00 0.  1.
         12    1    3    3    0    0 -0.45154014409E+02  0.25797133506E+01 -0.52321662403E+02  0.69159932727E+02  0.00000000000E+00 0. -1.
         11    1    5    5    0    0 -0.18578352193E+02 -0.17084604628E+01 -0.15812300140E+02  0.24456141214E+02  0.00000000000E+00 0. -1.
        -12    1    5    5    0    0  0.80454485593E+02 -0.33879815606E+02 -0.87433259153E+01  0.87733755793E+02  0.00000000000E+00 0.  1.
          5    1    4    4  501    0 -0.62001929389E+02  0.27726993521E+02 -0.10396635707E+02  0.68837401547E+02  0.41800000000E+01 0. -1.
         -5    1    4    4    0  501  0.43576176760E+02  0.28010553008E+01 -0.74611395187E+02  0.86550920178E+02  0.41800000000E+01 0. -1.
</event>
<event>
11    1  0.7577197E-009  0.2500515E+03  0.7561462E-02  0.1023872E+00
         22   -1    0    0    0    0  0.00000000000E+00  0.00000000000E+00  0.67166541881E+03  0.67166541881E+03  0.00000000000E+00 0. -1.
         22   -1    0    0    0    0 -0.00000000000E+00 -0.00000000000E+00 -0.95875736529E+03  0.95875736529E+03  0.00000000000E+00 0.  1.
        -24    2    1    2    0    0 -0.14058156628E+02 -0.18538114392E+02 -0.86962559994E+03  0.87368735975E+03  0.80867948314E+02 0.  0.
         25    2    1    2    0    0  0.22125399713E+03 -0.24299204166E+02  0.30711827558E+03  0.39939135039E+03  0.12509209808E+03 0.  0.
         24    2    1    2    0    0 -0.20719584050E+03  0.42837318558E+02  0.27541537788E+03  0.35734407397E+03  0.84118991015E+02 0.  0.
        -11    1    5    5    0    0 -0.77285896766E+02  0.28857457839E+02  0.49055706570E+02  0.95980857774E+02  0.00000000000E+00 0.  1.
         12    1    5    5    0    0 -0.12990994373E+03  0.13979860719E+02  0.22635967131E+03  0.26136321620E+03  0.00000000000E+00 0. -1.
         11    1    3    3    0    0  0.57578494921E+01 -0.14974847714E+02 -0.31782059796E+02  0.35601941235E+02  0.00000000000E+00 0. -1.
        -12    1    3    3    0    0 -0.19816006120E+02 -0.35632666782E+01 -0.83784354014E+03  0.83808541851E+03  0.00000000000E+00 0.  1.
          5    1    4    4  501    0  0.97677688103E+02  0.49487375998E+02  0.15619177984E+03  0.19079642456E+03  0.41800000000E+01 0. -1.
         -5    1    4    4    0  501  0.12357630902E+03 -0.73786580164E+02  0.15092649574E+03  0.20859492582E+03  0.41800000000E+01 0. -1.
</event>
<event>
11    1  0.7577197E-009  0.1475846E+03  0.7561462E-02  0.1099373E+00
         22   -1    0    0    0    0  0.00000000000E+00  0.00000000000E+00  0.48201001063E+03  0.48201001063E+03  0.00000000000E+00 0.  1.
         22   -1    0    0    0    0 -0.00000000000E+00 -0.00000000000E+00 -0.10412432502E+04  0.10412432502E+04  0.00000000000E+00 0. -1.
         24    2    1    2    0    0 -0.48926768106E+02  0.58615017634E+02 -0.94548288342E+03  0.95198021486E+03  0.80615741109E+02 0.  0.
         25    2    1    2    0    0  0.10400233266E+03 -0.98926349199E+02  0.21442317668E+02  0.19160091300E+03  0.12509288193E+03 0.  0.
        -24    2    1    2    0    0 -0.55075564555E+02  0.40311331565E+02  0.36480732617E+03  0.37967213298E+03  0.80051371451E+02 0.  0.
        -13    1    3    3    0    0  0.14766889956E+02  0.33377874328E+02 -0.19575527973E+03  0.19912878516E+03  0.00000000000E+00 0.  1.
         14    1    3    3    0    0 -0.63693658061E+02  0.25237143306E+02 -0.74972760369E+03  0.75285142971E+03  0.00000000000E+00 0. -1.
         13    1    5    5    0    0 -0.57930101327E+02 -0.39811957523E+01  0.16277942975E+03  0.17282618236E+03  0.00000000000E+00 0. -1.
        -14    1    5    5    0    0  0.28545367714E+01  0.44292527317E+02  0.20202789643E+03  0.20684595063E+03  0.00000000000E+00 0.  1.
          5    1    4    4  501    0 -0.73485521723E+01 -0.75804620047E+02  0.31702784831E+01  0.76340452613E+02  0.41800000000E+01 0.  1.
         -5    1    4    4    0  501  0.11135088483E+03 -0.23121729151E+02  0.18272039185E+02  0.11526046038E+03  0.41800000000E+01 0.  1.
</event>
<event>
11    1  0.7577197E-009  0.1479348E+03  0.7561462E-02  0.1099008E+00
         22   -1    0    0    0    0  0.00000000000E+00  0.00000000000E+00  0.16686892538E+04  0.16686892538E+04  0.00000000000E+00 0. -1.
         22   -1    0    0    0    0 -0.00000000000E+00 -0.00000000000E+00 -0.11212802515E+03  0.11212802515E+03  0.00000000000E+00 0.  1.
         24    2    1    2    0    0  0.16584840898E+02 -0.64957222865E+02 -0.55105987338E+02  0.11878325685E+03  0.81106686015E+02 0.  0.
         25    2    1    2    0    0 -0.19351770538E+02  0.13768196902E+03  0.36058653917E+03  0.40620468020E+03  0.12509506132E+03 0.  0.
        -24    2    1    2    0    0  0.27669296391E+01 -0.72724746159E+02  0.12510806768E+04  0.12558293419E+04  0.81289184176E+02 0.  0.
        -11    1    3    3    0    0  0.32776333658E+02 -0.69916499793E+02 -0.63415306227E+02  0.99920498674E+02  0.00000000000E+00 0.  1.
         12    1    3    3    0    0 -0.16191492760E+02  0.49592769278E+01  0.83093188895E+01  0.18862758172E+02  0.00000000000E+00 0. -1.
         13    1    5    5    0    0 -0.18792902658E+02 -0.70870346853E+02  0.11557577176E+04  0.11580810338E+04  0.00000000000E+00 0. -1.
        -14    1    5    5    0    0  0.21559832297E+02 -0.18543993057E+01  0.95322959219E+02  0.97748308014E+02  0.00000000000E+00 0.  1.
          5    1    4    4  501    0 -0.42413214645E+02  0.15282373760E+03  0.31631138117E+03  0.35387050994E+03  0.41800000000E+01 0. -1.
         -5    1    4    4    0  501  0.23061444107E+02 -0.15141768578E+02  0.44275158003E+02  0.52334170254E+02  0.41800000000E+01 0. -1.
</event>
<event>
11    1  0.7577197E-009  0.1407883E+03  0.7561462E-02  0.1106681E+00
         22   -1    0    0    0    0  0.00000000000E+00  0.00000000000E+00  0.11193864486E+04  0.11193864486E+04  0.00000000000E+00 0. -1.
         22   -1    0    0    0    0 -0.00000000000E+00 -0.00000000000E+00 -0.11186294429E+04  0.11186294429E+04  0.00000000000E+00 0.  1.
         24    2    1    2    0    0  0.32358598862E+02  0.12263866444E+02 -0.81526566019E+03  0.82003388695E+03  0.81240370029E+02 0.  0.
         25    2    1    2    0    0 -0.94482940844E+01 -0.72666335273E+02 -0.28092696005E+03  0.31612904155E+03  0.12509175626E+03 0.  0.
        -24    2    1    2    0    0 -0.22910304777E+02  0.60402468829E+02  0.10969496259E+04  0.11018529629E+04  0.81290404279E+02 0.  0.
        -13    1    3    3    0    0  0.15352005377E+02  0.31936853678E+02 -0.73073370608E+03  0.73159237004E+03  0.00000000000E+00 0.  1.
         14    1    3    3    0    0  0.17006593485E+02 -0.19672987235E+02 -0.84531954105E+02  0.88441516911E+02  0.00000000000E+00 0. -1.
         11    1    5    5    0    0 -0.23310062961E+02  0.71361271899E+02  0.58643869609E+03  0.59122426746E+03  0.00000000000E+00 0. -1.
        -12    1    5    5    0    0  0.39975818329E+00 -0.10958803070E+02  0.51051092982E+03  0.51062869547E+03  0.00000000000E+00 0.  1.
          5    1    4    4  501    0 -0.44116695224E+02 -0.91076872679E+02 -0.16438944002E+03  0.19308713039E+03  0.41800000000E+01 0. -1.
         -5    1    4    4    0  501  0.34668401140E+02  0.18410537407E+02 -0.11653752004E+03  0.12304191116E+03  0.41800000000E+01 0. -1.
</event>
<event>
11    1  0.7577197E-009  0.1511469E+03  0.7561462E-02  0.1095713E+00
         22   -1    0    0    0    0  0.00000000000E+00  0.00000000000E+00  0.22259253109E+04  0.22259253109E+04  0.00000000000E+00 0. -1.
         22   -1    0    0    0    0 -0.00000000000E+00 -0.00000000000E+00 -0.44503217273E+03  0.44503217273E+03  0.00000000000E+00 0.  1.
         24    2    1    2    0    0  0.55605484963E+02 -0.25355228591E+02 -0.42427323078E+03  0.43551175157E+03  0.76992556934E+02 0.  0.
         25    2    1    2    0    0 -0.69226888894E+01 -0.52587216484E+02  0.34193528458E+03  0.36794144594E+03  0.12509128603E+03 0.  0.
        -24    2    1    2    0    0 -0.48682796074E+02  0.77942445075E+02  0.18632310843E+04  0.18675042861E+04  0.86586058272E+02 0.  0.
        -11    1    3    3    0    0  0.27391112799E+02 -0.13301621621E+02 -0.38235128415E+03  0.38356187335E+03  0.00000000000E+00 0.  1.
         12    1    3    3    0    0  0.28214372165E+02 -0.12053606971E+02 -0.41921946637E+02  0.51949878224E+02  0.00000000000E+00 0. -1.
         13    1    5    5    0    0 -0.61204985251E+02  0.87274621485E+02  0.14187438917E+04  0.14227428228E+04  0.00000000000E+00 0. -1.
        -14    1    5    5    0    0  0.12522189177E+02 -0.93321764091E+01  0.44448719269E+03  0.44476146326E+03  0.00000000000E+00 0.  1.
          5    1    4    4  501    0  0.43124753748E+02 -0.98697840182E+01  0.43049153420E+02  0.61869693975E+02  0.41800000000E+01 0.  1.
         -5    1    4    4    0  501 -0.50047442638E+02 -0.42717432466E+02  0.29888613116E+03  0.30607175196E+03  0.41800000000E+01 0.  1.
</event>
<event>
11    1  0.7577197E-009  0.1396126E+03  0.7561462E-02  0.1107992E+00
         22   -1    0    0    0    0  0.00000000000E+00  0.00000000000E+00  0.20745385621E+03  0.20745385621E+03  0.00000000000E+00 0.  1.
         22   -1    0    0    0    0 -0.00000000000E+00 -0.00000000000E+00 -0.56554578531E+03  0.56554578531E+03  0.00000000000E+00 0.  1.
        -24    2    1    2    0    0 -0.20844376752E+02  0.60157031284E+02 -0.43044000873E+03  0.44256222470E+03  0.80804487236E+02 0.  0.
         25    2    1    2    0    0 -0.33547563191E+02 -0.61442159164E+02 -0.68894608149E+02  0.15904160020E+03  0.12508871109E+03 0.  0.
         24    2    1    2    0    0  0.54391939943E+02  0.12851278804E+01  0.14124268778E+03  0.17139581663E+03  0.80417003316E+02 0.  0.
        -11    1    5    5    0    0 -0.20252701890E+01 -0.23872232709E+02  0.83388469162E+02  0.86761869523E+02  0.00000000000E+00 0.  1.
         12    1    5    5    0    0  0.56417210132E+02  0.25157360589E+02  0.57854218613E+02  0.84633947103E+02  0.00000000000E+00 0. -1.
         13    1    3    3    0    0  0.10842966014E+02  0.43569597230E+02 -0.93415916008E+02  0.10364561292E+03  0.00000000000E+00 0. -1.
        -14    1    3    3    0    0 -0.31687342766E+02  0.16587434054E+02 -0.33702409272E+03  0.33891661177E+03  0.00000000000E+00 0.  1.
          5    1    4    4  501    0  0.43207841009E+02 -0.33326245125E+02 -0.51947741130E+02  0.75455923209E+02  0.41800000000E+01 0. -1.
         -5    1    4    4    0  501 -0.76755404200E+02 -0.28115914039E+02 -0.16946867019E+02  0.83585676990E+02  0.41800000000E+01 0. -1.
</event>
<event>
11    1  0.7577197E-009  0.1282429E+03  0.7561462E-02  0.1121447E+00
         22   -1    0    0    0    0  0.00000000000E+00  0.00000000000E+00  0.12205866348E+03  0.12205866348E+03  0.00000000000E+00 0. -1.
         22   -1    0    0    0    0 -0.00000000000E+00 -0.00000000000E+00 -0.14566251956E+04  0.14566251956E+04  0.00000000000E+00 0. -1.
         24    2    1    2    0    0  0.15462814529E+02 -0.23230139918E+02 -0.13561193021E+04  0.13587671965E+04  0.80062442312E+02 0.  0.
         25    2    1    2    0    0 -0.39017719456E+02  0.26883360277E+02  0.28881545166E+01  0.13380458475E+03  0.12510087118E+03 0.  0.
        -24    2    1    2    0    0  0.23554904927E+02 -0.36532203586E+01  0.18664615512E+02  0.86112077809E+02  0.80614778467E+02 0.  0.
        -13    1    3    3    0    0 -0.27410897390E+02 -0.78450452701E+01 -0.23505188560E+03  0.23677476841E+03  0.00000000000E+00 0.  1.
         14    1    3    3    0    0  0.42873711919E+02 -0.15385094648E+02 -0.11210674165E+04  0.11219924281E+04  0.00000000000E+00 0. -1.
         13    1    5    5    0    0 -0.17014276756E+02 -0.26479491252E+02  0.23545437029E+02  0.39306954542E+02  0.00000000000E+00 0. -1.
        -14    1    5    5    0    0  0.40569181683E+02  0.22826270893E+02 -0.48808215174E+01  0.46805123267E+02  0.00000000000E+00 0.  1.
          5    1    4    4  501    0 -0.68344031816E+02 -0.20528583693E+02  0.21888091820E+02  0.74758881725E+02  0.41800000000E+01 0. -1.
         -5    1    4    4    0  501  0.29326312359E+02  0.47411943970E+02 -0.18999937304E+02  0.59045703020E+02  0.41800000000E+01 0. -1.
</event>
<event>
11    1  0.7577197E-009  0.1492014E+03  0.7561462E-02  0.1097698E+00
         22   -1    0    0    0    0  0.00000000000E+00  0.00000000000E+00  0.65192028316E+03  0.65192028316E+03  0.00000000000E+00 0.  1.
         22   -1    0    0    0    0 -0.00000000000E+00 -0.00000000000E+00 -0.15651191613E+03  0.15651191613E+03  0.00000000000E+00 0. -1.
        -24    2    1    2    0    0  0.38832783301E+02  0.63738075023E+02 -0.48773868177E+02  0.12112729347E+03  0.81990266127E+02 0.  0.
         25    2    1    2    0    0 -0.51232758062E+02 -0.84139633703E+02  0.24887607653E+02  0.16115718668E+03  0.12509185563E+03 0.  0.
         24    2    1    2    0    0  0.12399974761E+02  0.20401558680E+02  0.51929462755E+03  0.52614771915E+03  0.81206706543E+02 0.  0.
        -11    1    5    5    0    0  0.20441027110E+02  0.25217679814E+02  0.51467571419E+03  0.51569841743E+03  0.00000000000E+00 0.  1.
         12    1    5    5    0    0 -0.80410523484E+01 -0.48161211341E+01  0.46189133598E+01  0.10449301712E+02  0.00000000000E+00 0. -1.
         13    1    3    3    0    0  0.20764561493E+02 -0.37540007836E+01 -0.46679363230E+02  0.51227165522E+02  0.00000000000E+00 0. -1.
        -14    1    3    3    0    0  0.18068221808E+02  0.67492075807E+02 -0.20945049476E+01  0.69900127947E+02  0.00000000000E+00 0.  1.
          5    1    4    4  501    0 -0.61408155823E+01 -0.30219481617E+02 -0.49664712154E+02  0.58608725618E+02  0.41800000000E+01 0.  1.
         -5    1    4    4    0  501 -0.45091942480E+02 -0.53920152087E+02  0.74552319807E+02  0.10254846106E+03  0.41800000000E+01 0.  1.
</event>
<event>
11    1  0.7577197E-009  0.2518461E+03  0.7561462E-02  0.1022920E+00
         22   -1    0    0    0    0  0.00000000000E+00  0.00000000000E+00  0.31553467727E+04  0.31553467727E+04  0.00000000000E+00 0. -1.
         22   -1    0    0    0    0 -0.00000000000E+00 -0.00000000000E+00 -0.65641506015E+02  0.65641506015E+02  0.00000000000E+00 0.  1.
         24    2    1    2    0    0 -0.17539515129E+03 -0.12608974144E+03  0.21698252878E+03  0.31641609469E+03  0.79847637326E+02 0.  0.
         25    2    1    2    0    0  0.18991989018E+03  0.12910792359E+03  0.11278417365E+04  0.11577624085E+04  0.12509353033E+03 0.  0.
        -24    2    1    2    0    0 -0.14524738884E+02 -0.30181821441E+01  0.17448810013E+04  0.17468097755E+04  0.80713105242E+02 0.  0.
        -11    1    3    3    0    0 -0.15369726630E+03 -0.94201424578E+02  0.13306905793E+03  0.22406278637E+03  0.00000000000E+00 0.  1.
         12    1    3    3    0    0 -0.21697884996E+02 -0.31888316864E+02  0.83913470853E+02  0.92353308313E+02  0.00000000000E+00 0. -1.
         13    1    5    5    0    0 -0.39660699655E+02  0.19915873986E+02  0.12334218863E+04  0.12342200625E+04  0.00000000000E+00 0. -1.
        -14    1    5    5    0    0  0.25135960772E+02 -0.22934056130E+02  0.51145911503E+03  0.51258971293E+03  0.00000000000E+00 0.  1.
          5    1    4    4  501    0  0.19807644665E+03  0.11339505212E+03  0.11061206199E+04  0.11294303940E+04  0.41800000000E+01 0.  1.
         -5    1    4    4    0  501 -0.81565564739E+01  0.15712871470E+02  0.21721116594E+02  0.28332014567E+02  0.41800000000E+01 0.  1.
</event>
<event>
11    1  0.7577197E-009  0.1628685E+03  0.7561462E-02  0.1084410E+00
         22   -1    0    0    0    0  0.00000000000E+00  0.00000000000E+00  0.98671680387E+03  0.98671680387E+03  0.00000000000E+00 0. -1.
         22   -1    0    0    0    0 -0.00000000000E+00 -0.00000000000E+00 -0.19111282618E+03  0.19111282618E+03  0.00000000000E+00 0.  1.
         24    2    1    2    0    0  0.27943293153E+02  0.28610026077E+02 -0.13321719764E+03  0.16027970391E+03  0.79645467637E+02 0.  0.
         25    2    1    2    0    0 -0.10301466260E+03  0.43497367169E+02  0.14655769055E+03  0.22278375800E+03  0.12509757995E+03 0.  0.
        -24    2    1    2    0    0  0.75071369444E+02 -0.72107393246E+02  0.78226348478E+03  0.79476616814E+03  0.94243916140E+02 0.  0.
        -13    1    3    3    0    0  0.14832502000E+02  0.56386550974E+02 -0.90851989001E+02  0.10795151760E+03  0.00000000000E+00 0.  1.
         14    1    3    3    0    0  0.13110791153E+02 -0.27776524897E+02 -0.42365208635E+02  0.52328186312E+02  0.00000000000E+00 0. -1.
         13    1    5    5    0    0  0.29042984747E+02 -0.69945339948E+02  0.65599813374E+03  0.66035550805E+03  0.00000000000E+00 0. -1.
        -14    1    5    5    0    0  0.46028384697E+02 -0.21620532978E+01  0.12626535104E+03  0.13441066009E+03  0.00000000000E+00 0.  1.
          5    1    4    4  501    0 -0.57207006708E+02  0.39530333841E+01 -0.67702535633E+01  0.57892804586E+02  0.41800000000E+01 0. -1.
         -5    1    4    4    0  501 -0.45807655889E+02  0.39544333784E+02  0.15332794411E+03  0.16489095342E+03  0.41800000000E+01 0. -1.
</event>
<event>
11    1  0.7577197E-009  0.1554453E+03  0.7561462E-02  0.1091441E+00
         22   -1    0    0    0    0  0.00000000000E+00  0.00000000000E+00  0.26412359102E+03  0.26412359102E+03  0.00000000000E+00 0. -1.
         22   -1    0    0    0    0 -0.00000000000E+00 -0.00000000000E+00 -0.69486069626E+03  0.69486069626E+03  0.00000000000E+00 0. -1.
         24    2    1    2    0    0 -0.88715254224E+01  0.13060371791E+02 -0.44664177187E+03  0.45351203692E+03  0.77039067828E+02 0.  0.
         25    2    1    2    0    0 -0.75968522517E+02 -0.49846645285E+02 -0.20279257405E+03  0.25500428479E+03  0.12508578141E+03 0.  0.
        -24    2    1    2    0    0  0.84840047939E+02  0.36786273494E+02  0.21869724068E+03  0.25046796558E+03  0.79716090269E+02 0.  0.
        -11    1    3    3    0    0 -0.98666845367E+01 -0.11697979846E+02 -0.40327784321E+03  0.40356810208E+03  0.00000000000E+00 0.  1.
         12    1    3    3    0    0  0.99515911436E+00  0.24758351637E+02 -0.43363928666E+02  0.49943934835E+02  0.00000000000E+00 0. -1.
         13    1    5    5    0    0  0.62834552469E+02  0.62231682070E+02  0.15686115323E+03  0.18007327572E+03  0.00000000000E+00 0. -1.
        -14    1    5    5    0    0  0.22005495470E+02 -0.25445408576E+02  0.61836087451E+02  0.70394689855E+02  0.00000000000E+00 0.  1.
          5    1    4    4  501    0 -0.10916845777E+03 -0.22863016023E+02 -0.14704114641E+03  0.18460509422E+03  0.41800000000E+01 0.  1.
         -5    1    4    4    0  501  0.33199935255E+02 -0.26983629262E+02 -0.55751427640E+02  0.70399190571E+02  0.41800000000E+01 0.  1.
</event>
<event>
11    1  0.7577197E-009  0.1480785E+03  0.7561462E-02  0.1098858E+00
         22   -1    0    0    0    0  0.00000000000E+00  0.00000000000E+00  0.79615979269E+02  0.79615979269E+02  0.00000000000E+00 0. -1.
         22   -1    0    0    0    0 -0.00000000000E+00 -0.00000000000E+00 -0.99619932869E+03  0.99619932869E+03  0.00000000000E+00 0. -1.
        -24    2    1    2    0    0 -0.66138285793E+02 -0.32302510753E+02 -0.60044898472E+03  0.61056757216E+03  0.82680420163E+02 0.  0.
         25    2    1    2    0    0  0.81057654383E+02  0.58882624770E+02 -0.34276410523E+03  0.37838110296E+03  0.12509004920E+03 0.  0.
         24    2    1    2    0    0 -0.14919368589E+02 -0.26580114016E+02  0.26629740529E+02  0.86866632834E+02  0.76860775426E+02 0.  0.
        -11    1    5    5    0    0  0.11440116793E+02  0.12085484919E+02 -0.16349311652E+02  0.23328849295E+02  0.00000000000E+00 0.  1.
         12    1    5    5    0    0 -0.26359485382E+02 -0.38665598936E+02  0.42979052181E+02  0.63537783539E+02  0.00000000000E+00 0. -1.
         13    1    3    3    0    0 -0.34609383526E+02 -0.50584983602E+01 -0.50752237038E+03  0.50872620757E+03  0.00000000000E+00 0. -1.
        -14    1    3    3    0    0 -0.31528902268E+02 -0.27244012393E+02 -0.92926614342E+02  0.10184136459E+03  0.00000000000E+00 0.  1.
          5    1    4    4  501    0  0.46476195376E+01 -0.31127309268E+02 -0.28576985364E+02  0.42715643998E+02  0.41800000000E+01 0. -1.
         -5    1    4    4    0  501  0.76410034845E+02  0.90009934037E+02 -0.31418711986E+03  0.33566545896E+03  0.41800000000E+01 0. -1.
</event>
<event>
11    1  0.7577197E-009  0.1537277E+03  0.7561462E-02  0.1093130E+00
         22   -1    0    0    0    0  0.00000000000E+00  0.00000000000E+00  0.31151522404E+03  0.31151522404E+03  0.00000000000E+00 0. -1.
         22   -1    0    0    0    0 -0.00000000000E+00 -0.00000000000E+00 -0.12912853330E+04  0.12912853330E+04  0.00000000000E+00 0. -1.
         24    2    1    2    0    0  0.84202687502E+01 -0.71659186518E+02 -0.12035423407E+04  0.12084725621E+04  0.81766910053E+02 0.  0.
         25    2    1    2    0    0 -0.95833050585E+02  0.62906851598E+02  0.38694192227E+02  0.17402912548E+03  0.12509056895E+03 0.  0.
        -24    2    1    2    0    0  0.87412781835E+02  0.87523349202E+01  0.18507803952E+03  0.22029886945E+03  0.80994526812E+02 0.  0.
        -11    1    3    3    0    0  0.26551809307E+02 -0.38955963658E+01 -0.13566560755E+03  0.13829436475E+03  0.00000000000E+00 0.  1.
         12    1    3    3    0    0 -0.18131540557E+02 -0.67763590152E+02 -0.10678767331E+04  0.10701781973E+04  0.00000000000E+00 0. -1.
         13    1    5    5    0    0  0.90221734593E+02 -0.20012877768E+01  0.10081381868E+03  0.13530481360E+03  0.00000000000E+00 0. -1.
        -14    1    5    5    0    0 -0.28089527578E+01  0.10753622697E+02  0.84264220834E+02  0.84994055847E+02  0.00000000000E+00 0.  1.
          5    1    4    4  501    0 -0.12186101683E+03  0.62552352108E+02  0.13740840155E+02  0.13772867264E+03  0.41800000000E+01 0.  1.
         -5    1    4    4    0  501  0.26027966247E+02  0.35449948979E+00  0.24953352072E+02  0.36300452841E+02  0.41800000000E+01 0.  1.
</event>
<event>
11    1  0.7577197E-009  0.1340167E+03  0.7561462E-02  0.1114430E+00
         22   -1    0    0    0    0  0.00000000000E+00  0.00000000000E+00  0.14530461766E+04  0.14530461766E+04  0.00000000000E+00 0. -1.
         22   -1    0    0    0    0 -0.00000000000E+00 -0.00000000000E+00 -0.16615342422E+03  0.16615342422E+03  0.00000000000E+00 0. -1.
         24    2    1    2    0    0  0.46889415340E+02  0.15695326633E+02 -0.12905198062E+03  0.15982479213E+03  0.80278203317E+02 0.  0.
         25    2    1    2    0    0 -0.79955012003E+02  0.15924218674E+02  0.26367050899E+03  0.30301100120E+03  0.12508854806E+03 0.  0.
        -24    2    1    2    0    0  0.33065596663E+02 -0.31619545306E+02  0.11522742240E+04  0.11563638075E+04  0.85721867599E+02 0.  0.
        -11    1    3    3    0    0  0.30122348918E+00 -0.25893539364E+02 -0.15355067356E+02  0.30105551147E+02  0.00000000000E+00 0.  1.
         12    1    3    3    0    0  0.46588191851E+02  0.41588865996E+02 -0.11369691327E+03  0.12971924098E+03  0.00000000000E+00 0. -1.
         13    1    5    5    0    0 -0.13692161662E+02 -0.45785646695E+02  0.62963101039E+03  0.63144200841E+03  0.00000000000E+00 0. -1.
        -14    1    5    5    0    0  0.46757758325E+02  0.14166101388E+02  0.52264321365E+03  0.52492179910E+03  0.00000000000E+00 0.  1.
          5    1    4    4  501    0  0.13853620345E+01  0.34765386109E+02  0.10784241768E+02  0.36665018339E+02  0.41800000000E+01 0.  1.
         -5    1    4    4    0  501 -0.81340374038E+02 -0.18841167435E+02  0.25288626722E+03  0.26634598286E+03  0.41800000000E+01 0.  1.
</event>
<event>
11    1  0.7577197E-009  0.1874626E+03  0.7561462E-02  0.1063761E+00
         22   -1    0    0    0    0  0.00000000000E+00  0.00000000000E+00  0.19881221328E+03  0.19881221328E+03  0.00000000000E+00 0.  1.
         22   -1    0    0    0    0 -0.00000000000E+00 -0.00000000000E+00 -0.16368971483E+04  0.16368971483E+04  0.00000000000E+00 0.  1.
         24    2    1    2    0    0 -0.45679373030E+02 -0.84053844224E+02 -0.97254281367E+03  0.98014875817E+03  0.75501058835E+02 0.  0.
         25    2    1    2    0    0 -0.24141503956E+02  0.20142724409E+03 -0.59760930938E+03  0.64338170566E+03  0.12508951051E+03 0.  0.
        -24    2    1    2    0    0  0.69820876986E+02 -0.11737339987E+03  0.13206718805E+03  0.21217889772E+03  0.94481070145E+02 0.  0.
        -11    1    3    3    0    0 -0.48051011214E+02 -0.62352861397E+02 -0.42866855507E+03  0.43583656238E+03  0.00000000000E+00 0.  1.
         12    1    3    3    0    0  0.23716381838E+01 -0.21700982827E+02 -0.54387425860E+03  0.54431219579E+03  0.00000000000E+00 0. -1.
         11    1    5    5    0    0  0.28160186830E+02  0.14790260212E+01 -0.19558233714E+01  0.28266745220E+02  0.00000000000E+00 0. -1.
        -12    1    5    5    0    0  0.41660690156E+02 -0.11885242589E+03  0.13402301142E+03  0.18391215250E+03  0.00000000000E+00 0.  1.
          5    1    4    4  501    0 -0.32331122918E+02  0.97629903028E+02 -0.13828983931E+03  0.17239040441E+03  0.41800000000E+01 0. -1.
         -5    1    4    4    0  501  0.81896189625E+01  0.10379734107E+03 -0.45931947007E+03  0.47099130125E+03  0.41800000000E+01 0. -1.
</event>
<event>
11    1  0.7577197E-009  0.1370640E+03  0.7561462E-02  0.1110882E+00
         22   -1    0    0    0    0  0.00000000000E+00  0.00000000000E+00  0.28531284787E+03  0.28531284787E+03  0.00000000000E+00 0. -1.
         22   -1    0    0    0    0 -0.00000000000E+00 -0.00000000000E+00 -0.40827514770E+03  0.40827514770E+03  0.00000000000E+00 0. -1.
        -24    2    1    2    0    0 -0.44010874701E+02 -0.31512575764E+02 -0.24257311849E+03  0.26137024592E+03  0.80886884696E+02 0.  0.
         25    2    1    2    0    0  0.71493830828E+02  0.37046251789E+01 -0.11288283420E+03  0.18307150587E+03  0.12509016712E+03 0.  0.
         24    2    1    2    0    0 -0.27482956128E+02  0.27807950585E+02  0.23249365286E+03  0.24914624378E+03  0.80572682584E+02 0.  0.
        -11    1    5    5    0    0 -0.47096630759E+02 -0.17554537521E+01  0.82489347750E+02  0.95003509087E+02  0.00000000000E+00 0.  1.
         12    1    5    5    0    0  0.19613674631E+02  0.29563404337E+02  0.15000430511E+03  0.15414273469E+03  0.00000000000E+00 0. -1.
         13    1    3    3    0    0 -0.33375061856E+02 -0.39435800727E+02 -0.63748774025E+02  0.82054758074E+02  0.00000000000E+00 0. -1.
        -14    1    3    3    0    0 -0.10635812845E+02  0.79232249633E+01 -0.17882434446E+03  0.17931548785E+03  0.00000000000E+00 0.  1.
          5    1    4    4  501    0  0.26740093826E+02 -0.47524687400E+02 -0.99612529234E+02  0.11363871220E+03  0.41800000000E+01 0. -1.
         -5    1    4    4    0  501  0.44753737002E+02  0.51229312578E+02 -0.13270304962E+02  0.69432793669E+02  0.41800000000E+01 0. -1.
</event>
<event>
11    1  0.7577197E-009  0.2542015E+03  0.7561462E-02  0.1021685E+00
         22   -1    0    0    0    0  0.00000000000E+00  0.00000000000E+00  0.75249405840E+03  0.75249405840E+03  0.00000000000E+00 0. -1.
         22   -1    0    0    0    0 -0.00000000000E+00 -0.00000000000E+00 -0.68906193393E+03  0.68906193393E+03  0.00000000000E+00 0. -1.
         24    2    1    2    0    0  0.71293189472E+02  0.55218739150E+02 -0.53750638942E+03  0.55092276459E+03  0.80442189548E+02 0.  0.
         25    2    1    2    0    0 -0.26910058545E+03  0.25816855561E+02  0.60451157536E+02  0.30394429148E+03  0.12508459041E+03 0.  0.
        -24    2    1    2    0    0  0.19780739597E+03 -0.81035594711E+02  0.54048735636E+03  0.58668893626E+03  0.79892377882E+02 0.  0.
        -11    1    3    3    0    0  0.57746339485E+02  0.52872273467E+02 -0.22720481045E+03  0.24031675538E+03  0.00000000000E+00 0.  1.
         12    1    3    3    0    0  0.13546849987E+02  0.23464656828E+01 -0.31030157897E+03  0.31060600921E+03  0.00000000000E+00 0. -1.
         11    1    5    5    0    0  0.20545081996E+03 -0.79655925968E+02  0.52481413987E+03  0.56919679143E+03  0.00000000000E+00 0. -1.
        -12    1    5    5    0    0 -0.76434239840E+01 -0.13796687435E+01  0.15673216480E+02  0.17492144833E+02  0.00000000000E+00 0.  1.
          5    1    4    4  501    0 -0.11360554438E+03  0.17765451360E+02  0.89156774486E+02  0.14556178692E+03  0.41800000000E+01 0.  1.
         -5    1    4    4    0  501 -0.15549504107E+03  0.80514042014E+01 -0.28705616950E+02  0.15838250456E+03  0.41800000000E+01 0.  1.
</event>
<event>
11    1  0.7577197E-009  0.1468713E+03  0.7561462E-02  0.1100119E+00
         22   -1    0    0    0    0  0.00000000000E+00  0.00000000000E+00  0.17104589380E+04  0.17104589380E+04  0.00000000000E+00 0.  1.
         22   -1    0    0    0    0 -0.00000000000E+00 -0.00000000000E+00 -0.48355316445E+02  0.48355316445E+02  0.00000000000E+00 0. -1.
         24    2    1    2    0    0 -0.71814268571E+02  0.56357032058E+02  0.10981977285E+03  0.16396947772E+03  0.80574207308E+02 0.  0.
         25    2    1    2    0    0  0.56545315252E+02 -0.88481811792E+01  0.22085652512E+03  0.26019445159E+03  0.12509150635E+03 0.  0.
        -24    2    1    2    0    0  0.15268953319E+02 -0.47508850879E+02  0.13314273235E+04  0.13346503251E+04  0.78118759210E+02 0.  0.
        -11    1    3    3    0    0 -0.54548462791E+02  0.23783592502E+02  0.11222338455E+03  0.12702473029E+03  0.00000000000E+00 0.  1.
         12    1    3    3    0    0 -0.17265805780E+02  0.32573439556E+02 -0.24036117009E+01  0.36944747434E+02  0.00000000000E+00 0. -1.
         13    1    5    5    0    0 -0.21731241248E+02  0.39220887025E+01  0.16073059412E+03  0.16224041886E+03  0.00000000000E+00 0. -1.
        -14    1    5    5    0    0  0.37000194567E+02 -0.51430939582E+02  0.11706967294E+04  0.11724099062E+04  0.00000000000E+00 0.  1.
          5    1    4    4  501    0  0.76282164767E+02 -0.34811273206E+02  0.20901766172E+03  0.22524797161E+03  0.41800000000E+01 0. -1.
         -5    1    4    4    0  501 -0.19736849515E+02  0.25963092026E+02  0.11838863403E+02  0.34946479981E+02  0.41800000000E+01 0. -1.
</event>
<event>
11    1  0.7577197E-009  0.1389346E+03  0.7561462E-02  0.1108754E+00
         22   -1    0    0    0    0  0.00000000000E+00  0.00000000000E+00  0.13486685704E+03  0.13486685704E+03  0.00000000000E+00 0. -1.
         22   -1    0    0    0    0 -0.00000000000E+00 -0.00000000000E+00 -0.15666378836E+04  0.15666378836E+04  0.00000000000E+00 0.  1.
        -24    2    1    2    0    0 -0.30867730114E+02  0.10333753171E+02 -0.93537559453E+03  0.93943343033E+03  0.80920108413E+02 0.  0.
         25    2    1    2    0    0  0.66988001776E+02  0.37732489082E+02 -0.60024923149E+03  0.61794611648E+03  0.12508848810E+03 0.  0.
         24    2    1    2    0    0 -0.36120271662E+02 -0.48066242253E+02  0.10385379951E+03  0.14412519379E+03  0.79821188565E+02 0.  0.
        -11    1    5    5    0    0 -0.66600549646E+01  0.22191794566E+02  0.17977904846E+02  0.29326389837E+02  0.00000000000E+00 0.  1.
         12    1    5    5    0    0 -0.29460216697E+02 -0.70258036819E+02  0.85875894664E+02  0.11479880396E+03  0.00000000000E+00 0. -1.
         13    1    3    3    0    0 -0.20289220121E+02  0.29165040740E+02 -0.16621550110E+03  0.16997012932E+03  0.00000000000E+00 0. -1.
        -14    1    3    3    0    0 -0.10578509992E+02 -0.18831287569E+02 -0.76916009343E+03  0.76946330100E+03  0.00000000000E+00 0.  1.
          5    1    4    4  501    0 -0.28260999231E+01  0.53688922928E+02 -0.11033673023E+03  0.12280942034E+03  0.41800000000E+01 0.  1.
         -5    1    4    4    0  501  0.69814101699E+02 -0.15956433846E+02 -0.48991250126E+03  0.49513669614E+03  0.41800000000E+01 0.  1.
</event>
<event>
11    1  0.7577197E-009  0.1322276E+03  0.7561462E-02  0.1116562E+00
         22   -1    0    0    0    0  0.00000000000E+00  0.00000000000E+00  0.26734440329E+03  0.26734440329E+03  0.00000000000E+00 0. -1.
         22   -1    0    0    0    0 -0.00000000000E+00 -0.00000000000E+00 -0.14958589023E+04  0.14958589023E+04  0.00000000000E+00 0. -1.
         24    2    1    2    0    0  0.21777591707E+02  0.84923610783E+01 -0.12423135113E+04  0.12451892130E+04  0.81283037149E+02 0.  0.
         25    2    1    2    0    0  0.21571847428E+02 -0.12631541127E+02 -0.22712922132E+03  0.26049882082E+03  0.12508817705E+03 0.  0.
        -24    2    1    2    0    0 -0.43349439135E+02  0.41391800486E+01  0.24092823362E+03  0.25751527175E+03  0.79821016935E+02 0.  0.
        -11    1    3    3    0    0 -0.13095400941E+02  0.73400193698E+00 -0.35474531372E+02  0.37821563436E+02  0.00000000000E+00 0.  1.
         12    1    3    3    0    0  0.34872992649E+02  0.77583591413E+01 -0.12068389800E+04  0.12073676496E+04  0.00000000000E+00 0. -1.
         11    1    5    5    0    0  0.46751709708E+01  0.19352000020E+02  0.16622688980E+03  0.16741486201E+03  0.00000000000E+00 0. -1.
        -12    1    5    5    0    0 -0.48024610106E+02 -0.15212819972E+02  0.74701343822E+02  0.90100409745E+02  0.00000000000E+00 0.  1.
          5    1    4    4  501    0  0.27555183693E+02 -0.62900341749E+02 -0.17344746139E+03  0.18659377107E+03  0.41800000000E+01 0.  1.
         -5    1    4    4    0  501 -0.59833362654E+01  0.50268800622E+02 -0.53681759930E+02  0.73905049746E+02  0.41800000000E+01 0.  1.
</event>
<event>
11    1  0.7577197E-009  0.1734535E+03  0.7561462E-02  0.1075065E+00
         22   -1    0    0    0    0  0.00000000000E+00  0.00000000000E+00  0.56621159796E+03  0.56621159796E+03  0.00000000000E+00 0.  1.
         22   -1    0    0    0    0 -0.00000000000E+00 -0.00000000000E+00 -0.33303843099E+03  0.33303843099E+03  0.00000000000E+00 0. -1.
        -24    2    1    2    0    0 -0.11541967479E+03 -0.34350133267E+02 -0.24963974260E+03  0.28726307040E+03  0.75487996016E+02 0.  0.
         25    2    1    2    0    0  0.10482683797E+03  0.61300818790E+02  0.65513531619E+02  0.18624176418E+03  0.12509002981E+03 0.  0.
         24    2    1    2    0    0  0.10592836819E+02 -0.26950685523E+02  0.41729937795E+03  0.42574519438E+03  0.79256873852E+02 0.  0.
        -13    1    5    5    0    0 -0.23422897277E+02 -0.20197102601E+02  0.33517221618E+03  0.33659615204E+03  0.00000000000E+00 0.  1.
         14    1    5    5    0    0  0.34015734096E+02 -0.67535829222E+01  0.82127161778E+02  0.89149042340E+02  0.00000000000E+00 0. -1.
         13    1    3    3    0    0 -0.98439536962E+02 -0.50104614120E+02 -0.23552040630E+03  0.26013588099E+03  0.00000000000E+00 0. -1.
        -14    1    3    3    0    0 -0.16980137827E+02  0.15754480853E+02 -0.14119336304E+02  0.27127189409E+02  0.00000000000E+00 0.  1.
          5    1    4    4  501    0  0.42863447468E+02  0.75610644885E+02  0.82897381330E+02  0.12018191619E+03  0.41800000000E+01 0. -1.
         -5    1    4    4    0  501  0.61963390502E+02 -0.14309826095E+02 -0.17383849711E+02  0.66059847988E+02  0.41800000000E+01 0. -1.
</event>
<event>
11    1  0.7577197E-009  0.1643921E+03  0.7561462E-02  0.1083018E+00
         22   -1    0    0    0    0  0.00000000000E+00  0.00000000000E+00  0.32247486589E+04  0.32247486589E+04  0.00000000000E+00 0.  1.
         22   -1    0    0    0    0 -0.00000000000E+00 -0.00000000000E+00 -0.82009497344E+02  0.82009497344E+02  0.00000000000E+00 0. -1.
        -24    2    1    2    0    0 -0.81302242406E+02 -0.67119200041E+02  0.17383425965E+02  0.13341927987E+03  0.79896677700E+02 0.  0.
         25    2    1    2    0    0  0.83141860002E+02  0.74495389414E+02  0.27638494943E+03  0.32326319218E+03  0.12509324210E+03 0.  0.
         24    2    1    2    0    0 -0.18396175960E+01 -0.73761893729E+01  0.28489707862E+04  0.28500756842E+04  0.78987802141E+02 0.  0.
        -11    1    5    5    0    0 -0.49173531860E+01 -0.31730537977E+01  0.28371716256E+04  0.28371776613E+04  0.00000000000E+00 0.  1.
         12    1    5    5    0    0  0.30777355899E+01 -0.42031355752E+01  0.11799160634E+02  0.12898022976E+02  0.00000000000E+00 0. -1.
         11    1    3    3    0    0 -0.82844224393E+02 -0.24751505873E+02  0.25729552268E+02  0.90209824399E+02  0.00000000000E+00 0. -1.
        -12    1    3    3    0    0  0.15419819869E+01 -0.42367694168E+02 -0.83461263022E+01  0.43209455467E+02  0.00000000000E+00 0.  1.
          5    1    4    4  501    0  0.13280977256E+02 -0.20563975139E+02  0.14302242296E+03  0.14516248585E+03  0.41800000000E+01 0.  1.
         -5    1    4    4    0  501  0.69860882745E+02  0.95059364553E+02  0.13336252647E+03  0.17810070633E+03  0.41800000000E+01 0.  1.
</event>
<event>
11    1  0.9140275E-009  0.1681524E+03  0.7561462E-02  0.1079651E+00
         22   -1    0    0    0    0  0.00000000000E+00  0.00000000000E+00  0.43845453402E+03  0.43845453402E+03  0.00000000000E+00 0.  1.
         22   -1    0    0    0    0 -0.00000000000E+00 -0.00000000000E+00 -0.15202241510E+04  0.15202241510E+04  0.00000000000E+00 0. -1.
        -24    2    1    2    0    0  0.63266892685E+02 -0.71044112390E+02 -0.12852766342E+04  0.12913036346E+04  0.80492761916E+02 0.  0.
         25    2    1    2    0    0 -0.96204339225E+02 -0.38992808058E+02 -0.18997790863E+03  0.25003088727E+03  0.12509246523E+03 0.  0.
         24    2    1    2    0    0  0.32937446540E+02  0.11003692045E+03  0.39348492587E+03  0.41734416311E+03  0.78439558582E+02 0.  0.
        -13    1    5    5    0    0 -0.12269285475E+02  0.81821737076E+02  0.28004445393E+03  0.29201066453E+03  0.00000000000E+00 0.  1.
         14    1    5    5    0    0  0.45206732014E+02  0.28215183372E+02  0.11344047195E+03  0.12533349859E+03  0.00000000000E+00 0. -1.
         11    1    3    3    0    0  0.73416544768E+02 -0.80831698451E+02 -0.11884138623E+04  0.11934199851E+04  0.00000000000E+00 0. -1.
        -12    1    3    3    0    0 -0.10149652082E+02  0.97875860610E+01 -0.96862771831E+02  0.97883649529E+02  0.00000000000E+00 0.  1.
          5    1    4    4  501    0 -0.71367717990E+02  0.37204742939E+02 -0.77097852543E+02  0.11153069235E+03  0.41800000000E+01 0. -1.
         -5    1    4    4    0  501 -0.24836621235E+02 -0.76197550997E+02 -0.11288005609E+03  0.13850019493E+03  0.41800000000E+01 0. -1.
</event>
<event>
11    1  0.7577197E-009  0.1361697E+03  0.7561462E-02  0.1111913E+00
         22   -1    0    0    0    0  0.00000000000E+00  0.00000000000E+00  0.96287743332E+02  0.96287743332E+02  0.00000000000E+00 0. -1.
         22   -1    0    0    0    0 -0.00000000000E+00 -0.00000000000E+00 -0.57909219690E+03  0.57909219690E+03  0.00000000000E+00 0.  1.
        -24    2    1    2    0    0 -0.39125633737E+00 -0.88945850712E+01 -0.41027172143E+03  0.41820213215E+03  0.80565943182E+02 0.  0.
         25    2    1    2    0    0 -0.40170119100E+02 -0.29161574144E+02 -0.78413187860E+02  0.15575644812E+03  0.12508959680E+03 0.  0.
         24    2    1    2    0    0  0.40561375437E+02  0.38056159215E+02  0.58804557259E+01  0.10142135996E+03  0.84606241286E+02 0.  0.
        -13    1    5    5    0    0  0.31326713833E+02 -0.12872068005E+02 -0.24136197245E+02  0.41588569965E+02  0.00000000000E+00 0.  1.
         14    1    5    5    0    0  0.92346616040E+01  0.50928227220E+02  0.30016652971E+02  0.59832789993E+02  0.00000000000E+00 0. -1.
         13    1    3    3    0    0  0.99446507344E+01  0.34148857635E+02 -0.14748869468E+03  0.15171669524E+03  0.00000000000E+00 0. -1.
        -14    1    3    3    0    0 -0.10335907072E+02 -0.43043442706E+02 -0.26278302676E+03  0.26648543691E+03  0.00000000000E+00 0.  1.
          5    1    4    4  501    0 -0.12178225627E+02  0.48335881313E+02 -0.16735606925E+02  0.52746749102E+02  0.41800000000E+01 0.  1.
         -5    1    4    4    0  501 -0.27991893473E+02 -0.77497455457E+02 -0.61677580935E+02  0.10300969902E+03  0.41800000000E+01 0.  1.
</event>
<event>
11    1  0.7577197E-009  0.1418121E+03  0.7561462E-02  0.1105552E+00
         22   -1    0    0    0    0  0.00000000000E+00  0.00000000000E+00  0.89964855720E+02  0.89964855720E+02  0.00000000000E+00 0. -1.
         22   -1    0    0    0    0 -0.00000000000E+00 -0.00000000000E+00 -0.21631249224E+04  0.21631249224E+04  0.00000000000E+00 0. -1.
         24    2    1    2    0    0 -0.62275327218E+01  0.63181162462E+02 -0.17755414948E+04  0.17785231057E+04  0.81032070187E+02 0.  0.
         25    2    1    2    0    0 -0.20302849191E+02  0.47460037439E+01 -0.33570424519E+03  0.35885944512E+03  0.12509208958E+03 0.  0.
        -24    2    1    2    0    0  0.26530381913E+02 -0.67927166205E+02  0.38085673307E+02  0.11570722727E+03  0.81361433488E+02 0.  0.
        -13    1    3    3    0    0 -0.20652779262E+02 -0.37670925433E+01 -0.14167773406E+03  0.14322467876E+03  0.00000000000E+00 0.  1.
         14    1    3    3    0    0  0.14425246540E+02  0.66948255005E+02 -0.16338637607E+04  0.16352984270E+04  0.00000000000E+00 0. -1.
         11    1    5    5    0    0  0.18417953597E+02 -0.17733471980E+02  0.56191402192E+02  0.61734680071E+02  0.00000000000E+00 0. -1.
        -12    1    5    5    0    0  0.81124283155E+01 -0.50193694226E+02 -0.18105728885E+02  0.53972547204E+02  0.00000000000E+00 0.  1.
          5    1    4    4  501    0 -0.47480422886E+01  0.96008003940E+00 -0.34132515087E+03  0.34138511490E+03  0.41800000000E+01 0. -1.
         -5    1    4    4    0  501 -0.15554806902E+02  0.37859237045E+01  0.56209056778E+01  0.17474330222E+02  0.41800000000E+01 0. -1.
</event>
<event>
11    1  0.7577197E-009  0.3333018E+03  0.7561462E-02  0.9870056E-01
         22   -1    0    0    0    0  0.00000000000E+00  0.00000000000E+00  0.24709248563E+04  0.24709248563E+04  0.00000000000E+00 0. -1.
         22   -1    0    0    0    0 -0.00000000000E+00 -0.00000000000E+00 -0.10460071356E+03  0.10460071356E+03  0.00000000000E+00 0. -1.
         24    2    1    2    0    0  0.29781930670E+03  0.51228006516E+02  0.22996445285E+03  0.38836947598E+03  0.81403637553E+02 0.  0.
         25    2    1    2    0    0 -0.34481388523E+03 -0.49245718327E+02  0.17787011980E+04  0.18167949383E+04  0.12507653474E+03 0.  0.
        -24    2    1    2    0    0  0.46994578529E+02 -0.19822881890E+01  0.35765849186E+03  0.37036115563E+03  0.83877106098E+02 0.  0.
        -13    1    3    3    0    0  0.11061294674E+03  0.49801297366E+02  0.59228027813E+02  0.13499389796E+03  0.00000000000E+00 0.  1.
         14    1    3    3    0    0  0.18720635996E+03  0.14267091503E+01  0.17073642503E+03  0.25337557803E+03  0.00000000000E+00 0. -1.
         11    1    5    5    0    0  0.16723642952E+02  0.25130986372E+02  0.28903822115E+03  0.29061028887E+03  0.00000000000E+00 0. -1.
        -12    1    5    5    0    0  0.30270935576E+02 -0.27113274561E+02  0.68620270702E+02  0.79750866762E+02  0.00000000000E+00 0.  1.
          5    1    4    4  501    0 -0.28180143266E+02  0.52491896039E+01  0.44638954521E+02  0.53214501094E+02  0.41800000000E+01 0.  1.
         -5    1    4    4    0  501 -0.31663374196E+03 -0.54494907931E+02  0.17340622435E+04  0.17635804372E+04  0.41800000000E+01 0.  1.
</event>
<event>
11    1  0.7577197E-009  0.1611916E+03  0.7561462E-02  0.1085962E+00
         22   -1    0    0    0    0  0.00000000000E+00  0.00000000000E+00  0.10424805340E+04  0.10424805340E+04  0.00000000000E+00 0.  1.
         22   -1    0    0    0    0 -0.00000000000E+00 -0.00000000000E+00 -0.25236779276E+03  0.25236779276E+03  0.00000000000E+00 0.  1.
         24    2    1    2    0    0 -0.72758832791E+02  0.77680212505E+02 -0.19217797290E+03  0.23788294592E+03  0.91257106740E+02 0.  0.
         25    2    1    2    0    0  0.35636919738E+02 -0.62499936814E+02  0.11625980393E+03  0.18531249154E+03  0.12509254718E+03 0.  0.
        -24    2    1    2    0    0  0.37121913052E+02 -0.15180275691E+02  0.86603091024E+03  0.87165288934E+03  0.90336840762E+02 0.  0.
        -11    1    3    3    0    0 -0.48982181390E+02  0.64220369639E+02 -0.54300596830E+02  0.97324533322E+02  0.00000000000E+00 0.  1.
         12    1    3    3    0    0 -0.23776651401E+02  0.13459842866E+02 -0.13787737607E+03  0.14055841260E+03  0.00000000000E+00 0. -1.
         13    1    5    5    0    0 -0.10456182883E+01 -0.38345835048E+02  0.17376888812E+03  0.17795258599E+03  0.00000000000E+00 0. -1.
        -14    1    5    5    0    0  0.38167531341E+02  0.23165559357E+02  0.69226202212E+03  0.69370030335E+03  0.00000000000E+00 0.  1.
          5    1    4    4  501    0  0.81290687053E+01 -0.48349798396E+02  0.13850233067E+03  0.14698351188E+03  0.41800000000E+01 0. -1.
         -5    1    4    4    0  501  0.27507851033E+02 -0.14150138418E+02 -0.22242526741E+02  0.38328979657E+02  0.41800000000E+01 0. -1.
</event>
<event>
11    1  0.7577197E-009  0.1297062E+03  0.7561462E-02  0.1119631E+00
         22   -1    0    0    0    0  0.00000000000E+00  0.00000000000E+00  0.16611373499E+03  0.16611373499E+03  0.00000000000E+00 0. -1.
         22   -1    0    0    0    0 -0.00000000000E+00 -0.00000000000E+00 -0.26304259694E+03  0.26304259694E+03  0.00000000000E+00 0. -1.
        -24    2    1    2    0    0 -0.17543287649E+02 -0.33372772203E+02 -0.14239606634E+03  0.16578202634E+03  0.76062682571E+02 0.  0.
         25    2    1    2    0    0  0.48777523561E+02  0.24985757563E+02 -0.38972659234E+02  0.14201598424E+03  0.12508451833E+03 0.  0.
         24    2    1    2    0    0 -0.31234235911E+02  0.83870146400E+01  0.84439863623E+02  0.12135832135E+03  0.80943388154E+02 0.  0.
        -11    1    5    5    0    0  0.10077179755E+02  0.32292110227E+02  0.14780676760E+02  0.36916098659E+02  0.00000000000E+00 0.  1.
         12    1    5    5    0    0 -0.41311415667E+02 -0.23905095587E+02  0.69659186864E+02  0.84442222696E+02  0.00000000000E+00 0. -1.
         11    1    3    3    0    0  0.91992000862E+01 -0.18124356306E+02 -0.13159869853E+03  0.13315905913E+03  0.00000000000E+00 0. -1.
        -12    1    3    3    0    0 -0.26742487735E+02 -0.15248415897E+02 -0.10797367815E+02  0.32622967207E+02  0.00000000000E+00 0.  1.
          5    1    4    4  501    0  0.33141661893E+02 -0.43967954772E+02 -0.44578649094E+02  0.70966746825E+02  0.41800000000E+01 0.  1.
         -5    1    4    4    0  501  0.15635861668E+02  0.68953712335E+02  0.56059898592E+01  0.71049237415E+02  0.41800000000E+01 0.  1.
</event>
<event>
11    1  0.7577197E-009  0.1349600E+03  0.7561462E-02  0.1113321E+00
         22   -1    0    0    0    0  0.00000000000E+00  0.00000000000E+00  0.13478466398E+03  0.13478466398E+03  0.00000000000E+00 0.  1.
         22   -1    0    0    0    0 -0.00000000000E+00 -0.00000000000E+00 -0.13069027140E+04  0.13069027140E+04  0.00000000000E+00 0.  1.
        -24    2    1    2    0    0 -0.20889813396E+02  0.49167270988E+02 -0.11537398603E+04  0.11577580633E+04  0.80213858220E+02 0.  0.
         25    2    1    2    0    0  0.16380992947E+02 -0.21775781388E+01 -0.99023733469E+02  0.16039414233E+03  0.12508997692E+03 0.  0.
         24    2    1    2    0    0  0.45088204497E+01 -0.46989692849E+02  0.80645543746E+02  0.12353517236E+03  0.80801450408E+02 0.  0.
        -13    1    5    5    0    0  0.36877191921E+02 -0.13793779796E+02  0.62246224587E+02  0.73653160966E+02  0.00000000000E+00 0.  1.
         14    1    5    5    0    0 -0.32368371471E+02 -0.33195913054E+02  0.18399319160E+02  0.49882011394E+02  0.00000000000E+00 0. -1.
         13    1    3    3    0    0 -0.43334361900E+02  0.13683857931E+02 -0.35224826335E+03  0.35516750122E+03  0.00000000000E+00 0. -1.
        -14    1    3    3    0    0  0.22444548503E+02  0.35483413057E+02 -0.80149159691E+03  0.80259056204E+03  0.00000000000E+00 0.  1.
          5    1    4    4  501    0 -0.38472413470E+02 -0.27153585183E+02 -0.86673729608E+02  0.98728170198E+02  0.41800000000E+01 0.  1.
         -5    1    4    4    0  501  0.54853406416E+02  0.24976007044E+02 -0.12350003861E+02  0.61665972130E+02  0.41800000000E+01 0.  1.
</event>
<event>
11    1  0.7577197E-009  0.1747007E+03  0.7561462E-02  0.1074012E+00
         22   -1    0    0    0    0  0.00000000000E+00  0.00000000000E+00  0.25587161482E+04  0.25587161482E+04  0.00000000000E+00 0.  1.
         22   -1    0    0    0    0 -0.00000000000E+00 -0.00000000000E+00 -0.24987941905E+02  0.24987941905E+02  0.00000000000E+00 0.  1.
        -24    2    1    2    0    0 -0.34538922111E+00  0.87700716674E+01  0.26434635909E+03  0.27657658012E+03  0.80861447274E+02 0.  0.
         25    2    1    2    0    0 -0.57659101986E+02  0.99912117686E+02  0.43914291090E+03  0.47095796805E+03  0.12509159915E+03 0.  0.
         24    2    1    2    0    0  0.58004491207E+02 -0.10868218935E+03  0.18302389363E+04  0.18361695419E+04  0.81041245511E+02 0.  0.
        -11    1    5    5    0    0  0.46691088700E+02 -0.10439000588E+03  0.17995709765E+04  0.18032007737E+04  0.00000000000E+00 0.  1.
         12    1    5    5    0    0  0.11313402507E+02 -0.42921834714E+01  0.30667959839E+02  0.32968768189E+02  0.00000000000E+00 0. -1.
         11    1    3    3    0    0 -0.55426302387E+01  0.41947316089E+02  0.19485925166E+03  0.19940016558E+03  0.00000000000E+00 0. -1.
        -12    1    3    3    0    0  0.51972410176E+01 -0.33177244422E+02  0.69487107431E+02  0.77176414537E+02  0.00000000000E+00 0.  1.
          5    1    4    4  501    0 -0.70633099402E+02  0.47625370398E+02  0.11970885810E+03  0.14698603248E+03  0.41800000000E+01 0. -1.
         -5    1    4    4    0  501  0.12973997416E+02  0.52286747288E+02  0.31943405280E+03  0.32397193557E+03  0.41800000000E+01 0. -1.
</event>
<event>
11    1  0.7577197E-009  0.1493612E+03  0.7561462E-02  0.1097533E+00
         22   -1    0    0    0    0  0.00000000000E+00  0.00000000000E+00  0.18306502229E+04  0.18306502229E+04  0.00000000000E+00 0. -1.
         22   -1    0    0    0    0 -0.00000000000E+00 -0.00000000000E+00 -0.55506448645E+03  0.55506448645E+03  0.00000000000E+00 0.  1.
        -24    2    1    2    0    0 -0.78431951448E+02  0.86521423903E+01 -0.48877496983E+03  0.50152972052E+03  0.80029112545E+02 0.  0.
         25    2    1    2    0    0  0.15130073287E+03 -0.29804720756E+02  0.11161058191E+03  0.22778204007E+03  0.12508997817E+03 0.  0.
         24    2    1    2    0    0 -0.72868781417E+02  0.21152578366E+02  0.16527501244E+04  0.16564029488E+04  0.79564214394E+02 0.  0.
        -11    1    5    5    0    0  0.74530491147E+01  0.25757402796E+02  0.27446822368E+03  0.27577490377E+03  0.00000000000E+00 0.  1.
         12    1    5    5    0    0 -0.80321830531E+02 -0.46048244299E+01  0.13782819007E+04  0.13806280450E+04  0.00000000000E+00 0. -1.
         13    1    3    3    0    0  0.81159006459E+01 -0.19643668244E+02 -0.85389616264E+02  0.87995045946E+02  0.00000000000E+00 0. -1.
        -14    1    3    3    0    0 -0.86547852094E+02  0.28295810635E+02 -0.40338535357E+03  0.41353467457E+03  0.00000000000E+00 0.  1.
          5    1    4    4  501    0  0.15031735766E+03 -0.28946964476E+02  0.43037051472E+02  0.15906883719E+03  0.41800000000E+01 0. -1.
         -5    1    4    4    0  501  0.98337520688E+00 -0.85775628022E+00  0.68573530440E+02  0.68713202877E+02  0.41800000000E+01 0. -1.
</event>
<event>
11    1  0.7577197E-009  0.1302071E+03  0.7561462E-02  0.1119015E+00
         22   -1    0    0    0    0  0.00000000000E+00  0.00000000000E+00  0.33359098273E+02  0.33359098273E+02  0.00000000000E+00 0.  1.
         22   -1    0    0    0    0 -0.00000000000E+00 -0.00000000000E+00 -0.22407419603E+04  0.22407419603E+04  0.00000000000E+00 0.  1.
         24    2    1    2    0    0  0.45005236252E+01 -0.41085730429E+02 -0.15503817782E+04  0.15530229115E+04  0.80549449124E+02 0.  0.
         25    2    1    2    0    0  0.30934485251E+02  0.26685981056E+02 -0.59905210662E+03  0.61333460563E+03  0.12508728173E+03 0.  0.
        -24    2    1    2    0    0 -0.35435008876E+02  0.14399749374E+02 -0.57948977192E+02  0.10774354135E+03  0.82386856413E+02 0.  0.
        -11    1    3    3    0    0 -0.30377958879E+02 -0.20668365711E+02 -0.11542851027E+04  0.11548697330E+04  0.00000000000E+00 0.  1.
         12    1    3    3    0    0  0.34878482504E+02 -0.20417364718E+02 -0.39609667543E+03  0.39815317857E+03  0.00000000000E+00 0. -1.
         11    1    5    5    0    0  0.15190101162E+02 -0.11698908360E+02 -0.45595654446E+02  0.49462787371E+02  0.00000000000E+00 0. -1.
        -12    1    5    5    0    0 -0.50625110038E+02  0.26098657734E+02 -0.12353322746E+02  0.58280753983E+02  0.00000000000E+00 0.  1.
          5    1    4    4  501    0  0.40279706280E+02 -0.39725350015E+02 -0.37990525774E+03  0.38411721574E+03  0.41800000000E+01 0.  1.
         -5    1    4    4    0  501 -0.93452210286E+01  0.66411331071E+02 -0.21914684888E+03  0.22921738988E+03  0.41800000000E+01 0.  1.
</event>
<event>
11    1  0.7937509E-009  0.7229908E+03  0.7561462E-02  0.8999094E-01
         22   -1    0    0    0    0  0.00000000000E+00  0.00000000000E+00  0.97484187371E+03  0.97484187371E+03  0.00000000000E+00 0.  1.
         22   -1    0    0    0    0 -0.00000000000E+00 -0.00000000000E+00 -0.15842228416E+04  0.15842228416E+04  0.00000000000E+00 0.  1.
         24    2    1    2    0    0  0.12217664675E+03 -0.25259782498E+03 -0.20448368322E+03  0.35629755230E+03  0.80009842335E+02 0.  0.
         25    2    1    2    0    0 -0.33400672647E+03  0.89501271201E+03 -0.93266908966E+03  0.13409430385E+04  0.12509337978E+03 0.  0.
        -24    2    1    2    0    0  0.21183007973E+03 -0.64241488702E+03  0.52777180499E+03  0.86182412454E+03  0.81417895809E+02 0.  0.
        -11    1    3    3    0    0  0.16384841362E+02 -0.11669846758E+03 -0.10223388326E+03  0.15600885311E+03  0.00000000000E+00 0.  1.
         12    1    3    3    0    0  0.10579180538E+03 -0.13589935740E+03 -0.10224979996E+03  0.20028869919E+03  0.00000000000E+00 0. -1.
         13    1    5    5    0    0  0.48446023273E+02 -0.27293038267E+03  0.20659584385E+03  0.34571643533E+03  0.00000000000E+00 0. -1.
        -14    1    5    5    0    0  0.16338405645E+03 -0.36948450435E+03  0.32117596113E+03  0.51610768922E+03  0.00000000000E+00 0.  1.
          5    1    4    4  501    0 -0.12625110999E+03  0.46392490654E+03 -0.40571802367E+03  0.62911862857E+03  0.41800000000E+01 0. -1.
         -5    1    4    4    0  501 -0.20775561648E+03  0.43108780547E+03 -0.52695106599E+03  0.71182440991E+03  0.41800000000E+01 0. -1.
</event>
<event>
11    1  0.7577197E-009  0.1301712E+03  0.7561462E-02  0.1119059E+00
         22   -1    0    0    0    0  0.00000000000E+00  0.00000000000E+00  0.65371043422E+03  0.65371043422E+03  0.00000000000E+00 0. -1.
         22   -1    0    0    0    0 -0.00000000000E+00 -0.00000000000E+00 -0.20742010564E+03  0.20742010564E+03  0.00000000000E+00 0.  1.
         24    2    1    2    0    0  0.31958806655E+02  0.15957040643E+02 -0.14610923908E+03  0.16979807877E+03  0.78787596366E+02 0.  0.
         25    2    1    2    0    0 -0.36474853350E+02 -0.50188777865E+02  0.60215042961E+02  0.15205916569E+03  0.12508721006E+03 0.  0.
        -24    2    1    2    0    0  0.45160466951E+01  0.34231737222E+02  0.53218452469E+03  0.53927329541E+03  0.80019449583E+02 0.  0.
        -11    1    3    3    0    0 -0.48936985179E+01  0.42807858684E+01 -0.12610210830E+03  0.12626961285E+03  0.00000000000E+00 0.  1.
         12    1    3    3    0    0  0.36852505173E+02  0.11676254774E+02 -0.20007130781E+02  0.43528465918E+02  0.00000000000E+00 0. -1.
         11    1    5    5    0    0  0.25875565127E+02  0.48771100451E+02  0.44281549801E+03  0.44624402561E+03  0.00000000000E+00 0. -1.
        -12    1    5    5    0    0 -0.21359518432E+02 -0.14539363229E+02  0.89369026677E+02  0.93029269802E+02  0.00000000000E+00 0.  1.
          5    1    4    4  501    0 -0.32951795157E+02  0.30054733634E+02  0.55734924918E+02  0.71504979362E+02  0.41800000000E+01 0. -1.
         -5    1    4    4    0  501 -0.35230581934E+01 -0.80243511498E+02  0.44801180429E+01  0.80554186324E+02  0.41800000000E+01 0. -1.
</event>
<event>
11    1  0.7577197E-009  0.1919487E+03  0.7561462E-02  0.1060368E+00
         22   -1    0    0    0    0  0.00000000000E+00  0.00000000000E+00  0.20837359870E+03  0.20837359870E+03  0.00000000000E+00 0.  1.
         22   -1    0    0    0    0 -0.00000000000E+00 -0.00000000000E+00 -0.43267972133E+03  0.43267972133E+03  0.00000000000E+00 0. -1.
         24    2    1    2    0    0  0.21399053825E+02  0.97188421820E+01 -0.23869406450E+03  0.25323771193E+03  0.81253350181E+02 0.  0.
         25    2    1    2    0    0 -0.13611374943E+03 -0.88276589505E+02 -0.55516235122E+02  0.21224941948E+03  0.12509218468E+03 0.  0.
        -24    2    1    2    0    0  0.11471469560E+03  0.78557747323E+02  0.69904176992E+02  0.17556618862E+03  0.81277989488E+02 0.  0.
        -11    1    3    3    0    0 -0.60186195815E+01 -0.32958733181E+02 -0.83808924405E+02  0.90257618429E+02  0.00000000000E+00 0.  1.
         12    1    3    3    0    0  0.27417673406E+02  0.42677575363E+02 -0.15488514010E+03  0.16298009350E+03  0.00000000000E+00 0. -1.
         13    1    5    5    0    0  0.95006302765E+02  0.73480569943E+02  0.20116642221E+02  0.12177960017E+03  0.00000000000E+00 0. -1.
        -14    1    5    5    0    0  0.19708392836E+02  0.50771773803E+01  0.49787534772E+02  0.53786588449E+02  0.00000000000E+00 0.  1.
          5    1    4    4  501    0 -0.15003905231E+03 -0.10462950140E+03 -0.50317754081E+02  0.18975879047E+03  0.41800000000E+01 0.  1.
         -5    1    4    4    0  501  0.13925302889E+02  0.16352911899E+02 -0.51984810411E+01  0.22490629010E+02  0.41800000000E+01 0.  1.
</event>
<event>
11    1  0.7577197E-009  0.1560010E+03  0.7561462E-02  0.1090900E+00
         22   -1    0    0    0    0  0.00000000000E+00  0.00000000000E+00  0.10610216246E+03  0.10610216246E+03  0.00000000000E+00 0.  1.
         22   -1    0    0    0    0 -0.00000000000E+00 -0.00000000000E+00 -0.22125391882E+04  0.22125391882E+04  0.00000000000E+00 0. -1.
        -24    2    1    2    0    0 -0.24427877224E+02 -0.87531251443E+02 -0.18100519445E+04  0.18140635872E+04  0.79247810780E+02 0.  0.
         25    2    1    2    0    0  0.33627065740E+02  0.11039062756E+03 -0.36171305437E+03  0.39975101366E+03  0.12509064320E+03 0.  0.
         24    2    1    2    0    0 -0.91991885154E+01 -0.22859376120E+02  0.65327973119E+02  0.10482674979E+03  0.78190327108E+02 0.  0.
        -11    1    5    5    0    0  0.34135422286E+02 -0.80338908540E+01  0.19914301295E+02  0.40328028132E+02  0.00000000000E+00 0.  1.
         12    1    5    5    0    0 -0.43334610802E+02 -0.14825485266E+02  0.45413671824E+02  0.64498721656E+02  0.00000000000E+00 0. -1.
         13    1    3    3    0    0 -0.48765802481E+02 -0.78890418093E+02 -0.12619696894E+04  0.12653731855E+04  0.00000000000E+00 0. -1.
        -14    1    3    3    0    0  0.24337925257E+02 -0.86408333500E+01 -0.54808225503E+03  0.54869040167E+03  0.00000000000E+00 0.  1.
          5    1    4    4  501    0 -0.32807246266E+02  0.92452526049E+02 -0.17421319058E+03  0.19997873175E+03  0.41800000000E+01 0. -1.
         -5    1    4    4    0  501  0.66434312006E+02  0.17938101514E+02 -0.18749986380E+03  0.19977228192E+03  0.41800000000E+01 0. -1.
</event>
<event>
11    1  0.7577197E-009  0.1371504E+03  0.7561462E-02  0.1110783E+00
         22   -1    0    0    0    0  0.00000000000E+00  0.00000000000E+00  0.22041611470E+03  0.22041611470E+03  0.00000000000E+00 0.  1.
         22   -1    0    0    0    0 -0.00000000000E+00 -0.00000000000E+00 -0.55271056768E+03  0.55271056768E+03  0.00000000000E+00 0. -1.
         24    2    1    2    0    0 -0.41208297619E+00 -0.67455200292E+01 -0.44354429390E+03  0.45094240870E+03  0.81066907315E+02 0.  0.
         25    2    1    2    0    0  0.10906539320E+02  0.61069307840E+02 -0.37418379981E+02  0.14455065982E+03  0.12508535140E+03 0.  0.
        -24    2    1    2    0    0 -0.10494456343E+02 -0.54323787811E+02  0.14866822089E+03  0.17763361385E+03  0.79939060113E+02 0.  0.
        -13    1    3    3    0    0 -0.12242009196E+01  0.21894371925E+02 -0.34391788994E+02  0.40787955821E+02  0.00000000000E+00 0.  1.
         14    1    3    3    0    0  0.81211794342E+00 -0.28639891954E+02 -0.40915250490E+03  0.41015445288E+03  0.00000000000E+00 0. -1.
         13    1    5    5    0    0  0.32000515767E+02 -0.26316745161E+02  0.39774674304E+02  0.57433690472E+02  0.00000000000E+00 0. -1.
        -14    1    5    5    0    0 -0.42494972110E+02 -0.28007042650E+02  0.10889354659E+03  0.12019992338E+03  0.00000000000E+00 0.  1.
          5    1    4    4  501    0  0.59714667676E+02  0.53247541959E+02 -0.48591944991E+02  0.93700543105E+02  0.41800000000E+01 0. -1.
         -5    1    4    4    0  501 -0.48808128356E+02  0.78217658817E+01  0.11173565010E+02  0.50850116717E+02  0.41800000000E+01 0. -1.
</event>
<event>
11    1  0.7577197E-009  0.1390305E+03  0.7561462E-02  0.1108646E+00
         22   -1    0    0    0    0  0.00000000000E+00  0.00000000000E+00  0.82532791575E+03  0.82532791575E+03  0.00000000000E+00 0.  1.
         22   -1    0    0    0    0 -0.00000000000E+00 -0.00000000000E+00 -0.83173990316E+02  0.83173990316E+02  0.00000000000E+00 0. -1.
        -24    2    1    2    0    0  0.53129409303E+02 -0.30740807208E+02 -0.27491780446E+02  0.10565324626E+03  0.81480544258E+02 0.  0.
         25    2    1    2    0    0 -0.40451530868E+02  0.36884755372E+02  0.38398276755E+03  0.40753752407E+03  0.12508899322E+03 0.  0.
         24    2    1    2    0    0 -0.12677878435E+02 -0.61439481635E+01  0.38566293833E+03  0.39531113573E+03  0.85653460702E+02 0.  0.
        -13    1    5    5    0    0 -0.31400073856E+02 -0.59806940540E+01  0.36858804477E+03  0.36997145847E+03  0.00000000000E+00 0.  1.
         14    1    5    5    0    0  0.18722195421E+02 -0.16325410942E+00  0.17074893561E+02  0.25339677255E+02  0.00000000000E+00 0. -1.
         11    1    3    3    0    0 -0.15172695080E+01 -0.41947315203E+02 -0.26921742683E+02  0.49866417443E+02  0.00000000000E+00 0. -1.
        -12    1    3    3    0    0  0.54646678811E+02  0.11206507995E+02 -0.57003776342E+00  0.55786828818E+02  0.00000000000E+00 0.  1.
          5    1    4    4  501    0 -0.76787865861E+02 -0.94839069951E+01  0.21870024860E+03  0.23202067143E+03  0.41800000000E+01 0.  1.
         -5    1    4    4    0  501  0.36336334994E+02  0.46368662367E+02  0.16528251895E+03  0.17551685264E+03  0.41800000000E+01 0.  1.
</event>
<event>
11    1  0.7577197E-009  0.2312710E+03  0.7561462E-02  0.1034378E+00
         22   -1    0    0    0    0  0.00000000000E+00  0.00000000000E+00  0.82526929763E+03  0.82526929763E+03  0.00000000000E+00 0.  1.
         22   -1    0    0    0    0 -0.00000000000E+00 -0.00000000000E+00 -0.11461348924E+04  0.11461348924E+04  0.00000000000E+00 0.  1.
         24    2    1    2    0    0 -0.11590039099E+03 -0.11584281727E+03 -0.78815761757E+03  0.80965031556E+03  0.86537531806E+02 0.  0.
         25    2    1    2    0    0  0.30553465389E+03  0.11063956112E+03 -0.24142947701E+03  0.42370441552E+03  0.12507878378E+03 0.  0.
        -24    2    1    2    0    0 -0.18963426290E+03  0.52032561539E+01  0.70872149980E+03  0.73804945895E+03  0.80265883453E+02 0.  0.
        -11    1    3    3    0    0 -0.11810046966E+03 -0.66813269702E+02 -0.60514886150E+03  0.62017487737E+03  0.00000000000E+00 0.  1.
         12    1    3    3    0    0  0.22000786666E+01 -0.49029547573E+02 -0.18300875607E+03  0.18947543820E+03  0.00000000000E+00 0. -1.
         11    1    5    5    0    0 -0.13997312074E+03 -0.15991872476E+02  0.38738126303E+03  0.41220438797E+03  0.00000000000E+00 0. -1.
        -12    1    5    5    0    0 -0.49661142156E+02  0.21195128630E+02  0.32134023676E+03  0.32584507098E+03  0.00000000000E+00 0.  1.
          5    1    4    4  501    0  0.17939298662E+03  0.18101605924E+01 -0.14827643684E+03  0.23278422294E+03  0.41800000000E+01 0.  1.
         -5    1    4    4    0  501  0.12614166728E+03  0.10882940053E+03 -0.93153040166E+02  0.19092019258E+03  0.41800000000E+01 0.  1.
</event>
<event>
11    1  0.7577197E-009  0.1444451E+03  0.7561462E-02  0.1102694E+00
         22   -1    0    0    0    0  0.00000000000E+00  0.00000000000E+00  0.22395013071E+03  0.22395013071E+03  0.00000000000E+00 0.  1.
         22   -1    0    0    0    0 -0.00000000000E+00 -0.00000000000E+00 -0.78843990521E+03  0.78843990521E+03  0.00000000000E+00 0.  1.
        -24    2    1    2    0    0 -0.68802907125E+02  0.23454702505E+02 -0.59924922421E+03  0.60889560130E+03  0.79813892731E+02 0.  0.
         25    2    1    2    0    0  0.82283968527E+02  0.38127302457E+02 -0.13505469594E+03  0.20521065964E+03  0.12508917324E+03 0.  0.
         24    2    1    2    0    0 -0.13481061402E+02 -0.61582004962E+02  0.16981414565E+03  0.19828377498E+03  0.80656859625E+02 0.  0.
        -11    1    5    5    0    0 -0.16812658961E+02 -0.62749509968E+02  0.17793817496E+03  0.18942587102E+03  0.00000000000E+00 0.  1.
         12    1    5    5    0    0  0.33315975587E+01  0.11675050060E+01 -0.81240293130E+01  0.88579039570E+01  0.00000000000E+00 0. -1.
         13    1    3    3    0    0 -0.75320025049E+02  0.16435994031E+02 -0.30843065792E+03  0.31791935899E+03  0.00000000000E+00 0. -1.
        -14    1    3    3    0    0  0.65171179235E+01  0.70187084743E+01 -0.29081856629E+03  0.29097624231E+03  0.00000000000E+00 0.  1.
          5    1    4    4  501    0  0.10581442393E+03  0.43047883984E+02 -0.13955763481E+03  0.18039849906E+03  0.41800000000E+01 0. -1.
         -5    1    4    4    0  501 -0.23530455406E+02 -0.49205815268E+01  0.45029388679E+01  0.24812160580E+02  0.41800000000E+01 0. -1.
</event>
<event>
11    1  0.7577197E-009  0.1586572E+03  0.7561462E-02  0.1088347E+00
         22   -1    0    0    0    0  0.00000000000E+00  0.00000000000E+00  0.23504952249E+04  0.23504952249E+04  0.00000000000E+00 0.  1.
         22   -1    0    0    0    0 -0.00000000000E+00 -0.00000000000E+00 -0.17153066926E+03  0.17153066926E+03  0.00000000000E+00 0. -1.
        -24    2    1    2    0    0  0.67945155266E+02 -0.65410961873E+02 -0.12170458641E+03  0.17354835274E+03  0.80074255084E+02 0.  0.
         25    2    1    2    0    0 -0.11790263133E+03  0.93978962470E+02  0.39242177464E+03  0.43860615848E+03  0.12508971653E+03 0.  0.
         24    2    1    2    0    0  0.49957476064E+02 -0.28568000597E+02  0.19082473674E+04  0.19098713829E+04  0.53747596373E+02 0.  0.
        -11    1    5    5    0    0  0.41280808802E+02 -0.43385075414E+02  0.12954163541E+04  0.12967998691E+04  0.00000000000E+00 0.  1.
         12    1    5    5    0    0  0.86766672618E+01  0.14817074817E+02  0.61283101327E+03  0.61307151385E+03  0.00000000000E+00 0. -1.
         13    1    3    3    0    0  0.70664782521E+02 -0.78108632361E+02 -0.12117091396E+03  0.16055173723E+03  0.00000000000E+00 0. -1.
        -14    1    3    3    0    0 -0.27196272555E+01  0.12697670489E+02 -0.53367244635E+00  0.12996615503E+02  0.00000000000E+00 0.  1.
          5    1    4    4  501    0 -0.10403207094E+03  0.11732306003E+03  0.26237132855E+03  0.30568539161E+03  0.41800000000E+01 0. -1.
         -5    1    4    4    0  501 -0.13870560390E+02 -0.23344097558E+02  0.13005044610E+03  0.13292076687E+03  0.41800000000E+01 0. -1.
</event>
<event>
11    1  0.7577197E-009  0.1336215E+03  0.7561462E-02  0.1114898E+00
         22   -1    0    0    0    0  0.00000000000E+00  0.00000000000E+00  0.29513309989E+04  0.29513309989E+04  0.00000000000E+00 0. -1.
         22   -1    0    0    0    0 -0.00000000000E+00 -0.00000000000E+00 -0.25929883356E+03  0.25929883356E+03  0.00000000000E+00 0.  1.
        -24    2    1    2    0    0  0.83351012693E+01  0.28459076582E+02 -0.20048054146E+03  0.22073093079E+03  0.87466012550E+02 0.  0.
         25    2    1    2    0    0  0.36762976825E+02 -0.14401059059E+02  0.41820963625E+02  0.13767818470E+03  0.12508949827E+03 0.  0.
         24    2    1    2    0    0 -0.45098078094E+02 -0.14058017523E+02  0.28506917432E+04  0.28522207170E+04  0.80548986261E+02 0.  0.
        -13    1    5    5    0    0 -0.18325776534E+02  0.86814148958E+01  0.15751448872E+03  0.15881440491E+03  0.00000000000E+00 0.  1.
         14    1    5    5    0    0 -0.26772301560E+02 -0.22739432419E+02  0.26931772545E+04  0.26934063121E+04  0.00000000000E+00 0. -1.
         13    1    3    3    0    0 -0.24639875206E+02  0.36631320316E+01 -0.11748786213E+02  0.27542257786E+02  0.00000000000E+00 0. -1.
        -14    1    3    3    0    0  0.32974976476E+02  0.24795944550E+02 -0.18873175524E+03  0.19318867300E+03  0.00000000000E+00 0.  1.
          5    1    4    4  501    0  0.16498285851E+02  0.17764029110E+02 -0.40227486519E+02  0.47153761651E+02  0.41800000000E+01 0. -1.
         -5    1    4    4    0  501  0.20264690974E+02 -0.32165088169E+02  0.82048450144E+02  0.90524423048E+02  0.41800000000E+01 0. -1.
</event>
<event>
11    1  0.7577197E-009  0.1488767E+03  0.7561462E-02  0.1098032E+00
         22   -1    0    0    0    0  0.00000000000E+00  0.00000000000E+00  0.93970356993E+03  0.93970356993E+03  0.00000000000E+00 0. -1.
         22   -1    0    0    0    0 -0.00000000000E+00 -0.00000000000E+00 -0.17948995901E+04  0.17948995901E+04  0.00000000000E+00 0.  1.
        -24    2    1    2    0    0  0.35074144080E+02  0.73044798175E+02 -0.17628761512E+04  0.17666207598E+04  0.81552720362E+02 0.  0.
         25    2    1    2    0    0  0.18014008838E+01 -0.59598784895E+02  0.14620041974E+03  0.20143654949E+03  0.12508741156E+03 0.  0.
         24    2    1    2    0    0 -0.36875544964E+02 -0.13446013280E+02  0.76147971126E+03  0.76654585082E+03  0.78743822975E+02 0.  0.
        -11    1    5    5    0    0  0.11188258504E+02 -0.19402696643E+02  0.72852631686E+02  0.76217765048E+02  0.00000000000E+00 0.  1.
         12    1    5    5    0    0 -0.48063803468E+02  0.59566833631E+01  0.68862707958E+03  0.69032808577E+03  0.00000000000E+00 0. -1.
         11    1    3    3    0    0 -0.72390155031E+01  0.39831772430E+02 -0.29565563852E+03  0.29841452718E+03  0.00000000000E+00 0. -1.
        -12    1    3    3    0    0  0.42313159583E+02  0.33213025745E+02 -0.14672205127E+04  0.14682062326E+04  0.00000000000E+00 0.  1.
          5    1    4    4  501    0 -0.38165914931E+02  0.21588060369E+02  0.71698203760E+02  0.84147407776E+02  0.41800000000E+01 0. -1.
         -5    1    4    4    0  501  0.39967315814E+02 -0.81186845264E+02  0.74502215983E+02  0.11728914171E+03  0.41800000000E+01 0. -1.
</event>
<event>
11    1  0.7577197E-009  0.1290635E+03  0.7561462E-02  0.1120425E+00
         22   -1    0    0    0    0  0.00000000000E+00  0.00000000000E+00  0.53643589320E+03  0.53643589320E+03  0.00000000000E+00 0. -1.
         22   -1    0    0    0    0 -0.00000000000E+00 -0.00000000000E+00 -0.35145221619E+03  0.35145221619E+03  0.00000000000E+00 0. -1.
        -24    2    1    2    0    0 -0.32574476103E+02 -0.85012151616E+00 -0.24230862945E+03  0.25723356188E+03  0.79961329743E+02 0.  0.
         25    2    1    2    0    0  0.27024790388E+02 -0.14703824095E+02 -0.55918380552E+02  0.14043171591E+03  0.12509060641E+03 0.  0.
         24    2    1    2    0    0  0.55496857148E+01  0.15553945612E+02  0.48321068701E+03  0.49022283160E+03  0.80951419627E+02 0.  0.
        -11    1    5    5    0    0 -0.43778162408E+01 -0.13710050462E+02  0.14277637046E+02  0.20272683057E+02  0.00000000000E+00 0.  1.
         12    1    5    5    0    0  0.99275019556E+01  0.29263996074E+02  0.46893304997E+03  0.46995014854E+03  0.00000000000E+00 0. -1.
         13    1    3    3    0    0 -0.34976605362E+02 -0.88573403217E+01 -0.24560963281E+03  0.24824565884E+03  0.00000000000E+00 0. -1.
        -14    1    3    3    0    0  0.24021292588E+01  0.80072188055E+01  0.33010033652E+01  0.89879030476E+01  0.00000000000E+00 0.  1.
          5    1    4    4  501    0 -0.22648783374E+02 -0.58242720098E+02 -0.27526193041E+02  0.68413050919E+02  0.41800000000E+01 0.  1.
         -5    1    4    4    0  501  0.49673573762E+02  0.43538896003E+02 -0.28392187511E+02  0.72018664991E+02  0.41800000000E+01 0.  1.
</event>
<event>
11    1  0.7577197E-009  0.3271368E+03  0.7561462E-02  0.9893183E-01
         22   -1    0    0    0    0  0.00000000000E+00  0.00000000000E+00  0.25476043076E+04  0.25476043076E+04  0.00000000000E+00 0. -1.
         22   -1    0    0    0    0 -0.00000000000E+00 -0.00000000000E+00 -0.22782301996E+03  0.22782301996E+03  0.00000000000E+00 0.  1.
        -24    2    1    2    0    0 -0.20975536324E+03  0.17565945969E+03  0.23090409784E+02  0.28579944850E+03  0.79338512430E+02 0.  0.
         25    2    1    2    0    0  0.32107643581E+03 -0.21228633391E+03  0.34220938748E+03  0.53000931875E+03  0.12508816049E+03 0.  0.
         24    2    1    2    0    0 -0.11132107257E+03  0.36626874219E+02  0.19544814904E+04  0.19596185603E+04  0.79831676335E+02 0.  0.
        -11    1    5    5    0    0 -0.29152646649E+02  0.14106441876E+02  0.16720893756E+03  0.17031646223E+03  0.00000000000E+00 0.  1.
         12    1    5    5    0    0 -0.82168425921E+02  0.22520432343E+02  0.17872725528E+04  0.17893020980E+04  0.00000000000E+00 0. -1.
         11    1    3    3    0    0 -0.10458679660E+02  0.20404045703E+01 -0.15367719540E+02  0.18700642633E+02  0.00000000000E+00 0. -1.
        -12    1    3    3    0    0 -0.19929668358E+03  0.17361905512E+03  0.38458129324E+02  0.26709880587E+03  0.00000000000E+00 0.  1.
          5    1    4    4  501    0  0.22067265421E+03 -0.17657639489E+03  0.17742640866E+03  0.33372630469E+03  0.41800000000E+01 0.  1.
         -5    1    4    4    0  501  0.10040378160E+03 -0.35709939014E+02  0.16478297882E+03  0.19628301407E+03  0.41800000000E+01 0.  1.
</event>
<event>
11    1  0.7577197E-009  0.1547949E+03  0.7561462E-02  0.1092078E+00
         22   -1    0    0    0    0  0.00000000000E+00  0.00000000000E+00  0.65647909467E+03  0.65647909467E+03  0.00000000000E+00 0.  1.
         22   -1    0    0    0    0 -0.00000000000E+00 -0.00000000000E+00 -0.15032360822E+04  0.15032360822E+04  0.00000000000E+00 0.  1.
         24    2    1    2    0    0  0.70420034776E+02 -0.57513451450E+02 -0.14433337450E+04  0.14487651563E+04  0.86263551007E+02 0.  0.
         25    2    1    2    0    0 -0.83157837801E+02  0.60696098295E+02  0.67251068405E+02  0.17541165962E+03  0.12508917537E+03 0.  0.
        -24    2    1    2    0    0  0.12737803026E+02 -0.31826468449E+01  0.52932568902E+03  0.53553836100E+03  0.80269983003E+02 0.  0.
        -11    1    3    3    0    0  0.60754545165E+02 -0.52079211939E+02 -0.14256401075E+04  0.14278841253E+04  0.00000000000E+00 0.  1.
         12    1    3    3    0    0  0.96654896105E+01 -0.54342395109E+01 -0.17693637465E+02  0.20881030990E+02  0.00000000000E+00 0. -1.
         13    1    5    5    0    0 -0.26315304313E+02  0.74027187307E+01  0.83077202729E+02  0.87459231068E+02  0.00000000000E+00 0. -1.
        -14    1    5    5    0    0  0.39053107339E+02 -0.10585365576E+02  0.44624848629E+03  0.44807912993E+03  0.00000000000E+00 0.  1.
          5    1    4    4  501    0 -0.28702307676E+02  0.69735780293E+02 -0.14277264627E+02  0.76864908796E+02  0.41800000000E+01 0.  1.
         -5    1    4    4    0  501 -0.54455530125E+02 -0.90396819984E+01  0.81528333032E+02  0.98546750828E+02  0.41800000000E+01 0.  1.
</event>
<event>
11    1  0.7577197E-009  0.2300879E+03  0.7561462E-02  0.1035076E+00
         22   -1    0    0    0    0  0.00000000000E+00  0.00000000000E+00  0.20560593635E+04  0.20560593635E+04  0.00000000000E+00 0. -1.
         22   -1    0    0    0    0 -0.00000000000E+00 -0.00000000000E+00 -0.18601232162E+03  0.18601232162E+03  0.00000000000E+00 0.  1.
         24    2    1    2    0    0 -0.10076269308E+03  0.17258311266E+03 -0.90589647958E+02  0.24138351535E+03  0.10060549721E+03 0.  0.
         25    2    1    2    0    0  0.46681047648E+02 -0.14247689750E+03  0.49840506858E+03  0.53529161426E+03  0.12510281125E+03 0.  0.
        -24    2    1    2    0    0  0.54081645435E+02 -0.30106215163E+02  0.14622316212E+04  0.14653965555E+04  0.73719346962E+02 0.  0.
        -11    1    3    3    0    0 -0.11475864486E+03  0.16885477210E+03 -0.96402891506E+02  0.22577643394E+03  0.00000000000E+00 0.  1.
         12    1    3    3    0    0  0.13995951776E+02  0.37283405634E+01  0.58132435487E+01  0.15607081407E+02  0.00000000000E+00 0. -1.
         13    1    5    5    0    0  0.20639634401E+02 -0.33661677201E+02  0.12405717956E+04  0.12412000173E+04  0.00000000000E+00 0. -1.
        -14    1    5    5    0    0  0.33442011035E+02  0.35554620377E+01  0.22165982567E+03  0.22419653817E+03  0.00000000000E+00 0.  1.
          5    1    4    4  501    0  0.40902414275E+02 -0.33999887556E+02  0.33374178467E+03  0.33797936487E+03  0.41800000000E+01 0. -1.
         -5    1    4    4    0  501  0.57786333729E+01 -0.10847700995E+03  0.16466328391E+03  0.19731224939E+03  0.41800000000E+01 0. -1.
</event>
<event>
11    1  0.7577197E-009  0.1280499E+03  0.7561462E-02  0.1121688E+00
         22   -1    0    0    0    0  0.00000000000E+00  0.00000000000E+00  0.93030405850E+03  0.93030405850E+03  0.00000000000E+00 0. -1.
         22   -1    0    0    0    0 -0.00000000000E+00 -0.00000000000E+00 -0.34041486906E+03  0.34041486906E+03  0.00000000000E+00 0. -1.
         24    2    1    2    0    0  0.19909801578E+02 -0.15767396865E+02 -0.25857263131E+03  0.27182488027E+03  0.79899617435E+02 0.  0.
         25    2    1    2    0    0 -0.33374094554E+02  0.30994289869E+02 -0.13126191351E+02  0.13376810243E+03  0.12508849722E+03 0.  0.
        -24    2    1    2    0    0  0.13464292976E+02 -0.15226893004E+02  0.86158801211E+03  0.86512594487E+03  0.75470871316E+02 0.  0.
        -11    1    3    3    0    0  0.75068538366E+01 -0.28104561720E+01  0.37782819127E+01  0.88615423392E+01  0.00000000000E+00 0.  1.
         12    1    3    3    0    0  0.12402947742E+02 -0.12956940693E+02 -0.26235091322E+03  0.26296333793E+03  0.00000000000E+00 0. -1.
         11    1    5    5    0    0 -0.14186987859E+01 -0.35199866758E+02  0.74844428097E+03  0.74927290425E+03  0.00000000000E+00 0. -1.
        -12    1    5    5    0    0  0.14882991762E+02  0.19972973754E+02  0.11314373114E+03  0.11585304062E+03  0.00000000000E+00 0.  1.
          5    1    4    4  501    0 -0.29837767201E+02  0.35624732535E+02  0.51069277822E+02  0.69173386913E+02  0.41800000000E+01 0. -1.
         -5    1    4    4    0  501 -0.35363273532E+01 -0.46304426661E+01 -0.64195469173E+02  0.64594715517E+02  0.41800000000E+01 0. -1.
</event>
<event>
11    1  0.7577197E-009  0.1438203E+03  0.7561462E-02  0.1103366E+00
         22   -1    0    0    0    0  0.00000000000E+00  0.00000000000E+00  0.97378692608E+02  0.97378692608E+02  0.00000000000E+00 0.  1.
         22   -1    0    0    0    0 -0.00000000000E+00 -0.00000000000E+00 -0.77869949024E+03  0.77869949024E+03  0.00000000000E+00 0.  1.
        -24    2    1    2    0    0 -0.69240100673E+02  0.11202294181E+02 -0.51674507157E+03  0.52795068058E+03  0.82381849907E+02 0.  0.
         25    2    1    2    0    0  0.77091989586E+02  0.17427460228E+02 -0.20564735891E+03  0.25334881297E+03  0.12509154079E+03 0.  0.
         24    2    1    2    0    0 -0.78518889124E+01 -0.28629754409E+02  0.41071632850E+02  0.94778689300E+02  0.80092483564E+02 0.  0.
        -13    1    5    5    0    0 -0.20469311949E+02 -0.12275134885E+02  0.61351937795E+02  0.65831086420E+02  0.00000000000E+00 0.  1.
         14    1    5    5    0    0  0.12617423036E+02 -0.16354619524E+02 -0.20280304945E+02  0.28947602880E+02  0.00000000000E+00 0. -1.
         11    1    3    3    0    0  0.60607727582E+01 -0.20082661806E+02 -0.51405516451E+02  0.55520927525E+02  0.00000000000E+00 0. -1.
        -12    1    3    3    0    0 -0.75300873431E+02  0.31284955987E+02 -0.46533955512E+03  0.47242975305E+03  0.00000000000E+00 0.  1.
          5    1    4    4  501    0  0.30018100854E+02 -0.26096425871E+02 -0.22637793434E+01  0.40058793280E+02  0.41800000000E+01 0. -1.
         -5    1    4    4    0  501  0.47073888731E+02  0.43523886099E+02 -0.20338357956E+03  0.21329001969E+03  0.41800000000E+01 0. -1.
</event>
<event>
11    1  0.7577197E-009  0.1847294E+03  0.7561462E-02  0.1065880E+00
         22   -1    0    0    0    0  0.00000000000E+00  0.00000000000E+00  0.22156178619E+04  0.22156178619E+04  0.00000000000E+00 0.  1.
         22   -1    0    0    0    0 -0.00000000000E+00 -0.00000000000E+00 -0.78822745346E+02  0.78822745346E+02  0.00000000000E+00 0.  1.
         24    2    1    2    0    0 -0.24404110543E+02 -0.15745460147E+02  0.17505019765E+02  0.87137861563E+02  0.80268929693E+02 0.  0.
         25    2    1    2    0    0  0.48548714093E+02  0.14801662409E+03  0.20401610465E+03  0.28554616422E+03  0.12509253495E+03 0.  0.
        -24    2    1    2    0    0 -0.24144603550E+02 -0.13227116394E+03  0.19152739922E+04  0.19217565815E+04  0.82433432019E+02 0.  0.
        -13    1    3    3    0    0 -0.44941341769E+02 -0.34182220507E+02  0.45411929132E+01  0.56646013380E+02  0.00000000000E+00 0.  1.
         14    1    3    3    0    0  0.20537231225E+02  0.18436760360E+02  0.12963826852E+02  0.30491848183E+02  0.00000000000E+00 0. -1.
         11    1    5    5    0    0 -0.16742016327E+02 -0.54771594857E+01  0.72440946435E+02  0.74551895396E+02  0.00000000000E+00 0. -1.
        -12    1    5    5    0    0 -0.74025872227E+01 -0.12679400446E+03  0.18428330457E+04  0.18472046861E+04  0.00000000000E+00 0.  1.
          5    1    4    4  501    0 -0.29159943376E+02 -0.21510932347E+01  0.41899744681E+02  0.51263929855E+02  0.41800000000E+01 0.  1.
         -5    1    4    4    0  501  0.77708657469E+02  0.15016771732E+03  0.16211635996E+03  0.23428223437E+03  0.41800000000E+01 0.  1.
</event>
<event>
11    1  0.7577197E-009  0.7527323E+03  0.7561462E-02  0.8958011E-01
         22   -1    0    0    0    0  0.00000000000E+00  0.00000000000E+00  0.71305872186E+03  0.71305872186E+03  0.00000000000E+00 0. -1.
         22   -1    0    0    0    0 -0.00000000000E+00 -0.00000000000E+00 -0.24527810186E+04  0.24527810186E+04  0.00000000000E+00 0. -1.
         24    2    1    2    0    0  0.24271316847E+02  0.18911174114E+02 -0.71132300714E+03  0.71643340922E+03  0.79684879614E+02 0.  0.
         25    2    1    2    0    0  0.35780624114E+03  0.62181253049E+03 -0.14249222857E+04  0.16002273244E+04  0.12509132810E+03 0.  0.
        -24    2    1    2    0    0 -0.38207755799E+03 -0.64072370461E+03  0.39652299613E+03  0.84917900675E+03  0.85815925566E+02 0.  0.
        -11    1    3    3    0    0  0.91417907347E+01  0.45321230922E+02 -0.56989412102E+03  0.57176646936E+03  0.00000000000E+00 0.  1.
         12    1    3    3    0    0  0.15129526113E+02 -0.26410056808E+02 -0.14142888612E+03  0.14466693986E+03  0.00000000000E+00 0. -1.
         11    1    5    5    0    0 -0.28955836984E+03 -0.48614310652E+03  0.34105886987E+03  0.66068171027E+03  0.00000000000E+00 0. -1.
        -12    1    5    5    0    0 -0.92519188156E+02 -0.15458059808E+03  0.55464126264E+02  0.18849729649E+03  0.00000000000E+00 0.  1.
          5    1    4    4  501    0  0.35035486345E+03  0.61575718303E+03 -0.14229619723E+04  0.15895734289E+04  0.41800000000E+01 0. -1.
         -5    1    4    4    0  501  0.74513776908E+01  0.60553474629E+01 -0.19603134110E+01  0.10653895581E+02  0.41800000000E+01 0. -1.
</event>
<event>
11    1  0.7577197E-009  0.1596007E+03  0.7561462E-02  0.1087453E+00
         22   -1    0    0    0    0  0.00000000000E+00  0.00000000000E+00  0.18726642072E+04  0.18726642072E+04  0.00000000000E+00 0. -1.
         22   -1    0    0    0    0 -0.00000000000E+00 -0.00000000000E+00 -0.35668291112E+03  0.35668291112E+03  0.00000000000E+00 0. -1.
         24    2    1    2    0    0 -0.40122867489E+02 -0.23442282940E+02 -0.33768065168E+03  0.35040360154E+03  0.81210075293E+02 0.  0.
         25    2    1    2    0    0  0.97778474588E+02  0.87390861891E+02  0.90804093482E+03  0.92595290471E+03  0.12511054952E+03 0.  0.
        -24    2    1    2    0    0 -0.57655607099E+02 -0.63948578951E+02  0.94562101293E+03  0.95299061207E+03  0.81107439995E+02 0.  0.
        -13    1    3    3    0    0 -0.20168428944E+02  0.10836538970E+02 -0.20436380493E+02  0.30689440375E+02  0.00000000000E+00 0.  1.
         14    1    3    3    0    0 -0.19954438545E+02 -0.34278821909E+02 -0.31724427118E+03  0.31971416116E+03  0.00000000000E+00 0. -1.
         11    1    5    5    0    0 -0.83859796757E+00 -0.57077513310E+02  0.59470141469E+03  0.59743478172E+03  0.00000000000E+00 0. -1.
        -12    1    5    5    0    0 -0.56817009131E+02 -0.68710656415E+01  0.35091959824E+03  0.35555583036E+03  0.00000000000E+00 0.  1.
          5    1    4    4  501    0  0.56915206811E+02  0.11524444533E+03  0.72426290813E+03  0.73559150039E+03  0.41800000000E+01 0.  1.
         -5    1    4    4    0  501  0.40863267777E+02 -0.27853583435E+02  0.18377802669E+03  0.19036140433E+03  0.41800000000E+01 0.  1.
</event>
<event>
11    1  0.7577197E-009  0.1370444E+03  0.7561462E-02  0.1110904E+00
         22   -1    0    0    0    0  0.00000000000E+00  0.00000000000E+00  0.23750137820E+04  0.23750137820E+04  0.00000000000E+00 0. -1.
         22   -1    0    0    0    0 -0.00000000000E+00 -0.00000000000E+00 -0.12592659449E+04  0.12592659449E+04  0.00000000000E+00 0.  1.
         24    2    1    2    0    0 -0.35383277481E+02  0.44692868305E+02 -0.10441828232E+04  0.10488690119E+04  0.80987697162E+02 0.  0.
         25    2    1    2    0    0  0.57021503830E+02 -0.12250790162E+02 -0.18942055246E+03  0.23436953273E+03  0.12508956161E+03 0.  0.
        -24    2    1    2    0    0 -0.21638226349E+02 -0.32442078143E+02  0.23493512127E+04  0.23510411822E+04  0.80142488601E+02 0.  0.
        -13    1    3    3    0    0 -0.23555194363E+02  0.26064053263E+02 -0.98625593264E+03  0.98688142485E+03  0.00000000000E+00 0.  1.
         14    1    3    3    0    0 -0.11828083118E+02  0.18628815041E+02 -0.57926890574E+02  0.61987587077E+02  0.00000000000E+00 0. -1.
         11    1    5    5    0    0 -0.16008711207E+02 -0.16811804510E+02  0.22622878945E+04  0.22624069999E+04  0.00000000000E+00 0. -1.
        -12    1    5    5    0    0 -0.56295151420E+01 -0.15630273633E+02  0.87063318269E+02  0.88634182359E+02  0.00000000000E+00 0.  1.
          5    1    4    4  501    0  0.74840590725E+02  0.34136209679E+02 -0.83443943911E+02  0.11724657354E+03  0.41800000000E+01 0.  1.
         -5    1    4    4    0  501 -0.17819086895E+02 -0.46386999841E+02 -0.10597660854E+03  0.11712295920E+03  0.41800000000E+01 0.  1.
</event>
<event>
11    1  0.7577197E-009  0.1398811E+03  0.7561462E-02  0.1107691E+00
         22   -1    0    0    0    0  0.00000000000E+00  0.00000000000E+00  0.87919159822E+03  0.87919159822E+03  0.00000000000E+00 0. -1.
         22   -1    0    0    0    0 -0.00000000000E+00 -0.00000000000E+00 -0.62056700434E+03  0.62056700434E+03  0.00000000000E+00 0.  1.
         24    2    1    2    0    0 -0.50853946640E+02  0.20042014848E+02 -0.46991312825E+03  0.47955151064E+03  0.78507942329E+02 0.  0.
         25    2    1    2    0    0 -0.46934469900E+01 -0.50489877239E+02 -0.11078257730E+03  0.17461945051E+03  0.12509163408E+03 0.  0.
        -24    2    1    2    0    0  0.55547393630E+02  0.30447862391E+02  0.83932029943E+03  0.84558764141E+03  0.80915443585E+02 0.  0.
        -11    1    3    3    0    0 -0.22802202839E+01 -0.19891063748E+02 -0.25069137221E+03  0.25148959804E+03  0.00000000000E+00 0.  1.
         12    1    3    3    0    0 -0.48573726356E+02  0.39933078597E+02 -0.21922175604E+03  0.22806191260E+03  0.00000000000E+00 0. -1.
         13    1    5    5    0    0  0.61191287199E+02  0.42270213502E+02  0.81078502600E+03  0.81418886197E+03  0.00000000000E+00 0. -1.
        -14    1    5    5    0    0 -0.56438935690E+01 -0.11822351111E+02  0.28535273431E+02  0.31398779438E+02  0.00000000000E+00 0.  1.
          5    1    4    4  501    0  0.47850924839E+02  0.15081576451E+02 -0.48864607839E+02  0.70159726735E+02  0.41800000000E+01 0.  1.
         -5    1    4    4    0  501 -0.52544371829E+02 -0.65571453691E+02 -0.61917969457E+02  0.10445972378E+03  0.41800000000E+01 0.  1.
</event>
<event>
11    1  0.7577197E-009  0.3154406E+03  0.7561462E-02  0.9938602E-01
         22   -1    0    0    0    0  0.00000000000E+00  0.00000000000E+00  0.31193581781E+03  0.31193581781E+03  0.00000000000E+00 0.  1.
         22   -1    0    0    0    0 -0.00000000000E+00 -0.00000000000E+00 -0.10422669940E+04  0.10422669940E+04  0.00000000000E+00 0.  1.
        -24    2    1    2    0    0  0.25486725302E+03  0.17697418613E+03 -0.58137409079E+03  0.66340889990E+03  0.76409134236E+02 0.  0.
         25    2    1    2    0    0 -0.95583457586E+01 -0.33356767775E+03 -0.15906671532E+03  0.39026836065E+03  0.12509362809E+03 0.  0.
         24    2    1    2    0    0 -0.24530890726E+03  0.15659349162E+03  0.10109629967E+02  0.30052555122E+03  0.74265878575E+02 0.  0.
        -11    1    5    5    0    0 -0.10630272317E+03  0.10851751066E+03 -0.91534313559E+01  0.15218444197E+03  0.00000000000E+00 0.  1.
         12    1    5    5    0    0 -0.13900618410E+03  0.48075980952E+02  0.19263061323E+02  0.14834110925E+03  0.00000000000E+00 0. -1.
         13    1    3    3    0    0  0.33188737880E+02  0.32620017961E+02 -0.15315691283E+03  0.16007060267E+03  0.00000000000E+00 0. -1.
        -14    1    3    3    0    0  0.22167851514E+03  0.14435416817E+03 -0.42821717797E+03  0.50333829722E+03  0.00000000000E+00 0.  1.
          5    1    4    4  501    0  0.31365987791E+02 -0.29747013359E+03 -0.11689639834E+03  0.32117681410E+03  0.41800000000E+01 0. -1.
         -5    1    4    4    0  501 -0.40924333549E+02 -0.36097544155E+02 -0.42170316980E+02  0.69091546550E+02  0.41800000000E+01 0. -1.
</event>
<event>
11    1  0.7577197E-009  0.1286929E+03  0.7561462E-02  0.1120885E+00
         22   -1    0    0    0    0  0.00000000000E+00  0.00000000000E+00  0.54863045049E+03  0.54863045049E+03  0.00000000000E+00 0.  1.
         22   -1    0    0    0    0 -0.00000000000E+00 -0.00000000000E+00 -0.21957182138E+03  0.21957182138E+03  0.00000000000E+00 0. -1.
        -24    2    1    2    0    0  0.82617684772E+01  0.10660383254E+02 -0.15897854884E+03  0.17810692383E+03  0.79158049101E+02 0.  0.
         25    2    1    2    0    0  0.13870978930E+02 -0.31048739536E+02  0.45469614507E+02  0.13737385197E+03  0.12509061148E+03 0.  0.
         24    2    1    2    0    0 -0.22132747408E+02  0.20388356282E+02  0.44256756343E+03  0.45272149606E+03  0.90471880786E+02 0.  0.
        -11    1    5    5    0    0 -0.54154005816E+02  0.29780606367E+02  0.27416163863E+03  0.28104118018E+03  0.00000000000E+00 0.  1.
         12    1    5    5    0    0  0.32021258408E+02 -0.93922500855E+01  0.16840592480E+03  0.17168031588E+03  0.00000000000E+00 0. -1.
         13    1    3    3    0    0  0.23382239154E+02  0.38183739165E+02 -0.11981639971E+03  0.12790893903E+03  0.00000000000E+00 0. -1.
        -14    1    3    3    0    0 -0.15120470676E+02 -0.27523355911E+02 -0.39162149133E+02  0.50197984808E+02  0.00000000000E+00 0.  1.
          5    1    4    4  501    0 -0.37053458846E+02  0.29775277453E+02  0.30230085577E+02  0.56487666210E+02  0.41800000000E+01 0.  1.
         -5    1    4    4    0  501  0.50924437776E+02 -0.60824016990E+02  0.15239528930E+02  0.80886185765E+02  0.41800000000E+01 0.  1.
</event>
<event>
11    1  0.7577197E-009  0.2660257E+03  0.7561462E-02  0.1015692E+00
         22   -1    0    0    0    0  0.00000000000E+00  0.00000000000E+00  0.11870617932E+04  0.11870617932E+04  0.00000000000E+00 0. -1.
         22   -1    0    0    0    0 -0.00000000000E+00 -0.00000000000E+00 -0.19823370435E+04  0.19823370435E+04  0.00000000000E+00 0. -1.
        -24    2    1    2    0    0 -0.16880796693E+03  0.12087958329E+01 -0.18618603134E+04  0.18711867349E+04  0.79488232843E+02 0.  0.
         25    2    1    2    0    0  0.37907037959E+03  0.17539326027E+02  0.30164269203E+03  0.50063765162E+03  0.12509102256E+03 0.  0.
         24    2    1    2    0    0 -0.21026241266E+03 -0.18748121860E+02  0.76494237113E+03  0.79757445021E+03  0.80164819067E+02 0.  0.
        -13    1    5    5    0    0 -0.15281920594E+02 -0.26540939054E+02  0.10922818379E+03  0.11344053366E+03  0.00000000000E+00 0.  1.
         14    1    5    5    0    0 -0.19498049207E+03  0.77928171946E+01  0.65571418734E+03  0.68413391654E+03  0.00000000000E+00 0. -1.
         11    1    3    3    0    0 -0.15902104482E+03 -0.76193020191E+01 -0.13810777490E+04  0.13902235415E+04  0.00000000000E+00 0. -1.
        -12    1    3    3    0    0 -0.97869221119E+01  0.88280978519E+01 -0.48078256444E+03  0.48096319342E+03  0.00000000000E+00 0.  1.
          5    1    4    4  501    0  0.16309014289E+03 -0.54237440074E+02  0.13111395615E+03  0.21621386753E+03  0.41800000000E+01 0.  1.
         -5    1    4    4    0  501  0.21598023670E+03  0.71776766101E+02  0.17052873588E+03  0.28442378409E+03  0.41800000000E+01 0.  1.
</event>
<event>
11    1  0.7577197E-009  0.1726704E+03  0.7561462E-02  0.1075731E+00
         22   -1    0    0    0    0  0.00000000000E+00  0.00000000000E+00  0.12527542175E+04  0.12527542175E+04  0.00000000000E+00 0.  1.
         22   -1    0    0    0    0 -0.00000000000E+00 -0.00000000000E+00 -0.23977226007E+03  0.23977226007E+03  0.00000000000E+00 0.  1.
         24    2    1    2    0    0 -0.30413015781E+02  0.38051857615E+02 -0.15538346060E+03  0.18179250915E+03  0.80818321926E+02 0.  0.
         25    2    1    2    0    0 -0.89704576785E+02 -0.20615378738E+02  0.24309226190E+02  0.15719465458E+03  0.12508923220E+03 0.  0.
        -24    2    1    2    0    0  0.12011759257E+03 -0.17436478877E+02  0.11440561918E+04  0.11535393138E+04  0.84000664527E+02 0.  0.
        -13    1    3    3    0    0 -0.56576093050E+02  0.32466917760E+02 -0.12709865545E+03  0.14286015284E+03  0.00000000000E+00 0.  1.
         14    1    3    3    0    0  0.26163077268E+02  0.55849398547E+01 -0.28284805156E+02  0.38932356313E+02  0.00000000000E+00 0. -1.
         11    1    5    5    0    0  0.29731280599E+02  0.20601354414E+01  0.66345553356E+03  0.66412456529E+03  0.00000000000E+00 0. -1.
        -12    1    5    5    0    0  0.90386311967E+02 -0.19496614318E+02  0.48060065828E+03  0.48941474855E+03  0.00000000000E+00 0.  1.
          5    1    4    4  501    0 -0.80052685385E+02 -0.34104910819E+02  0.67846055834E+02  0.11041801063E+03  0.41800000000E+01 0.  1.
         -5    1    4    4    0  501 -0.96518914000E+01  0.13489532081E+02 -0.43536829644E+02  0.46776643945E+02  0.41800000000E+01 0.  1.
</event>
<event>
11    1  0.7577197E-009  0.1545750E+03  0.7561462E-02  0.1092294E+00
         22   -1    0    0    0    0  0.00000000000E+00  0.00000000000E+00  0.22471495476E+03  0.22471495476E+03  0.00000000000E+00 0.  1.
         22   -1    0    0    0    0 -0.00000000000E+00 -0.00000000000E+00 -0.80161843279E+03  0.80161843279E+03  0.00000000000E+00 0. -1.
        -24    2    1    2    0    0  0.43374348621E+02  0.77491962479E+02 -0.66024496878E+03  0.67102672650E+03  0.80418346843E+02 0.  0.
         25    2    1    2    0    0 -0.10499797400E+03 -0.72239316340E+02 -0.52039481628E+02  0.18600947696E+03  0.12509326322E+03 0.  0.
         24    2    1    2    0    0  0.61623625375E+02 -0.52526461395E+01  0.13538097238E+03  0.16929718408E+03  0.80675072730E+02 0.  0.
        -13    1    5    5    0    0  0.11042928393E+01  0.12550442009E+02  0.91712447496E+02  0.92573787235E+02  0.00000000000E+00 0.  1.
         14    1    5    5    0    0  0.60519332536E+02 -0.17803088149E+02  0.43668524880E+02  0.76723396845E+02  0.00000000000E+00 0. -1.
         11    1    3    3    0    0  0.51318069990E+02  0.78251076858E+02 -0.65459324126E+03  0.66124812804E+03  0.00000000000E+00 0. -1.
        -12    1    3    3    0    0 -0.79437213687E+01 -0.75911437839E+00 -0.56517275232E+01  0.97785984589E+01  0.00000000000E+00 0.  1.
          5    1    4    4  501    0 -0.67944162619E+02  0.23720056930E+02 -0.34504391131E+01  0.72169441350E+02  0.41800000000E+01 0. -1.
         -5    1    4    4    0  501 -0.37053811377E+02 -0.95959373270E+02 -0.48589042515E+02  0.11384003561E+03  0.41800000000E+01 0. -1.
</event>
<event>
11    1  0.7577197E-009  0.1634562E+03  0.7561462E-02  0.1083871E+00
         22   -1    0    0    0    0  0.00000000000E+00  0.00000000000E+00  0.44433746208E+03  0.44433746208E+03  0.00000000000E+00 0.  1.
         22   -1    0    0    0    0 -0.00000000000E+00 -0.00000000000E+00 -0.46699570661E+03  0.46699570661E+03  0.00000000000E+00 0.  1.
         24    2    1    2    0    0  0.98577268321E+02 -0.48530681408E+02 -0.39158446810E+03  0.41434048988E+03  0.79164013451E+02 0.  0.
         25    2    1    2    0    0 -0.82604861532E+02 -0.47932807848E+02  0.70381535165E+02  0.17240049284E+03  0.12508897722E+03 0.  0.
        -24    2    1    2    0    0 -0.15972406790E+02  0.96463489257E+02  0.29854468840E+03  0.32459218598E+03  0.81675171799E+02 0.  0.
        -13    1    3    3    0    0  0.44462064251E+02  0.29387517744E+01 -0.25318793040E+03  0.25707905305E+03  0.00000000000E+00 0.  1.
         14    1    3    3    0    0  0.54115204071E+02 -0.51469433182E+02 -0.13839653771E+03  0.15726143683E+03  0.00000000000E+00 0. -1.
         11    1    5    5    0    0 -0.39351858582E+02  0.94933268228E+02  0.25877912861E+03  0.27843766195E+03  0.00000000000E+00 0. -1.
        -12    1    5    5    0    0  0.23379451793E+02  0.15302210282E+01  0.39765559792E+02  0.46154524026E+02  0.00000000000E+00 0.  1.
          5    1    4    4  501    0 -0.60415772449E+02 -0.45957336065E+02  0.10584176258E+03  0.13031536136E+03  0.41800000000E+01 0. -1.
         -5    1    4    4    0  501 -0.22189089082E+02 -0.19754717831E+01 -0.35460227418E+02  0.42085131479E+02  0.41800000000E+01 0. -1.
</event>
<event>
11    1  0.7577197E-009  0.1347147E+03  0.7561462E-02  0.1113608E+00
         22   -1    0    0    0    0  0.00000000000E+00  0.00000000000E+00  0.82326559227E+03  0.82326559227E+03  0.00000000000E+00 0.  1.
         22   -1    0    0    0    0 -0.00000000000E+00 -0.00000000000E+00 -0.90990606329E+03  0.90990606329E+03  0.00000000000E+00 0.  1.
         24    2    1    2    0    0  0.46349016766E+02 -0.16188917072E+02 -0.84119543244E+03  0.84650638729E+03  0.80950576091E+02 0.  0.
         25    2    1    2    0    0 -0.70037981159E+02  0.43293635134E+02  0.25675173412E+02  0.15194167609E+03  0.12508957092E+03 0.  0.
        -24    2    1    2    0    0  0.23688964393E+02 -0.27104718062E+02  0.72887978801E+03  0.73472359219E+03  0.85189076584E+02 0.  0.
        -13    1    3    3    0    0  0.30880538442E+02  0.31756556868E+02 -0.39466343459E+03  0.39714142715E+03  0.00000000000E+00 0.  1.
         14    1    3    3    0    0  0.15468478324E+02 -0.47945473940E+02 -0.44653199785E+03  0.44936496014E+03  0.00000000000E+00 0. -1.
         11    1    5    5    0    0  0.12909672794E+01  0.83085106155E+01  0.53164552203E+01  0.99479968473E+01  0.00000000000E+00 0. -1.
        -12    1    5    5    0    0  0.22397997114E+02 -0.35413228678E+02  0.72356333279E+03  0.72477559534E+03  0.00000000000E+00 0.  1.
          5    1    4    4  501    0 -0.40670258091E+02 -0.40851659138E+02 -0.39498172047E+01  0.57931005545E+02  0.41800000000E+01 0.  1.
         -5    1    4    4    0  501 -0.29367723068E+02  0.84145294272E+02  0.29624990617E+02  0.94010670540E+02  0.41800000000E+01 0.  1.
</event>
<event>
11    1  0.7577197E-009  0.1488032E+03  0.7561462E-02  0.1098108E+00
         22   -1    0    0    0    0  0.00000000000E+00  0.00000000000E+00  0.46437992653E+03  0.46437992653E+03  0.00000000000E+00 0. -1.
         22   -1    0    0    0    0 -0.00000000000E+00 -0.00000000000E+00 -0.64186854359E+03  0.64186854359E+03  0.00000000000E+00 0.  1.
        -24    2    1    2    0    0  0.49151791293E+02 -0.41185930518E+02 -0.57049155735E+03  0.57970324703E+03  0.80517440014E+02 0.  0.
         25    2    1    2    0    0 -0.12151423430E+03  0.20630413575E+02  0.76731161756E+02  0.19164084437E+03  0.12508884420E+03 0.  0.
         24    2    1    2    0    0  0.72362443004E+02  0.20555516944E+02  0.31627177854E+03  0.33490437872E+03  0.80462740147E+02 0.  0.
        -11    1    5    5    0    0 -0.16689448050E+02 -0.46958350613E+01  0.58623024897E+02  0.61133031916E+02  0.00000000000E+00 0.  1.
         12    1    5    5    0    0  0.89051891054E+02  0.25251352005E+02  0.25764875364E+03  0.27377134681E+03  0.00000000000E+00 0. -1.
         13    1    3    3    0    0  0.11075053944E+02 -0.49271392641E+02 -0.17049064884E+03  0.17781279002E+03  0.00000000000E+00 0. -1.
        -14    1    3    3    0    0  0.38076737349E+02  0.80854621233E+01 -0.40000090852E+03  0.40189045701E+03  0.00000000000E+00 0.  1.
          5    1    4    4  501    0 -0.90333732918E+02 -0.45901760189E+02  0.52242281589E+02  0.11407840846E+03  0.41800000000E+01 0.  1.
         -5    1    4    4    0  501 -0.31180501379E+02  0.66532173764E+02  0.24488880167E+02  0.77562435907E+02  0.41800000000E+01 0.  1.
</event>
<event>
11    1  0.7577197E-009  0.2088352E+03  0.7561462E-02  0.1048446E+00
         22   -1    0    0    0    0  0.00000000000E+00  0.00000000000E+00  0.68460699611E+03  0.68460699611E+03  0.00000000000E+00 0. -1.
         22   -1    0    0    0    0 -0.00000000000E+00 -0.00000000000E+00 -0.13842180033E+04  0.13842180033E+04  0.00000000000E+00 0.  1.
         24    2    1    2    0    0  0.50200978600E+02 -0.37173088424E+01 -0.11581586831E+04  0.11621779516E+04  0.82414192573E+02 0.  0.
         25    2    1    2    0    0 -0.19564595960E+03 -0.73396972701E+02 -0.13991342070E+03  0.28086792030E+03  0.12508623526E+03 0.  0.
        -24    2    1    2    0    0  0.14544498100E+03  0.77114281544E+02  0.59846109663E+03  0.62577912757E+03  0.79642811360E+02 0.  0.
        -13    1    3    3    0    0  0.68072264005E+02 -0.10388330341E+01 -0.10712114762E+04  0.10733726934E+04  0.00000000000E+00 0.  1.
         14    1    3    3    0    0 -0.17871285404E+02 -0.26784758083E+01 -0.86947206973E+02  0.88805258149E+02  0.00000000000E+00 0. -1.
         11    1    5    5    0    0  0.12384400753E+03  0.81590064941E+02  0.40937068417E+03  0.43540628607E+03  0.00000000000E+00 0. -1.
        -12    1    5    5    0    0  0.21600973471E+02 -0.44757833973E+01  0.18909041247E+03  0.19037284149E+03  0.00000000000E+00 0.  1.
          5    1    4    4  501    0 -0.13345922644E+03 -0.27583617863E+01 -0.12960380774E+03  0.18610102918E+03  0.41800000000E+01 0. -1.
         -5    1    4    4    0  501 -0.62186733165E+02 -0.70638610915E+02 -0.10309612962E+02  0.94766891123E+02  0.41800000000E+01 0. -1.
</event>
<event>
11    1  0.7577197E-009  0.1393956E+03  0.7561462E-02  0.1108235E+00
         22   -1    0    0    0    0  0.00000000000E+00  0.00000000000E+00  0.18106064428E+04  0.18106064428E+04  0.00000000000E+00 0. -1.
         22   -1    0    0    0    0 -0.00000000000E+00 -0.00000000000E+00 -0.89978944074E+03  0.89978944074E+03  0.00000000000E+00 0. -1.
        -24    2    1    2    0    0 -0.45254441583E+02  0.40967342227E+02 -0.87212816733E+03  0.87769830043E+03  0.77591743905E+02 0.  0.
         25    2    1    2    0    0  0.93931109262E+02 -0.60975219739E+02  0.27740778089E+03  0.32426109447E+03  0.12509656181E+03 0.  0.
         24    2    1    2    0    0 -0.48676667679E+02  0.20007877512E+02  0.15055373884E+04  0.15084364886E+04  0.77253342900E+02 0.  0.
        -11    1    5    5    0    0  0.17306544607E+02  0.77220933731E+01  0.64781020484E+03  0.64808734651E+03  0.00000000000E+00 0.  1.
         12    1    5    5    0    0 -0.65983212286E+02  0.12285784139E+02  0.85772718361E+03  0.86034914209E+03  0.00000000000E+00 0. -1.
         13    1    3    3    0    0 -0.56028728592E+02  0.44524327044E+02 -0.84822761429E+03  0.85124128176E+03  0.00000000000E+00 0. -1.
        -14    1    3    3    0    0  0.10774287009E+02 -0.35569848168E+01 -0.23900553037E+02  0.26457018672E+02  0.00000000000E+00 0.  1.
          5    1    4    4  501    0  0.49278944815E+02  0.30430441715E+02  0.15207872185E+03  0.16278770293E+03  0.41800000000E+01 0.  1.
         -5    1    4    4    0  501  0.44652164446E+02 -0.91405661454E+02  0.12532905905E+03  0.16147339155E+03  0.41800000000E+01 0.  1.
</event>
<event>
11    1  0.7577197E-009  0.1752016E+03  0.7561462E-02  0.1073592E+00
         22   -1    0    0    0    0  0.00000000000E+00  0.00000000000E+00  0.46475936200E+03  0.46475936200E+03  0.00000000000E+00 0.  1.
         22   -1    0    0    0    0 -0.00000000000E+00 -0.00000000000E+00 -0.20013612433E+04  0.20013612433E+04  0.00000000000E+00 0.  1.
         24    2    1    2    0    0  0.27376647348E+02  0.33020703972E+02 -0.19021489285E+04  0.19043277079E+04  0.80334456976E+02 0.  0.
         25    2    1    2    0    0 -0.10477794911E+03 -0.11986311958E+03  0.38964487146E+02  0.20618306422E+03  0.12509052186E+03 0.  0.
        -24    2    1    2    0    0  0.77401301766E+02  0.86842415611E+02  0.32658256006E+03  0.35560983323E+03  0.79180921284E+02 0.  0.
        -11    1    3    3    0    0  0.31711205788E+02  0.45740522254E+02 -0.18351811497E+04  0.18360249585E+04  0.00000000000E+00 0.  1.
         12    1    3    3    0    0 -0.43345584395E+01 -0.12719818282E+02 -0.66967778825E+02  0.68302749394E+02  0.00000000000E+00 0. -1.
         11    1    5    5    0    0  0.25970951516E+02  0.81332864176E+02  0.16244846531E+03  0.18351847046E+03  0.00000000000E+00 0. -1.
        -12    1    5    5    0    0  0.51430350250E+02  0.55095514347E+01  0.16413409474E+03  0.17209136277E+03  0.00000000000E+00 0.  1.
          5    1    4    4  501    0 -0.22714986882E+02 -0.38708605629E+02 -0.44771004966E+02  0.63531425803E+02  0.41800000000E+01 0. -1.
         -5    1    4    4    0  501 -0.82062962232E+02 -0.81154513953E+02  0.83735492113E+02  0.14265163842E+03  0.41800000000E+01 0. -1.
</event>
<event>
11    1  0.7577197E-009  0.1656649E+03  0.7561462E-02  0.1081867E+00
         22   -1    0    0    0    0  0.00000000000E+00  0.00000000000E+00  0.10001303994E+03  0.10001303994E+03  0.00000000000E+00 0.  1.
         22   -1    0    0    0    0 -0.00000000000E+00 -0.00000000000E+00 -0.14692404377E+04  0.14692404377E+04  0.00000000000E+00 0. -1.
        -24    2    1    2    0    0  0.48015920475E+02  0.10381118112E+03 -0.11935792749E+04  0.12017008626E+04  0.79819719613E+02 0.  0.
         25    2    1    2    0    0 -0.47549121042E+01 -0.80778657963E+02 -0.21822179771E+03  0.26423068363E+03  0.12509716386E+03 0.  0.
         24    2    1    2    0    0 -0.43261008371E+02 -0.23032523154E+02  0.42573674877E+02  0.10332193142E+03  0.80379672504E+02 0.  0.
        -13    1    5    5    0    0  0.46311392928E+01  0.17184751973E+00  0.49445863180E+02  0.49662565060E+02  0.00000000000E+00 0.  1.
         14    1    5    5    0    0 -0.47892147663E+02 -0.23204370673E+02 -0.68721883029E+01  0.53659366361E+02  0.00000000000E+00 0. -1.
         11    1    3    3    0    0  0.27137474735E+02  0.11247326007E+03 -0.10496411140E+04  0.10559986482E+04  0.00000000000E+00 0. -1.
        -12    1    3    3    0    0  0.20878445740E+02 -0.86620789510E+01 -0.14393816094E+03  0.14570221441E+03  0.00000000000E+00 0.  1.
          5    1    4    4  501    0  0.47903106043E+02 -0.82033759483E+02 -0.12474345743E+03  0.15685231217E+03  0.41800000000E+01 0.  1.
         -5    1    4    4    0  501 -0.52658018147E+02  0.12551015195E+01 -0.93478340279E+02  0.10737837145E+03  0.41800000000E+01 0.  1.
</event>
<event>
11    1  0.7577197E-009  0.3171183E+03  0.7561462E-02  0.9931958E-01
         22   -1    0    0    0    0  0.00000000000E+00  0.00000000000E+00  0.79524619672E+03  0.79524619672E+03  0.00000000000E+00 0.  1.
         22   -1    0    0    0    0 -0.00000000000E+00 -0.00000000000E+00 -0.21932186085E+03  0.21932186085E+03  0.00000000000E+00 0.  1.
         24    2    1    2    0    0 -0.10951667332E+03  0.45894534988E+01  0.42734668363E+01  0.13711680228E+03  0.82266579654E+02 0.  0.
         25    2    1    2    0    0 -0.71048562937E+02  0.24963171340E+03  0.97502587326E+02  0.30416711733E+03  0.12508792946E+03 0.  0.
        -24    2    1    2    0    0  0.18056523626E+03 -0.25422116690E+03  0.47414828170E+03  0.57328413796E+03  0.81276709801E+02 0.  0.
        -11    1    3    3    0    0 -0.24645109285E+02 -0.35223320903E+02 -0.29712529035E+01  0.43091670783E+02  0.00000000000E+00 0.  1.
         12    1    3    3    0    0 -0.84871564040E+02  0.39812774401E+02  0.72447197398E+01  0.94025131492E+02  0.00000000000E+00 0. -1.
         11    1    5    5    0    0  0.25340548239E+02 -0.23959208974E+01  0.26704416554E+02  0.36891864760E+02  0.00000000000E+00 0. -1.
        -12    1    5    5    0    0  0.15522468802E+03 -0.25182524600E+03  0.44744386515E+03  0.53639227320E+03  0.00000000000E+00 0.  1.
          5    1    4    4  501    0 -0.29474008093E+02  0.22909428835E+03  0.11012828926E+03  0.25592698686E+03  0.41800000000E+01 0.  1.
         -5    1    4    4    0  501 -0.41574554844E+02  0.20537425056E+02 -0.12625701937E+02  0.48240130471E+02  0.41800000000E+01 0.  1.
</event>
<event>
11    1  0.7577197E-009  0.1315010E+03  0.7561462E-02  0.1117438E+00
         22   -1    0    0    0    0  0.00000000000E+00  0.00000000000E+00  0.53736665777E+04  0.53736665777E+04  0.00000000000E+00 0. -1.
         22   -1    0    0    0    0 -0.00000000000E+00 -0.00000000000E+00 -0.81202295857E+02  0.81202295857E+02  0.00000000000E+00 0.  1.
        -24    2    1    2    0    0 -0.49198334112E+01 -0.40017297260E+02 -0.49936196680E+02  0.10347951627E+03  0.81171409430E+02 0.  0.
         25    2    1    2    0    0  0.22657069643E+02  0.47603904274E+02  0.11201536224E+04  0.11283493001E+04  0.12509408782E+03 0.  0.
         24    2    1    2    0    0 -0.17737236232E+02 -0.75866070136E+01  0.42222468562E+04  0.42230400572E+04  0.79540204678E+02 0.  0.
        -11    1    5    5    0    0  0.15939370092E+02 -0.20590267715E+02  0.55025624264E+03  0.55087199531E+03  0.00000000000E+00 0.  1.
         12    1    5    5    0    0 -0.33676606323E+02  0.13003660701E+02  0.36719906135E+04  0.36721680619E+04  0.00000000000E+00 0. -1.
         11    1    3    3    0    0 -0.23212522116E+02 -0.65098579391E+01  0.14826617434E+02  0.28302438373E+02  0.00000000000E+00 0. -1.
        -12    1    3    3    0    0  0.18292688704E+02 -0.33507439321E+02 -0.64762814114E+02  0.75177077901E+02  0.00000000000E+00 0.  1.
          5    1    4    4  501    0 -0.20355258398E+02 -0.19051797629E+02  0.71080876794E+03  0.71136761560E+03  0.41800000000E+01 0.  1.
         -5    1    4    4    0  501  0.43012328041E+02  0.66655701903E+02  0.40934485445E+03  0.41698168452E+03  0.41800000000E+01 0.  1.
</event>
<event>
11    1  0.7577197E-009  0.1366008E+03  0.7561462E-02  0.1111415E+00
         22   -1    0    0    0    0  0.00000000000E+00  0.00000000000E+00  0.11965880425E+04  0.11965880425E+04  0.00000000000E+00 0.  1.
         22   -1    0    0    0    0 -0.00000000000E+00 -0.00000000000E+00 -0.28260293823E+03  0.28260293823E+03  0.00000000000E+00 0. -1.
         24    2    1    2    0    0 -0.42836755798E+02 -0.34471603695E+02 -0.16382237551E+03  0.18936489628E+03  0.77446847046E+02 0.  0.
         25    2    1    2    0    0  0.66918466488E+02 -0.12862247236E+01 -0.55986185526E+02  0.15249081283E+03  0.12505702498E+03 0.  0.
        -24    2    1    2    0    0 -0.24081710690E+02  0.35757828418E+02  0.11337936653E+04  0.11373352716E+04  0.78644093668E+02 0.  0.
        -11    1    3    3    0    0 -0.31086507319E+01 -0.10306991886E+02  0.66570375844E+01  0.12657564557E+02  0.00000000000E+00 0.  1.
         12    1    3    3    0    0 -0.39728105066E+02 -0.24164611808E+02 -0.17047941310E+03  0.17670733173E+03  0.00000000000E+00 0. -1.
         11    1    5    5    0    0  0.15947658136E+02 -0.54124254453E+01  0.70169496629E+02  0.72162181275E+02  0.00000000000E+00 0. -1.
        -12    1    5    5    0    0 -0.40029368826E+02  0.41170253864E+02  0.10636241687E+04  0.10651730904E+04  0.00000000000E+00 0.  1.
          5    1    4    4  501    0  0.56958649117E+02 -0.51996805487E+02 -0.63644343653E+02  0.10008011975E+03  0.41800000000E+01 0.  1.
         -5    1    4    4    0  501  0.99598173714E+01  0.50710580763E+02  0.76581581269E+01  0.52410693081E+02  0.41800000000E+01 0.  1.
</event>
<event>
11    1  0.7577197E-009  0.1288866E+03  0.7561462E-02  0.1120645E+00
         22   -1    0    0    0    0  0.00000000000E+00  0.00000000000E+00  0.98740218692E+02  0.98740218692E+02  0.00000000000E+00 0.  1.
         22   -1    0    0    0    0 -0.00000000000E+00 -0.00000000000E+00 -0.10453685241E+04  0.10453685241E+04  0.00000000000E+00 0. -1.
         24    2    1    2    0    0 -0.30650466810E+02  0.19076826383E+00 -0.85475173147E+03  0.85939341918E+03  0.83767768071E+02 0.  0.
         25    2    1    2    0    0  0.34833566368E+02 -0.23635583902E+02 -0.13664227527E+03  0.18997501907E+03  0.12508948120E+03 0.  0.
        -24    2    1    2    0    0 -0.41830995578E+01  0.23444815638E+02  0.44765701344E+02  0.94740304535E+02  0.80028742239E+02 0.  0.
        -13    1    3    3    0    0 -0.34455268762E+02  0.18065687129E+02 -0.16987577710E+03  0.17427367628E+03  0.00000000000E+00 0.  1.
         14    1    3    3    0    0  0.38048019523E+01 -0.17874918865E+02 -0.68487595437E+03  0.68511974290E+03  0.00000000000E+00 0. -1.
         11    1    5    5    0    0 -0.74575160892E+01  0.12702741843E+02 -0.22308323413E+02  0.26732667096E+02  0.00000000000E+00 0. -1.
        -12    1    5    5    0    0  0.32744165314E+01  0.10742073795E+02  0.67074024757E+02  0.68007637440E+02  0.00000000000E+00 0.  1.
          5    1    4    4  501    0  0.38003616458E+02  0.65549009052E+00 -0.15463593621E+03  0.15929359591E+03  0.41800000000E+01 0.  1.
         -5    1    4    4    0  501 -0.31700500903E+01 -0.24291073993E+02  0.17993660934E+02  0.30681423160E+02  0.41800000000E+01 0.  1.
</event>
<event>
11    1  0.9561246E-009  0.1307346E+03  0.7561462E-02  0.1118370E+00
         22   -1    0    0    0    0  0.00000000000E+00  0.00000000000E+00  0.14460545231E+04  0.14460545231E+04  0.00000000000E+00 0. -1.
         22   -1    0    0    0    0 -0.00000000000E+00 -0.00000000000E+00 -0.24775428687E+04  0.24775428687E+04  0.00000000000E+00 0.  1.
         24    2    1    2    0    0  0.90555256830E+01 -0.13712294280E+03 -0.23145171487E+04  0.23197810055E+04  0.74226529024E+02 0.  0.
         25    2    1    2    0    0  0.32853211653E+01  0.32834635308E+02 -0.13079675411E+03  0.18396236343E+03  0.12508178789E+03 0.  0.
        -24    2    1    2    0    0 -0.12340846848E+02  0.10428830749E+03  0.14138255573E+04  0.14198540229E+04  0.77809975886E+02 0.  0.
        -11    1    3    3    0    0 -0.28191541200E+01 -0.73267157862E+02 -0.17507680109E+04  0.17523026714E+04  0.00000000000E+00 0.  1.
         12    1    3    3    0    0  0.11874679803E+02 -0.63855784936E+02 -0.56374913780E+03  0.56747833409E+03  0.00000000000E+00 0. -1.
         11    1    5    5    0    0 -0.39750043020E+02  0.83104946611E+02  0.85311494400E+03  0.85807435910E+03  0.00000000000E+00 0. -1.
        -12    1    5    5    0    0  0.27409196172E+02  0.21183360879E+02  0.56071061327E+03  0.56177966379E+03  0.00000000000E+00 0.  1.
          5    1    4    4  501    0 -0.48495732931E+02 -0.18843860186E+02 -0.77147326033E+02  0.93145635932E+02  0.41800000000E+01 0.  1.
         -5    1    4    4    0  501  0.51781054096E+02  0.51678495493E+02 -0.53649428080E+02  0.90816727496E+02  0.41800000000E+01 0.  1.
</event>
<event>
11    1  0.7577197E-009  0.1624087E+03  0.7561462E-02  0.1084833E+00
         22   -1    0    0    0    0  0.00000000000E+00  0.00000000000E+00  0.77939118661E+02  0.77939118661E+02  0.00000000000E+00 0.  1.
         22   -1    0    0    0    0 -0.00000000000E+00 -0.00000000000E+00 -0.70582910486E+03  0.70582910486E+03  0.00000000000E+00 0.  1.
        -24    2    1    2    0    0 -0.10107334400E+03  0.97013266474E+02 -0.35121563778E+03  0.38636162832E+03  0.79344116854E+02 0.  0.
         25    2    1    2    0    0 -0.11733243177E+01 -0.70884016625E+02 -0.19186889816E+03  0.23976491939E+03  0.12509045521E+03 0.  0.
         24    2    1    2    0    0  0.10224666832E+03 -0.26129249849E+02 -0.84805450255E+02  0.15764167581E+03  0.80757753055E+02 0.  0.
        -11    1    5    5    0    0  0.55631364595E+02 -0.54428494261E+02 -0.42913538624E+02  0.88875651961E+02  0.00000000000E+00 0.  1.
         12    1    5    5    0    0  0.46615303725E+02  0.28299244412E+02 -0.41891911631E+02  0.68766023847E+02  0.00000000000E+00 0. -1.
         13    1    3    3    0    0  0.59899622104E+01  0.38214724825E+02 -0.92434938927E+02  0.10020210963E+03  0.00000000000E+00 0. -1.
        -14    1    3    3    0    0 -0.10706330621E+03  0.58798541649E+02 -0.25878069885E+03  0.28615951869E+03  0.00000000000E+00 0.  1.
          5    1    4    4  501    0 -0.55751494419E+02 -0.56080982473E+01 -0.98295690039E+02  0.11322188382E+03  0.41800000000E+01 0.  1.
         -5    1    4    4    0  501  0.54578170102E+02 -0.65275918378E+02 -0.93573208120E+02  0.12654303556E+03  0.41800000000E+01 0.  1.
</event>
<event>
11    1  0.7577197E-009  0.3629445E+03  0.7561462E-02  0.9765899E-01
         22   -1    0    0    0    0  0.00000000000E+00  0.00000000000E+00  0.13427839675E+04  0.13427839675E+04  0.00000000000E+00 0.  1.
         22   -1    0    0    0    0 -0.00000000000E+00 -0.00000000000E+00 -0.12374684593E+04  0.12374684593E+04  0.00000000000E+00 0.  1.
        -24    2    1    2    0    0  0.33600091182E+03 -0.43135607910E+02 -0.10816338347E+04  0.11362248292E+04  0.79484695654E+02 0.  0.
         25    2    1    2    0    0 -0.35899963483E+03  0.40955583020E+02  0.16162370424E+03  0.41512362183E+03  0.12508917635E+03 0.  0.
         24    2    1    2    0    0  0.22998723012E+02  0.21800248908E+01  0.10253256387E+04  0.10289039757E+04  0.82565320270E+02 0.  0.
        -13    1    5    5    0    0  0.82053310420E+01  0.28790804791E+02  0.87572666180E+03  0.87623822337E+03  0.00000000000E+00 0.  1.
         14    1    5    5    0    0  0.14793391970E+02 -0.26610779901E+02  0.14959897686E+03  0.15266575231E+03  0.00000000000E+00 0. -1.
         11    1    3    3    0    0  0.12360863999E+03 -0.46183869919E+02 -0.49623960278E+03  0.51348397160E+03  0.00000000000E+00 0. -1.
        -12    1    3    3    0    0  0.21239227184E+03  0.30482620088E+01 -0.58539423191E+03  0.62274085765E+03  0.00000000000E+00 0.  1.
          5    1    4    4  501    0 -0.13862959033E+03 -0.23990944339E+02  0.11241524175E+03  0.18013436014E+03  0.41800000000E+01 0. -1.
         -5    1    4    4    0  501 -0.22037004450E+03  0.64946527359E+02  0.49208462489E+02  0.23498926169E+03  0.41800000000E+01 0. -1.
</event>
<event>
11    1  0.7577197E-009  0.1516299E+03  0.7561462E-02  0.1095225E+00
         22   -1    0    0    0    0  0.00000000000E+00  0.00000000000E+00  0.10042886014E+04  0.10042886014E+04  0.00000000000E+00 0.  1.
         22   -1    0    0    0    0 -0.00000000000E+00 -0.00000000000E+00 -0.78614128030E+03  0.78614128030E+03  0.00000000000E+00 0. -1.
         24    2    1    2    0    0 -0.24145917810E+02 -0.32785310488E+02 -0.62647118130E+03  0.63306851313E+03  0.81557951141E+02 0.  0.
         25    2    1    2    0    0  0.54303862615E+02 -0.48000097226E+02 -0.11831954736E+03  0.18681731021E+03  0.12509305847E+03 0.  0.
        -24    2    1    2    0    0 -0.30157944805E+02  0.80785407714E+02  0.96293804971E+03  0.97054405832E+03  0.85266041501E+02 0.  0.
        -13    1    3    3    0    0 -0.30476322647E+02  0.17172118627E+02 -0.15408877386E+03  0.15800961404E+03  0.00000000000E+00 0.  1.
         14    1    3    3    0    0  0.63304048369E+01 -0.49957429115E+02 -0.47238240743E+03  0.47505889909E+03  0.00000000000E+00 0. -1.
         13    1    5    5    0    0 -0.32924825241E+02  0.49321452039E+02  0.25117266336E+03  0.25807819855E+03  0.00000000000E+00 0. -1.
        -14    1    5    5    0    0  0.27668804361E+01  0.31463955675E+02  0.71176538635E+03  0.71246585977E+03  0.00000000000E+00 0.  1.
          5    1    4    4  501    0 -0.25904092629E+01 -0.65149004048E+02 -0.10819853034E+03  0.12639421394E+03  0.41800000000E+01 0.  1.
         -5    1    4    4    0  501  0.56894271878E+02  0.17148906823E+02 -0.10121017017E+02  0.60423096273E+02  0.41800000000E+01 0.  1.
</event>
<event>
11    1  0.7577197E-009  0.1350032E+03  0.7561462E-02  0.1113270E+00
         22   -1    0    0    0    0  0.00000000000E+00  0.00000000000E+00  0.12917739551E+04  0.12917739551E+04  0.00000000000E+00 0. -1.
         22   -1    0    0    0    0 -0.00000000000E+00 -0.00000000000E+00 -0.37196034092E+03  0.37196034092E+03  0.00000000000E+00 0. -1.
         24    2    1    2    0    0  0.44572222609E+02  0.23067442606E+02 -0.33788408441E+03  0.35069760678E+03  0.79400043869E+02 0.  0.
         25    2    1    2    0    0 -0.47538375767E+02  0.29061627626E+02  0.15779850531E+03  0.20893201390E+03  0.12509093805E+03 0.  0.
        -24    2    1    2    0    0  0.29661531579E+01 -0.52129070232E+02  0.10998991933E+04  0.11041046754E+04  0.80886715268E+02 0.  0.
        -11    1    3    3    0    0 -0.34405548348E+01  0.37593454353E+02 -0.20926767050E+03  0.21264539295E+03  0.00000000000E+00 0.  1.
         12    1    3    3    0    0  0.48012777443E+02 -0.14526011747E+02 -0.12861641391E+03  0.13805221382E+03  0.00000000000E+00 0. -1.
         11    1    5    5    0    0  0.32093252699E+02 -0.57458191152E+02  0.68705942269E+03  0.69020436894E+03  0.00000000000E+00 0. -1.
        -12    1    5    5    0    0 -0.29127099541E+02  0.53291209204E+01  0.41283977063E+03  0.41390030644E+03  0.00000000000E+00 0.  1.
          5    1    4    4  501    0  0.36345228060E+00  0.32324633061E+01 -0.21171435501E+02  0.21823908856E+02  0.41800000000E+01 0. -1.
         -5    1    4    4    0  501 -0.47901828047E+02  0.25829164320E+02  0.17896994081E+03  0.18710810504E+03  0.41800000000E+01 0. -1.
</event>
<event>
11    1  0.7577197E-009  0.1528844E+03  0.7561462E-02  0.1093967E+00
         22   -1    0    0    0    0  0.00000000000E+00  0.00000000000E+00  0.14978862213E+04  0.14978862213E+04  0.00000000000E+00 0.  1.
         22   -1    0    0    0    0 -0.00000000000E+00 -0.00000000000E+00 -0.35300115475E+02  0.35300115475E+02  0.00000000000E+00 0. -1.
         24    2    1    2    0    0  0.18816574207E+02  0.58834723171E+01  0.74302509377E+02  0.11104771379E+03  0.80137713506E+02 0.  0.
         25    2    1    2    0    0 -0.90258959518E+01 -0.92324736260E+02  0.44381668701E+03  0.47034637193E+03  0.12508850544E+03 0.  0.
        -24    2    1    2    0    0 -0.97906782556E+01  0.86441263943E+02  0.94446690946E+03  0.95179225108E+03  0.79516015140E+02 0.  0.
        -11    1    3    3    0    0 -0.46518723133E+01 -0.33394615554E+02  0.46739728468E+02  0.57631957119E+02  0.00000000000E+00 0.  1.
         12    1    3    3    0    0  0.23468446521E+02  0.39278087872E+02  0.27562780909E+02  0.53415756668E+02  0.00000000000E+00 0. -1.
         13    1    5    5    0    0  0.24375989167E+02  0.53435920659E+01  0.11536296088E+03  0.11803116355E+03  0.00000000000E+00 0. -1.
        -14    1    5    5    0    0 -0.34166667423E+02  0.81097671877E+02  0.82910394857E+03  0.83376108754E+03  0.00000000000E+00 0.  1.
          5    1    4    4  501    0 -0.38720564258E+01 -0.30573316918E+02  0.38009352850E+03  0.38136371529E+03  0.41800000000E+01 0. -1.
         -5    1    4    4    0  501 -0.51538395259E+01 -0.61751419343E+02  0.63723158509E+02  0.88982656642E+02  0.41800000000E+01 0. -1.
</event>
<event>
11    1  0.7577197E-009  0.1420642E+03  0.7561462E-02  0.1105275E+00
         22   -1    0    0    0    0  0.00000000000E+00  0.00000000000E+00  0.24494664832E+04  0.24494664832E+04  0.00000000000E+00 0. -1.
         22   -1    0    0    0    0 -0.00000000000E+00 -0.00000000000E+00 -0.28419642193E+03  0.28419642193E+03  0.00000000000E+00 0. -1.
         24    2    1    2    0    0  0.71571206987E+02 -0.54368231860E+01 -0.20576488077E+03  0.23521968890E+03  0.88527505167E+02 0.  0.
         25    2    1    2    0    0 -0.41861927944E+02  0.32929386092E+02  0.10697542404E+02  0.13636555303E+03  0.12507742066E+03 0.  0.
        -24    2    1    2    0    0 -0.29709279043E+02 -0.27492562906E+02  0.23603373996E+04  0.23620776632E+04  0.81115748390E+02 0.  0.
        -13    1    3    3    0    0  0.71769978285E+02  0.22820374926E+01 -0.73586270845E+02  0.10281574167E+03  0.00000000000E+00 0.  1.
         14    1    3    3    0    0 -0.19877129774E+00 -0.77188606786E+01 -0.13217860992E+03  0.13240394723E+03  0.00000000000E+00 0. -1.
         11    1    5    5    0    0 -0.19081286088E+02  0.17956239106E+02  0.16502129132E+04  0.16504209103E+04  0.00000000000E+00 0. -1.
        -12    1    5    5    0    0 -0.10627992955E+02 -0.45448802013E+02  0.71012448639E+03  0.71165675295E+03  0.00000000000E+00 0.  1.
          5    1    4    4  501    0 -0.57757666214E+02  0.25682487009E+02  0.57924052031E+02  0.85838256909E+02  0.41800000000E+01 0.  1.
         -5    1    4    4    0  501  0.15895738270E+02  0.72468990836E+01 -0.47226509627E+02  0.50527296119E+02  0.41800000000E+01 0.  1.
</event>
<event>
11    1  0.7577197E-009  0.1323590E+03  0.7561462E-02  0.1116404E+00
         22   -1    0    0    0    0  0.00000000000E+00  0.00000000000E+00  0.74361033432E+03  0.74361033432E+03  0.00000000000E+00 0. -1.
         22   -1    0    0    0    0 -0.00000000000E+00 -0.00000000000E+00 -0.56129608949E+03  0.56129608949E+03  0.00000000000E+00 0.  1.
         24    2    1    2    0    0  0.38734596566E+02 -0.37151575947E+02 -0.53669005775E+03  0.54300096892E+03  0.62715433498E+02 0.  0.
         25    2    1    2    0    0 -0.31413916275E+02  0.72435112797E+02  0.30772721788E+03  0.34143450193E+03  0.12509116190E+03 0.  0.
        -24    2    1    2    0    0 -0.73206802903E+01 -0.35283536850E+02  0.41127708470E+03  0.42047095295E+03  0.79677233535E+02 0.  0.
        -11    1    3    3    0    0  0.55876355706E+02 -0.23496663318E+02 -0.39864204207E+03  0.40322417837E+03  0.00000000000E+00 0.  1.
         12    1    3    3    0    0 -0.17141759141E+02 -0.13654912629E+02 -0.13804801568E+03  0.13977679056E+03  0.00000000000E+00 0. -1.
         11    1    5    5    0    0 -0.42966291710E+01 -0.59894343675E+02  0.23947817429E+03  0.24689185768E+03  0.00000000000E+00 0. -1.
        -12    1    5    5    0    0 -0.30240511193E+01  0.24610806825E+02  0.17179891041E+03  0.17357909527E+03  0.00000000000E+00 0.  1.
          5    1    4    4  501    0  0.11641129156E+02  0.96916117711E+02  0.19012160379E+03  0.21375674583E+03  0.41800000000E+01 0. -1.
         -5    1    4    4    0  501 -0.43055045431E+02 -0.24481004914E+02  0.11760561409E+03  0.12767775611E+03  0.41800000000E+01 0. -1.
</event>
<event>
11    1  0.7577197E-009  0.1324474E+03  0.7561462E-02  0.1116298E+00
         22   -1    0    0    0    0  0.00000000000E+00  0.00000000000E+00  0.16581578848E+04  0.16581578848E+04  0.00000000000E+00 0.  1.
         22   -1    0    0    0    0 -0.00000000000E+00 -0.00000000000E+00 -0.86580620452E+03  0.86580620452E+03  0.00000000000E+00 0.  1.
         24    2    1    2    0    0  0.21806480392E+02  0.37893004821E+02 -0.85178513288E+03  0.85666154000E+03  0.80122900069E+02 0.  0.
         25    2    1    2    0    0  0.64194908067E+01 -0.19503877785E+02  0.38758917916E+03  0.40779141203E+03  0.12508738070E+03 0.  0.
        -24    2    1    2    0    0 -0.28225971199E+02 -0.18389127036E+02  0.12565476340E+04  0.12595111373E+04  0.79507754117E+02 0.  0.
        -13    1    3    3    0    0  0.35516327382E+02  0.35373391482E+01 -0.16199815104E+03  0.16588346276E+03  0.00000000000E+00 0.  1.
         14    1    3    3    0    0 -0.13709846990E+02  0.34355665672E+02 -0.68978698185E+03  0.69077807724E+03  0.00000000000E+00 0. -1.
         13    1    5    5    0    0  0.40981300159E-01  0.14712010831E+02  0.48564646952E+02  0.50744161001E+02  0.00000000000E+00 0. -1.
        -14    1    5    5    0    0 -0.28266952499E+02 -0.33101137866E+02  0.12079829870E+04  0.12087669763E+04  0.00000000000E+00 0.  1.
          5    1    4    4  501    0  0.27194350826E+02  0.15542992810E+02  0.35234432157E+03  0.35375854857E+03  0.41800000000E+01 0.  1.
         -5    1    4    4    0  501 -0.20774860019E+02 -0.35046870595E+02  0.35244857594E+02  0.54032863464E+02  0.41800000000E+01 0.  1.
</event>
<event>
11    1  0.7577197E-009  0.1294025E+03  0.7561462E-02  0.1120005E+00
         22   -1    0    0    0    0  0.00000000000E+00  0.00000000000E+00  0.38309961042E+03  0.38309961042E+03  0.00000000000E+00 0. -1.
         22   -1    0    0    0    0 -0.00000000000E+00 -0.00000000000E+00 -0.29619304535E+04  0.29619304535E+04  0.00000000000E+00 0.  1.
        -24    2    1    2    0    0 -0.18943560374E+02 -0.17864688652E+02 -0.24132550819E+04  0.24147030059E+04  0.79451310609E+02 0.  0.
         25    2    1    2    0    0  0.13128944945E+02 -0.14994434018E+02 -0.53561760972E+03  0.55038843851E+03  0.12507600551E+03 0.  0.
         24    2    1    2    0    0  0.58146154286E+01  0.32859122670E+02  0.37004184855E+03  0.37993861951E+03  0.79428289805E+02 0.  0.
        -11    1    5    5    0    0 -0.16706152685E+02 -0.21532937535E+02  0.11251757926E+03  0.11577119063E+03  0.00000000000E+00 0.  1.
         12    1    5    5    0    0  0.22520768113E+02  0.54392060204E+02  0.25752426929E+03  0.26416742889E+03  0.00000000000E+00 0. -1.
         11    1    3    3    0    0 -0.41211450223E+01 -0.31842610420E+01 -0.93121920344E+01  0.10669595829E+02  0.00000000000E+00 0. -1.
        -12    1    3    3    0    0 -0.14822415352E+02 -0.14680427610E+02 -0.24039428898E+04  0.24040334100E+04  0.00000000000E+00 0.  1.
          5    1    4    4  501    0 -0.11320790570E+01  0.52823040287E+02 -0.30414188886E+03  0.30872530856E+03  0.41800000000E+01 0.  1.
         -5    1    4    4    0  501  0.14261024002E+02 -0.67817474305E+02 -0.23147572087E+03  0.24166312995E+03  0.41800000000E+01 0.  1.
</event>
<event>
11    1  0.7577197E-009  0.1668131E+03  0.7561462E-02  0.1080839E+00
         22   -1    0    0    0    0  0.00000000000E+00  0.00000000000E+00  0.11330524837E+04  0.11330524837E+04  0.00000000000E+00 0.  1.
         22   -1    0    0    0    0 -0.00000000000E+00 -0.00000000000E+00 -0.11946640762E+03  0.11946640762E+03  0.00000000000E+00 0.  1.
        -24    2    1    2    0    0 -0.69579612873E+02  0.47128465493E+01 -0.61730235588E+02  0.12257924845E+03  0.79696403398E+02 0.  0.
         25    2    1    2    0    0  0.10114807076E+03 -0.10294310559E+03  0.41672214497E+03  0.45840272257E+03  0.12508994662E+03 0.  0.
         24    2    1    2    0    0 -0.31568457882E+02  0.98230259036E+02  0.65859416669E+03  0.67153692030E+03  0.81054349680E+02 0.  0.
        -13    1    5    5    0    0 -0.59192740152E+02  0.64020046716E+02  0.42936070753E+03  0.43812437051E+03  0.00000000000E+00 0.  1.
         14    1    5    5    0    0  0.27624282270E+02  0.34210212320E+02  0.22923345916E+03  0.23341254979E+03  0.00000000000E+00 0. -1.
         11    1    3    3    0    0 -0.69944686807E+02  0.18147405157E+02 -0.14797417066E+02  0.73760091366E+02  0.00000000000E+00 0. -1.
        -12    1    3    3    0    0  0.36507393381E+00 -0.13434558608E+02 -0.46932818522E+02  0.48819157084E+02  0.00000000000E+00 0.  1.
          5    1    4    4  501    0  0.70850699326E+02 -0.12574515418E+03  0.37515544445E+03  0.40198351371E+03  0.41800000000E+01 0.  1.
         -5    1    4    4    0  501  0.30297371430E+02  0.22802048598E+02  0.41566700516E+02  0.56419208854E+02  0.41800000000E+01 0.  1.
</event>
<event>
11    1  0.7577197E-009  0.4960701E+03  0.7561462E-02  0.9402346E-01
         22   -1    0    0    0    0  0.00000000000E+00  0.00000000000E+00  0.21266754512E+04  0.21266754512E+04  0.00000000000E+00 0.  1.
         22   -1    0    0    0    0 -0.00000000000E+00 -0.00000000000E+00 -0.36417411937E+03  0.36417411937E+03  0.00000000000E+00 0.  1.
        -24    2    1    2    0    0 -0.23025871078E+02 -0.91836243439E+02 -0.37951321619E+02  0.13108228023E+03  0.82329672842E+02 0.  0.
         25    2    1    2    0    0 -0.22712651547E+03 -0.33018364696E+03 -0.68803015758E+02  0.42542788980E+03  0.12508932685E+03 0.  0.
         24    2    1    2    0    0  0.25015238655E+03  0.42201989040E+03  0.18692556692E+04  0.19343394005E+04  0.82916556027E+02 0.  0.
        -13    1    5    5    0    0  0.13745771568E+03  0.29689584960E+03  0.11499912732E+04  0.11956260693E+04  0.00000000000E+00 0.  1.
         14    1    5    5    0    0  0.11269467087E+03  0.12512404079E+03  0.71926439597E+03  0.73871333123E+03  0.00000000000E+00 0. -1.
         11    1    3    3    0    0 -0.22791318872E+02  0.89743384565E+01 -0.10097639310E+02  0.26494250061E+02  0.00000000000E+00 0. -1.
        -12    1    3    3    0    0 -0.23455220529E+00 -0.10081058190E+03 -0.27853682309E+02  0.10458803017E+03  0.00000000000E+00 0.  1.
          5    1    4    4  501    0 -0.20071415922E+03 -0.19632933693E+03 -0.68041478376E+02  0.28892645678E+03  0.41800000000E+01 0.  1.
         -5    1    4    4    0  501 -0.26412356255E+02 -0.13385431003E+03 -0.76153738209E+00  0.13650143302E+03  0.41800000000E+01 0.  1.
</event>
<event>
11    1  0.7577197E-009  0.1304258E+03  0.7561462E-02  0.1118747E+00
         22   -1    0    0    0    0  0.00000000000E+00  0.00000000000E+00  0.25255726381E+03  0.25255726381E+03  0.00000000000E+00 0. -1.
         22   -1    0    0    0    0 -0.00000000000E+00 -0.00000000000E+00 -0.40383527680E+03  0.40383527680E+03  0.00000000000E+00 0.  1.
         24    2    1    2    0    0  0.70212882624E+01  0.41306380236E+02 -0.32706280230E+03  0.33916364944E+03  0.79412775535E+02 0.  0.
         25    2    1    2    0    0  0.28429710476E+02 -0.20758378789E+02  0.12507322217E+02  0.13054761709E+03  0.12508832277E+03 0.  0.
        -24    2    1    2    0    0 -0.35450998738E+02 -0.20548001448E+02  0.16327746709E+03  0.18668127407E+03  0.80693079954E+02 0.  0.
        -11    1    3    3    0    0  0.11431526052E+02  0.62982527361E+02 -0.19435376717E+03  0.20462371650E+03  0.00000000000E+00 0.  1.
         12    1    3    3    0    0 -0.44102377900E+01 -0.21676147125E+02 -0.13270903512E+03  0.13453993294E+03  0.00000000000E+00 0. -1.
         11    1    5    5    0    0 -0.21436861633E+02  0.29558370110E+02  0.86969538359E+02  0.94323575434E+02  0.00000000000E+00 0. -1.
        -12    1    5    5    0    0 -0.14014137106E+02 -0.50106371557E+02  0.76307928735E+02  0.92357698636E+02  0.00000000000E+00 0.  1.
          5    1    4    4  501    0  0.17291955509E+02 -0.54340237321E+02  0.52051185010E+02  0.77321868694E+02  0.41800000000E+01 0. -1.
         -5    1    4    4    0  501  0.11137754967E+02  0.33581858532E+02 -0.39543862793E+02  0.53225748400E+02  0.41800000000E+01 0. -1.
</event>
<event>
11    1  0.7577197E-009  0.1341097E+03  0.7561462E-02  0.1114320E+00
         22   -1    0    0    0    0  0.00000000000E+00  0.00000000000E+00  0.43329376577E+03  0.43329376577E+03  0.00000000000E+00 0. -1.
         22   -1    0    0    0    0 -0.00000000000E+00 -0.00000000000E+00 -0.21788321282E+04  0.21788321282E+04  0.00000000000E+00 0.  1.
         24    2    1    2    0    0  0.21110173355E+02 -0.44267547179E+02 -0.20679074233E+04  0.20700634238E+04  0.80723057965E+02 0.  0.
         25    2    1    2    0    0 -0.28921132072E+01  0.24652580507E+02 -0.66334280826E+02  0.14374933244E+03  0.12509004644E+03 0.  0.
        -24    2    1    2    0    0 -0.18218060148E+02  0.19614966672E+02  0.38870334165E+03  0.39831313778E+03  0.82743116261E+02 0.  0.
        -13    1    3    3    0    0  0.33978840507E+02  0.17933866733E+01 -0.14140477366E+04  0.14144570617E+04  0.00000000000E+00 0.  1.
         14    1    3    3    0    0 -0.12868667152E+02 -0.46060933852E+02 -0.65385968666E+03  0.65560636213E+03  0.00000000000E+00 0. -1.
         11    1    5    5    0    0 -0.32345703938E+02  0.23211093374E+02  0.80906795772E+02  0.90171553280E+02  0.00000000000E+00 0. -1.
        -12    1    5    5    0    0  0.14127643790E+02 -0.35961267022E+01  0.30779654587E+03  0.30814158450E+03  0.00000000000E+00 0.  1.
          5    1    4    4  501    0 -0.21369010624E+02  0.66316219708E+02 -0.89840989900E+01  0.70375152192E+02  0.41800000000E+01 0.  1.
         -5    1    4    4    0  501  0.18476897416E+02 -0.41663639201E+02 -0.57350181836E+02  0.73374180243E+02  0.41800000000E+01 0.  1.
</event>
<event>
11    1  0.7577197E-009  0.7997137E+03  0.7561462E-02  0.8897023E-01
         22   -1    0    0    0    0  0.00000000000E+00  0.00000000000E+00  0.28979307929E+04  0.28979307929E+04  0.00000000000E+00 0. -1.
         22   -1    0    0    0    0 -0.00000000000E+00 -0.00000000000E+00 -0.15375791808E+04  0.15375791808E+04  0.00000000000E+00 0. -1.
         24    2    1    2    0    0  0.83688735566E+02 -0.57935041040E+03 -0.98969057010E+03  0.11526191195E+04  0.79954409982E+02 0.  0.
         25    2    1    2    0    0 -0.12545263257E+03  0.12795023645E+04  0.65842556259E+03  0.14498404526E+04  0.12509377551E+03 0.  0.
        -24    2    1    2    0    0  0.41763897005E+02 -0.70015195413E+03  0.16916166196E+04  0.18330504015E+04  0.80932100276E+02 0.  0.
        -11    1    3    3    0    0 -0.13767205067E+02 -0.63142478399E+02 -0.90217659715E+02  0.11097627962E+03  0.00000000000E+00 0.  1.
         12    1    3    3    0    0  0.97455940633E+02 -0.51620793200E+03 -0.89947291039E+03  0.10416428399E+04  0.00000000000E+00 0. -1.
         11    1    5    5    0    0  0.60277296062E+02 -0.53598205735E+03  0.12427985328E+04  0.13547908736E+04  0.00000000000E+00 0. -1.
        -12    1    5    5    0    0 -0.18513399056E+02 -0.16416989678E+03  0.44881808684E+03  0.47825952790E+03  0.00000000000E+00 0.  1.
          5    1    4    4  501    0 -0.21622634761E+02  0.77138795674E+03  0.42644464849E+03  0.88169123210E+03  0.41800000000E+01 0. -1.
         -5    1    4    4    0  501 -0.10382999781E+03  0.50811440779E+03  0.23198091410E+03  0.56814922050E+03  0.41800000000E+01 0. -1.
</event>
<event>
11    1  0.7577197E-009  0.1461818E+03  0.7561462E-02  0.1100845E+00
         22   -1    0    0    0    0  0.00000000000E+00  0.00000000000E+00  0.51114017425E+02  0.51114017425E+02  0.00000000000E+00 0.  1.
         22   -1    0    0    0    0 -0.00000000000E+00 -0.00000000000E+00 -0.28985268466E+04  0.28985268466E+04  0.00000000000E+00 0.  1.
         24    2    1    2    0    0 -0.30525981988E+02 -0.26334199207E+01 -0.23302235536E+04  0.23317535662E+04  0.78702691067E+02 0.  0.
         25    2    1    2    0    0  0.72039121997E+02 -0.58071392192E+02 -0.47919771644E+03  0.50382493040E+03  0.12508871797E+03 0.  0.
        -24    2    1    2    0    0 -0.41513140008E+02  0.60704812112E+02 -0.37991559158E+02  0.11406236738E+03  0.78475792938E+02 0.  0.
        -11    1    3    3    0    0 -0.22132668751E+02 -0.28626038883E+02 -0.20215655990E+04  0.20218894075E+04  0.00000000000E+00 0.  1.
         12    1    3    3    0    0 -0.83933132378E+01  0.25992618962E+02 -0.30865795453E+03  0.30986415869E+03  0.00000000000E+00 0. -1.
         13    1    5    5    0    0 -0.18437814365E+02 -0.17151109598E+02 -0.16351814545E+02  0.30024912954E+02  0.00000000000E+00 0. -1.
        -14    1    5    5    0    0 -0.23075325643E+02  0.77855921710E+02 -0.21639744613E+02  0.84037454422E+02  0.00000000000E+00 0.  1.
          5    1    4    4  501    0  0.99733656324E+02 -0.18728358471E+02 -0.25493197067E+03  0.27441817667E+03  0.41800000000E+01 0. -1.
         -5    1    4    4    0  501 -0.27694534327E+02 -0.39343033721E+02 -0.22426574577E+03  0.22940675374E+03  0.41800000000E+01 0. -1.
</event>
<event>
11    1  0.7577197E-009  0.1831443E+03  0.7561462E-02  0.1067127E+00
         22   -1    0    0    0    0  0.00000000000E+00  0.00000000000E+00  0.19569275362E+03  0.19569275362E+03  0.00000000000E+00 0.  1.
         22   -1    0    0    0    0 -0.00000000000E+00 -0.00000000000E+00 -0.10777166620E+04  0.10777166620E+04  0.00000000000E+00 0. -1.
        -24    2    1    2    0    0  0.66368127639E+02  0.11623058504E+03 -0.94398831836E+03  0.95712993718E+03  0.84080284104E+02 0.  0.
         25    2    1    2    0    0 -0.10038861242E+03 -0.95144607544E+02 -0.28334092666E+02  0.18862874461E+03  0.12509041786E+03 0.  0.
         24    2    1    2    0    0  0.34020484777E+02 -0.21085977493E+02  0.90298502647E+02  0.12765073384E+03  0.80863331845E+02 0.  0.
        -13    1    5    5    0    0  0.56186482284E+02  0.45012213421E+01  0.57196413576E+02  0.80303247201E+02  0.00000000000E+00 0.  1.
         14    1    5    5    0    0 -0.22165997507E+02 -0.25587198835E+02  0.33102089071E+02  0.47347486634E+02  0.00000000000E+00 0. -1.
         11    1    3    3    0    0  0.62912706590E+02  0.26599880790E+02 -0.39503693714E+03  0.40089867050E+03  0.00000000000E+00 0. -1.
        -12    1    3    3    0    0  0.34554210490E+01  0.89630704247E+02 -0.54895138122E+03  0.55623126667E+03  0.00000000000E+00 0.  1.
          5    1    4    4  501    0 -0.44712797932E+02  0.24540143208E+02 -0.23915359238E+02  0.56487783945E+02  0.41800000000E+01 0.  1.
         -5    1    4    4    0  501 -0.55675814485E+02 -0.11968475075E+03 -0.44187334280E+01  0.13214096067E+03  0.41800000000E+01 0.  1.
</event>
<event>
11    1  0.7577197E-009  0.1399124E+03  0.7561462E-02  0.1107656E+00
         22   -1    0    0    0    0  0.00000000000E+00  0.00000000000E+00  0.46738505666E+03  0.46738505666E+03  0.00000000000E+00 0.  1.
         22   -1    0    0    0    0 -0.00000000000E+00 -0.00000000000E+00 -0.15596851455E+03  0.15596851455E+03  0.00000000000E+00 0. -1.
        -24    2    1    2    0    0  0.35105491925E+02  0.50416068786E+02 -0.96606351425E+02  0.14010798327E+03  0.80766851399E+02 0.  0.
         25    2    1    2    0    0 -0.73359651387E+02 -0.36920835806E+02  0.15962770054E+03  0.21879892468E+03  0.12508868891E+03 0.  0.
         24    2    1    2    0    0  0.38254159462E+02 -0.13495232980E+02  0.24839519299E+03  0.26444666325E+03  0.81156415492E+02 0.  0.
        -13    1    5    5    0    0 -0.10257343587E+02 -0.10138421389E+02  0.17972405010E+03  0.18030178832E+03  0.00000000000E+00 0.  1.
         14    1    5    5    0    0  0.48511503049E+02 -0.33568115907E+01  0.68671142889E+02  0.84144874935E+02  0.00000000000E+00 0. -1.
         11    1    3    3    0    0  0.62531845476E+01  0.65053434843E+02 -0.81317710328E+02  0.10432459784E+03  0.00000000000E+00 0. -1.
        -12    1    3    3    0    0  0.28852307377E+02 -0.14637366057E+02 -0.15288641097E+02  0.35783385427E+02  0.00000000000E+00 0.  1.
          5    1    4    4  501    0 -0.30497096330E+02 -0.52291804656E+02  0.89502825943E+01  0.61335843332E+02  0.41800000000E+01 0. -1.
         -5    1    4    4    0  501 -0.42862555057E+02  0.15370968849E+02  0.15067741795E+03  0.15746308135E+03  0.41800000000E+01 0. -1.
</event>
<event>
11    1  0.7577197E-009  0.2604598E+03  0.7561462E-02  0.1018470E+00
         22   -1    0    0    0    0  0.00000000000E+00  0.00000000000E+00  0.60079355313E+03  0.60079355313E+03  0.00000000000E+00 0.  1.
         22   -1    0    0    0    0 -0.00000000000E+00 -0.00000000000E+00 -0.89543182063E+03  0.89543182063E+03  0.00000000000E+00 0. -1.
         24    2    1    2    0    0  0.19449487481E+03 -0.91916754271E+02 -0.63010327565E+03  0.67030397253E+03  0.77461807067E+02 0.  0.
         25    2    1    2    0    0 -0.28852939723E+03  0.10295174404E+03 -0.12118626027E+03  0.35239413888E+03  0.12508894745E+03 0.  0.
        -24    2    1    2    0    0  0.94034522416E+02 -0.11034989773E+02  0.45665126841E+03  0.47352726235E+03  0.82057448399E+02 0.  0.
        -13    1    3    3    0    0  0.21329110606E+02  0.13280790559E+02 -0.90188937385E+02  0.93623473465E+02  0.00000000000E+00 0.  1.
         14    1    3    3    0    0  0.17316576420E+03 -0.10519754483E+03 -0.53991433827E+03  0.57668049906E+03  0.00000000000E+00 0. -1.
         11    1    5    5    0    0  0.18971560970E+02 -0.12109674503E+02  0.18912829688E+02  0.29398290239E+02  0.00000000000E+00 0. -1.
        -12    1    5    5    0    0  0.75062961446E+02  0.10746847301E+01  0.43773843873E+03  0.44412897211E+03  0.00000000000E+00 0.  1.
          5    1    4    4  501    0 -0.11627413765E+03  0.10754053924E+03 -0.53768924839E+02  0.16731172208E+03  0.41800000000E+01 0. -1.
         -5    1    4    4    0  501 -0.17225525957E+03 -0.45887951995E+01 -0.67417335427E+02  0.18508241680E+03  0.41800000000E+01 0. -1.
</event>
<event>
11    1  0.7577197E-009  0.1841184E+03  0.7561462E-02  0.1066359E+00
         22   -1    0    0    0    0  0.00000000000E+00  0.00000000000E+00  0.10610554604E+04  0.10610554604E+04  0.00000000000E+00 0.  1.
         22   -1    0    0    0    0 -0.00000000000E+00 -0.00000000000E+00 -0.20283751527E+03  0.20283751527E+03  0.00000000000E+00 0.  1.
         24    2    1    2    0    0 -0.12279330101E+03 -0.90276937450E+01 -0.80305631182E+02  0.16770403773E+03  0.80721470783E+02 0.  0.
         25    2    1    2    0    0  0.18424110333E+03 -0.51358964088E+02  0.10043743607E+03  0.24963337995E+03  0.12508644400E+03 0.  0.
        -24    2    1    2    0    0 -0.61447802325E+02  0.60386657833E+02  0.83808614020E+03  0.84655555794E+03  0.82737859731E+02 0.  0.
        -11    1    3    3    0    0 -0.10845844660E+03 -0.25651791247E+01 -0.96453001862E+02  0.14516541031E+03  0.00000000000E+00 0.  1.
         12    1    3    3    0    0 -0.14334854409E+02 -0.64625146203E+01  0.16147370680E+02  0.22538627421E+02  0.00000000000E+00 0. -1.
         11    1    5    5    0    0 -0.65800291595E+02  0.12705779869E+02  0.36935650072E+03  0.37538692018E+03  0.00000000000E+00 0. -1.
        -12    1    5    5    0    0  0.43524892703E+01  0.47680877963E+02  0.46872963948E+03  0.47116863777E+03  0.00000000000E+00 0.  1.
          5    1    4    4  501    0  0.13350279241E+02  0.23401973402E-01  0.66478452800E+02  0.67934435966E+02  0.41800000000E+01 0.  1.
         -5    1    4    4    0  501  0.17089082409E+03 -0.51382366061E+02  0.33958983267E+02  0.18169894398E+03  0.41800000000E+01 0.  1.
</event>
<event>
11    1  0.7577197E-009  0.3352898E+03  0.7561462E-02  0.9862713E-01
         22   -1    0    0    0    0  0.00000000000E+00  0.00000000000E+00  0.72312641205E+03  0.72312641205E+03  0.00000000000E+00 0. -1.
         22   -1    0    0    0    0 -0.00000000000E+00 -0.00000000000E+00 -0.28686554259E+03  0.28686554259E+03  0.00000000000E+00 0. -1.
        -24    2    1    2    0    0  0.68096242564E+02  0.14174794506E+02 -0.11087663444E+03  0.15486882498E+03  0.82781047553E+02 0.  0.
         25    2    1    2    0    0  0.92318251348E+02  0.27520977897E+03  0.21460249490E+03  0.38205412602E+03  0.12509213574E+03 0.  0.
         24    2    1    2    0    0 -0.16041449391E+03 -0.28938457347E+03  0.33253500900E+03  0.47306900364E+03  0.61143346116E+02 0.  0.
        -11    1    5    5    0    0 -0.63126847385E+01 -0.56210177367E+02  0.65039789574E+02  0.86195175364E+02  0.00000000000E+00 0.  1.
         12    1    5    5    0    0 -0.15410180917E+03 -0.23317439611E+03  0.26749521942E+03  0.38687382827E+03  0.00000000000E+00 0. -1.
         13    1    3    3    0    0  0.60797543400E+02 -0.94941513427E+01 -0.11435238100E+03  0.12985741116E+03  0.00000000000E+00 0. -1.
        -14    1    3    3    0    0  0.72986991638E+01  0.23668945849E+02  0.34757465541E+01  0.25011413819E+02  0.00000000000E+00 0.  1.
          5    1    4    4  501    0  0.45538300505E+02  0.10514114066E+02  0.25796471129E+02  0.53546369907E+02  0.41800000000E+01 0.  1.
         -5    1    4    4    0  501  0.46779950843E+02  0.26469566490E+03  0.18880602377E+03  0.32850775612E+03  0.41800000000E+01 0.  1.
</event>
<event>
11    1  0.7577197E-009  0.1719962E+03  0.7561462E-02  0.1076307E+00
         22   -1    0    0    0    0  0.00000000000E+00  0.00000000000E+00  0.76772524696E+03  0.76772524696E+03  0.00000000000E+00 0. -1.
         22   -1    0    0    0    0 -0.00000000000E+00 -0.00000000000E+00 -0.47071985554E+03  0.47071985554E+03  0.00000000000E+00 0. -1.
        -24    2    1    2    0    0  0.10967097981E+03 -0.45565524169E+02 -0.35726071101E+03  0.38497860571E+03  0.80432396564E+02 0.  0.
         25    2    1    2    0    0 -0.77162266638E+02  0.10365425640E+03 -0.10875120887E+02  0.18018312049E+03  0.12509783528E+03 0.  0.
         24    2    1    2    0    0 -0.32508713167E+02 -0.58088732232E+02  0.66514122332E+03  0.67328337630E+03  0.80414803317E+02 0.  0.
        -11    1    5    5    0    0 -0.16049909622E+02 -0.45675071581E+02  0.14770683752E+03  0.15543848177E+03  0.00000000000E+00 0.  1.
         12    1    5    5    0    0 -0.16458803545E+02 -0.12413660651E+02  0.51743438580E+03  0.51784489453E+03  0.00000000000E+00 0. -1.
         11    1    3    3    0    0 -0.23378675048E+00 -0.17090267018E+02 -0.10394254315E+02  0.20004309679E+02  0.00000000000E+00 0. -1.
        -12    1    3    3    0    0  0.10990476656E+03 -0.28475257152E+02 -0.34686645670E+03  0.36497429603E+03  0.00000000000E+00 0.  1.
          5    1    4    4  501    0 -0.67709962359E+02  0.78203382728E+01 -0.40436488151E+02  0.79362325239E+02  0.41800000000E+01 0.  1.
         -5    1    4    4    0  501 -0.94523042787E+01  0.95833918129E+02  0.29561367264E+02  0.10082079525E+03  0.41800000000E+01 0.  1.
</event>
<event>
11    1  0.7577197E-009  0.1318539E+03  0.7561462E-02  0.1117012E+00
         22   -1    0    0    0    0  0.00000000000E+00  0.00000000000E+00  0.95117268178E+02  0.95117268178E+02  0.00000000000E+00 0.  1.
         22   -1    0    0    0    0 -0.00000000000E+00 -0.00000000000E+00 -0.11459993550E+04  0.11459993550E+04  0.00000000000E+00 0.  1.
        -24    2    1    2    0    0  0.18270053932E+02  0.38992611335E+02 -0.79218809712E+03  0.79734631494E+03  0.79655170109E+02 0.  0.
         25    2    1    2    0    0 -0.38697904007E+02 -0.42965648354E+00 -0.31023735705E+03  0.33673876261E+03  0.12509222261E+03 0.  0.
         24    2    1    2    0    0  0.20427850075E+02 -0.38562954851E+02  0.51543367379E+02  0.10703154559E+03  0.83033935747E+02 0.  0.
        -13    1    5    5    0    0  0.40742962141E+02 -0.47507125389E+02  0.56468556858E+02  0.84294803164E+02  0.00000000000E+00 0.  1.
         14    1    5    5    0    0 -0.20315112066E+02  0.89441705375E+01 -0.49251894797E+01  0.22736742429E+02  0.00000000000E+00 0. -1.
         11    1    3    3    0    0 -0.46150261370E+01 -0.13860181005E+01 -0.58514241133E+03  0.58516225190E+03  0.00000000000E+00 0. -1.
        -12    1    3    3    0    0  0.22885080069E+02  0.40378629435E+02 -0.20704568579E+03  0.21218406304E+03  0.00000000000E+00 0.  1.
          5    1    4    4  501    0 -0.57115310046E+02  0.28518224312E+02 -0.73294706088E+02  0.97288406813E+02  0.41800000000E+01 0.  1.
         -5    1    4    4    0  501  0.18417406040E+02 -0.28947880795E+02 -0.23694265096E+03  0.23945035580E+03  0.41800000000E+01 0.  1.
</event>
<event>
11    1  0.7577197E-009  0.2828237E+03  0.7561462E-02  0.1007735E+00
         22   -1    0    0    0    0  0.00000000000E+00  0.00000000000E+00  0.97291103890E+03  0.97291103890E+03  0.00000000000E+00 0. -1.
         22   -1    0    0    0    0 -0.00000000000E+00 -0.00000000000E+00 -0.41368732794E+03  0.41368732794E+03  0.00000000000E+00 0. -1.
        -24    2    1    2    0    0  0.18492041401E+03  0.38257489657E+01 -0.12802048039E+03  0.23925584847E+03  0.81510255538E+02 0.  0.
         25    2    1    2    0    0 -0.11955631830E+03 -0.25267289411E+03 -0.94404719918E+02  0.32046830182E+03  0.12510146549E+03 0.  0.
         24    2    1    2    0    0 -0.65364095704E+02  0.24884714514E+03  0.78164891128E+03  0.82687421655E+03  0.80923314534E+02 0.  0.
        -11    1    5    5    0    0 -0.24848076188E+02  0.21611798429E+03  0.62212101045E+03  0.65905914883E+03  0.00000000000E+00 0.  1.
         12    1    5    5    0    0 -0.40516019517E+02  0.32729160853E+02  0.15952790083E+03  0.16781506771E+03  0.00000000000E+00 0. -1.
         13    1    3    3    0    0  0.17253232095E+03 -0.19144684429E+02 -0.12281455833E+03  0.21264368426E+03  0.00000000000E+00 0. -1.
        -14    1    3    3    0    0  0.12388093052E+02  0.22970433395E+02 -0.52059220583E+01  0.26612164216E+02  0.00000000000E+00 0.  1.
          5    1    4    4  501    0 -0.50952095356E+02 -0.58820976927E+02  0.25982649142E+02  0.82149825346E+02  0.41800000000E+01 0.  1.
         -5    1    4    4    0  501 -0.68604222946E+02 -0.19385191718E+03 -0.12038736906E+03  0.23831847648E+03  0.41800000000E+01 0.  1.
</event>
<event>
11    1  0.7577197E-009  0.1316925E+03  0.7561462E-02  0.1117207E+00
         22   -1    0    0    0    0  0.00000000000E+00  0.00000000000E+00  0.60975865535E+03  0.60975865535E+03  0.00000000000E+00 0.  1.
         22   -1    0    0    0    0 -0.00000000000E+00 -0.00000000000E+00 -0.23343893909E+04  0.23343893909E+04  0.00000000000E+00 0. -1.
         24    2    1    2    0    0  0.49066895189E+02  0.19742908321E+02 -0.17137147924E+04  0.17156506519E+04  0.61979246685E+02 0.  0.
         25    2    1    2    0    0 -0.20250931154E+02 -0.49305620855E+02 -0.60886593856E+03  0.62386405472E+03  0.12508990035E+03 0.  0.
        -24    2    1    2    0    0 -0.28815964035E+02  0.29562712534E+02  0.59794999545E+03  0.60463333959E+03  0.79579925365E+02 0.  0.
        -11    1    3    3    0    0  0.17242090199E+02 -0.21089636297E+02 -0.40690390089E+03  0.40781472141E+03  0.00000000000E+00 0.  1.
         12    1    3    3    0    0  0.31824804990E+02  0.40832544618E+02 -0.13068108916E+04  0.13078359305E+04  0.00000000000E+00 0. -1.
         13    1    5    5    0    0  0.27991067017E+01 -0.19621548600E+02  0.53509829934E+02  0.57062615322E+02  0.00000000000E+00 0. -1.
        -14    1    5    5    0    0 -0.31615070737E+02  0.49184261134E+02  0.54444016552E+03  0.54757072426E+03  0.00000000000E+00 0.  1.
          5    1    4    4  501    0 -0.87316661262E+01 -0.55877582483E+02 -0.60721921402E+03  0.60986161750E+03  0.41800000000E+01 0.  1.
         -5    1    4    4    0  501 -0.11519265027E+02  0.65719616279E+01 -0.16467245366E+01  0.14002437220E+02  0.41800000000E+01 0.  1.
</event>
<event>
11    1  0.7577197E-009  0.1383025E+03  0.7561462E-02  0.1109469E+00
         22   -1    0    0    0    0  0.00000000000E+00  0.00000000000E+00  0.17550959446E+04  0.17550959446E+04  0.00000000000E+00 0.  1.
         22   -1    0    0    0    0 -0.00000000000E+00 -0.00000000000E+00 -0.27373672449E+03  0.27373672449E+03  0.00000000000E+00 0. -1.
        -24    2    1    2    0    0  0.33897147538E+02 -0.50786696508E+02 -0.23995632993E+03  0.26038605761E+03  0.80582588499E+02 0.  0.
         25    2    1    2    0    0 -0.88699401498E+01  0.20614485958E+02  0.15978296545E+03  0.20416225265E+03  0.12509195213E+03 0.  0.
         24    2    1    2    0    0 -0.25027207388E+02  0.30172210550E+02  0.15615325846E+04  0.15642843588E+04  0.84052478520E+02 0.  0.
        -11    1    5    5    0    0 -0.45790122485E+02  0.42160899149E+02  0.13427722921E+04  0.13442141590E+04  0.00000000000E+00 0.  1.
         12    1    5    5    0    0  0.20762915097E+02 -0.11988688599E+02  0.21876029242E+03  0.22007019980E+03  0.00000000000E+00 0. -1.
         11    1    3    3    0    0  0.11143790145E+01 -0.34174777471E+02 -0.21057669154E+03  0.21333471418E+03  0.00000000000E+00 0. -1.
        -12    1    3    3    0    0  0.32782768523E+02 -0.16611919037E+02 -0.29379638393E+02  0.47051343426E+02  0.00000000000E+00 0.  1.
          5    1    4    4  501    0  0.35212522062E+02  0.57524104284E+02  0.10342539205E+03  0.12354443898E+03  0.41800000000E+01 0.  1.
         -5    1    4    4    0  501 -0.44082462212E+02 -0.36909618327E+02  0.56357573406E+02  0.80617813663E+02  0.41800000000E+01 0.  1.
</event>
<event>
11    1  0.7577197E-009  0.1296804E+03  0.7561462E-02  0.1119662E+00
         22   -1    0    0    0    0  0.00000000000E+00  0.00000000000E+00  0.41121220308E+03  0.41121220308E+03  0.00000000000E+00 0.  1.
         22   -1    0    0    0    0 -0.00000000000E+00 -0.00000000000E+00 -0.30207889566E+03  0.30207889566E+03  0.00000000000E+00 0.  1.
         24    2    1    2    0    0  0.31205195931E+01  0.13512478932E+02 -0.25979719932E+03  0.27257901112E+03  0.81316712896E+02 0.  0.
         25    2    1    2    0    0  0.30377316406E+02 -0.20222088560E+02  0.12038004567E+03  0.17739930949E+03  0.12508974937E+03 0.  0.
        -24    2    1    2    0    0 -0.33497835999E+02  0.67096096281E+01  0.24855046108E+03  0.26331277813E+03  0.79932243473E+02 0.  0.
        -13    1    3    3    0    0  0.28155443575E+02 -0.19411008239E+02 -0.17404780226E+03  0.17737574162E+03  0.00000000000E+00 0.  1.
         14    1    3    3    0    0 -0.25034923981E+02  0.32923487171E+02 -0.85749397061E+02  0.95203269495E+02  0.00000000000E+00 0. -1.
         11    1    5    5    0    0 -0.31952406987E+02 -0.29464626617E+02  0.81310125066E+02  0.92197922819E+02  0.00000000000E+00 0. -1.
        -12    1    5    5    0    0 -0.15454290121E+01  0.36174236245E+02  0.16724033601E+03  0.17111485531E+03  0.00000000000E+00 0.  1.
          5    1    4    4  501    0  0.32582506366E+02 -0.70245807846E+02  0.89500561313E+02  0.11842261657E+03  0.41800000000E+01 0.  1.
         -5    1    4    4    0  501 -0.22051899602E+01  0.50023719285E+02  0.30879484353E+02  0.58976692920E+02  0.41800000000E+01 0.  1.
</event>
<event>
11    1  0.7577197E-009  0.1379728E+03  0.7561462E-02  0.1109843E+00
         22   -1    0    0    0    0  0.00000000000E+00  0.00000000000E+00  0.51705320124E+02  0.51705320124E+02  0.00000000000E+00 0.  1.
         22   -1    0    0    0    0 -0.00000000000E+00 -0.00000000000E+00 -0.45247446843E+04  0.45247446843E+04  0.00000000000E+00 0.  1.
        -24    2    1    2    0    0  0.23066593560E+02  0.23294011788E+02 -0.40023796838E+04  0.40033766139E+04  0.83105359177E+02 0.  0.
         25    2    1    2    0    0 -0.29151722196E+02  0.36983114163E+02 -0.45101395131E+03  0.47040271859E+03  0.12509020639E+03 0.  0.
         24    2    1    2    0    0  0.60851286358E+01 -0.60277125950E+02 -0.19645729035E+02  0.10267067191E+03  0.80529196551E+02 0.  0.
        -11    1    5    5    0    0 -0.29739404116E+02  0.87489402614E+00 -0.32779537630E+01  0.29932299905E+02  0.00000000000E+00 0.  1.
         12    1    5    5    0    0  0.35824532752E+02 -0.61152019976E+02 -0.16367775272E+02  0.72738372001E+02  0.00000000000E+00 0. -1.
         13    1    3    3    0    0  0.20005067491E+02 -0.19228205239E+02 -0.52284484216E+03  0.52358061039E+03  0.00000000000E+00 0. -1.
        -14    1    3    3    0    0  0.30615260692E+01  0.42522217026E+02 -0.34795348417E+04  0.34797960035E+04  0.00000000000E+00 0.  1.
          5    1    4    4  501    0 -0.71996446984E+02  0.21351365335E+02 -0.17300522248E+03  0.18864688862E+03  0.41800000000E+01 0. -1.
         -5    1    4    4    0  501  0.42844724788E+02  0.15631748828E+02 -0.27800872884E+03  0.28175582997E+03  0.41800000000E+01 0. -1.
</event>
<event>
11    1  0.7577197E-009  0.1446149E+03  0.7561462E-02  0.1102512E+00
         22   -1    0    0    0    0  0.00000000000E+00  0.00000000000E+00  0.38364891265E+03  0.38364891265E+03  0.00000000000E+00 0.  1.
         22   -1    0    0    0    0 -0.00000000000E+00 -0.00000000000E+00 -0.57086094641E+03  0.57086094641E+03  0.00000000000E+00 0.  1.
         24    2    1    2    0    0  0.11678108546E+02 -0.30922528597E+02 -0.46182445818E+03  0.47118768523E+03  0.87426675251E+02 0.  0.
         25    2    1    2    0    0 -0.28652413434E+02 -0.41992277466E+02 -0.47881184922E+02  0.14326242803E+03  0.12508878148E+03 0.  0.
        -24    2    1    2    0    0  0.16974304887E+02  0.72914806063E+02  0.32249360934E+03  0.34005974580E+03  0.77677581565E+02 0.  0.
        -13    1    3    3    0    0 -0.31810665353E+02  0.10401057350E+01 -0.89902045661E+02  0.95369691538E+02  0.00000000000E+00 0.  1.
         14    1    3    3    0    0  0.43488773899E+02 -0.31962634332E+02 -0.37192241252E+03  0.37581799369E+03  0.00000000000E+00 0. -1.
         11    1    5    5    0    0  0.66673634722E+00 -0.16739278168E+02  0.51175967193E+02  0.53848190212E+02  0.00000000000E+00 0. -1.
        -12    1    5    5    0    0  0.16307568540E+02  0.89654084231E+02  0.27131764215E+03  0.28621155559E+03  0.00000000000E+00 0.  1.
          5    1    4    4  501    0 -0.66115626975E+02 -0.26776273408E+02  0.10397516612E+02  0.72206825852E+02  0.41800000000E+01 0.  1.
         -5    1    4    4    0  501  0.37463213541E+02 -0.15216004058E+02 -0.58278701534E+02  0.71055602177E+02  0.41800000000E+01 0.  1.
</event>
<event>
11    1  0.7577197E-009  0.1746582E+03  0.7561462E-02  0.1074048E+00
         22   -1    0    0    0    0  0.00000000000E+00  0.00000000000E+00  0.20254387007E+04  0.20254387007E+04  0.00000000000E+00 0.  1.
         22   -1    0    0    0    0 -0.00000000000E+00 -0.00000000000E+00 -0.23818815324E+03  0.23818815324E+03  0.00000000000E+00 0.  1.
        -24    2    1    2    0    0  0.37415621635E+02 -0.36514263506E+02 -0.12937132298E+03  0.16164788681E+03  0.81608087326E+02 0.  0.
         25    2    1    2    0    0  0.78016409230E+02  0.77734420694E+02 -0.12698793700E+02  0.16714443860E+03  0.12508718449E+03 0.  0.
         24    2    1    2    0    0 -0.11543203086E+03 -0.41220157188E+02  0.19293206641E+04  0.19348345285E+04  0.79263942861E+02 0.  0.
        -13    1    5    5    0    0 -0.12185407456E+03 -0.22409258698E+02  0.15245823999E+04  0.15296084742E+04  0.00000000000E+00 0.  1.
         14    1    5    5    0    0  0.64220436965E+01 -0.18810898490E+02  0.40473826423E+03  0.40522605430E+03  0.00000000000E+00 0. -1.
         11    1    3    3    0    0  0.54038047340E+02 -0.24316358995E+02 -0.43958273310E+02  0.73781607921E+02  0.00000000000E+00 0. -1.
        -12    1    3    3    0    0 -0.16622425705E+02 -0.12197904511E+02 -0.85413049672E+02  0.87866278885E+02  0.00000000000E+00 0.  1.
          5    1    4    4  501    0  0.38841514852E+02  0.10353355768E+03  0.16279856575E+02  0.11184975178E+03  0.41800000000E+01 0.  1.
         -5    1    4    4    0  501  0.39174894378E+02 -0.25799136990E+02 -0.28978650275E+02  0.55294686821E+02  0.41800000000E+01 0.  1.
</event>
<event>
11    1  0.7577197E-009  0.1363043E+03  0.7561462E-02  0.1111757E+00
         22   -1    0    0    0    0  0.00000000000E+00  0.00000000000E+00  0.24166810876E+03  0.24166810876E+03  0.00000000000E+00 0.  1.
         22   -1    0    0    0    0 -0.00000000000E+00 -0.00000000000E+00 -0.14842335015E+04  0.14842335015E+04  0.00000000000E+00 0.  1.
         24    2    1    2    0    0  0.38840486674E+02  0.37319879496E+02 -0.12739235746E+04  0.12776251324E+04  0.80890964328E+02 0.  0.
         25    2    1    2    0    0 -0.73781229977E+02 -0.51429310876E+01 -0.17197515390E+03  0.22515144060E+03  0.12509035938E+03 0.  0.
        -24    2    1    2    0    0  0.34940743303E+02 -0.32176948409E+02  0.20333333579E+03  0.22312503726E+03  0.78639209424E+02 0.  0.
        -11    1    3    3    0    0  0.10295261334E+02 -0.22573553418E+02 -0.58178705215E+03  0.58231583507E+03  0.00000000000E+00 0.  1.
         12    1    3    3    0    0  0.28545225341E+02  0.59893432915E+02 -0.69213652249E+03  0.69530929733E+03  0.00000000000E+00 0. -1.
         13    1    5    5    0    0  0.29352049706E+01  0.20263705118E+02  0.16030814773E+02  0.26004234187E+02  0.00000000000E+00 0. -1.
        -14    1    5    5    0    0  0.32005538332E+02 -0.52440653527E+02  0.18730252102E+03  0.19712080308E+03  0.00000000000E+00 0.  1.
          5    1    4    4  501    0  0.31319007759E+02 -0.30785063350E+01 -0.77513596610E+02  0.83762685652E+02  0.41800000000E+01 0.  1.
         -5    1    4    4    0  501 -0.10510023774E+03 -0.20644247526E+01 -0.94461557288E+02  0.14138875495E+03  0.41800000000E+01 0.  1.
</event>
<event>
11    1  0.7577197E-009  0.1310239E+03  0.7561462E-02  0.1118017E+00
         22   -1    0    0    0    0  0.00000000000E+00  0.00000000000E+00  0.18346893679E+03  0.18346893679E+03  0.00000000000E+00 0.  1.
         22   -1    0    0    0    0 -0.00000000000E+00 -0.00000000000E+00 -0.13524033215E+04  0.13524033215E+04  0.00000000000E+00 0. -1.
         24    2    1    2    0    0 -0.14128782608E+02 -0.19288332912E+02 -0.90544524613E+03  0.90928196732E+03  0.79943355357E+02 0.  0.
         25    2    1    2    0    0 -0.27501389960E+01  0.54096671661E+02 -0.42262300835E+03  0.44406285244E+03  0.12509035365E+03 0.  0.
        -24    2    1    2    0    0  0.16878921604E+02 -0.34808338749E+02  0.15913386976E+03  0.18252743855E+03  0.80598752327E+02 0.  0.
        -13    1    3    3    0    0  0.41183413818E+01  0.21137807227E+02 -0.86639180904E+02  0.89275502226E+02  0.00000000000E+00 0.  1.
         14    1    3    3    0    0 -0.18247123989E+02 -0.40426140140E+02 -0.81880606523E+03  0.82000646509E+03  0.00000000000E+00 0. -1.
         11    1    5    5    0    0  0.18089437224E+02 -0.46553764398E+02  0.43323266747E+02  0.66116459073E+02  0.00000000000E+00 0. -1.
        -12    1    5    5    0    0 -0.12105156206E+01  0.11745425650E+02  0.11581060301E+03  0.11641097947E+03  0.00000000000E+00 0.  1.
          5    1    4    4  501    0 -0.20175790154E+02  0.22156749018E+02 -0.13209161336E+02  0.33014214796E+02  0.41800000000E+01 0. -1.
         -5    1    4    4    0  501  0.17425651158E+02  0.31939922642E+02 -0.40941384702E+03  0.41104863764E+03  0.41800000000E+01 0. -1.
</event>
<event>
11    1  0.7577197E-009  0.1423757E+03  0.7561462E-02  0.1104934E+00
         22   -1    0    0    0    0  0.00000000000E+00  0.00000000000E+00  0.10717779644E+04  0.10717779644E+04  0.00000000000E+00 0. -1.
         22   -1    0    0    0    0 -0.00000000000E+00 -0.00000000000E+00 -0.54645381603E+02  0.54645381603E+02  0.00000000000E+00 0.  1.
        -24    2    1    2    0    0  0.89689179647E+01  0.16988770374E+02  0.14133069830E+02  0.84826153930E+02  0.81404378994E+02 0.  0.
         25    2    1    2    0    0 -0.58314126211E+02  0.31275184658E+02  0.31252587901E+03  0.34307281429E+03  0.12509139206E+03 0.  0.
         24    2    1    2    0    0  0.49345208246E+02 -0.48263955033E+02  0.69047363401E+03  0.69852437783E+03  0.80113096492E+02 0.  0.
        -13    1    5    5    0    0  0.12967688386E+02 -0.54315985337E+02  0.56474134989E+03  0.56749553256E+03  0.00000000000E+00 0.  1.
         14    1    5    5    0    0  0.36377519860E+02  0.60520303041E+01  0.12573228413E+03  0.13102884527E+03  0.00000000000E+00 0. -1.
         11    1    3    3    0    0 -0.34457633465E+02 -0.14749916973E+01 -0.30092665208E+01  0.34620222263E+02  0.00000000000E+00 0. -1.
        -12    1    3    3    0    0  0.43426551430E+02  0.18463762072E+02  0.17142336351E+02  0.50205931667E+02  0.00000000000E+00 0.  1.
          5    1    4    4  501    0 -0.19859797732E+02  0.76441177025E+02  0.14291529934E+03  0.16333989193E+03  0.41800000000E+01 0. -1.
         -5    1    4    4    0  501 -0.38454328479E+02 -0.45165992367E+02  0.16961057967E+03  0.17973292236E+03  0.41800000000E+01 0. -1.
</event>
<event>
11    1  0.7577197E-009  0.1332612E+03  0.7561462E-02  0.1115326E+00
         22   -1    0    0    0    0  0.00000000000E+00  0.00000000000E+00  0.14457261859E+03  0.14457261859E+03  0.00000000000E+00 0. -1.
         22   -1    0    0    0    0 -0.00000000000E+00 -0.00000000000E+00 -0.58337064551E+03  0.58337064551E+03  0.00000000000E+00 0.  1.
        -24    2    1    2    0    0  0.36943678824E+02  0.27373046109E+02 -0.35565024491E+03  0.36727639003E+03  0.79314128064E+02 0.  0.
         25    2    1    2    0    0 -0.48251036689E+02 -0.10198225784E+02 -0.18359895493E+03  0.22757107613E+03  0.12509137496E+03 0.  0.
         24    2    1    2    0    0  0.11307357865E+02 -0.17174820325E+02  0.10045117293E+03  0.13309579794E+03  0.84860017036E+02 0.  0.
        -13    1    5    5    0    0 -0.29585319373E+02  0.66684249301E+01  0.11692412596E+02  0.32503407911E+02  0.00000000000E+00 0.  1.
         14    1    5    5    0    0  0.40892677238E+02 -0.23843245255E+02  0.88758760332E+02  0.10059239003E+03  0.00000000000E+00 0. -1.
         13    1    3    3    0    0  0.10026610340E+01 -0.15377786022E+02 -0.13168549352E+02  0.20270479129E+02  0.00000000000E+00 0. -1.
        -14    1    3    3    0    0  0.35941017790E+02  0.42750832131E+02 -0.34248169556E+03  0.34700591091E+03  0.00000000000E+00 0.  1.
          5    1    4    4  501    0 -0.44448316628E+02  0.11147619467E+02 -0.35267805676E+01  0.46150112156E+02  0.41800000000E+01 0.  1.
         -5    1    4    4    0  501 -0.38027200615E+01 -0.21345845251E+02 -0.18007217436E+03  0.18142096398E+03  0.41800000000E+01 0.  1.
</event>
<event>
11    1  0.7577197E-009  0.1620097E+03  0.7561462E-02  0.1085202E+00
         22   -1    0    0    0    0  0.00000000000E+00  0.00000000000E+00  0.81783614871E+02  0.81783614871E+02  0.00000000000E+00 0. -1.
         22   -1    0    0    0    0 -0.00000000000E+00 -0.00000000000E+00 -0.19287382944E+04  0.19287382944E+04  0.00000000000E+00 0. -1.
        -24    2    1    2    0    0 -0.23444279238E+02 -0.26954666831E+02 -0.16539014933E+04  0.16562297681E+04  0.80191687198E+02 0.  0.
         25    2    1    2    0    0 -0.49312401820E+02  0.97182308825E+02 -0.11735329678E+03  0.20321260814E+03  0.12508978263E+03 0.  0.
         24    2    1    2    0    0  0.72756681058E+02 -0.70227641995E+02 -0.75699889393E+02  0.15107953304E+03  0.82880007906E+02 0.  0.
        -13    1    5    5    0    0  0.43738280938E+02  0.87574023825E+01 -0.39101151286E+02  0.59318035603E+02  0.00000000000E+00 0.  1.
         14    1    5    5    0    0  0.29018400120E+02 -0.78985044377E+02 -0.36598738108E+02  0.91761497437E+02  0.00000000000E+00 0. -1.
         13    1    3    3    0    0  0.16193354168E+02 -0.35070865249E+02 -0.11707592826E+04  0.11713963839E+04  0.00000000000E+00 0. -1.
        -14    1    3    3    0    0 -0.39637633406E+02  0.81161984186E+01 -0.48314221072E+03  0.48483338420E+03  0.00000000000E+00 0.  1.
          5    1    4    4  501    0 -0.20136562503E+01 -0.22241551895E+02 -0.56737653622E+02  0.61117715768E+02  0.41800000000E+01 0. -1.
         -5    1    4    4    0  501 -0.47298745570E+02  0.11942386072E+03 -0.60615643154E+02  0.14209489237E+03  0.41800000000E+01 0. -1.
</event>
<event>
11    1  0.7577197E-009  0.1526756E+03  0.7561462E-02  0.1094176E+00
         22   -1    0    0    0    0  0.00000000000E+00  0.00000000000E+00  0.59679678251E+02  0.59679678251E+02  0.00000000000E+00 0.  1.
         22   -1    0    0    0    0 -0.00000000000E+00 -0.00000000000E+00 -0.21083388413E+04  0.21083388413E+04  0.00000000000E+00 0.  1.
         24    2    1    2    0    0  0.35194081275E+02  0.76085638519E+02 -0.16443545395E+04  0.16481941167E+04  0.74928947667E+02 0.  0.
         25    2    1    2    0    0 -0.16057722044E+02 -0.13393192618E+03 -0.37085892270E+03  0.41398037348E+03  0.12509115790E+03 0.  0.
        -24    2    1    2    0    0 -0.19136359231E+02  0.57846287664E+02 -0.33445700836E+02  0.10584402931E+03  0.79824497458E+02 0.  0.
        -11    1    3    3    0    0  0.26846751505E+02  0.10139333172E+02 -0.10016923139E+04  0.10021033110E+04  0.00000000000E+00 0.  1.
         12    1    3    3    0    0  0.83473297702E+01  0.65946305346E+02 -0.64266222555E+03  0.64609080573E+03  0.00000000000E+00 0. -1.
         11    1    5    5    0    0  0.10012204896E+02  0.27592946554E+02 -0.52161054521E+02  0.59853074734E+02  0.00000000000E+00 0. -1.
        -12    1    5    5    0    0 -0.29148564127E+02  0.30253341110E+02  0.18715353685E+02  0.45990954573E+02  0.00000000000E+00 0.  1.
          5    1    4    4  501    0  0.21695214904E+02  0.16451787473E+02 -0.75557976037E+02  0.80422781621E+02  0.41800000000E+01 0. -1.
         -5    1    4    4    0  501 -0.37752936948E+02 -0.15038371366E+03 -0.29530094667E+03  0.33355759186E+03  0.41800000000E+01 0. -1.
</event>
<event>
11    1  0.7577197E-009  0.1526070E+03  0.7561462E-02  0.1094244E+00
         22   -1    0    0    0    0  0.00000000000E+00  0.00000000000E+00  0.33404548200E+03  0.33404548200E+03  0.00000000000E+00 0.  1.
         22   -1    0    0    0    0 -0.00000000000E+00 -0.00000000000E+00 -0.17464528810E+04  0.17464528810E+04  0.00000000000E+00 0.  1.
        -24    2    1    2    0    0  0.28811682629E+02  0.85553329258E+02 -0.15726365344E+04  0.15772076311E+04  0.79049079311E+02 0.  0.
         25    2    1    2    0    0 -0.73714815526E+02 -0.21686498871E+02 -0.12728604288E+03  0.19430145111E+03  0.12508852436E+03 0.  0.
         24    2    1    2    0    0  0.44903132897E+02 -0.63866830387E+02  0.28751517828E+03  0.30898928084E+03  0.81939822806E+02 0.  0.
        -13    1    5    5    0    0  0.43092153192E+02 -0.76348906243E+02  0.28183591258E+03  0.29515685791E+03  0.00000000000E+00 0.  1.
         14    1    5    5    0    0  0.18109797051E+01  0.12482075856E+02  0.56792657063E+01  0.13832422931E+02  0.00000000000E+00 0. -1.
         13    1    3    3    0    0  0.50286052927E+02  0.26954956320E+02 -0.67752252995E+03  0.67992060961E+03  0.00000000000E+00 0. -1.
        -14    1    3    3    0    0 -0.21474370297E+02  0.58598372937E+02 -0.89511400448E+03  0.89728702148E+03  0.00000000000E+00 0.  1.
          5    1    4    4  501    0  0.41464957768E+01  0.18672771101E+02  0.16649356427E+02  0.25700958684E+02  0.41800000000E+01 0. -1.
         -5    1    4    4    0  501 -0.77861311303E+02 -0.40359269972E+02 -0.14393539931E+03  0.16860049242E+03  0.41800000000E+01 0. -1.
</event>
<event>
11    1  0.7577197E-009  0.1736894E+03  0.7561462E-02  0.1074865E+00
         22   -1    0    0    0    0  0.00000000000E+00  0.00000000000E+00  0.25189441066E+04  0.25189441066E+04  0.00000000000E+00 0. -1.
         22   -1    0    0    0    0 -0.00000000000E+00 -0.00000000000E+00 -0.93468270787E+02  0.93468270787E+02  0.00000000000E+00 0. -1.
         24    2    1    2    0    0 -0.15472024500E+02 -0.10926354995E+03  0.83165540489E+01  0.14115747039E+03  0.87626248842E+02 0.  0.
         25    2    1    2    0    0  0.77081242149E+02  0.18814924799E+03  0.54842335566E+03  0.59812926177E+03  0.12509508121E+03 0.  0.
        -24    2    1    2    0    0 -0.61609217648E+02 -0.78885698038E+02  0.18687359262E+04  0.18731256453E+04  0.80044189243E+02 0.  0.
        -11    1    3    3    0    0 -0.35682570634E+02 -0.84096763461E+02  0.36433515219E+02  0.98350965948E+02  0.00000000000E+00 0.  1.
         12    1    3    3    0    0  0.20210546133E+02 -0.25166786489E+02 -0.28116961170E+02  0.42806504443E+02  0.00000000000E+00 0. -1.
         11    1    5    5    0    0 -0.33873024604E+02 -0.49867442566E+02  0.47478332454E+03  0.47859518268E+03  0.00000000000E+00 0. -1.
        -12    1    5    5    0    0 -0.27736193045E+02 -0.29018255472E+02  0.13939526016E+04  0.13945304626E+04  0.00000000000E+00 0.  1.
          5    1    4    4  501    0 -0.17078181150E+02 -0.74384533550E+01  0.24940033431E+02  0.31408160202E+02  0.41800000000E+01 0. -1.
         -5    1    4    4    0  501  0.94159423298E+02  0.19558770134E+03  0.52348332223E+03  0.56672110157E+03  0.41800000000E+01 0. -1.
</event>
<event>
11    1  0.7577197E-009  0.1274323E+03  0.7561462E-02  0.1122465E+00
         22   -1    0    0    0    0  0.00000000000E+00  0.00000000000E+00  0.14038153775E+04  0.14038153775E+04  0.00000000000E+00 0. -1.
         22   -1    0    0    0    0 -0.00000000000E+00 -0.00000000000E+00 -0.29986999123E+03  0.29986999123E+03  0.00000000000E+00 0.  1.
         24    2    1    2    0    0 -0.15819104770E+02 -0.81280244490E+01 -0.20990300798E+03  0.22534005137E+03  0.80015980486E+02 0.  0.
         25    2    1    2    0    0  0.34283932947E+02 -0.75414988727E+01 -0.28754252666E+02  0.13306440611E+03  0.12508823631E+03 0.  0.
        -24    2    1    2    0    0 -0.18464828177E+02  0.15669523322E+02  0.13426026469E+04  0.13452809112E+04  0.81316534646E+02 0.  0.
        -13    1    3    3    0    0  0.29994174126E+02 -0.14758953891E+02 -0.11482399070E+03  0.11959107844E+03  0.00000000000E+00 0.  1.
         14    1    3    3    0    0 -0.45813278896E+02  0.66309294421E+01 -0.95079017280E+02  0.10574897293E+03  0.00000000000E+00 0. -1.
         13    1    5    5    0    0  0.54002346590E+01  0.10526722289E+02  0.12302345737E+04  0.12302914617E+04  0.00000000000E+00 0. -1.
        -14    1    5    5    0    0 -0.23865062836E+02  0.51428010330E+01  0.11236807319E+03  0.11498944951E+03  0.00000000000E+00 0.  1.
          5    1    4    4  501    0  0.31361226123E+02  0.16423201781E+02  0.43807031102E+02  0.56478105799E+02  0.41800000000E+01 0.  1.
         -5    1    4    4    0  501  0.29227068247E+01 -0.23964700653E+02 -0.72561283768E+02  0.76586300306E+02  0.41800000000E+01 0.  1.
</event>
<event>
11    1  0.7577197E-009  0.2103046E+03  0.7561462E-02  0.1047467E+00
         22   -1    0    0    0    0  0.00000000000E+00  0.00000000000E+00  0.80460391183E+03  0.80460391183E+03  0.00000000000E+00 0.  1.
         22   -1    0    0    0    0 -0.00000000000E+00 -0.00000000000E+00 -0.10534869576E+04  0.10534869576E+04  0.00000000000E+00 0. -1.
         24    2    1    2    0    0 -0.21986083056E+02  0.16224266197E+03 -0.90135309547E+03  0.91951738432E+03  0.79175426397E+02 0.  0.
         25    2    1    2    0    0  0.23699186112E+02 -0.25525817317E+03  0.11027067694E+02  0.28545819034E+03  0.12508555400E+03 0.  0.
        -24    2    1    2    0    0 -0.17131030557E+01  0.93015511194E+02  0.64144298203E+03  0.65311529475E+03  0.80347177945E+02 0.  0.
        -11    1    3    3    0    0  0.36373143255E+01  0.32154834336E+02 -0.63828187854E+02  0.71562566970E+02  0.00000000000E+00 0.  1.
         12    1    3    3    0    0 -0.25623397382E+02  0.13008782764E+03 -0.83752490761E+03  0.84795481735E+03  0.00000000000E+00 0. -1.
         13    1    5    5    0    0 -0.37987324710E+02  0.55708134788E+02  0.28339650497E+03  0.29130741863E+03  0.00000000000E+00 0. -1.
        -14    1    5    5    0    0  0.36274221655E+02  0.37307376406E+02  0.35804647705E+03  0.36180787612E+03  0.00000000000E+00 0.  1.
          5    1    4    4  501    0 -0.45644023572E+02 -0.52990654415E+02  0.14579068969E+02  0.71564013269E+02  0.41800000000E+01 0. -1.
         -5    1    4    4    0  501  0.69343209684E+02 -0.20226751875E+03 -0.35520012749E+01  0.21389417707E+03  0.41800000000E+01 0. -1.
</event>
<event>
11    1  0.7577197E-009  0.2151124E+03  0.7561462E-02  0.1044323E+00
         22   -1    0    0    0    0  0.00000000000E+00  0.00000000000E+00  0.48725495885E+03  0.48725495885E+03  0.00000000000E+00 0. -1.
         22   -1    0    0    0    0 -0.00000000000E+00 -0.00000000000E+00 -0.16541107244E+04  0.16541107244E+04  0.00000000000E+00 0. -1.
         24    2    1    2    0    0 -0.10443394166E+03 -0.19415421955E+02 -0.15099845962E+04  0.15158530843E+04  0.80459216399E+02 0.  0.
         25    2    1    2    0    0  0.57244129279E+02  0.18856557884E+03  0.55307678488E+01  0.23348178759E+03  0.12509711380E+03 0.  0.
        -24    2    1    2    0    0  0.47189812378E+02 -0.16915015689E+03  0.33759806281E+03  0.39203081139E+03  0.94218103894E+02 0.  0.
        -13    1    3    3    0    0 -0.33498752089E+00 -0.15580721649E+02 -0.55602517080E+02  0.57745224992E+02  0.00000000000E+00 0.  1.
         14    1    3    3    0    0 -0.10409895414E+03 -0.38347003062E+01 -0.14543820791E+04  0.14581078593E+04  0.00000000000E+00 0. -1.
         11    1    5    5    0    0  0.56916708609E+01 -0.14936113215E+03  0.28750896798E+03  0.32404096898E+03  0.00000000000E+00 0. -1.
        -12    1    5    5    0    0  0.41498141517E+02 -0.19789024743E+02  0.50089094829E+02  0.67989842406E+02  0.00000000000E+00 0.  1.
          5    1    4    4  501    0  0.91942383394E+02  0.89733864248E+02  0.76212380500E+00  0.12854423943E+03  0.41800000000E+01 0.  1.
         -5    1    4    4    0  501 -0.34698254115E+02  0.98831714597E+02  0.47686440438E+01  0.10493754816E+03  0.41800000000E+01 0.  1.
</event>
<event>
11    1  0.7577197E-009  0.4661391E+03  0.7561462E-02  0.9472539E-01
         22   -1    0    0    0    0  0.00000000000E+00  0.00000000000E+00  0.11590809237E+04  0.11590809237E+04  0.00000000000E+00 0.  1.
         22   -1    0    0    0    0 -0.00000000000E+00 -0.00000000000E+00 -0.21525336866E+04  0.21525336866E+04  0.00000000000E+00 0.  1.
         24    2    1    2    0    0  0.37487130480E+03  0.25548559044E+03 -0.20603685773E+04  0.21112837743E+04  0.81234962219E+02 0.  0.
         25    2    1    2    0    0 -0.24318578274E+03 -0.24451464653E+03  0.55256867326E+03  0.66325605958E+03  0.12509885933E+03 0.  0.
        -24    2    1    2    0    0 -0.13168552206E+03 -0.10970943915E+02  0.51434714106E+03  0.53707477650E+03  0.80217801700E+02 0.  0.
        -11    1    3    3    0    0  0.23740374670E+03  0.18015734885E+03 -0.15046471891E+04  0.15338775613E+04  0.00000000000E+00 0.  1.
         12    1    3    3    0    0  0.13746755810E+03  0.75328241591E+02 -0.55572138816E+03  0.57740621296E+03  0.00000000000E+00 0. -1.
         11    1    5    5    0    0 -0.10176189359E+03 -0.18189627541E+02  0.47977182875E+03  0.49078238884E+03  0.00000000000E+00 0. -1.
        -12    1    5    5    0    0 -0.29923628468E+02  0.72186836260E+01  0.34575312313E+02  0.46292387663E+02  0.00000000000E+00 0.  1.
          5    1    4    4  501    0 -0.17540401018E+03 -0.18332973922E+03  0.49204673882E+03  0.55362787651E+03  0.41800000000E+01 0. -1.
         -5    1    4    4    0  501 -0.67781772562E+02 -0.61184907307E+02  0.60521934441E+02  0.10962818307E+03  0.41800000000E+01 0. -1.
</event>
<event>
11    1  0.7577197E-009  0.2580866E+03  0.7561462E-02  0.1019677E+00
         22   -1    0    0    0    0  0.00000000000E+00  0.00000000000E+00  0.14127567501E+04  0.14127567501E+04  0.00000000000E+00 0.  1.
         22   -1    0    0    0    0 -0.00000000000E+00 -0.00000000000E+00 -0.33639803184E+03  0.33639803184E+03  0.00000000000E+00 0. -1.
         24    2    1    2    0    0 -0.20986400427E+03  0.81032769879E+02 -0.21787464450E+03  0.32356537223E+03  0.81338670443E+02 0.  0.
         25    2    1    2    0    0  0.21177232594E+03 -0.89032883818E+02  0.20061198233E+03  0.32964918468E+03  0.12509614330E+03 0.  0.
        -24    2    1    2    0    0 -0.19083216682E+01  0.80001139392E+01  0.10936213804E+04  0.10959402250E+04  0.70778595533E+02 0.  0.
        -11    1    3    3    0    0 -0.23350118332E+02 -0.18448814818E+01  0.20678453965E+01  0.23513987292E+02  0.00000000000E+00 0.  1.
         12    1    3    3    0    0 -0.18651388594E+03  0.82877651360E+02 -0.21994248990E+03  0.30005138494E+03  0.00000000000E+00 0. -1.
         13    1    5    5    0    0  0.96023335970E+01  0.57206788159E+01  0.26581995229E+02  0.28836321662E+02  0.00000000000E+00 0. -1.
        -14    1    5    5    0    0 -0.11510655265E+02  0.22794351233E+01  0.10670393852E+04  0.10671039033E+04  0.00000000000E+00 0.  1.
          5    1    4    4  501    0  0.21115996476E+03 -0.58541064097E+02  0.13561063608E+03  0.25772718894E+03  0.41800000000E+01 0.  1.
         -5    1    4    4    0  501  0.61236118472E+00 -0.30491819721E+02  0.65001346257E+02  0.71921995741E+02  0.41800000000E+01 0.  1.
</event>
<event>
11    1  0.7577197E-009  0.1497129E+03  0.7561462E-02  0.1097172E+00
         22   -1    0    0    0    0  0.00000000000E+00  0.00000000000E+00  0.15611005849E+04  0.15611005849E+04  0.00000000000E+00 0.  1.
         22   -1    0    0    0    0 -0.00000000000E+00 -0.00000000000E+00 -0.78170614978E+02  0.78170614978E+02  0.00000000000E+00 0. -1.
         24    2    1    2    0    0  0.37946594252E+01  0.57916470535E+02 -0.25672827216E+02  0.10300607659E+03  0.81132242408E+02 0.  0.
         25    2    1    2    0    0 -0.82669731623E+02 -0.63334464234E+02  0.62756568142E+03  0.64833043858E+03  0.12509250261E+03 0.  0.
        -24    2    1    2    0    0  0.78875072198E+02  0.54179936982E+01  0.88103711567E+03  0.88793468466E+03  0.77142552176E+02 0.  0.
        -13    1    3    3    0    0 -0.23423954703E+02  0.29650365362E+02  0.20031065955E+02  0.42767621203E+02  0.00000000000E+00 0.  1.
         14    1    3    3    0    0  0.27218614128E+02  0.28266105173E+02 -0.45703893171E+02  0.60238455389E+02  0.00000000000E+00 0. -1.
         11    1    5    5    0    0 -0.42948650156E+01  0.23982654740E+02  0.15309512222E+03  0.15502170829E+03  0.00000000000E+00 0. -1.
        -12    1    5    5    0    0  0.83169937213E+02 -0.18564661042E+02  0.72794199345E+03  0.73291297637E+03  0.00000000000E+00 0.  1.
          5    1    4    4  501    0 -0.50949693889E+02  0.30717289526E+02  0.17162418174E+03  0.18169137387E+03  0.41800000000E+01 0.  1.
         -5    1    4    4    0  501 -0.31720037734E+02 -0.94051753760E+02  0.45594149968E+03  0.46663906470E+03  0.41800000000E+01 0.  1.
</event>
<event>
11    1  0.7577197E-009  0.1285058E+03  0.7561462E-02  0.1121119E+00
         22   -1    0    0    0    0  0.00000000000E+00  0.00000000000E+00  0.87885936335E+03  0.87885936335E+03  0.00000000000E+00 0. -1.
         22   -1    0    0    0    0 -0.00000000000E+00 -0.00000000000E+00 -0.26727956496E+03  0.26727956496E+03  0.00000000000E+00 0.  1.
         24    2    1    2    0    0 -0.29021788558E+02 -0.20475390260E+02 -0.24444978755E+03  0.25960503256E+03  0.79859679954E+02 0.  0.
         25    2    1    2    0    0  0.39853992134E+02 -0.77933217534E+01  0.37948796320E+03  0.40163124938E+03  0.12508984655E+03 0.  0.
        -24    2    1    2    0    0 -0.10832203576E+02  0.28268712013E+02  0.47654162273E+03  0.48490264638E+03  0.84393136898E+02 0.  0.
        -11    1    3    3    0    0  0.39547873978E+01 -0.45403758283E+02 -0.14179218531E+03  0.14893678332E+03  0.00000000000E+00 0.  1.
         12    1    3    3    0    0 -0.32976575956E+02  0.24928368023E+02 -0.10265760224E+03  0.11066824924E+03  0.00000000000E+00 0. -1.
         11    1    5    5    0    0  0.19739669778E+02  0.48163127417E+02  0.31696748775E+03  0.32121290400E+03  0.00000000000E+00 0. -1.
        -12    1    5    5    0    0 -0.30571873354E+02 -0.19894415404E+02  0.15957413498E+03  0.16368974238E+03  0.00000000000E+00 0.  1.
          5    1    4    4  501    0 -0.18684303372E+01 -0.20120427190E+01  0.35002039607E+03  0.35005612324E+03  0.41800000000E+01 0.  1.
         -5    1    4    4    0  501  0.41722422472E+02 -0.57812790344E+01  0.29467567128E+02  0.51575126143E+02  0.41800000000E+01 0.  1.
</event>
<event>
11    1  0.7577197E-009  0.1545091E+03  0.7561462E-02  0.1092358E+00
         22   -1    0    0    0    0  0.00000000000E+00  0.00000000000E+00  0.10596670717E+04  0.10596670717E+04  0.00000000000E+00 0. -1.
         22   -1    0    0    0    0 -0.00000000000E+00 -0.00000000000E+00 -0.20089112190E+03  0.20089112190E+03  0.00000000000E+00 0. -1.
         24    2    1    2    0    0  0.23817788028E+01 -0.97310497815E+02 -0.68874689406E+02  0.14472764860E+03  0.82020507033E+02 0.  0.
         25    2    1    2    0    0  0.42537103734E+02  0.76567337779E+02 -0.28231356768E+02  0.15528705591E+03  0.12508036544E+03 0.  0.
        -24    2    1    2    0    0 -0.44918882537E+02  0.20743160036E+02  0.95588199595E+03  0.96054348906E+03  0.80532102271E+02 0.  0.
        -11    1    3    3    0    0  0.54993639364E+01 -0.55725757415E+02  0.86868870852E+01  0.56666260247E+02  0.00000000000E+00 0.  1.
         12    1    3    3    0    0 -0.31175851336E+01 -0.41584740400E+02 -0.77561576492E+02  0.88061388355E+02  0.00000000000E+00 0. -1.
         13    1    5    5    0    0 -0.58739171253E+02  0.10678078764E+02  0.40309828781E+03  0.40749544935E+03  0.00000000000E+00 0. -1.
        -14    1    5    5    0    0  0.13820288716E+02  0.10065081272E+02  0.55278370814E+03  0.55304803971E+03  0.00000000000E+00 0.  1.
          5    1    4    4  501    0  0.59623530892E+02  0.23069811053E+02  0.33024623387E+02  0.72078289158E+02  0.41800000000E+01 0. -1.
         -5    1    4    4    0  501 -0.17086427158E+02  0.53497526726E+02 -0.61255980155E+02  0.83208766747E+02  0.41800000000E+01 0. -1.
</event>
<event>
11    1  0.7577197E-009  0.1567188E+03  0.7561462E-02  0.1090205E+00
         22   -1    0    0    0    0  0.00000000000E+00  0.00000000000E+00  0.12177101951E+04  0.12177101951E+04  0.00000000000E+00 0.  1.
         22   -1    0    0    0    0 -0.00000000000E+00 -0.00000000000E+00 -0.29628332314E+03  0.29628332314E+03  0.00000000000E+00 0.  1.
        -24    2    1    2    0    0 -0.89147329373E+02  0.16024667376E+02 -0.18504368514E+03  0.22129200800E+03  0.80777169394E+02 0.  0.
         25    2    1    2    0    0  0.10254758084E+03 -0.51736334376E+02 -0.12339790093E+02  0.17026832585E+03  0.12508548172E+03 0.  0.
         24    2    1    2    0    0 -0.13400251468E+02  0.35711667000E+02  0.11188103472E+04  0.11224331844E+04  0.81638045803E+02 0.  0.
        -11    1    5    5    0    0 -0.17784857098E+02  0.54651555338E+02  0.10260076638E+04  0.10276160858E+04  0.00000000000E+00 0.  1.
         12    1    5    5    0    0  0.43846056304E+01 -0.18939888338E+02  0.92802683383E+02  0.94817098563E+02  0.00000000000E+00 0. -1.
         11    1    3    3    0    0 -0.15963659289E+02 -0.19953078290E+02 -0.86800813373E+01  0.26987174049E+02  0.00000000000E+00 0. -1.
        -12    1    3    3    0    0 -0.73183670084E+02  0.35977745666E+02 -0.17636360381E+03  0.19430483395E+03  0.00000000000E+00 0.  1.
          5    1    4    4  501    0  0.94257092735E+02 -0.78597318966E+00 -0.49478256670E+02  0.10653913632E+03  0.41800000000E+01 0. -1.
         -5    1    4    4    0  501  0.82904881053E+01 -0.50950361187E+02  0.37138466577E+02  0.63729189527E+02  0.41800000000E+01 0. -1.
</event>
<event>
11    1  0.7577197E-009  0.1873865E+03  0.7561462E-02  0.1063820E+00
         22   -1    0    0    0    0  0.00000000000E+00  0.00000000000E+00  0.41635876653E+03  0.41635876653E+03  0.00000000000E+00 0. -1.
         22   -1    0    0    0    0 -0.00000000000E+00 -0.00000000000E+00 -0.85572020249E+03  0.85572020249E+03  0.00000000000E+00 0. -1.
        -24    2    1    2    0    0 -0.10095049701E+03 -0.96455747699E+02 -0.77482074057E+03  0.79131327206E+03  0.79591459449E+02 0.  0.
         25    2    1    2    0    0  0.91714621167E+02  0.10358847071E+03  0.63330970705E+02  0.19697858795E+03  0.12509040435E+03 0.  0.
         24    2    1    2    0    0  0.92358758440E+01 -0.71327230123E+01  0.27212833390E+03  0.28378710901E+03  0.79656236341E+02 0.  0.
        -11    1    5    5    0    0  0.17221013600E+02  0.15587453555E+02  0.20414439748E+02  0.30923799378E+02  0.00000000000E+00 0.  1.
         12    1    5    5    0    0 -0.79851377557E+01 -0.22720176568E+02  0.25171389415E+03  0.25286330963E+03  0.00000000000E+00 0. -1.
         11    1    3    3    0    0 -0.98925812983E+02 -0.10945200729E+03 -0.70713094206E+03  0.72235740987E+03  0.00000000000E+00 0. -1.
        -12    1    3    3    0    0 -0.20246840284E+01  0.12996259592E+02 -0.67689798512E+02  0.68955862197E+02  0.00000000000E+00 0.  1.
          5    1    4    4  501    0  0.12062654676E+03  0.71124524632E+02  0.62221620009E+02  0.15329208780E+03  0.41800000000E+01 0. -1.
         -5    1    4    4    0  501 -0.28911925590E+02  0.32463946080E+02  0.11093506966E+01  0.43686500150E+02  0.41800000000E+01 0. -1.
</event>
<event>
11    1  0.7577197E-009  0.2210621E+03  0.7561462E-02  0.1040554E+00
         22   -1    0    0    0    0  0.00000000000E+00  0.00000000000E+00  0.20980484841E+03  0.20980484841E+03  0.00000000000E+00 0.  1.
         22   -1    0    0    0    0 -0.00000000000E+00 -0.00000000000E+00 -0.63989548435E+03  0.63989548435E+03  0.00000000000E+00 0.  1.
        -24    2    1    2    0    0 -0.23148496020E+02 -0.36317797530E+01 -0.29438319531E+03  0.30615750428E+03  0.80758337352E+02 0.  0.
         25    2    1    2    0    0  0.17070200763E+03 -0.97921165998E+02 -0.22850243293E+03  0.32648327900E+03  0.12510091706E+03 0.  0.
         24    2    1    2    0    0 -0.14755351161E+03  0.10155294575E+03  0.92794992298E+02  0.21705954948E+03  0.80118024475E+02 0.  0.
        -13    1    5    5    0    0 -0.13533498522E+03  0.98966313356E+02  0.10641507944E+03  0.19858010609E+03  0.00000000000E+00 0.  1.
         14    1    5    5    0    0 -0.12218526396E+02  0.25866323942E+01 -0.13620087139E+02  0.18479443393E+02  0.00000000000E+00 0. -1.
         13    1    3    3    0    0  0.32006561083E+01 -0.11242705023E+02 -0.12635063399E+01  0.11757510963E+02  0.00000000000E+00 0. -1.
        -14    1    3    3    0    0 -0.26349152128E+02  0.76109252703E+01 -0.29311968897E+03  0.29439999332E+03  0.00000000000E+00 0.  1.
          5    1    4    4  501    0  0.75098343289E+02 -0.10556424455E+03 -0.17101870587E+03  0.21458900496E+03  0.41800000000E+01 0. -1.
         -5    1    4    4    0  501  0.95603664343E+02  0.76430785522E+01 -0.57483727065E+02  0.11189427404E+03  0.41800000000E+01 0. -1.
</event>
<event>
11    1  0.7577197E-009  0.1578070E+03  0.7561462E-02  0.1089158E+00
         22   -1    0    0    0    0  0.00000000000E+00  0.00000000000E+00  0.93640174231E+03  0.93640174231E+03  0.00000000000E+00 0. -1.
         22   -1    0    0    0    0 -0.00000000000E+00 -0.00000000000E+00 -0.36256366011E+03  0.36256366011E+03  0.00000000000E+00 0. -1.
         24    2    1    2    0    0 -0.27085220666E+01  0.95386968154E+02 -0.32902979014E+03  0.35201026066E+03  0.80898770232E+02 0.  0.
         25    2    1    2    0    0 -0.34169405810E+02 -0.13196740877E+03  0.51178608674E+03  0.54420527720E+03  0.12510571485E+03 0.  0.
        -24    2    1    2    0    0  0.36877927876E+02  0.36580440621E+02  0.39108178560E+03  0.40274986455E+03  0.81020862563E+02 0.  0.
        -13    1    3    3    0    0  0.19647655987E+02  0.38921916991E+02 -0.49517808468E+02  0.65976960854E+02  0.00000000000E+00 0.  1.
         14    1    3    3    0    0 -0.22356178053E+02  0.56465051163E+02 -0.27951198167E+03  0.28603329981E+03  0.00000000000E+00 0. -1.
         11    1    5    5    0    0  0.12357722399E+02  0.37389455897E+02  0.36432921765E+03  0.36645117485E+03  0.00000000000E+00 0. -1.
        -12    1    5    5    0    0  0.24520205477E+02 -0.80901527644E+00  0.26752567947E+02  0.36298689703E+02  0.00000000000E+00 0.  1.
          5    1    4    4  501    0 -0.67872300764E+02 -0.68007934433E+02  0.39701671189E+03  0.40849904563E+03  0.41800000000E+01 0. -1.
         -5    1    4    4    0  501  0.33702894955E+02 -0.63959474342E+02  0.11476937484E+03  0.13570623158E+03  0.41800000000E+01 0. -1.
</event>
<event>
11    1  0.7577197E-009  0.1323842E+03  0.7561462E-02  0.1116374E+00
         22   -1    0    0    0    0  0.00000000000E+00  0.00000000000E+00  0.20251084430E+04  0.20251084430E+04  0.00000000000E+00 0.  1.
         22   -1    0    0    0    0 -0.00000000000E+00 -0.00000000000E+00 -0.30075726474E+02  0.30075726474E+02  0.00000000000E+00 0. -1.
        -24    2    1    2    0    0 -0.12904838421E+02 -0.41354889491E+02  0.10235169686E+03  0.13860177135E+03  0.82811952226E+02 0.  0.
         25    2    1    2    0    0  0.34365258798E+02  0.33284616619E+02  0.40573125701E+03  0.42726399445E+03  0.12509129198E+03 0.  0.
         24    2    1    2    0    0 -0.21460420377E+02  0.80702728716E+01  0.14869497627E+04  0.14893184037E+04  0.80771479429E+02 0.  0.
        -13    1    5    5    0    0 -0.48237873715E+02 -0.74275747508E+01  0.66604300191E+03  0.66782882666E+03  0.00000000000E+00 0.  1.
         14    1    5    5    0    0  0.26777453338E+02  0.15497847622E+02  0.82090676080E+03  0.82148957706E+03  0.00000000000E+00 0. -1.
         13    1    3    3    0    0  0.15178669525E+00  0.18118812091E+02 -0.15363709676E+01  0.18184466628E+02  0.00000000000E+00 0. -1.
        -14    1    3    3    0    0 -0.13056625116E+02 -0.59473701582E+02  0.10388806783E+03  0.12041730472E+03  0.00000000000E+00 0.  1.
          5    1    4    4  501    0  0.88686363187E+01 -0.31782071250E+02  0.29136453539E+02  0.44217169606E+02  0.41800000000E+01 0.  1.
         -5    1    4    4    0  501  0.25496622480E+02  0.65066687870E+02  0.37659480347E+03  0.38304682485E+03  0.41800000000E+01 0.  1.
</event>
<event>
11    1  0.7577197E-009  0.1475297E+03  0.7561462E-02  0.1099430E+00
         22   -1    0    0    0    0  0.00000000000E+00  0.00000000000E+00  0.80318355900E+03  0.80318355900E+03  0.00000000000E+00 0.  1.
         22   -1    0    0    0    0 -0.00000000000E+00 -0.00000000000E+00 -0.88468438039E+03  0.88468438039E+03  0.00000000000E+00 0.  1.
         24    2    1    2    0    0  0.71718516884E+02  0.34556169956E+02 -0.79588190829E+03  0.80401111837E+03  0.81658998162E+02 0.  0.
         25    2    1    2    0    0 -0.41689545878E+02 -0.46119560490E+02 -0.22631393924E+02  0.14150917522E+03  0.12509050557E+03 0.  0.
        -24    2    1    2    0    0 -0.30028971007E+02  0.11563390534E+02  0.73701248083E+03  0.74234764580E+03  0.82808086728E+02 0.  0.
        -13    1    3    3    0    0  0.58333188621E+02  0.35675500191E+02 -0.78090637458E+03  0.78389429649E+03  0.00000000000E+00 0.  1.
         14    1    3    3    0    0  0.13385328263E+02 -0.11193302353E+01 -0.14975533710E+02  0.20116821886E+02  0.00000000000E+00 0. -1.
         11    1    5    5    0    0 -0.10652866368E+02  0.17881242587E+02  0.40484858475E+02  0.45521930584E+02  0.00000000000E+00 0. -1.
        -12    1    5    5    0    0 -0.19376104639E+02 -0.63178520532E+01  0.69652762235E+03  0.69682571522E+03  0.00000000000E+00 0.  1.
          5    1    4    4  501    0 -0.29716934120E+02  0.69814660463E+01  0.45034355856E+02  0.54565581175E+02  0.41800000000E+01 0. -1.
         -5    1    4    4    0  501 -0.11972611757E+02 -0.53101026536E+02 -0.67665749779E+02  0.86943594041E+02  0.41800000000E+01 0. -1.
</event>
<event>
11    1  0.7577197E-009  0.1493336E+03  0.7561462E-02  0.1097562E+00
         22   -1    0    0    0    0  0.00000000000E+00  0.00000000000E+00  0.46748418397E+02  0.46748418397E+02  0.00000000000E+00 0.  1.
         22   -1    0    0    0    0 -0.00000000000E+00 -0.00000000000E+00 -0.28794553163E+04  0.28794553163E+04  0.00000000000E+00 0.  1.
         24    2    1    2    0    0  0.32308402818E+02 -0.73466875147E+02 -0.15175970335E+04  0.15217927130E+04  0.79442373215E+02 0.  0.
         25    2    1    2    0    0 -0.44695017457E+02  0.72077036052E+02 -0.13168812371E+04  0.13255251229E+04  0.12509162702E+03 0.  0.
        -24    2    1    2    0    0  0.12386614639E+02  0.13898390956E+01  0.17713727032E+01  0.78885898757E+02  0.77874818694E+02 0.  0.
        -13    1    3    3    0    0  0.14644231869E+02  0.13935246673E+00 -0.81468137483E+03  0.81481299415E+03  0.00000000000E+00 0.  1.
         14    1    3    3    0    0  0.17664170949E+02 -0.73606227614E+02 -0.70291565870E+03  0.70697971889E+03  0.00000000000E+00 0. -1.
         13    1    5    5    0    0  0.91711721859E+01 -0.31146774172E+02 -0.21333935430E+02  0.38850595124E+02  0.00000000000E+00 0. -1.
        -14    1    5    5    0    0  0.32154424529E+01  0.32536613267E+02  0.23105308133E+02  0.40035303633E+02  0.00000000000E+00 0.  1.
          5    1    4    4  501    0  0.27469313567E+02  0.69973491567E+02 -0.52876652020E+03  0.53409957686E+03  0.41800000000E+01 0.  1.
         -5    1    4    4    0  501 -0.72164331024E+02  0.21035444843E+01 -0.78811471688E+03  0.79142554605E+03  0.41800000000E+01 0.  1.
</event>
<event>
11    1  0.7577197E-009  0.1450408E+04  0.7561462E-02  0.8339409E-01
         22   -1    0    0    0    0  0.00000000000E+00  0.00000000000E+00  0.18594873381E+03  0.18594873381E+03  0.00000000000E+00 0. -1.
         22   -1    0    0    0    0 -0.00000000000E+00 -0.00000000000E+00 -0.28283095281E+04  0.28283095281E+04  0.00000000000E+00 0. -1.
        -24    2    1    2    0    0 -0.58473287705E+03 -0.23686154458E+03 -0.13909823730E+04  0.15294651525E+04  0.80098450605E+02 0.  0.
         25    2    1    2    0    0  0.64083133798E+03  0.25472818306E+03 -0.11053328947E+04  0.13088011433E+04  0.12509345977E+03 0.  0.
         24    2    1    2    0    0 -0.56098460922E+02 -0.17866638474E+02 -0.14604552656E+03  0.17599196610E+03  0.78597851209E+02 0.  0.
        -13    1    5    5    0    0 -0.67622630531E+02 -0.31842492689E+02 -0.89448215057E+02  0.11656649466E+03  0.00000000000E+00 0.  1.
         14    1    5    5    0    0  0.11524169609E+02  0.13975854214E+02 -0.56597311500E+02  0.59425471435E+02  0.00000000000E+00 0. -1.
         11    1    3    3    0    0 -0.26797280136E+03 -0.77213922442E+02 -0.54754643028E+03  0.61447416984E+03  0.00000000000E+00 0. -1.
        -12    1    3    3    0    0 -0.31676007570E+03 -0.15964762214E+03 -0.84343594274E+03  0.91499098265E+03  0.00000000000E+00 0.  1.
          5    1    4    4  501    0  0.51004450875E+03  0.19795565519E+03 -0.77189228464E+03  0.94613266185E+03  0.41800000000E+01 0.  1.
         -5    1    4    4    0  501  0.13078682923E+03  0.56772527863E+02 -0.33344061003E+03  0.36266848145E+03  0.41800000000E+01 0.  1.
</event>
<event>
11    1  0.7577197E-009  0.1425737E+03  0.7561462E-02  0.1104718E+00
         22   -1    0    0    0    0  0.00000000000E+00  0.00000000000E+00  0.67597379274E+03  0.67597379274E+03  0.00000000000E+00 0.  1.
         22   -1    0    0    0    0 -0.00000000000E+00 -0.00000000000E+00 -0.16644071001E+03  0.16644071001E+03  0.00000000000E+00 0.  1.
         24    2    1    2    0    0 -0.21989170967E+02  0.77011912374E+01 -0.12975184255E+03  0.15482790514E+03  0.81199184580E+02 0.  0.
         25    2    1    2    0    0 -0.32718646307E+02  0.43981793956E+02  0.26974028468E+03  0.30234298365E+03  0.12508617256E+03 0.  0.
        -24    2    1    2    0    0  0.54707817274E+02 -0.51682985193E+02  0.36954464060E+03  0.38524361396E+03  0.78646833794E+02 0.  0.
        -13    1    3    3    0    0 -0.45528773768E+02  0.24284846328E+02 -0.58658001671E+02  0.78124158632E+02  0.00000000000E+00 0.  1.
         14    1    3    3    0    0  0.23539602801E+02 -0.16583655090E+02 -0.71093840884E+02  0.76703746505E+02  0.00000000000E+00 0. -1.
         13    1    5    5    0    0  0.10368190576E+02  0.80154582643E+01  0.64393365133E+01  0.14601780773E+02  0.00000000000E+00 0. -1.
        -14    1    5    5    0    0  0.44339626698E+02 -0.59698443458E+02  0.36310530409E+03  0.37064183318E+03  0.00000000000E+00 0.  1.
          5    1    4    4  501    0  0.33952003862E+02 -0.12652559061E+02  0.14766186527E+03  0.15209971950E+03  0.41800000000E+01 0. -1.
         -5    1    4    4    0  501 -0.66670650169E+02  0.56634353017E+02  0.12207841941E+03  0.15024326415E+03  0.41800000000E+01 0. -1.
</event>
<event>
11    1  0.7577197E-009  0.1324711E+03  0.7561462E-02  0.1116269E+00
         22   -1    0    0    0    0  0.00000000000E+00  0.00000000000E+00  0.56615436307E+03  0.56615436307E+03  0.00000000000E+00 0.  1.
         22   -1    0    0    0    0 -0.00000000000E+00 -0.00000000000E+00 -0.21676381392E+04  0.21676381392E+04  0.00000000000E+00 0.  1.
        -24    2    1    2    0    0  0.40278132249E+02 -0.83438535385E+01 -0.16056682564E+04  0.16082574526E+04  0.81421965360E+02 0.  0.
         25    2    1    2    0    0  0.14984906708E+01  0.21675300685E+02 -0.54967695811E+03  0.56414840988E+03  0.12508639399E+03 0.  0.
         24    2    1    2    0    0 -0.41776622920E+02 -0.13331447147E+02  0.55386143835E+03  0.56138663980E+03  0.80432908386E+02 0.  0.
        -13    1    5    5    0    0  0.25738024866E+01 -0.80678626448E+01  0.42354149813E+03  0.42362615064E+03  0.00000000000E+00 0.  1.
         14    1    5    5    0    0 -0.44350425407E+02 -0.52635845018E+01  0.13031994022E+03  0.13776048917E+03  0.00000000000E+00 0. -1.
         13    1    3    3    0    0  0.43021237998E+02 -0.38954382329E+02 -0.85996589870E+03  0.86192204853E+03  0.00000000000E+00 0. -1.
        -14    1    3    3    0    0 -0.27431057485E+01  0.30610528790E+02 -0.74570235769E+03  0.74633540407E+03  0.00000000000E+00 0.  1.
          5    1    4    4  501    0 -0.57687543792E+02  0.31352639759E+02 -0.25081651623E+03  0.25930144223E+03  0.41800000000E+01 0.  1.
         -5    1    4    4    0  501  0.59186034462E+02 -0.96773390738E+01 -0.29886044188E+03  0.30484696765E+03  0.41800000000E+01 0.  1.
</event>
<event>
11    1  0.7577197E-009  0.1344522E+03  0.7561462E-02  0.1113916E+00
         22   -1    0    0    0    0  0.00000000000E+00  0.00000000000E+00  0.89239516037E+02  0.89239516037E+02  0.00000000000E+00 0. -1.
         22   -1    0    0    0    0 -0.00000000000E+00 -0.00000000000E+00 -0.93384532763E+03  0.93384532763E+03  0.00000000000E+00 0.  1.
         24    2    1    2    0    0  0.25782489740E+02  0.39328907426E+02 -0.60650159676E+03  0.61382802808E+03  0.82031466186E+02 0.  0.
         25    2    1    2    0    0 -0.21998158018E+02 -0.56021423622E+02 -0.28504319432E+03  0.31704802966E+03  0.12509001410E+03 0.  0.
        -24    2    1    2    0    0 -0.37843317218E+01  0.16692516195E+02  0.46938979483E+02  0.92208785926E+02  0.77499878345E+02 0.  0.
        -11    1    3    3    0    0  0.97023720390E+01  0.56735122776E+02 -0.25003198352E+03  0.25657163320E+03  0.00000000000E+00 0.  1.
         12    1    3    3    0    0  0.16080117701E+02 -0.17406215349E+02 -0.35646961324E+03  0.35725639488E+03  0.00000000000E+00 0. -1.
         11    1    5    5    0    0  0.72948452856E+01  0.16696940746E+02  0.66922964144E+02  0.69359107029E+02  0.00000000000E+00 0. -1.
        -12    1    5    5    0    0 -0.11079177007E+02 -0.44245509465E-02 -0.19983984661E+02  0.22849678896E+02  0.00000000000E+00 0.  1.
          5    1    4    4  501    0 -0.99515300346E+01 -0.95422567230E+02 -0.21848031562E+03  0.23865376595E+03  0.41800000000E+01 0. -1.
         -5    1    4    4    0  501 -0.12046627983E+02  0.39401143609E+02 -0.66562878695E+02  0.78394263716E+02  0.41800000000E+01 0. -1.
</event>
<event>
11    1  0.7577197E-009  0.2124585E+03  0.7561462E-02  0.1046047E+00
         22   -1    0    0    0    0  0.00000000000E+00  0.00000000000E+00  0.23824433581E+04  0.23824433581E+04  0.00000000000E+00 0.  1.
         22   -1    0    0    0    0 -0.00000000000E+00 -0.00000000000E+00 -0.69600419917E+02  0.69600419917E+02  0.00000000000E+00 0. -1.
         24    2    1    2    0    0  0.12447953030E+02 -0.29161128768E+02  0.97936680564E+02  0.13067564991E+03  0.80493534608E+02 0.  0.
         25    2    1    2    0    0  0.95684300799E+00  0.19805977321E+03  0.23182867068E+03  0.32957462430E+03  0.12508521545E+03 0.  0.
        -24    2    1    2    0    0 -0.13404796038E+02 -0.16889864444E+03  0.19830775870E+04  0.19917935038E+04  0.77059751715E+02 0.  0.
        -13    1    3    3    0    0  0.45858092125E+02 -0.10463528415E+02  0.64598575352E+02  0.79908860446E+02  0.00000000000E+00 0.  1.
         14    1    3    3    0    0 -0.33410139095E+02 -0.18697600353E+02  0.33338105212E+02  0.50766789464E+02  0.00000000000E+00 0. -1.
         11    1    5    5    0    0  0.17712610272E+02 -0.27798929147E+02  0.66573732486E+03  0.66655285067E+03  0.00000000000E+00 0. -1.
        -12    1    5    5    0    0 -0.31117406310E+02 -0.14109971529E+03  0.13173402621E+04  0.13252406532E+04  0.00000000000E+00 0.  1.
          5    1    4    4  501    0 -0.66242381460E+01  0.12104503191E+03  0.48676807335E+02  0.13070074312E+03  0.41800000000E+01 0.  1.
         -5    1    4    4    0  501  0.75810811540E+01  0.77014741303E+02  0.18315186335E+03  0.19887388118E+03  0.41800000000E+01 0.  1.
</event>
<event>
11    1  0.7577197E-009  0.1812560E+03  0.7561462E-02  0.1068631E+00
         22   -1    0    0    0    0  0.00000000000E+00  0.00000000000E+00  0.14559604477E+04  0.14559604477E+04  0.00000000000E+00 0.  1.
         22   -1    0    0    0    0 -0.00000000000E+00 -0.00000000000E+00 -0.38986640548E+03  0.38986640548E+03  0.00000000000E+00 0.  1.
        -24    2    1    2    0    0  0.11707975517E+03 -0.56147201699E+02 -0.35128534911E+03  0.38264994746E+03  0.78481898971E+02 0.  0.
         25    2    1    2    0    0 -0.19286831765E+03  0.46412623380E+02  0.72579718375E+03  0.76274588578E+03  0.12508962692E+03 0.  0.
         24    2    1    2    0    0  0.75788562483E+02  0.97345783187E+01  0.69158220759E+03  0.70043101997E+03  0.80492208668E+02 0.  0.
        -13    1    5    5    0    0  0.44295253583E+02 -0.33887707394E+02  0.29619099464E+03  0.30139600447E+03  0.00000000000E+00 0.  1.
         14    1    5    5    0    0  0.31493308900E+02  0.43622285713E+02  0.39539121295E+03  0.39903501550E+03  0.00000000000E+00 0. -1.
         11    1    3    3    0    0  0.16167171635E+02 -0.39531908329E+02 -0.57887000403E+02  0.71937848387E+02  0.00000000000E+00 0. -1.
        -12    1    3    3    0    0  0.10091258354E+03 -0.16615293370E+02 -0.29339834870E+03  0.31071209908E+03  0.00000000000E+00 0.  1.
          5    1    4    4  501    0 -0.23138190767E+02  0.19926599109E+02  0.20978735865E+02  0.37283038805E+02  0.41800000000E+01 0. -1.
         -5    1    4    4    0  501 -0.16973012689E+03  0.26486024271E+02  0.70481844789E+03  0.72546284697E+03  0.41800000000E+01 0. -1.
</event>
<event>
11    1  0.7577197E-009  0.1679679E+03  0.7561462E-02  0.1079814E+00
         22   -1    0    0    0    0  0.00000000000E+00  0.00000000000E+00  0.10894045723E+04  0.10894045723E+04  0.00000000000E+00 0. -1.
         22   -1    0    0    0    0 -0.00000000000E+00 -0.00000000000E+00 -0.48745441917E+03  0.48745441917E+03  0.00000000000E+00 0. -1.
         24    2    1    2    0    0 -0.10021286012E+03 -0.47773353574E+02 -0.39380382120E+03  0.41702872652E+03  0.80663489316E+02 0.  0.
         25    2    1    2    0    0  0.66817410283E+02  0.13965249818E+03  0.49611720195E+02  0.20512445250E+03  0.12508929477E+03 0.  0.
        -24    2    1    2    0    0  0.33395449833E+02 -0.91879144605E+02  0.94614225415E+03  0.95470581245E+03  0.81981644071E+02 0.  0.
        -13    1    3    3    0    0 -0.36160465395E+02 -0.38584368750E+02 -0.75268755969E+02  0.91987599134E+02  0.00000000000E+00 0.  1.
         14    1    3    3    0    0 -0.64052394721E+02 -0.91889848238E+01 -0.31853506523E+03  0.32504112739E+03  0.00000000000E+00 0. -1.
         11    1    5    5    0    0  0.24142289568E+02 -0.62919395173E+01  0.48216127432E+03  0.48280631013E+03  0.00000000000E+00 0. -1.
        -12    1    5    5    0    0  0.92531602647E+01 -0.85587205088E+02  0.46398097982E+03  0.47189950232E+03  0.00000000000E+00 0.  1.
          5    1    4    4  501    0 -0.63676473396E+01  0.94692945398E+02 -0.16798622640E+02  0.96472622870E+02  0.41800000000E+01 0. -1.
         -5    1    4    4    0  501  0.73185057623E+02  0.44959552780E+02  0.66410342836E+02  0.10865182963E+03  0.41800000000E+01 0. -1.
</event>
<event>
11    1  0.7577197E-009  0.1673510E+03  0.7561462E-02  0.1080360E+00
         22   -1    0    0    0    0  0.00000000000E+00  0.00000000000E+00  0.40628561436E+04  0.40628561436E+04  0.00000000000E+00 0.  1.
         22   -1    0    0    0    0 -0.00000000000E+00 -0.00000000000E+00 -0.54171524880E+03  0.54171524880E+03  0.00000000000E+00 0. -1.
        -24    2    1    2    0    0 -0.10313720744E+03  0.47054317712E+02 -0.46749435133E+03  0.48758815013E+03  0.79623132591E+02 0.  0.
         25    2    1    2    0    0  0.77595776493E+02 -0.48112291007E+02  0.30336525392E+02  0.15780958275E+03  0.12509061739E+03 0.  0.
         24    2    1    2    0    0  0.25541430947E+02  0.10579732955E+01  0.39582987208E+04  0.39591736596E+04  0.79207446631E+02 0.  0.
        -11    1    5    5    0    0 -0.13945434533E+02  0.30744111454E+02  0.16873091969E+04  0.16876468830E+04  0.00000000000E+00 0.  1.
         12    1    5    5    0    0  0.39486865481E+02 -0.29686138158E+02  0.22709895238E+04  0.22715267766E+04  0.00000000000E+00 0. -1.
         11    1    3    3    0    0  0.19002869515E+01  0.17018484406E+02 -0.16654939608E+03  0.16742742080E+03  0.00000000000E+00 0. -1.
        -12    1    3    3    0    0 -0.10503749439E+03  0.30035833305E+02 -0.30094495526E+03  0.32016072933E+03  0.00000000000E+00 0.  1.
          5    1    4    4  501    0  0.73690768276E+02 -0.49054488152E+02 -0.32732114209E+02  0.94475054049E+02  0.41800000000E+01 0.  1.
         -5    1    4    4    0  501  0.39050082165E+01  0.94219714451E+00  0.63068639601E+02  0.63334528700E+02  0.41800000000E+01 0.  1.
</event>
<event>
11    1  0.7577197E-009  0.1990379E+03  0.7561462E-02  0.1055206E+00
         22   -1    0    0    0    0  0.00000000000E+00  0.00000000000E+00  0.51434233228E+03  0.51434233228E+03  0.00000000000E+00 0.  1.
         22   -1    0    0    0    0 -0.00000000000E+00 -0.00000000000E+00 -0.41676227439E+03  0.41676227439E+03  0.00000000000E+00 0.  1.
        -24    2    1    2    0    0 -0.57811799796E+02 -0.94526881964E+02 -0.31306349234E+03  0.34106474761E+03  0.77710206629E+02 0.  0.
         25    2    1    2    0    0  0.65466715958E+02 -0.83831958648E+02  0.36855899072E+02  0.16828364861E+03  0.12508933169E+03 0.  0.
         24    2    1    2    0    0 -0.76549161624E+01  0.17835884061E+03  0.37378765116E+03  0.42175621045E+03  0.79313423375E+02 0.  0.
        -13    1    5    5    0    0  0.36626986556E+01  0.33902798897E+02  0.15931745548E+03  0.16292595482E+03  0.00000000000E+00 0.  1.
         14    1    5    5    0    0 -0.11317614818E+02  0.14445604171E+03  0.21447019569E+03  0.25883025563E+03  0.00000000000E+00 0. -1.
         11    1    3    3    0    0  0.16568745601E+01 -0.59737330902E+02 -0.93689810964E+02  0.11112639027E+03  0.00000000000E+00 0. -1.
        -12    1    3    3    0    0 -0.59468674356E+02 -0.34789551062E+02 -0.21937368138E+03  0.22993835734E+03  0.00000000000E+00 0.  1.
          5    1    4    4  501    0  0.26059646217E+02 -0.66345597660E+02  0.79943318779E+02  0.10718791960E+03  0.41800000000E+01 0.  1.
         -5    1    4    4    0  501  0.39407069741E+02 -0.17486360987E+02 -0.43087419707E+02  0.61095729009E+02  0.41800000000E+01 0.  1.
</event>
<event>
11    1  0.7577197E-009  0.2749594E+03  0.7561462E-02  0.1011384E+00
         22   -1    0    0    0    0  0.00000000000E+00  0.00000000000E+00  0.61723445544E+03  0.61723445544E+03  0.00000000000E+00 0.  1.
         22   -1    0    0    0    0 -0.00000000000E+00 -0.00000000000E+00 -0.40765892387E+03  0.40765892387E+03  0.00000000000E+00 0. -1.
         24    2    1    2    0    0  0.32726411707E+02  0.25095076005E+03 -0.28450119805E+03  0.39004595778E+03  0.84543571561E+02 0.  0.
         25    2    1    2    0    0 -0.20799003091E+02 -0.20775686845E+03  0.16813072292E+03  0.29582472922E+03  0.12509522576E+03 0.  0.
        -24    2    1    2    0    0 -0.11927408616E+02 -0.43193891601E+02  0.32594600669E+03  0.33902269231E+03  0.81777816523E+02 0.  0.
        -13    1    3    3    0    0 -0.28865430222E+02  0.78963971018E+02 -0.85649224991E+02  0.12001796333E+03  0.00000000000E+00 0.  1.
         14    1    3    3    0    0  0.61591841929E+02  0.17198678903E+03 -0.19885197306E+03  0.27002799444E+03  0.00000000000E+00 0. -1.
         13    1    5    5    0    0 -0.38287581365E+02 -0.52655560744E+02  0.23620511391E+03  0.24501306659E+03  0.00000000000E+00 0. -1.
        -14    1    5    5    0    0  0.26360172748E+02  0.94616691435E+01  0.89740892788E+02  0.94009625723E+02  0.00000000000E+00 0.  1.
          5    1    4    4  501    0  0.41644459530E+02 -0.14431305299E+03  0.13076307806E+03  0.19919079612E+03  0.41800000000E+01 0. -1.
         -5    1    4    4    0  501 -0.62443462621E+02 -0.63443815460E+02  0.37367644858E+02  0.96633933101E+02  0.41800000000E+01 0. -1.
</event>
<event>
11    1  0.7577197E-009  0.1283746E+03  0.7561462E-02  0.1121282E+00
         22   -1    0    0    0    0  0.00000000000E+00  0.00000000000E+00  0.71683616717E+03  0.71683616717E+03  0.00000000000E+00 0. -1.
         22   -1    0    0    0    0 -0.00000000000E+00 -0.00000000000E+00 -0.46645108250E+03  0.46645108250E+03  0.00000000000E+00 0. -1.
        -24    2    1    2    0    0  0.21669246173E+02 -0.18251106558E+02 -0.39714107826E+03  0.40641922659E+03  0.81565265771E+02 0.  0.
         25    2    1    2    0    0 -0.16719107460E+02  0.36731964511E+02  0.78101606458E+01  0.13167011339E+03  0.12508898585E+03 0.  0.
         24    2    1    2    0    0 -0.49501387139E+01 -0.18480857953E+02  0.63971600229E+03  0.64519790969E+03  0.81717397766E+02 0.  0.
        -13    1    5    5    0    0 -0.32089242752E+02 -0.31470710690E+01  0.11164494191E+03  0.11620764438E+03  0.00000000000E+00 0.  1.
         14    1    5    5    0    0  0.27139104038E+02 -0.15333786884E+02  0.52807106038E+03  0.52899026532E+03  0.00000000000E+00 0. -1.
         11    1    3    3    0    0  0.20788362476E+02 -0.47642215995E+01 -0.39098740622E+03  0.39156864743E+03  0.00000000000E+00 0. -1.
        -12    1    3    3    0    0  0.88088369702E+00 -0.13486884959E+02 -0.61536720372E+01  0.14850579164E+02  0.00000000000E+00 0.  1.
          5    1    4    4  501    0  0.15804405347E+02  0.66061600365E+02  0.38348967496E+02  0.78115491288E+02  0.41800000000E+01 0. -1.
         -5    1    4    4    0  501 -0.32523512807E+02 -0.29329635854E+02 -0.30538806851E+02  0.53554622102E+02  0.41800000000E+01 0. -1.
</event>
<event>
11    1  0.7577197E-009  0.2432927E+03  0.7561462E-02  0.1027534E+00
         22   -1    0    0    0    0  0.00000000000E+00  0.00000000000E+00  0.13139460291E+04  0.13139460291E+04  0.00000000000E+00 0.  1.
         22   -1    0    0    0    0 -0.00000000000E+00 -0.00000000000E+00 -0.63904249479E+02  0.63904249479E+02  0.00000000000E+00 0.  1.
        -24    2    1    2    0    0  0.17611689791E+02  0.13950417317E+02  0.19764727078E+03  0.21442143636E+03  0.80045755442E+02 0.  0.
         25    2    1    2    0    0 -0.20799904109E+03 -0.58189463012E+02  0.35266595864E+03  0.43205427444E+03  0.12509197808E+03 0.  0.
         24    2    1    2    0    0  0.19038735130E+03  0.44239045695E+02  0.69972855019E+03  0.73137456776E+03  0.84168151478E+02 0.  0.
        -11    1    5    5    0    0  0.17096437595E+03  0.65906291014E+02  0.61969263963E+03  0.64621314181E+03  0.00000000000E+00 0.  1.
         12    1    5    5    0    0  0.19422975349E+02 -0.21667245318E+02  0.80035910563E+02  0.85161425956E+02  0.00000000000E+00 0. -1.
         11    1    3    3    0    0 -0.10802170466E+02  0.25853517901E+02  0.17219806996E+03  0.17446279424E+03  0.00000000000E+00 0. -1.
        -12    1    3    3    0    0  0.28413860257E+02 -0.11903100585E+02  0.25449200822E+02  0.39958642128E+02  0.00000000000E+00 0.  1.
          5    1    4    4  501    0 -0.14868707658E+03  0.20878844589E+02  0.19964996424E+03  0.24984265752E+03  0.41800000000E+01 0. -1.
         -5    1    4    4    0  501 -0.59311964511E+02 -0.79068307601E+02  0.15301599440E+03  0.18221161693E+03  0.41800000000E+01 0. -1.
</event>
<event>
11    1  0.7577197E-009  0.1369889E+03  0.7561462E-02  0.1110968E+00
         22   -1    0    0    0    0  0.00000000000E+00  0.00000000000E+00  0.26420476119E+04  0.26420476119E+04  0.00000000000E+00 0.  1.
         22   -1    0    0    0    0 -0.00000000000E+00 -0.00000000000E+00 -0.30567433487E+02  0.30567433487E+02  0.00000000000E+00 0. -1.
         24    2    1    2    0    0  0.24852898813E+02 -0.15658806975E+02  0.10135631646E+03  0.13426301461E+03  0.83009574080E+02 0.  0.
         25    2    1    2    0    0 -0.25395728436E+02 -0.42054712550E+02  0.35500083808E+03  0.37959068472E+03  0.12509976428E+03 0.  0.
        -24    2    1    2    0    0  0.54282962352E+00  0.57713519525E+02  0.21551230239E+04  0.21587613461E+04  0.11119422741E+03 0.  0.
        -13    1    3    3    0    0 -0.13677610411E+02 -0.31048249200E+02  0.12427972017E+02  0.36132053545E+02  0.00000000000E+00 0.  1.
         14    1    3    3    0    0  0.38530509224E+02  0.15389442225E+02  0.88928344445E+02  0.98130961061E+02  0.00000000000E+00 0. -1.
         13    1    5    5    0    0  0.14157171263E+02 -0.30668629238E+02  0.78227388896E+03  0.78300282737E+03  0.00000000000E+00 0. -1.
        -14    1    5    5    0    0 -0.13614341640E+02  0.88382148763E+02  0.13728491349E+04  0.13757585187E+04  0.00000000000E+00 0.  1.
          5    1    4    4  501    0 -0.44417709525E+02 -0.16951679650E+02  0.34191402377E+03  0.34522885803E+03  0.41800000000E+01 0.  1.
         -5    1    4    4    0  501  0.19021981088E+02 -0.25103032900E+02  0.13086814308E+02  0.34361826698E+02  0.41800000000E+01 0.  1.
</event>
<event>
11    1  0.7577197E-009  0.1783818E+03  0.7561462E-02  0.1070959E+00
         22   -1    0    0    0    0  0.00000000000E+00  0.00000000000E+00  0.21895400308E+04  0.21895400308E+04  0.00000000000E+00 0. -1.
         22   -1    0    0    0    0 -0.00000000000E+00 -0.00000000000E+00 -0.94528680652E+03  0.94528680652E+03  0.00000000000E+00 0.  1.
         24    2    1    2    0    0  0.23641484101E+02  0.12377279379E+03 -0.89588919226E+03  0.90817320246E+03  0.79262201673E+02 0.  0.
         25    2    1    2    0    0 -0.79161815490E+01 -0.18533406818E+03  0.25675494038E+03  0.34056155462E+03  0.12509072836E+03 0.  0.
        -24    2    1    2    0    0 -0.15725302552E+02  0.61561274389E+02  0.18833874762E+04  0.18860920802E+04  0.78472123082E+02 0.  0.
        -11    1    3    3    0    0  0.50479594510E+02  0.55805790947E+02 -0.49320363858E+03  0.49891111921E+03  0.00000000000E+00 0.  1.
         12    1    3    3    0    0 -0.26838110409E+02  0.67967002841E+02 -0.40268555368E+03  0.40926208326E+03  0.00000000000E+00 0. -1.
         13    1    5    5    0    0 -0.12144276734E+02  0.54663392421E+02  0.18681309307E+04  0.18689699688E+04  0.00000000000E+00 0. -1.
        -14    1    5    5    0    0 -0.35810258181E+01  0.68978819676E+01  0.15256545496E+02  0.17122111494E+02  0.00000000000E+00 0.  1.
          5    1    4    4  501    0 -0.39501765794E+02 -0.48888455139E+02  0.15524827288E+03  0.16754094777E+03  0.41800000000E+01 0.  1.
         -5    1    4    4    0  501  0.31585584245E+02 -0.13644561304E+03  0.10150666750E+03  0.17302060685E+03  0.41800000000E+01 0.  1.
</event>
<event>
11    1  0.7577197E-009  0.1774739E+03  0.7561462E-02  0.1071705E+00
         22   -1    0    0    0    0  0.00000000000E+00  0.00000000000E+00  0.13776436703E+04  0.13776436703E+04  0.00000000000E+00 0. -1.
         22   -1    0    0    0    0 -0.00000000000E+00 -0.00000000000E+00 -0.27805513214E+03  0.27805513214E+03  0.00000000000E+00 0. -1.
         24    2    1    2    0    0 -0.49067554421E+02  0.11536532714E+03 -0.20657135985E+03  0.25470254958E+03  0.80528743018E+02 0.  0.
         25    2    1    2    0    0 -0.10881609403E+02 -0.14421396276E+03  0.15781001584E+03  0.24792842108E+03  0.12509366251E+03 0.  0.
        -24    2    1    2    0    0  0.59949163825E+02  0.28848635610E+02  0.11483498822E+04  0.11530678318E+04  0.80198670780E+02 0.  0.
        -11    1    3    3    0    0 -0.69539313281E+02  0.74499576989E+02 -0.12584414146E+03  0.16193409462E+03  0.00000000000E+00 0.  1.
         12    1    3    3    0    0  0.20471758860E+02  0.40865750156E+02 -0.80727218390E+02  0.92768454959E+02  0.00000000000E+00 0. -1.
         13    1    5    5    0    0 -0.69792106383E+00  0.35681770119E+02  0.65264404977E+03  0.65361910278E+03  0.00000000000E+00 0. -1.
        -14    1    5    5    0    0  0.60647084889E+02 -0.68331345087E+01  0.49570583238E+03  0.49944872899E+03  0.00000000000E+00 0.  1.
          5    1    4    4  501    0 -0.42251299729E+02 -0.12283180908E+03  0.60427542076E+02  0.14332405901E+03  0.41800000000E+01 0. -1.
         -5    1    4    4    0  501  0.31369690326E+02 -0.21382153680E+02  0.97382473763E+02  0.10460436207E+03  0.41800000000E+01 0. -1.
</event>
<event>
11    1  0.7577197E-009  0.1334562E+03  0.7561462E-02  0.1115094E+00
         22   -1    0    0    0    0  0.00000000000E+00  0.00000000000E+00  0.13502685104E+04  0.13502685104E+04  0.00000000000E+00 0.  1.
         22   -1    0    0    0    0 -0.00000000000E+00 -0.00000000000E+00 -0.49605194195E+03  0.49605194195E+03  0.00000000000E+00 0.  1.
        -24    2    1    2    0    0 -0.36553558935E+02 -0.18517333190E+02 -0.47107207599E+03  0.47978713528E+03  0.81288007108E+02 0.  0.
         25    2    1    2    0    0  0.58985580847E+02 -0.21882983063E+02  0.24374352851E+03  0.28109739579E+03  0.12508666810E+03 0.  0.
         24    2    1    2    0    0 -0.22432021912E+02  0.40400316252E+02  0.10815451160E+04  0.10854359213E+04  0.79346835043E+02 0.  0.
        -11    1    5    5    0    0 -0.81846469559E+01 -0.21171117302E+02  0.48978563922E+03  0.49031130626E+03  0.00000000000E+00 0.  1.
         12    1    5    5    0    0 -0.14247374957E+02  0.61571433555E+02  0.59175947676E+03  0.59512461506E+03  0.00000000000E+00 0. -1.
         11    1    3    3    0    0  0.69030699791E+01  0.73459572854E+01 -0.55129321843E+01  0.11489468432E+02  0.00000000000E+00 0. -1.
        -12    1    3    3    0    0 -0.43456628914E+02 -0.25863290475E+02 -0.46555914381E+03  0.46829766684E+03  0.00000000000E+00 0.  1.
          5    1    4    4  501    0  0.21996440789E+02 -0.38361257349E+02  0.23538532532E+03  0.23953946074E+03  0.41800000000E+01 0. -1.
         -5    1    4    4    0  501  0.36989140058E+02  0.16478274286E+02  0.83582031844E+01  0.41557935056E+02  0.41800000000E+01 0. -1.
</event>
<event>
11    1  0.8547124E-009  0.1655323E+03  0.7561462E-02  0.1081986E+00
         22   -1    0    0    0    0  0.00000000000E+00  0.00000000000E+00  0.20725813071E+04  0.20725813071E+04  0.00000000000E+00 0.  1.
         22   -1    0    0    0    0 -0.00000000000E+00 -0.00000000000E+00 -0.35542861658E+03  0.35542861658E+03  0.00000000000E+00 0. -1.
         24    2    1    2    0    0  0.19056653341E+02  0.90090527051E+02 -0.18311764658E+03  0.22052001057E+03  0.81348284982E+02 0.  0.
         25    2    1    2    0    0 -0.12627993414E+03 -0.74744513668E+02 -0.89893861531E+02  0.21274699627E+03  0.12508802498E+03 0.  0.
        -24    2    1    2    0    0  0.10722328080E+03 -0.15346013383E+02  0.19901641986E+04  0.19947429168E+04  0.80705853063E+02 0.  0.
        -13    1    3    3    0    0 -0.26392719147E+02  0.68004842922E+01 -0.31433310051E+02  0.41603788185E+02  0.00000000000E+00 0.  1.
         14    1    3    3    0    0  0.45449372488E+02  0.83290042759E+02 -0.15168433653E+03  0.17891622238E+03  0.00000000000E+00 0. -1.
         13    1    5    5    0    0  0.49697785394E+02  0.22955315789E+02  0.12938321846E+04  0.12949897831E+04  0.00000000000E+00 0. -1.
        -14    1    5    5    0    0  0.57525495405E+02 -0.38301329172E+02  0.69633201401E+03  0.69975313374E+03  0.00000000000E+00 0.  1.
          5    1    4    4  501    0 -0.12159797075E+03 -0.37141260142E+02 -0.14210084463E+02  0.12800366634E+03  0.41800000000E+01 0. -1.
         -5    1    4    4    0  501 -0.46819633875E+01 -0.37603253526E+02 -0.75683777068E+02  0.84743329933E+02  0.41800000000E+01 0. -1.
</event>
<event>
11    1  0.7577197E-009  0.1530906E+03  0.7561462E-02  0.1093762E+00
         22   -1    0    0    0    0  0.00000000000E+00  0.00000000000E+00  0.49128552198E+03  0.49128552198E+03  0.00000000000E+00 0. -1.
         22   -1    0    0    0    0 -0.00000000000E+00 -0.00000000000E+00 -0.17163644048E+03  0.17163644048E+03  0.00000000000E+00 0.  1.
         24    2    1    2    0    0  0.40434555534E+02  0.12401069112E+02 -0.47149994201E+02  0.10156635759E+03  0.79396871754E+02 0.  0.
         25    2    1    2    0    0  0.11684689533E+02 -0.85081739793E+02 -0.22885024316E+02  0.15345097886E+03  0.12509214268E+03 0.  0.
        -24    2    1    2    0    0 -0.52119245066E+02  0.72680670681E+02  0.38968410001E+03  0.40790462601E+03  0.80830628589E+02 0.  0.
        -13    1    3    3    0    0  0.19193583429E+02 -0.87852466330E+01 -0.63837499949E+02  0.67236899118E+02  0.00000000000E+00 0.  1.
         14    1    3    3    0    0  0.21240972104E+02  0.21186315745E+02  0.16687505748E+02  0.34329458471E+02  0.00000000000E+00 0. -1.
         11    1    5    5    0    0 -0.32164848493E+02 -0.89899522936E+01  0.15659542520E+03  0.16011721929E+03  0.00000000000E+00 0. -1.
        -12    1    5    5    0    0 -0.19954396574E+02  0.81670622975E+02  0.23308867482E+03  0.24778740672E+03  0.00000000000E+00 0.  1.
          5    1    4    4  501    0 -0.56791934755E+02 -0.38971344056E+02 -0.80800639552E+01  0.69475530543E+02  0.41800000000E+01 0. -1.
         -5    1    4    4    0  501  0.68476624288E+02 -0.46110395737E+02 -0.14804960360E+02  0.83975448318E+02  0.41800000000E+01 0. -1.
</event>
<event>
11    1  0.7577197E-009  0.1901858E+03  0.7561462E-02  0.1061689E+00
         22   -1    0    0    0    0  0.00000000000E+00  0.00000000000E+00  0.88621662551E+03  0.88621662551E+03  0.00000000000E+00 0. -1.
         22   -1    0    0    0    0 -0.00000000000E+00 -0.00000000000E+00 -0.84936914056E+03  0.84936914056E+03  0.00000000000E+00 0.  1.
         24    2    1    2    0    0  0.48382231247E+02  0.51450508276E+02 -0.75777742907E+03  0.76541439532E+03  0.81514228508E+02 0.  0.
         25    2    1    2    0    0  0.69043090616E+02  0.42288004658E+02 -0.87118939682E+01  0.14926197186E+03  0.12509202792E+03 0.  0.
        -24    2    1    2    0    0 -0.11742532186E+03 -0.93738512933E+02  0.80333680799E+03  0.82090939889E+03  0.77243764110E+02 0.  0.
        -11    1    3    3    0    0  0.66426665696E+02  0.57472164713E+02 -0.65831406876E+03  0.66414830027E+03  0.00000000000E+00 0.  1.
         12    1    3    3    0    0 -0.18044434449E+02 -0.60216564369E+01 -0.99463360315E+02  0.10126609505E+03  0.00000000000E+00 0. -1.
         13    1    5    5    0    0 -0.31505801058E+01 -0.43297015206E+02  0.23940218203E+03  0.24330631402E+03  0.00000000000E+00 0. -1.
        -14    1    5    5    0    0 -0.11427474176E+03 -0.50441497727E+02  0.56393462596E+03  0.57760308487E+03  0.00000000000E+00 0.  1.
          5    1    4    4  501    0  0.70870339923E+02  0.17870849897E+02 -0.58441258347E+02  0.93674038208E+02  0.41800000000E+01 0.  1.
         -5    1    4    4    0  501 -0.18272493074E+01  0.24417154761E+02  0.49729364379E+02  0.55587933657E+02  0.41800000000E+01 0.  1.
</event>
<event>
11    1  0.7577197E-009  0.2078492E+03  0.7561462E-02  0.1049108E+00
         22   -1    0    0    0    0  0.00000000000E+00  0.00000000000E+00  0.27534053109E+03  0.27534053109E+03  0.00000000000E+00 0. -1.
         22   -1    0    0    0    0 -0.00000000000E+00 -0.00000000000E+00 -0.21158945471E+04  0.21158945471E+04  0.00000000000E+00 0.  1.
         24    2    1    2    0    0 -0.11283197255E+03  0.11627484318E+03 -0.14804118081E+04  0.14913875232E+04  0.79791790695E+02 0.  0.
         25    2    1    2    0    0  0.10310485387E+03 -0.15016289655E+03 -0.60280501241E+03  0.64202902566E+03  0.12509148817E+03 0.  0.
        -24    2    1    2    0    0  0.97271186765E+01  0.33888053370E+02  0.24266280450E+03  0.25781852924E+03  0.79637556038E+02 0.  0.
        -11    1    3    3    0    0 -0.10405783805E+03  0.56335463554E+02 -0.10712887986E+04  0.10778039748E+04  0.00000000000E+00 0.  1.
         12    1    3    3    0    0 -0.87741345040E+01  0.59939379623E+02 -0.40912300950E+03  0.41358354848E+03  0.00000000000E+00 0. -1.
         11    1    5    5    0    0  0.18598426059E+02  0.22461560629E+02  0.24155635609E+03  0.24331028816E+03  0.00000000000E+00 0. -1.
        -12    1    5    5    0    0 -0.88713073824E+01  0.11426492741E+02  0.11064484097E+01  0.14508241076E+02  0.00000000000E+00 0.  1.
          5    1    4    4  501    0  0.95215610422E+02 -0.78152465429E+02 -0.50745698745E+03  0.52221057710E+03  0.41800000000E+01 0.  1.
         -5    1    4    4    0  501  0.78892434514E+01 -0.72010431118E+02 -0.95348024958E+02  0.11981844856E+03  0.41800000000E+01 0.  1.
</event>
<event>
11    1  0.7577197E-009  0.1712470E+03  0.7561462E-02  0.1076952E+00
         22   -1    0    0    0    0  0.00000000000E+00  0.00000000000E+00  0.15078262536E+04  0.15078262536E+04  0.00000000000E+00 0.  1.
         22   -1    0    0    0    0 -0.00000000000E+00 -0.00000000000E+00 -0.58965002160E+03  0.58965002160E+03  0.00000000000E+00 0. -1.
        -24    2    1    2    0    0  0.33020274582E+02  0.63308617264E+02 -0.49252567400E+03  0.50413729800E+03  0.80464626579E+02 0.  0.
         25    2    1    2    0    0 -0.72752729573E+02 -0.17042927670E+03  0.54385994499E+02  0.23010550594E+03  0.12510639252E+03 0.  0.
         24    2    1    2    0    0  0.39732454991E+02  0.10712065943E+03  0.13563159115E+04  0.13632334712E+04  0.75889009253E+02 0.  0.
        -13    1    5    5    0    0  0.27396547955E+02  0.11349347265E+03  0.10252269732E+04  0.10318535195E+04  0.00000000000E+00 0.  1.
         14    1    5    5    0    0  0.12335907036E+02 -0.63728132169E+01  0.33108893827E+03  0.33137995171E+03  0.00000000000E+00 0. -1.
         11    1    3    3    0    0 -0.15428360633E+02  0.42062373471E+02 -0.33460552294E+03  0.33759166689E+03  0.00000000000E+00 0. -1.
        -12    1    3    3    0    0  0.48448635214E+02  0.21246243792E+02 -0.15792015107E+03  0.16654563111E+03  0.00000000000E+00 0.  1.
          5    1    4    4  501    0 -0.43081835880E+02 -0.33014094669E+01  0.41122943877E+02  0.59795591814E+02  0.41800000000E+01 0. -1.
         -5    1    4    4    0  501 -0.29670893693E+02 -0.16712786723E+03  0.13263050622E+02  0.17030991412E+03  0.41800000000E+01 0. -1.
</event>
<event>
11    1  0.7577197E-009  0.1287024E+03  0.7561462E-02  0.1120874E+00
         22   -1    0    0    0    0  0.00000000000E+00  0.00000000000E+00  0.21121877641E+03  0.21121877641E+03  0.00000000000E+00 0. -1.
         22   -1    0    0    0    0 -0.00000000000E+00 -0.00000000000E+00 -0.24554520912E+03  0.24554520912E+03  0.00000000000E+00 0.  1.
         24    2    1    2    0    0  0.20045081328E+02  0.16327250950E+02 -0.16658721879E+03  0.18508014746E+03  0.76387008776E+02 0.  0.
         25    2    1    2    0    0 -0.19692478455E+02  0.17390884915E+02  0.22195657529E+02  0.12973142724E+03  0.12508940569E+03 0.  0.
        -24    2    1    2    0    0 -0.35260287292E+00 -0.33718135865E+02  0.11006512854E+03  0.14195241083E+03  0.83060925856E+02 0.  0.
        -11    1    3    3    0    0  0.22764565935E+02  0.34740110252E+02 -0.16005227509E+03  0.16535365579E+03  0.00000000000E+00 0.  1.
         12    1    3    3    0    0 -0.27194846067E+01 -0.18412859302E+02 -0.65349436987E+01  0.19726491664E+02  0.00000000000E+00 0. -1.
         13    1    5    5    0    0 -0.18072672608E+02  0.23249037741E+02  0.43905608177E+02  0.52866262214E+02  0.00000000000E+00 0. -1.
        -14    1    5    5    0    0  0.17720069735E+02 -0.56967173606E+02  0.66159520368E+02  0.89086148617E+02  0.00000000000E+00 0.  1.
          5    1    4    4  501    0 -0.72113106784E+02  0.20247395782E+02  0.15980544553E+02  0.76701417264E+02  0.41800000000E+01 0.  1.
         -5    1    4    4    0  501  0.52420628329E+02 -0.28565108673E+01  0.62151129753E+01  0.53030009976E+02  0.41800000000E+01 0.  1.
</event>
<event>
11    1  0.7577197E-009  0.1775866E+03  0.7561462E-02  0.1071612E+00
         22   -1    0    0    0    0  0.00000000000E+00  0.00000000000E+00  0.30622944692E+03  0.30622944692E+03  0.00000000000E+00 0. -1.
         22   -1    0    0    0    0 -0.00000000000E+00 -0.00000000000E+00 -0.53117457707E+03  0.53117457707E+03  0.00000000000E+00 0.  1.
        -24    2    1    2    0    0  0.10280840265E+03  0.60817097456E+02 -0.35401306816E+03  0.38236042302E+03  0.81277018050E+02 0.  0.
         25    2    1    2    0    0 -0.15231758245E+03 -0.50760625357E+02 -0.84308326166E+02  0.22030210447E+03  0.12509131210E+03 0.  0.
         24    2    1    2    0    0  0.49509179801E+02 -0.10056472099E+02  0.21337626418E+03  0.23474149651E+03  0.83796470990E+02 0.  0.
        -11    1    5    5    0    0 -0.42348739911E+01  0.19471874651E+02  0.99489309572E+01  0.22272612943E+02  0.00000000000E+00 0.  1.
         12    1    5    5    0    0  0.53744053792E+02 -0.29528346750E+02  0.20342733322E+03  0.21246888356E+03  0.00000000000E+00 0. -1.
         11    1    3    3    0    0  0.34328666295E+02 -0.11737175575E+02 -0.16157339914E+03  0.16559644298E+03  0.00000000000E+00 0. -1.
        -12    1    3    3    0    0  0.68479736355E+02  0.72554273031E+02 -0.19243966903E+03  0.21676398004E+03  0.00000000000E+00 0.  1.
          5    1    4    4  501    0 -0.73550491752E+02 -0.85857932689E+02 -0.69310701504E+02  0.13267518677E+03  0.41800000000E+01 0. -1.
         -5    1    4    4    0  501 -0.78767090699E+02  0.35097307331E+02 -0.14997624662E+02  0.87626917694E+02  0.41800000000E+01 0. -1.
</event>
<event>
11    1  0.7577197E-009  0.1885957E+03  0.7561462E-02  0.1062895E+00
         22   -1    0    0    0    0  0.00000000000E+00  0.00000000000E+00  0.11867898365E+04  0.11867898365E+04  0.00000000000E+00 0.  1.
         22   -1    0    0    0    0 -0.00000000000E+00 -0.00000000000E+00 -0.47137694223E+03  0.47137694223E+03  0.00000000000E+00 0.  1.
         24    2    1    2    0    0 -0.11343842503E+03 -0.80159236948E+02 -0.38685956113E+03  0.41872930851E+03  0.79875742427E+02 0.  0.
         25    2    1    2    0    0  0.70196830113E+02  0.19721830893E+03  0.17493171608E+03  0.30012282564E+03  0.12509975557E+03 0.  0.
        -24    2    1    2    0    0  0.43241594919E+02 -0.11705907198E+03  0.92734073934E+03  0.93931464461E+03  0.82331603137E+02 0.  0.
        -13    1    3    3    0    0 -0.86111152375E+02 -0.71645435166E+02 -0.19614161769E+03  0.22587548148E+03  0.00000000000E+00 0.  1.
         14    1    3    3    0    0 -0.27327272657E+02 -0.85138017818E+01 -0.19071794344E+03  0.19285382703E+03  0.00000000000E+00 0. -1.
         11    1    5    5    0    0  0.53748766359E+02 -0.36487872802E+02  0.31691811325E+03  0.32350793692E+03  0.00000000000E+00 0. -1.
        -12    1    5    5    0    0 -0.10507171440E+02 -0.80571199179E+02  0.61042262609E+03  0.61580670769E+03  0.00000000000E+00 0.  1.
          5    1    4    4  501    0  0.10438861957E+03  0.12002777230E+03  0.10818218219E+03  0.19241753289E+03  0.41800000000E+01 0. -1.
         -5    1    4    4    0  501 -0.34191789459E+02  0.77190536630E+02  0.66749533896E+02  0.10770529275E+03  0.41800000000E+01 0. -1.
</event>
<event>
11    1  0.7577197E-009  0.1322548E+03  0.7561462E-02  0.1116529E+00
         22   -1    0    0    0    0  0.00000000000E+00  0.00000000000E+00  0.25123583570E+04  0.25123583570E+04  0.00000000000E+00 0.  1.
         22   -1    0    0    0    0 -0.00000000000E+00 -0.00000000000E+00 -0.23483355363E+03  0.23483355363E+03  0.00000000000E+00 0.  1.
         24    2    1    2    0    0 -0.19123502767E+02 -0.42732087523E+02 -0.18679540748E+03  0.21006338242E+03  0.83918774513E+02 0.  0.
         25    2    1    2    0    0  0.15702128198E+02 -0.17204917519E+01  0.76394990244E+02  0.14743727067E+03  0.12510810257E+03 0.  0.
        -24    2    1    2    0    0  0.34213745686E+01  0.44452579275E+02  0.23879252206E+04  0.23896912575E+04  0.80310083883E+02 0.  0.
        -13    1    3    3    0    0  0.14898174307E+02 -0.56535084920E+02 -0.12841329324E+03  0.14109622711E+03  0.00000000000E+00 0.  1.
         14    1    3    3    0    0 -0.34021677074E+02  0.13802997397E+02 -0.58382114237E+02  0.68967155305E+02  0.00000000000E+00 0. -1.
         11    1    5    5    0    0 -0.25429098242E+02  0.38344028063E+02  0.70100186464E+03  0.70251015491E+03  0.00000000000E+00 0. -1.
        -12    1    5    5    0    0  0.28850472811E+02  0.61085512116E+01  0.16869233559E+04  0.16871811026E+04  0.00000000000E+00 0.  1.
          5    1    4    4  501    0  0.40024093689E+01 -0.61814381239E+02  0.53449710500E+02  0.81923018507E+02  0.41800000000E+01 0. -1.
         -5    1    4    4    0  501  0.11699718829E+02  0.60093889488E+02  0.22945279744E+02  0.65514252167E+02  0.41800000000E+01 0. -1.
</event>
<event>
11    1  0.2185020E-008  0.2019531E+03  0.7561462E-02  0.1053151E+00
         22   -1    0    0    0    0  0.00000000000E+00  0.00000000000E+00  0.10834111650E+04  0.10834111650E+04  0.00000000000E+00 0.  1.
         22   -1    0    0    0    0 -0.00000000000E+00 -0.00000000000E+00 -0.18889308405E+04  0.18889308405E+04  0.00000000000E+00 0. -1.
         24    2    1    2    0    0  0.97887017196E+02  0.42621945780E+02 -0.12678278140E+04  0.12748023862E+04  0.79594343079E+02 0.  0.
         25    2    1    2    0    0 -0.18757489084E+03  0.87809887499E+02 -0.58600478914E+03  0.63399057775E+03  0.12509006261E+03 0.  0.
        -24    2    1    2    0    0  0.89687873642E+02 -0.13043183328E+03  0.10483129277E+04  0.10635490415E+04  0.84381227039E+02 0.  0.
        -11    1    3    3    0    0 -0.10166753321E+02  0.16694742115E+02 -0.11692445264E+03  0.11854705780E+03  0.00000000000E+00 0.  1.
         12    1    3    3    0    0  0.10805377052E+03  0.25927203665E+02 -0.11509033614E+04  0.11562553284E+04  0.00000000000E+00 0. -1.
         13    1    5    5    0    0 -0.51695663956E+01 -0.41552234613E+02  0.41012420086E+03  0.41225619795E+03  0.00000000000E+00 0. -1.
        -14    1    5    5    0    0  0.94857440037E+02 -0.88879598667E+02  0.63818872687E+03  0.65129284357E+03  0.00000000000E+00 0.  1.
          5    1    4    4  501    0 -0.11198614654E+03 -0.16189704075E+02 -0.28310202876E+03  0.30490528796E+03  0.41800000000E+01 0.  1.
         -5    1    4    4    0  501 -0.75588744298E+02  0.10399959157E+03 -0.30290276038E+03  0.32908528979E+03  0.41800000000E+01 0.  1.
</event>
<event>
11    1  0.7577197E-009  0.1374963E+03  0.7561462E-02  0.1110387E+00
         22   -1    0    0    0    0  0.00000000000E+00  0.00000000000E+00  0.92272229395E+03  0.92272229395E+03  0.00000000000E+00 0. -1.
         22   -1    0    0    0    0 -0.00000000000E+00 -0.00000000000E+00 -0.47181754875E+03  0.47181754875E+03  0.00000000000E+00 0.  1.
         24    2    1    2    0    0 -0.48233114516E+02  0.30214404655E+02 -0.43421001087E+03  0.44498211382E+03  0.78939245578E+02 0.  0.
         25    2    1    2    0    0  0.70256647460E+02 -0.39527875792E+01  0.14414968578E+03  0.20341933599E+03  0.12509465737E+03 0.  0.
        -24    2    1    2    0    0 -0.22023532944E+02 -0.26261617076E+02  0.74096507029E+03  0.74613839290E+03  0.80737583771E+02 0.  0.
        -11    1    3    3    0    0 -0.65551255269E+02  0.15617606374E+02 -0.38443620242E+03  0.39029741278E+03  0.00000000000E+00 0.  1.
         12    1    3    3    0    0  0.17318140754E+02  0.14596798281E+02 -0.49773808454E+02  0.54684701034E+02  0.00000000000E+00 0. -1.
         13    1    5    5    0    0 -0.24849374670E+02 -0.54182679549E+02  0.51396678822E+03  0.51741193800E+03  0.00000000000E+00 0. -1.
        -14    1    5    5    0    0  0.28258417259E+01  0.27921062473E+02  0.22699828207E+03  0.22872645490E+03  0.00000000000E+00 0.  1.
          5    1    4    4  501    0 -0.17502595657E+02  0.11472498092E+02 -0.11334544216E+02  0.24164092364E+02  0.41800000000E+01 0.  1.
         -5    1    4    4    0  501  0.87759243117E+02 -0.15425285671E+02  0.15548422999E+03  0.17925524362E+03  0.41800000000E+01 0.  1.
</event>
<event>
11    1  0.7577197E-009  0.2141012E+03  0.7561462E-02  0.1044977E+00
         22   -1    0    0    0    0  0.00000000000E+00  0.00000000000E+00  0.20823630273E+04  0.20823630273E+04  0.00000000000E+00 0. -1.
         22   -1    0    0    0    0 -0.00000000000E+00 -0.00000000000E+00 -0.10173374728E+04  0.10173374728E+04  0.00000000000E+00 0.  1.
         24    2    1    2    0    0  0.93696677696E+02 -0.26730286416E+02 -0.99217122152E+03  0.10000508327E+04  0.78767757094E+02 0.  0.
         25    2    1    2    0    0 -0.14405441525E+03 -0.13345353648E+03  0.10789180933E+04  0.11037541291E+04  0.12508958603E+03 0.  0.
        -24    2    1    2    0    0  0.50357737552E+02  0.16018382290E+03  0.97827868277E+03  0.99589553832E+03  0.81141747825E+02 0.  0.
        -11    1    3    3    0    0  0.10794241269E+03 -0.22234383569E+02 -0.88845972708E+03  0.89526902041E+03  0.00000000000E+00 0.  1.
         12    1    3    3    0    0 -0.14245734994E+02 -0.44959028465E+01 -0.10371149444E+03  0.10478181229E+03  0.00000000000E+00 0. -1.
         11    1    5    5    0    0  0.49246753873E+02  0.16925189818E+03  0.90118358992E+03  0.91826102528E+03  0.00000000000E+00 0. -1.
        -12    1    5    5    0    0  0.11109836789E+01 -0.90680752831E+01  0.77095092850E+02  0.77634513044E+02  0.00000000000E+00 0.  1.
          5    1    4    4  501    0 -0.22293677256E+02 -0.56570810800E+02  0.12553998681E+03  0.13955294826E+03  0.41800000000E+01 0.  1.
         -5    1    4    4    0  501 -0.12176073799E+03 -0.76882725685E+02  0.95337810644E+03  0.96420118080E+03  0.41800000000E+01 0.  1.
</event>
<event>
11    1  0.7577197E-009  0.1594361E+03  0.7561462E-02  0.1087609E+00
         22   -1    0    0    0    0  0.00000000000E+00  0.00000000000E+00  0.23567417078E+03  0.23567417078E+03  0.00000000000E+00 0.  1.
         22   -1    0    0    0    0 -0.00000000000E+00 -0.00000000000E+00 -0.49350859231E+03  0.49350859231E+03  0.00000000000E+00 0.  1.
         24    2    1    2    0    0  0.69264788665E+02 -0.77742919643E+02 -0.36243533899E+03  0.38551524314E+03  0.80131487179E+02 0.  0.
         25    2    1    2    0    0 -0.83892202878E+02  0.20824475215E+02 -0.47833213403E+02  0.15939295239E+03  0.12508611632E+03 0.  0.
        -24    2    1    2    0    0  0.14627414212E+02  0.56918444428E+02  0.15243413086E+03  0.18427456757E+03  0.85248351520E+02 0.  0.
        -13    1    3    3    0    0  0.76143313688E+02 -0.89192220944E+02 -0.31107482324E+03  0.33244638989E+03  0.00000000000E+00 0.  1.
         14    1    3    3    0    0 -0.68785250227E+01  0.11449301302E+02 -0.51360515753E+02  0.53068853249E+02  0.00000000000E+00 0. -1.
         11    1    5    5    0    0  0.22846270579E+02 -0.17060901678E+02  0.33776397259E+02  0.44202618217E+02  0.00000000000E+00 0. -1.
        -12    1    5    5    0    0 -0.82188563666E+01  0.73979346106E+02  0.11865773361E+03  0.14007194935E+03  0.00000000000E+00 0.  1.
          5    1    4    4  501    0 -0.29160676182E+02  0.30816859772E+02  0.37940529918E+02  0.57069957876E+02  0.41800000000E+01 0.  1.
         -5    1    4    4    0  501 -0.54731526696E+02 -0.99923845569E+01 -0.85773743321E+02  0.10232299452E+03  0.41800000000E+01 0.  1.
</event>
<event>
11    1  0.7577197E-009  0.3284574E+03  0.7561462E-02  0.9888183E-01
         22   -1    0    0    0    0  0.00000000000E+00  0.00000000000E+00  0.32725772158E+03  0.32725772158E+03  0.00000000000E+00 0.  1.
         22   -1    0    0    0    0 -0.00000000000E+00 -0.00000000000E+00 -0.41549975322E+03  0.41549975322E+03  0.00000000000E+00 0.  1.
         24    2    1    2    0    0  0.11916901168E+03 -0.49450088708E+02 -0.18650194903E+03  0.23960885065E+03  0.77348947660E+02 0.  0.
         25    2    1    2    0    0  0.68293260676E+02 -0.88227790880E+02 -0.93089455529E+02  0.19173281693E+03  0.12509082228E+03 0.  0.
        -24    2    1    2    0    0 -0.18746227235E+03  0.13767787959E+03  0.19134937292E+03  0.31141580722E+03  0.79170198850E+02 0.  0.
        -13    1    3    3    0    0  0.12963035884E+03 -0.45071674282E+02 -0.18058312349E+03  0.22681655637E+03  0.00000000000E+00 0.  1.
         14    1    3    3    0    0 -0.10461347161E+02 -0.43784144256E+01 -0.59188255384E+01  0.12792294284E+02  0.00000000000E+00 0. -1.
         13    1    5    5    0    0 -0.74728968988E+01  0.39080214874E+02  0.39983800951E+02  0.56407550215E+02  0.00000000000E+00 0. -1.
        -14    1    5    5    0    0 -0.17998937546E+03  0.98597664713E+02  0.15136557197E+03  0.25500825700E+03  0.00000000000E+00 0.  1.
          5    1    4    4  501    0 -0.30063474391E+02  0.51578778920E+01 -0.26310142486E+02  0.40498298661E+02  0.41800000000E+01 0.  1.
         -5    1    4    4    0  501  0.98356735067E+02 -0.93385668772E+02 -0.66779313042E+02  0.15123451827E+03  0.41800000000E+01 0.  1.
</event>
<event>
11    1  0.7577197E-009  0.1757577E+03  0.7561462E-02  0.1073127E+00
         22   -1    0    0    0    0  0.00000000000E+00  0.00000000000E+00  0.51213509975E+03  0.51213509975E+03  0.00000000000E+00 0. -1.
         22   -1    0    0    0    0 -0.00000000000E+00 -0.00000000000E+00 -0.58813210001E+03  0.58813210001E+03  0.00000000000E+00 0. -1.
        -24    2    1    2    0    0  0.10878889147E+03 -0.56551500684E+02 -0.50417161420E+03  0.52613668685E+03  0.87164795354E+02 0.  0.
         25    2    1    2    0    0 -0.13909596064E+03  0.21836505767E+02  0.64916053120E+02  0.19919575115E+03  0.12506132125E+03 0.  0.
         24    2    1    2    0    0  0.30307069172E+02  0.34714994917E+02  0.36325856082E+03  0.37493476176E+03  0.80595559760E+02 0.  0.
        -11    1    5    5    0    0 -0.57918724793E+01 -0.17547193399E+02  0.26923981228E+02  0.32655023322E+02  0.00000000000E+00 0.  1.
         12    1    5    5    0    0  0.36098941651E+02  0.52262188315E+02  0.33633457959E+03  0.34227973843E+03  0.00000000000E+00 0. -1.
         13    1    3    3    0    0  0.84295900081E+02 -0.80206112155E+02 -0.38571172573E+03  0.40288007466E+03  0.00000000000E+00 0. -1.
        -14    1    3    3    0    0  0.24492991390E+02  0.23654611471E+02 -0.11845988847E+03  0.12325661219E+03  0.00000000000E+00 0.  1.
          5    1    4    4  501    0 -0.10599277100E+03  0.62846941560E+02  0.76463125148E+02  0.14508027942E+03  0.41800000000E+01 0. -1.
         -5    1    4    4    0  501 -0.33103189639E+02 -0.41010435793E+02 -0.11547072028E+02  0.54115471730E+02  0.41800000000E+01 0. -1.
</event>
<event>
11    1  0.7577197E-009  0.2047392E+03  0.7561462E-02  0.1051222E+00
         22   -1    0    0    0    0  0.00000000000E+00  0.00000000000E+00  0.47570889355E+03  0.47570889355E+03  0.00000000000E+00 0. -1.
         22   -1    0    0    0    0 -0.00000000000E+00 -0.00000000000E+00 -0.42930476306E+03  0.42930476306E+03  0.00000000000E+00 0.  1.
        -24    2    1    2    0    0 -0.37560282798E+02  0.15278429310E+03 -0.27799448007E+03  0.32975068300E+03  0.81858212314E+02 0.  0.
         25    2    1    2    0    0  0.28772660284E+02 -0.17908218175E+03 -0.15611727073E+02  0.22088453584E+03  0.12509179969E+03 0.  0.
         24    2    1    2    0    0  0.87876225138E+01  0.26297888653E+02  0.34001033763E+03  0.35437843778E+03  0.95959607168E+02 0.  0.
        -13    1    5    5    0    0 -0.24554536547E+02  0.47533319329E+01  0.20297080751E+02  0.32210105813E+02  0.00000000000E+00 0.  1.
         14    1    5    5    0    0  0.33342159060E+02  0.21544556720E+02  0.31971325688E+03  0.32216833197E+03  0.00000000000E+00 0. -1.
         13    1    3    3    0    0 -0.58397036731E+01 -0.43302684663E+01 -0.53028659256E+02  0.53524686515E+02  0.00000000000E+00 0. -1.
        -14    1    3    3    0    0 -0.31720579125E+02  0.15711456157E+03 -0.22496582082E+03  0.27622599648E+03  0.00000000000E+00 0.  1.
          5    1    4    4  501    0  0.13991056397E+02  0.16251170166E+02 -0.11975077918E+02  0.24914354938E+02  0.41800000000E+01 0. -1.
         -5    1    4    4    0  501  0.14781603887E+02 -0.19533335192E+03 -0.36366491552E+01  0.19597018090E+03  0.41800000000E+01 0. -1.
</event>
<event>
11    1  0.7577197E-009  0.1378245E+03  0.7561462E-02  0.1110012E+00
         22   -1    0    0    0    0  0.00000000000E+00  0.00000000000E+00  0.74861289540E+03  0.74861289540E+03  0.00000000000E+00 0.  1.
         22   -1    0    0    0    0 -0.00000000000E+00 -0.00000000000E+00 -0.88551295175E+03  0.88551295175E+03  0.00000000000E+00 0. -1.
        -24    2    1    2    0    0  0.47931057778E+01  0.17370370936E+02 -0.82556894502E+03  0.83000804696E+03  0.83812716195E+02 0.  0.
         25    2    1    2    0    0 -0.53391643223E+02 -0.47206541930E+02  0.41704854491E+02  0.14988714502E+03  0.12509091169E+03 0.  0.
         24    2    1    2    0    0  0.48598537445E+02  0.29836170994E+02  0.64696403418E+03  0.65423065517E+03  0.78760863935E+02 0.  0.
        -13    1    5    5    0    0  0.44364164158E+02  0.37227252496E+02  0.64150388850E+03  0.64411279008E+03  0.00000000000E+00 0.  1.
         14    1    5    5    0    0  0.42343732873E+01 -0.73910815017E+01  0.54601456857E+01  0.10117865082E+02  0.00000000000E+00 0. -1.
         13    1    3    3    0    0  0.27660003105E+02  0.43096208854E+02 -0.47395311706E+03  0.47671156495E+03  0.00000000000E+00 0. -1.
        -14    1    3    3    0    0 -0.22866897327E+02 -0.25725837918E+02 -0.35161582796E+03  0.35329648201E+03  0.00000000000E+00 0.  1.
          5    1    4    4  501    0 -0.86922052847E+02 -0.50929846681E+02  0.66397052510E+01  0.10104875378E+03  0.41800000000E+01 0.  1.
         -5    1    4    4    0  501  0.33530409624E+02  0.37233047506E+01  0.35065149240E+02  0.48838391241E+02  0.41800000000E+01 0.  1.
</event>
<event>
11    1  0.7577197E-009  0.1415601E+03  0.7561462E-02  0.1105829E+00
         22   -1    0    0    0    0  0.00000000000E+00  0.00000000000E+00  0.32973453779E+03  0.32973453779E+03  0.00000000000E+00 0.  1.
         22   -1    0    0    0    0 -0.00000000000E+00 -0.00000000000E+00 -0.11956385337E+04  0.11956385337E+04  0.00000000000E+00 0. -1.
        -24    2    1    2    0    0  0.10512546344E+02 -0.66771847586E+02 -0.11417686568E+04  0.11475358526E+04  0.92918642512E+02 0.  0.
         25    2    1    2    0    0 -0.30920715532E+02  0.13684925184E+02  0.64191489777E+02  0.14460591995E+03  0.12508779676E+03 0.  0.
         24    2    1    2    0    0  0.20408169187E+02  0.53086922402E+02  0.21167317113E+03  0.23323129890E+03  0.79728242852E+02 0.  0.
        -11    1    5    5    0    0 -0.17631388136E+02  0.49271897589E+02  0.16385726661E+03  0.17201101582E+03  0.00000000000E+00 0.  1.
         12    1    5    5    0    0  0.38039557323E+02  0.38150248136E+01  0.47815904516E+02  0.61220283080E+02  0.00000000000E+00 0. -1.
         13    1    3    3    0    0 -0.39525441323E+02 -0.39221764418E+02 -0.67304762760E+03  0.67534710804E+03  0.00000000000E+00 0. -1.
        -14    1    3    3    0    0  0.50037987668E+02 -0.27550083168E+02 -0.46872102922E+03  0.47218874459E+03  0.00000000000E+00 0.  1.
          5    1    4    4  501    0 -0.47657396157E+02  0.24970254901E+02 -0.20284337232E+02  0.57651259962E+02  0.41800000000E+01 0.  1.
         -5    1    4    4    0  501  0.16736680625E+02 -0.11285329717E+02  0.84475827010E+02  0.86954659991E+02  0.41800000000E+01 0.  1.
</event>
<event>
11    1  0.7577197E-009  0.2285952E+03  0.7561462E-02  0.1035963E+00
         22   -1    0    0    0    0  0.00000000000E+00  0.00000000000E+00  0.11810309791E+04  0.11810309791E+04  0.00000000000E+00 0.  1.
         22   -1    0    0    0    0 -0.00000000000E+00 -0.00000000000E+00 -0.33588551270E+03  0.33588551270E+03  0.00000000000E+00 0. -1.
        -24    2    1    2    0    0  0.11557481986E+03  0.97151988502E+02 -0.22953301282E+03  0.28553891170E+03  0.77788291297E+02 0.  0.
         25    2    1    2    0    0 -0.12151596282E+03 -0.27212175274E+03  0.32734505808E+03  0.46002028009E+03  0.12508994168E+03 0.  0.
         24    2    1    2    0    0  0.59411429608E+01  0.17496976423E+03  0.74733342115E+03  0.77135730002E+03  0.76387998791E+02 0.  0.
        -13    1    5    5    0    0  0.69270865344E+01  0.17477558358E+03  0.74914068733E+03  0.76928945044E+03  0.00000000000E+00 0.  1.
         14    1    5    5    0    0 -0.98594357363E+00  0.19418065027E+00 -0.18072661811E+01  0.20678495846E+01  0.00000000000E+00 0. -1.
         13    1    3    3    0    0  0.65511019695E+02  0.96631186054E+02 -0.18372219332E+03  0.21767665042E+03  0.00000000000E+00 0. -1.
        -14    1    3    3    0    0  0.50063800169E+02  0.52080244795E+00 -0.45810819502E+02  0.67862261280E+02  0.00000000000E+00 0.  1.
          5    1    4    4  501    0  0.15861216792E+02 -0.50617856676E+02  0.19591629891E+02  0.56701410692E+02  0.41800000000E+01 0.  1.
         -5    1    4    4    0  501 -0.13737717962E+03 -0.22150389606E+03  0.30775342819E+03  0.40331886940E+03  0.41800000000E+01 0.  1.
</event>
<event>
11    1  0.7577197E-009  0.1309965E+03  0.7561462E-02  0.1118051E+00
         22   -1    0    0    0    0  0.00000000000E+00  0.00000000000E+00  0.58690181611E+03  0.58690181611E+03  0.00000000000E+00 0.  1.
         22   -1    0    0    0    0 -0.00000000000E+00 -0.00000000000E+00 -0.36942140824E+03  0.36942140824E+03  0.00000000000E+00 0. -1.
         24    2    1    2    0    0  0.89252219673E+01  0.39007291646E+02 -0.30361467806E+03  0.31730049354E+03  0.83045180954E+02 0.  0.
         25    2    1    2    0    0 -0.17268952187E+02 -0.23451643569E+02  0.17347703274E+02  0.12960104414E+03  0.12508913437E+03 0.  0.
        -24    2    1    2    0    0  0.83437302197E+01 -0.15555648078E+02  0.50374738265E+03  0.50942168666E+03  0.73738953674E+02 0.  0.
        -13    1    3    3    0    0 -0.14666822627E+02  0.57110496024E+02 -0.15715550169E+03  0.16785284077E+03  0.00000000000E+00 0.  1.
         14    1    3    3    0    0  0.23592044595E+02 -0.18103204378E+02 -0.14645917637E+03  0.14944765278E+03  0.00000000000E+00 0. -1.
         13    1    5    5    0    0  0.92971978770E+01  0.27396033888E+02  0.28721357729E+03  0.28866696995E+03  0.00000000000E+00 0. -1.
        -14    1    5    5    0    0 -0.95346765731E+00 -0.42951681966E+02  0.21653380537E+03  0.22075471671E+03  0.00000000000E+00 0.  1.
          5    1    4    4  501    0  0.36775223646E+02 -0.53893654140E+02  0.12891994896E+01  0.65391723223E+02  0.41800000000E+01 0. -1.
         -5    1    4    4    0  501 -0.54044175833E+02  0.30442010571E+02  0.16058503784E+02  0.64209320919E+02  0.41800000000E+01 0. -1.
</event>
<event>
11    1  0.7577197E-009  0.1444399E+03  0.7561462E-02  0.1102699E+00
         22   -1    0    0    0    0  0.00000000000E+00  0.00000000000E+00  0.11954564190E+04  0.11954564190E+04  0.00000000000E+00 0. -1.
         22   -1    0    0    0    0 -0.00000000000E+00 -0.00000000000E+00 -0.94003153981E+03  0.94003153981E+03  0.00000000000E+00 0.  1.
        -24    2    1    2    0    0  0.41671110916E+02 -0.24297713021E+00 -0.73680031955E+03  0.74180749351E+03  0.75280183388E+02 0.  0.
         25    2    1    2    0    0 -0.30787406379E+02  0.71706880610E+02 -0.17082080573E+03  0.22564882865E+03  0.12509158678E+03 0.  0.
         24    2    1    2    0    0 -0.10883704537E+02 -0.71463903480E+02  0.11630460045E+04  0.11680316367E+04  0.79977191658E+02 0.  0.
        -11    1    5    5    0    0 -0.33475760764E+02 -0.25170917364E+02  0.82706038018E+03  0.82812020510E+03  0.00000000000E+00 0.  1.
         12    1    5    5    0    0  0.22592056227E+02 -0.46292986116E+02  0.33598562430E+03  0.33991143156E+03  0.00000000000E+00 0. -1.
         11    1    3    3    0    0  0.32416431120E+02 -0.16546874510E+02 -0.13815114307E+03  0.14286483960E+03  0.00000000000E+00 0. -1.
        -12    1    3    3    0    0  0.92546797952E+01  0.16303897379E+02 -0.59864917648E+03  0.59894265390E+03  0.00000000000E+00 0.  1.
          5    1    4    4  501    0 -0.40662962560E+02 -0.72320679784E+01 -0.51637130911E+01  0.41831993310E+02  0.41800000000E+01 0. -1.
         -5    1    4    4    0  501  0.98755561813E+01  0.78938948589E+02 -0.16565709263E+03  0.18381683534E+03  0.41800000000E+01 0. -1.
</event>
<event>
11    1  0.7577197E-009  0.1798163E+03  0.7561462E-02  0.1069791E+00
         22   -1    0    0    0    0  0.00000000000E+00  0.00000000000E+00  0.25257630483E+03  0.25257630483E+03  0.00000000000E+00 0.  1.
         22   -1    0    0    0    0 -0.00000000000E+00 -0.00000000000E+00 -0.64527059079E+03  0.64527059079E+03  0.00000000000E+00 0. -1.
        -24    2    1    2    0    0 -0.13753973435E+03 -0.27991148071E+02 -0.50594207863E+03  0.53126066394E+03  0.80992735643E+02 0.  0.
         25    2    1    2    0    0  0.80435312372E+02  0.28920007781E+02 -0.63578196321E+02  0.16430142156E+03  0.12508622527E+03 0.  0.
         24    2    1    2    0    0  0.57104421978E+02 -0.92885970930E+00  0.17682598899E+03  0.20228481011E+03  0.79937076680E+02 0.  0.
        -13    1    5    5    0    0 -0.17798428742E+02 -0.71224567854E+01  0.16809228592E+02  0.25496345272E+02  0.00000000000E+00 0.  1.
         14    1    5    5    0    0  0.74902850721E+02  0.61935970761E+01  0.16001676040E+03  0.17678846484E+03  0.00000000000E+00 0. -1.
         11    1    3    3    0    0 -0.70876133759E+02 -0.51807296514E+02 -0.33330882750E+03  0.34467694556E+03  0.00000000000E+00 0. -1.
        -12    1    3    3    0    0 -0.66663600591E+02  0.23816148443E+02 -0.17263325113E+03  0.18658371839E+03  0.00000000000E+00 0.  1.
          5    1    4    4  501    0 -0.21101536744E+02 -0.18057190558E+02 -0.41624490950E+02  0.50213619972E+02  0.41800000000E+01 0.  1.
         -5    1    4    4    0  501  0.10153684912E+03  0.46977198339E+02 -0.21953705371E+02  0.11408780159E+03  0.41800000000E+01 0.  1.
</event>
<event>
11    1  0.7577197E-009  0.1459677E+03  0.7561462E-02  0.1101072E+00
         22   -1    0    0    0    0  0.00000000000E+00  0.00000000000E+00  0.15291130021E+03  0.15291130021E+03  0.00000000000E+00 0. -1.
         22   -1    0    0    0    0 -0.00000000000E+00 -0.00000000000E+00 -0.11412882604E+04  0.11412882604E+04  0.00000000000E+00 0. -1.
        -24    2    1    2    0    0  0.30020575171E+02 -0.45400513170E+02 -0.88406478753E+03  0.88940477134E+03  0.80671291102E+02 0.  0.
         25    2    1    2    0    0 -0.93294754797E+02  0.52496384511E+01 -0.20311435696E+03  0.25619216601E+03  0.12509002337E+03 0.  0.
         24    2    1    2    0    0  0.63274179626E+02  0.40150874719E+02  0.98802184329E+02  0.14860262322E+03  0.81885001384E+02 0.  0.
        -13    1    5    5    0    0  0.34789569520E+02  0.54474291218E+02  0.27015698298E+02  0.70054339663E+02  0.00000000000E+00 0.  1.
         14    1    5    5    0    0  0.28484610106E+02 -0.14323416499E+02  0.71786486031E+02  0.78548283557E+02  0.00000000000E+00 0. -1.
         13    1    3    3    0    0  0.14277945388E+01  0.15815747956E+02 -0.43460831377E+03  0.43489833626E+03  0.00000000000E+00 0. -1.
        -14    1    3    3    0    0  0.28592780632E+02 -0.61216261126E+02 -0.44945647375E+03  0.45450643508E+03  0.00000000000E+00 0.  1.
          5    1    4    4  501    0 -0.88263229337E+02 -0.27973420275E+02 -0.63059319486E+02  0.11210200743E+03  0.41800000000E+01 0. -1.
         -5    1    4    4    0  501 -0.50315254603E+01  0.33223058726E+02 -0.14005503747E+03  0.14409015858E+03  0.41800000000E+01 0. -1.
</event>
<event>
11    1  0.7577197E-009  0.1486048E+03  0.7561462E-02  0.1098313E+00
         22   -1    0    0    0    0  0.00000000000E+00  0.00000000000E+00  0.38770006575E+03  0.38770006575E+03  0.00000000000E+00 0.  1.
         22   -1    0    0    0    0 -0.00000000000E+00 -0.00000000000E+00 -0.10839206349E+04  0.10839206349E+04  0.00000000000E+00 0.  1.
        -24    2    1    2    0    0  0.11969793813E+02  0.52510775265E+02 -0.87161354540E+03  0.87696827067E+03  0.80389786446E+02 0.  0.
         25    2    1    2    0    0 -0.87898842705E+02 -0.74583793565E+02 -0.16453259707E+03  0.23665852746E+03  0.12508930534E+03 0.  0.
         24    2    1    2    0    0  0.75929048892E+02  0.22073018300E+02  0.33992557335E+03  0.35799390249E+03  0.79735815026E+02 0.  0.
        -13    1    5    5    0    0  0.90733090937E+02  0.67874738258E+01  0.27865238884E+03  0.29313088782E+03  0.00000000000E+00 0.  1.
         14    1    5    5    0    0 -0.14804042045E+02  0.15285544475E+02  0.61273184516E+02  0.64863014666E+02  0.00000000000E+00 0. -1.
         11    1    3    3    0    0 -0.15542213549E+01  0.21751755113E+02 -0.48590993352E+02  0.53260107862E+02  0.00000000000E+00 0. -1.
        -12    1    3    3    0    0  0.13524015168E+02  0.30759020151E+02 -0.82302255205E+03  0.82370816281E+03  0.00000000000E+00 0.  1.
          5    1    4    4  501    0  0.14438187298E+02  0.20783548077E+02 -0.84092703564E+01  0.26992690697E+02  0.41800000000E+01 0.  1.
         -5    1    4    4    0  501 -0.10233703000E+03 -0.95367341642E+02 -0.15612332672E+03  0.20966583677E+03  0.41800000000E+01 0.  1.
</event>
<event>
11    1  0.7577197E-009  0.1494330E+03  0.7561462E-02  0.1097460E+00
         22   -1    0    0    0    0  0.00000000000E+00  0.00000000000E+00  0.57359284045E+03  0.57359284045E+03  0.00000000000E+00 0. -1.
         22   -1    0    0    0    0 -0.00000000000E+00 -0.00000000000E+00 -0.27233298050E+03  0.27233298050E+03  0.00000000000E+00 0. -1.
        -24    2    1    2    0    0 -0.79941964584E+02 -0.14403001386E+02 -0.21666637746E+03  0.24470367729E+03  0.79607828815E+02 0.  0.
         25    2    1    2    0    0  0.94607649911E+02 -0.37671163709E+02  0.14792758887E+03  0.21888263919E+03  0.12512919002E+03 0.  0.
         24    2    1    2    0    0 -0.14665685326E+02  0.52074165095E+02  0.36999864855E+03  0.38233950447E+03  0.79735160094E+02 0.  0.
        -11    1    5    5    0    0 -0.38787907588E+02  0.48522581454E+01  0.10392755161E+03  0.11103594989E+03  0.00000000000E+00 0.  1.
         12    1    5    5    0    0  0.24122222261E+02  0.47221906950E+02  0.26607109694E+03  0.27130355458E+03  0.00000000000E+00 0. -1.
         11    1    3    3    0    0 -0.39098148617E+02  0.32733456227E+02 -0.10737726834E+03  0.11886976965E+03  0.00000000000E+00 0. -1.
        -12    1    3    3    0    0 -0.40843815967E+02 -0.47136457613E+02 -0.10928910913E+03  0.12583390764E+03  0.00000000000E+00 0.  1.
          5    1    4    4  501    0  0.22106653089E+02 -0.59988874666E+02  0.12341226376E+03  0.13905189118E+03  0.41800000000E+01 0. -1.
         -5    1    4    4    0  501  0.72500996821E+02  0.22317710957E+02  0.24515325103E+02  0.79830748007E+02  0.41800000000E+01 0. -1.
</event>
<event>
11    1  0.7577197E-009  0.1338195E+03  0.7561462E-02  0.1114663E+00
         22   -1    0    0    0    0  0.00000000000E+00  0.00000000000E+00  0.12539719203E+04  0.12539719203E+04  0.00000000000E+00 0. -1.
         22   -1    0    0    0    0 -0.00000000000E+00 -0.00000000000E+00 -0.45349255722E+02  0.45349255722E+02  0.00000000000E+00 0.  1.
        -24    2    1    2    0    0 -0.87682944773E+01 -0.22622093715E+02  0.42075304972E+02  0.94095150548E+02  0.80591091046E+02 0.  0.
         25    2    1    2    0    0 -0.38583943334E+02  0.30749808151E+02  0.25002586977E+03  0.28389260251E+03  0.12509117803E+03 0.  0.
         24    2    1    2    0    0  0.47352237811E+02 -0.81277144357E+01  0.91652148982E+03  0.92133342295E+03  0.80841454523E+02 0.  0.
        -11    1    5    5    0    0  0.38490407208E+02  0.53402384876E+01  0.16039593565E+03  0.16503601355E+03  0.00000000000E+00 0.  1.
         12    1    5    5    0    0  0.88618306032E+01 -0.13467952923E+02  0.75612555417E+03  0.75629740940E+03  0.00000000000E+00 0. -1.
         13    1    3    3    0    0 -0.36051706571E+02 -0.37969050164E+02  0.21300242998E+02  0.56524991542E+02  0.00000000000E+00 0. -1.
        -14    1    3    3    0    0  0.27283412094E+02  0.15346956448E+02  0.20775061974E+02  0.37570159006E+02  0.00000000000E+00 0.  1.
          5    1    4    4  501    0 -0.60471041465E+02  0.17007229701E+02  0.45448263221E+02  0.77646698241E+02  0.41800000000E+01 0.  1.
         -5    1    4    4    0  501  0.21887098131E+02  0.13742578450E+02  0.20457760655E+03  0.20624590427E+03  0.41800000000E+01 0.  1.
</event>
<event>
11    1  0.7577197E-009  0.1441949E+03  0.7561462E-02  0.1102963E+00
         22   -1    0    0    0    0  0.00000000000E+00  0.00000000000E+00  0.23396853885E+03  0.23396853885E+03  0.00000000000E+00 0. -1.
         22   -1    0    0    0    0 -0.00000000000E+00 -0.00000000000E+00 -0.11580588966E+04  0.11580588966E+04  0.00000000000E+00 0. -1.
        -24    2    1    2    0    0  0.51814448141E+02  0.48352165143E+02 -0.10185917793E+04  0.10242245562E+04  0.80523658788E+02 0.  0.
         25    2    1    2    0    0 -0.86789275198E+02 -0.32557070494E+02 -0.77716134813E+02  0.17401510185E+03  0.12509643053E+03 0.  0.
         24    2    1    2    0    0  0.34974827057E+02 -0.15795094649E+02  0.17221755637E+03  0.19378777745E+03  0.80137958706E+02 0.  0.
        -11    1    5    5    0    0 -0.18152186354E+02  0.17261921691E+02  0.64820742964E+02  0.69492478214E+02  0.00000000000E+00 0.  1.
         12    1    5    5    0    0  0.53127013411E+02 -0.33057016340E+02  0.10739681341E+03  0.12429529924E+03  0.00000000000E+00 0. -1.
         11    1    3    3    0    0  0.54627851783E+02  0.32375341480E+02 -0.98368238825E+03  0.98572988484E+03  0.00000000000E+00 0. -1.
        -12    1    3    3    0    0 -0.28134036421E+01  0.15976823662E+02 -0.34909391076E+02  0.38494671315E+02  0.00000000000E+00 0.  1.
          5    1    4    4  501    0 -0.98774402971E+02 -0.10377866076E+02 -0.99343484271E+02  0.14053712340E+03  0.41800000000E+01 0. -1.
         -5    1    4    4    0  501  0.11985127773E+02 -0.22179204418E+02  0.21627349458E+02  0.33477978447E+02  0.41800000000E+01 0. -1.
</event>
<event>
11    1  0.7577197E-009  0.1368134E+03  0.7561462E-02  0.1111170E+00
         22   -1    0    0    0    0  0.00000000000E+00  0.00000000000E+00  0.35477641064E+03  0.35477641064E+03  0.00000000000E+00 0.  1.
         22   -1    0    0    0    0 -0.00000000000E+00 -0.00000000000E+00 -0.10661179655E+04  0.10661179655E+04  0.00000000000E+00 0. -1.
        -24    2    1    2    0    0  0.55355021015E+02 -0.77538994436E+01 -0.10190253013E+04  0.10237474949E+04  0.80759316498E+02 0.  0.
         25    2    1    2    0    0 -0.30458492850E+02 -0.36846348279E+02  0.95947812790E+02  0.16475882552E+03  0.12511640435E+03 0.  0.
         24    2    1    2    0    0 -0.24896528165E+02  0.44600247723E+02  0.21173593368E+03  0.23238805574E+03  0.81012860868E+02 0.  0.
        -13    1    5    5    0    0 -0.14177566298E+02  0.67331015249E+02  0.17335576884E+03  0.18651190737E+03  0.00000000000E+00 0.  1.
         14    1    5    5    0    0 -0.10718961867E+02 -0.22730767526E+02  0.38380164842E+02  0.45876148369E+02  0.00000000000E+00 0. -1.
         13    1    3    3    0    0  0.44505364925E+02 -0.31498952927E+02 -0.35076585839E+03  0.35497830772E+03  0.00000000000E+00 0. -1.
        -14    1    3    3    0    0  0.10849656091E+02  0.23745053483E+02 -0.66825944295E+03  0.66876918716E+03  0.00000000000E+00 0.  1.
          5    1    4    4  501    0  0.46763110108E+02 -0.66139188219E+00  0.46546330715E+02  0.66115499009E+02  0.41800000000E+01 0.  1.
         -5    1    4    4    0  501 -0.77221602958E+02 -0.36184956397E+02  0.49401482075E+02  0.98643326506E+02  0.41800000000E+01 0.  1.
</event>
<event>
11    1  0.7577197E-009  0.1405292E+03  0.7561462E-02  0.1106969E+00
         22   -1    0    0    0    0  0.00000000000E+00  0.00000000000E+00  0.46561319093E+03  0.46561319093E+03  0.00000000000E+00 0.  1.
         22   -1    0    0    0    0 -0.00000000000E+00 -0.00000000000E+00 -0.32437123939E+03  0.32437123939E+03  0.00000000000E+00 0. -1.
         24    2    1    2    0    0  0.54768806798E+02  0.11239157729E+02 -0.25601948654E+03  0.27317674330E+03  0.77159670346E+02 0.  0.
         25    2    1    2    0    0 -0.48402970932E+02  0.54253076195E+02  0.48209985149E+02  0.15249638154E+03  0.12507877455E+03 0.  0.
        -24    2    1    2    0    0 -0.63658358663E+01 -0.65492233924E+02  0.34905145293E+03  0.36431130547E+03  0.80969462955E+02 0.  0.
        -11    1    3    3    0    0  0.60079673732E+01  0.84043520767E+01  0.20444021612E+01  0.10531305047E+02  0.00000000000E+00 0.  1.
         12    1    3    3    0    0  0.48760839425E+02  0.28348056523E+01 -0.25806388870E+03  0.26264543825E+03  0.00000000000E+00 0. -1.
         11    1    5    5    0    0  0.19849014951E+02 -0.56337179002E+02  0.12491744110E+03  0.13846381558E+03  0.00000000000E+00 0. -1.
        -12    1    5    5    0    0 -0.26214850818E+02 -0.91550549222E+01  0.22413401182E+03  0.22584748989E+03  0.00000000000E+00 0.  1.
          5    1    4    4  501    0  0.14384856796E+02  0.71814962821E+02  0.47054784252E+02  0.87154679226E+02  0.41800000000E+01 0. -1.
         -5    1    4    4    0  501 -0.62787827727E+02 -0.17561886626E+02  0.11552008967E+01  0.65341702317E+02  0.41800000000E+01 0. -1.
</event>
<event>
11    1  0.7577197E-009  0.1314219E+03  0.7561462E-02  0.1117534E+00
         22   -1    0    0    0    0  0.00000000000E+00  0.00000000000E+00  0.86396478116E+03  0.86396478116E+03  0.00000000000E+00 0. -1.
         22   -1    0    0    0    0 -0.00000000000E+00 -0.00000000000E+00 -0.93933685030E+02  0.93933685030E+02  0.00000000000E+00 0. -1.
        -24    2    1    2    0    0  0.37971327526E+02  0.15905243160E+02 -0.50563102427E+02  0.10273595243E+03  0.79393010524E+02 0.  0.
         25    2    1    2    0    0 -0.27920198044E+02 -0.12123690765E+02  0.27628899848E+03  0.30481317170E+03  0.12509571383E+03 0.  0.
         24    2    1    2    0    0 -0.10051129483E+02 -0.37815523943E+01  0.54430520007E+03  0.55034934206E+03  0.80628296174E+02 0.  0.
        -13    1    5    5    0    0 -0.13724639651E+02  0.18081005331E+02  0.43615554736E+02  0.49169147870E+02  0.00000000000E+00 0.  1.
         14    1    5    5    0    0  0.36735101687E+01 -0.21862557725E+02  0.50068964533E+03  0.50118019419E+03  0.00000000000E+00 0. -1.
         13    1    3    3    0    0  0.11957668689E+02  0.46019058964E+02 -0.38422705999E+02  0.61131366456E+02  0.00000000000E+00 0. -1.
        -14    1    3    3    0    0  0.26013658837E+02 -0.30113815805E+02 -0.12140396428E+02  0.41604585972E+02  0.00000000000E+00 0.  1.
          5    1    4    4  501    0 -0.41593471291E+02  0.45528787885E+02  0.89205121151E+02  0.10852609557E+03  0.41800000000E+01 0.  1.
         -5    1    4    4    0  501  0.13673273247E+02 -0.57652478650E+02  0.18708387733E+03  0.19628707613E+03  0.41800000000E+01 0.  1.
</event>
<event>
11    1  0.7577197E-009  0.1494149E+03  0.7561462E-02  0.1097478E+00
         22   -1    0    0    0    0  0.00000000000E+00  0.00000000000E+00  0.29939401098E+03  0.29939401098E+03  0.00000000000E+00 0.  1.
         22   -1    0    0    0    0 -0.00000000000E+00 -0.00000000000E+00 -0.10077074736E+04  0.10077074736E+04  0.00000000000E+00 0.  1.
         24    2    1    2    0    0  0.22371565485E+02  0.12387427242E+03 -0.93828918326E+03  0.95018315869E+03  0.81339543443E+02 0.  0.
         25    2    1    2    0    0 -0.31077282678E+02 -0.11967018132E+02  0.73755135691E+02  0.14898349233E+03  0.12508898403E+03 0.  0.
        -24    2    1    2    0    0  0.87057171923E+01 -0.11190725429E+03  0.15622058497E+03  0.20793483352E+03  0.78949355585E+02 0.  0.
        -13    1    3    3    0    0  0.11401419039E+01  0.74567450577E+02 -0.28174486087E+03  0.29144771613E+03  0.00000000000E+00 0.  1.
         14    1    3    3    0    0  0.21231423582E+02  0.49306821847E+02 -0.65654432239E+03  0.65873544256E+03  0.00000000000E+00 0. -1.
         13    1    5    5    0    0  0.11080861356E+01 -0.11960764179E+03  0.11726855244E+03  0.16750859447E+03  0.00000000000E+00 0. -1.
        -14    1    5    5    0    0  0.75976310567E+01  0.77003875003E+01  0.38952032536E+02  0.40426239053E+02  0.00000000000E+00 0.  1.
          5    1    4    4  501    0  0.15343784946E+02 -0.41028331920E+02  0.82368766912E+02  0.93385448113E+02  0.41800000000E+01 0. -1.
         -5    1    4    4    0  501 -0.46421067624E+02  0.29061313788E+02 -0.86136312212E+01  0.55598044221E+02  0.41800000000E+01 0. -1.
</event>
<event>
11    1  0.7577197E-009  0.1259326E+03  0.7561462E-02  0.1124370E+00
         22   -1    0    0    0    0  0.00000000000E+00  0.00000000000E+00  0.14565040283E+02  0.14565040283E+02  0.00000000000E+00 0.  1.
         22   -1    0    0    0    0 -0.00000000000E+00 -0.00000000000E+00 -0.22097524451E+04  0.22097524451E+04  0.00000000000E+00 0.  1.
        -24    2    1    2    0    0 -0.17048731566E+02  0.13824560696E+01 -0.85442308890E+03  0.85842839269E+03  0.81042705377E+02 0.  0.
         25    2    1    2    0    0  0.42057069215E+00 -0.69688683413E+01 -0.10865436571E+04  0.10937428269E+04  0.12509001055E+03 0.  0.
         24    2    1    2    0    0  0.16628160874E+02  0.55864122717E+01 -0.25422065882E+03  0.27214626574E+03  0.95539221515E+02 0.  0.
        -13    1    5    5    0    0  0.23688655905E+02  0.69468530703E+01 -0.81882633479E+01  0.26008822403E+02  0.00000000000E+00 0.  1.
         14    1    5    5    0    0 -0.70604950306E+01 -0.13604407986E+01 -0.24603239547E+03  0.24613744333E+03  0.00000000000E+00 0. -1.
         13    1    3    3    0    0 -0.41080081800E+02  0.24547058320E+02 -0.41791974521E+03  0.42065073948E+03  0.00000000000E+00 0. -1.
        -14    1    3    3    0    0  0.24031350234E+02 -0.23164602250E+02 -0.43650334369E+03  0.43777765320E+03  0.00000000000E+00 0.  1.
          5    1    4    4  501    0  0.19161038286E+02 -0.10816679451E+02 -0.32232780517E+02  0.39250101687E+02  0.41800000000E+01 0.  1.
         -5    1    4    4    0  501 -0.18740467594E+02  0.38478111097E+01 -0.10543108766E+04  0.10544927252E+04  0.41800000000E+01 0.  1.
</event>
<event>
11    1  0.7577197E-009  0.1989941E+03  0.7561462E-02  0.1055237E+00
         22   -1    0    0    0    0  0.00000000000E+00  0.00000000000E+00  0.42885215643E+03  0.42885215643E+03  0.00000000000E+00 0. -1.
         22   -1    0    0    0    0 -0.00000000000E+00 -0.00000000000E+00 -0.45933713631E+03  0.45933713631E+03  0.00000000000E+00 0. -1.
         24    2    1    2    0    0 -0.96019115075E+01 -0.25067893763E+02 -0.34485859652E+03  0.35564816934E+03  0.82689616968E+02 0.  0.
         25    2    1    2    0    0  0.46573706987E+02  0.16903744171E+03  0.53909462466E+02  0.22202896855E+03  0.12509142996E+03 0.  0.
        -24    2    1    2    0    0 -0.36971795479E+02 -0.14396954795E+03  0.26046415418E+03  0.31051215484E+03  0.80511355074E+02 0.  0.
        -13    1    3    3    0    0 -0.12291061692E+02 -0.36908243245E+02 -0.66629428345E+02  0.77154191970E+02  0.00000000000E+00 0.  1.
         14    1    3    3    0    0  0.26891501843E+01  0.11840349481E+02 -0.27822916818E+03  0.27849397737E+03  0.00000000000E+00 0. -1.
         11    1    5    5    0    0  0.90288969951E+01 -0.11317216669E+03  0.18124806583E+03  0.21386987086E+03  0.00000000000E+00 0. -1.
        -12    1    5    5    0    0 -0.46000692475E+02 -0.30797381263E+02  0.79216088347E+02  0.96642283985E+02  0.00000000000E+00 0.  1.
          5    1    4    4  501    0 -0.68967831120E+01 -0.90470058809E+01 -0.18773407679E+02  0.22345629743E+02  0.41800000000E+01 0. -1.
         -5    1    4    4    0  501  0.53470490099E+02  0.17808444759E+03  0.72682870145E+02  0.19968333881E+03  0.41800000000E+01 0. -1.
</event>
