<event>
11    1  0.8037748E-009  0.1408026E+03  0.7561462E-02  0.1106665E+00
         22   -1    0    0    0    0  0.00000000000E+00  0.00000000000E+00  0.12802319526E+03  0.12802319526E+03  0.00000000000E+00 0. -1.
         22   -1    0    0    0    0 -0.00000000000E+00 -0.00000000000E+00 -0.28726830669E+03  0.28726830669E+03  0.00000000000E+00 0. -1.
        -24    2    1    2    0    0 -0.36514576287E+02  0.43756395038E+02 -0.12775727320E+03  0.16166439983E+03  0.81027902162E+02 0.  0.
         25    2    1    2    0    0  0.79131971571E+02 -0.57641032937E+02 -0.21813937314E+02  0.16034038442E+03  0.12509529732E+03 0.  0.
         24    2    1    2    0    0 -0.42617395285E+02  0.13884637899E+02 -0.96739009156E+01  0.93286717701E+02  0.81239164139E+02 0.  0.
        -13    1    5    5    0    0 -0.34177663105E+02 -0.20593972060E+02 -0.32175518216E+02  0.51259031527E+02  0.00000000000E+00 0.  1.
         14    1    5    5    0    0 -0.84397321791E+01  0.34478609959E+02  0.22501617301E+02  0.42027686174E+02  0.00000000000E+00 0. -1.
         11    1    3    3    0    0 -0.38967964576E+02  0.31856244546E+02 -0.13728702926E+03  0.14622260763E+03  0.00000000000E+00 0. -1.
        -12    1    3    3    0    0  0.24533882892E+01  0.11900150491E+02  0.95297560580E+01  0.15441792200E+02  0.00000000000E+00 0.  1.
          5    1    4    4  501    0  0.89249283450E+02 -0.88711378268E+02 -0.17346806971E+02  0.12709652766E+03  0.41800000000E+01 0. -1.
         -5    1    4    4    0  501 -0.10117311878E+02  0.31070345331E+02 -0.44671303426E+01  0.33243856758E+02  0.41800000000E+01 0. -1.
</event>
<event>
11    1  0.8037748E-009  0.1474282E+03  0.7561462E-02  0.1099536E+00
         22   -1    0    0    0    0  0.00000000000E+00  0.00000000000E+00  0.39989091744E+03  0.39989091744E+03  0.00000000000E+00 0. -1.
         22   -1    0    0    0    0 -0.00000000000E+00 -0.00000000000E+00 -0.12110279598E+04  0.12110279598E+04  0.00000000000E+00 0. -1.
        -24    2    1    2    0    0 -0.81501534829E+02 -0.31518289072E+02 -0.62224611515E+03  0.63313884357E+03  0.77708845684E+02 0.  0.
         25    2    1    2    0    0  0.20462331651E+02  0.83578708447E+02 -0.56490802078E+03  0.58495647058E+03  0.12509553552E+03 0.  0.
         24    2    1    2    0    0  0.61039203178E+02 -0.52060419375E+02  0.37601709352E+03  0.39282356314E+03  0.80532139854E+02 0.  0.
        -13    1    5    5    0    0  0.51004504140E+01 -0.41723180528E+02  0.26256950721E+03  0.26591273851E+03  0.00000000000E+00 0.  1.
         14    1    5    5    0    0  0.55938752764E+02 -0.10337238847E+02  0.11344758631E+03  0.12691082463E+03  0.00000000000E+00 0. -1.
         13    1    3    3    0    0 -0.46201293736E+02  0.74617486404E+01 -0.46463206541E+03  0.46698307619E+03  0.00000000000E+00 0. -1.
        -14    1    3    3    0    0 -0.35300241093E+02 -0.38980037712E+02 -0.15761404974E+03  0.16615576738E+03  0.00000000000E+00 0.  1.
          5    1    4    4  501    0  0.83400604479E+00  0.11055913018E+03 -0.34001588856E+03  0.35756439099E+03  0.41800000000E+01 0.  1.
         -5    1    4    4    0  501  0.19628325606E+02 -0.26980421738E+02 -0.22489213222E+03  0.22739207959E+03  0.41800000000E+01 0.  1.
</event>
<event>
11    1  0.8037748E-009  0.2117552E+03  0.7561462E-02  0.1046509E+00
         22   -1    0    0    0    0  0.00000000000E+00  0.00000000000E+00  0.71301121186E+03  0.71301121186E+03  0.00000000000E+00 0.  1.
         22   -1    0    0    0    0 -0.00000000000E+00 -0.00000000000E+00 -0.29082168475E+03  0.29082168475E+03  0.00000000000E+00 0.  1.
         24    2    1    2    0    0  0.84157399621E+02  0.12562093193E+03 -0.13351953221E+03  0.21688942061E+03  0.79689828983E+02 0.  0.
         25    2    1    2    0    0 -0.16702158730E+03 -0.21997022964E+03  0.11951979678E+03  0.32590977720E+03  0.12509631689E+03 0.  0.
        -24    2    1    2    0    0  0.82864187681E+02  0.94349297709E+02  0.43618926255E+03  0.46103369880E+03  0.80763451441E+02 0.  0.
        -13    1    3    3    0    0  0.79165666218E+02  0.83317021241E+02 -0.13092464121E+03  0.17421306040E+03  0.00000000000E+00 0.  1.
         14    1    3    3    0    0  0.49917334024E+01  0.42303910688E+02 -0.25948909926E+01  0.42676360214E+02  0.00000000000E+00 0. -1.
         13    1    5    5    0    0  0.37706971236E+02  0.62255194288E+02  0.12251140928E+03  0.14250112385E+03  0.00000000000E+00 0. -1.
        -14    1    5    5    0    0  0.45157216445E+02  0.32094103422E+02  0.31367785327E+03  0.31853257495E+03  0.00000000000E+00 0.  1.
          5    1    4    4  501    0  0.49401581399E+01 -0.45088504015E+01 -0.16642274617E+02  0.18416639184E+02  0.41800000000E+01 0. -1.
         -5    1    4    4    0  501 -0.17196174544E+03 -0.21546137924E+03  0.13616207139E+03  0.30749313801E+03  0.41800000000E+01 0. -1.
</event>
<event>
11    1  0.8037748E-009  0.1350813E+03  0.7561462E-02  0.1113179E+00
         22   -1    0    0    0    0  0.00000000000E+00  0.00000000000E+00  0.36055392557E+03  0.36055392557E+03  0.00000000000E+00 0.  1.
         22   -1    0    0    0    0 -0.00000000000E+00 -0.00000000000E+00 -0.33768385734E+03  0.33768385734E+03  0.00000000000E+00 0. -1.
        -24    2    1    2    0    0 -0.24759277060E+02 -0.42630455575E+02 -0.26962987917E+03  0.28525344205E+03  0.78986561604E+02 0.  0.
         25    2    1    2    0    0  0.25851129254E+02  0.68397217889E+02  0.43848544468E+02  0.15137800931E+03  0.12508455761E+03 0.  0.
         24    2    1    2    0    0 -0.10918521941E+01 -0.25766762314E+02  0.24865140294E+03  0.26160633155E+03  0.77105345741E+02 0.  0.
        -13    1    5    5    0    0 -0.78173842653E+01  0.30383494387E+00  0.22678891748E+03  0.22692381299E+03  0.00000000000E+00 0.  1.
         14    1    5    5    0    0  0.67255320712E+01 -0.26070597258E+02  0.21862485466E+02  0.34682518561E+02  0.00000000000E+00 0. -1.
         13    1    3    3    0    0 -0.38737847695E+02 -0.77853787958E+01 -0.21721451773E+03  0.22077902908E+03  0.00000000000E+00 0. -1.
        -14    1    3    3    0    0  0.13978570635E+02 -0.34845076779E+02 -0.52415361439E+02  0.64474412967E+02  0.00000000000E+00 0.  1.
          5    1    4    4  501    0  0.59983163557E+02  0.22473398185E+02  0.63928245508E+02  0.90594296233E+02  0.41800000000E+01 0. -1.
         -5    1    4    4    0  501 -0.34132034303E+02  0.45923819704E+02 -0.20079701040E+02  0.60783713079E+02  0.41800000000E+01 0. -1.
</event>
<event>
11    1  0.8037748E-009  0.1815563E+03  0.7561462E-02  0.1068391E+00
         22   -1    0    0    0    0  0.00000000000E+00  0.00000000000E+00  0.52249976576E+03  0.52249976576E+03  0.00000000000E+00 0.  1.
         22   -1    0    0    0    0 -0.00000000000E+00 -0.00000000000E+00 -0.38807934310E+03  0.38807934310E+03  0.00000000000E+00 0. -1.
         24    2    1    2    0    0 -0.26316092657E+02  0.23467720985E+01 -0.10112090521E+03  0.13452256239E+03  0.84692610362E+02 0.  0.
         25    2    1    2    0    0  0.10367639739E+03 -0.10778716975E+03 -0.22082848850E+03  0.29458255075E+03  0.12508712377E+03 0.  0.
        -24    2    1    2    0    0 -0.77360304732E+02  0.10544039765E+03  0.45636981637E+03  0.48147399573E+03  0.80258987425E+02 0.  0.
        -11    1    3    3    0    0  0.30566908012E+02 -0.62132634168E+01 -0.35069888551E+02  0.46934396668E+02  0.00000000000E+00 0.  1.
         12    1    3    3    0    0 -0.56883000668E+02  0.85600355152E+01 -0.66051016656E+02  0.87588165721E+02  0.00000000000E+00 0. -1.
         13    1    5    5    0    0 -0.87340060930E+01  0.15238358327E+02  0.85507694452E+01  0.19534740465E+02  0.00000000000E+00 0. -1.
        -14    1    5    5    0    0 -0.68626298639E+02  0.90202039327E+02  0.44781904693E+03  0.46193925526E+03  0.00000000000E+00 0.  1.
          5    1    4    4  501    0  0.70759717666E+01  0.24351005814E+02 -0.59069436690E+02  0.64418255266E+02  0.41800000000E+01 0.  1.
         -5    1    4    4    0  501  0.96600425622E+02 -0.13213817557E+03 -0.16175905181E+03  0.23016429549E+03  0.41800000000E+01 0.  1.
</event>
<event>
11    1  0.8037748E-009  0.2017337E+03  0.7561462E-02  0.1053304E+00
         22   -1    0    0    0    0  0.00000000000E+00  0.00000000000E+00  0.18771192359E+04  0.18771192359E+04  0.00000000000E+00 0. -1.
         22   -1    0    0    0    0 -0.00000000000E+00 -0.00000000000E+00 -0.11727664293E+04  0.11727664293E+04  0.00000000000E+00 0.  1.
         24    2    1    2    0    0 -0.88906732436E+02  0.60822206141E+02 -0.11382887703E+04  0.11463973277E+04  0.83197118271E+02 0.  0.
         25    2    1    2    0    0  0.21056862994E+03 -0.12574897272E+03  0.74437247781E+03  0.79365675375E+03  0.12509478406E+03 0.  0.
        -24    2    1    2    0    0 -0.12166189750E+03  0.64926766579E+02  0.10982690992E+04  0.11098315837E+04  0.80709526816E+02 0.  0.
        -13    1    3    3    0    0 -0.82925922199E+02  0.13153935033E+02 -0.84955857385E+03  0.85369754889E+03  0.00000000000E+00 0.  1.
         14    1    3    3    0    0 -0.59808102368E+01  0.47668271108E+02 -0.28873019646E+03  0.29269977880E+03  0.00000000000E+00 0. -1.
         11    1    5    5    0    0 -0.12430273807E+03  0.62630174015E+02  0.10974444475E+04  0.11062359716E+04  0.00000000000E+00 0. -1.
        -12    1    5    5    0    0  0.26408405685E+01  0.22965925648E+01  0.82465162232E+00  0.35956121336E+01  0.00000000000E+00 0.  1.
          5    1    4    4  501    0  0.14949943753E+03 -0.33878366387E+02  0.31533980532E+03  0.35064867139E+03  0.41800000000E+01 0. -1.
         -5    1    4    4    0  501  0.61069192405E+02 -0.91870606334E+02  0.42903267249E+03  0.44300808236E+03  0.41800000000E+01 0. -1.
</event>
<event>
11    1  0.8037748E-009  0.1323249E+03  0.7561462E-02  0.1116445E+00
         22   -1    0    0    0    0  0.00000000000E+00  0.00000000000E+00  0.80841238966E+03  0.80841238966E+03  0.00000000000E+00 0.  1.
         22   -1    0    0    0    0 -0.00000000000E+00 -0.00000000000E+00 -0.42020878306E+03  0.42020878306E+03  0.00000000000E+00 0.  1.
         24    2    1    2    0    0 -0.48500064743E+02 -0.20325056960E+02 -0.38994644134E+03  0.40129749035E+03  0.78842148828E+02 0.  0.
         25    2    1    2    0    0  0.46075904586E+02  0.58946078708E+02  0.24851591408E+03  0.28810590447E+03  0.12508886225E+03 0.  0.
        -24    2    1    2    0    0  0.24241601565E+01 -0.38621021748E+02  0.52963413386E+03  0.53921777791E+03  0.93520245857E+02 0.  0.
        -13    1    3    3    0    0 -0.64103401819E+02 -0.18102504668E+02 -0.36963259118E+03  0.37558647375E+03  0.00000000000E+00 0.  1.
         14    1    3    3    0    0  0.15603337077E+02 -0.22225522920E+01 -0.20313850153E+02  0.25711016601E+02  0.00000000000E+00 0. -1.
         11    1    5    5    0    0 -0.25287635983E+02  0.53481509757E+01  0.45717679237E+02  0.52518315351E+02  0.00000000000E+00 0. -1.
        -12    1    5    5    0    0  0.27711796139E+02 -0.43969172724E+02  0.48391645462E+03  0.48669946255E+03  0.00000000000E+00 0.  1.
          5    1    4    4  501    0 -0.23576008264E+02 -0.22004655268E+02  0.27427961147E+02  0.42541726244E+02  0.41800000000E+01 0. -1.
         -5    1    4    4    0  501  0.69651912851E+02  0.80950733977E+02  0.22108795293E+03  0.24556417822E+03  0.41800000000E+01 0. -1.
</event>
<event>
11    1  0.8037748E-009  0.1370698E+03  0.7561462E-02  0.1110875E+00
         22   -1    0    0    0    0  0.00000000000E+00  0.00000000000E+00  0.11226980719E+04  0.11226980719E+04  0.00000000000E+00 0.  1.
         22   -1    0    0    0    0 -0.00000000000E+00 -0.00000000000E+00 -0.43104629171E+03  0.43104629171E+03  0.00000000000E+00 0.  1.
         24    2    1    2    0    0  0.24423336347E+02 -0.13808146271E+02 -0.35586580512E+03  0.36597473349E+03  0.80683765666E+02 0.  0.
         25    2    1    2    0    0 -0.38453887988E+02 -0.40675843194E+02  0.12575690818E+01  0.13705042621E+03  0.12509201462E+03 0.  0.
        -24    2    1    2    0    0  0.14030551641E+02  0.54483989465E+02  0.10462600163E+04  0.10507192040E+04  0.78647710882E+02 0.  0.
        -13    1    3    3    0    0  0.26178120089E+02  0.14177533096E+01 -0.34755007364E+03  0.34853745521E+03  0.00000000000E+00 0.  1.
         14    1    3    3    0    0 -0.17547837416E+01 -0.15225899580E+02 -0.83157314781E+01  0.17437278286E+02  0.00000000000E+00 0. -1.
         13    1    5    5    0    0  0.31657451538E+02 -0.57542819753E+01  0.26603136472E+03  0.26797013456E+03  0.00000000000E+00 0. -1.
        -14    1    5    5    0    0 -0.17626899897E+02  0.60238271440E+02  0.78022865155E+03  0.78274906940E+03  0.00000000000E+00 0.  1.
          5    1    4    4  501    0 -0.22892160165E+02 -0.83977275386E+02  0.15905847280E+02  0.88581612968E+02  0.41800000000E+01 0.  1.
         -5    1    4    4    0  501 -0.15561727823E+02  0.43301432192E+02 -0.14648278199E+02  0.48468813240E+02  0.41800000000E+01 0.  1.
</event>
<event>
11    1  0.8037748E-009  0.1472434E+03  0.7561462E-02  0.1099729E+00
         22   -1    0    0    0    0  0.00000000000E+00  0.00000000000E+00  0.12909827683E+03  0.12909827683E+03  0.00000000000E+00 0. -1.
         22   -1    0    0    0    0 -0.00000000000E+00 -0.00000000000E+00 -0.64931696909E+03  0.64931696909E+03  0.00000000000E+00 0. -1.
         24    2    1    2    0    0 -0.76402744843E+02 -0.34737925684E+02 -0.52121372201E+03  0.53395116853E+03  0.79975017705E+02 0.  0.
         25    2    1    2    0    0  0.20922661887E+02  0.29458319962E+02 -0.43153512143E+02  0.13716910112E+03  0.12509031256E+03 0.  0.
        -24    2    1    2    0    0  0.55480082956E+02  0.52796057212E+01  0.44148541897E+02  0.10729497627E+03  0.80356731760E+02 0.  0.
        -11    1    3    3    0    0  0.10583711289E+02 -0.10640095069E+02 -0.21926874604E+02  0.26570931441E+02  0.00000000000E+00 0.  1.
         12    1    3    3    0    0 -0.86986456132E+02 -0.24097830615E+02 -0.49928684741E+03  0.50738023709E+03  0.00000000000E+00 0. -1.
         11    1    5    5    0    0  0.18623554906E+02 -0.30268736314E+02 -0.55106671794E+01  0.35963879770E+02  0.00000000000E+00 0. -1.
        -12    1    5    5    0    0  0.36856528050E+02  0.35548342035E+02  0.49659209077E+02  0.71331096497E+02  0.00000000000E+00 0.  1.
          5    1    4    4  501    0  0.15088935869E+02 -0.47973467560E+02 -0.54807141418E+01  0.50760616652E+02  0.41800000000E+01 0.  1.
         -5    1    4    4    0  501  0.58337260182E+01  0.77431787522E+02 -0.37672798001E+02  0.86408484464E+02  0.41800000000E+01 0.  1.
</event>
<event>
11    1  0.8037748E-009  0.1593059E+03  0.7561462E-02  0.1087732E+00
         22   -1    0    0    0    0  0.00000000000E+00  0.00000000000E+00  0.22827533672E+03  0.22827533672E+03  0.00000000000E+00 0. -1.
         22   -1    0    0    0    0 -0.00000000000E+00 -0.00000000000E+00 -0.40962005801E+03  0.40962005801E+03  0.00000000000E+00 0.  1.
        -24    2    1    2    0    0  0.40109737287E+02 -0.85090310170E+02 -0.26716355914E+03  0.29443832871E+03  0.80426427074E+02 0.  0.
         25    2    1    2    0    0 -0.67612420386E+02  0.10102451050E+03 -0.51442196485E+02  0.18185719055E+03  0.12509335339E+03 0.  0.
         24    2    1    2    0    0  0.27502683099E+02 -0.15934200329E+02  0.13726103433E+03  0.16159987547E+03  0.79143110176E+02 0.  0.
        -13    1    5    5    0    0 -0.16075036039E+02 -0.74187046991E+01  0.39196248277E+00  0.17708687067E+02  0.00000000000E+00 0.  1.
         14    1    5    5    0    0  0.43577719138E+02 -0.85154956303E+01  0.13686907185E+03  0.14389118840E+03  0.00000000000E+00 0. -1.
         13    1    3    3    0    0  0.33794751705E+02 -0.28306060153E+02 -0.37814052375E+02  0.58079435614E+02  0.00000000000E+00 0. -1.
        -14    1    3    3    0    0  0.63149855820E+01 -0.56784250018E+02 -0.22934950676E+03  0.23635889309E+03  0.00000000000E+00 0.  1.
          5    1    4    4  501    0 -0.99425294174E+01 -0.27526212115E+02 -0.24396008089E+02  0.38329934194E+02  0.41800000000E+01 0.  1.
         -5    1    4    4    0  501 -0.57669890969E+02  0.12855072261E+03 -0.27046188396E+02  0.14352725635E+03  0.41800000000E+01 0.  1.
</event>
<event>
11    1  0.8037748E-009  0.1548104E+03  0.7561462E-02  0.1092062E+00
         22   -1    0    0    0    0  0.00000000000E+00  0.00000000000E+00  0.79444023223E+02  0.79444023223E+02  0.00000000000E+00 0.  1.
         22   -1    0    0    0    0 -0.00000000000E+00 -0.00000000000E+00 -0.14809596964E+04  0.14809596964E+04  0.00000000000E+00 0.  1.
        -24    2    1    2    0    0  0.70620397454E+02 -0.59730096707E+02 -0.12569286469E+04  0.12628413051E+04  0.79646803881E+02 0.  0.
         25    2    1    2    0    0 -0.15788363180E+02  0.92834881350E+02 -0.11180111367E+03  0.19240128715E+03  0.12510467087E+03 0.  0.
         24    2    1    2    0    0 -0.54832034274E+02 -0.33104784643E+02 -0.32785912584E+02  0.10516112739E+03  0.76690728914E+02 0.  0.
        -13    1    5    5    0    0 -0.32986187319E+02 -0.35397899871E+02 -0.55454746833E+02  0.73595711937E+02  0.00000000000E+00 0.  1.
         14    1    5    5    0    0 -0.21845846955E+02  0.22931152283E+01  0.22668834249E+02  0.31565415455E+02  0.00000000000E+00 0. -1.
         11    1    3    3    0    0  0.49315257853E+02 -0.40585768840E+02 -0.37155037376E+03  0.37699984023E+03  0.00000000000E+00 0. -1.
        -12    1    3    3    0    0  0.21305139601E+02 -0.19144327867E+02 -0.88537827319E+03  0.88584146488E+03  0.00000000000E+00 0.  1.
          5    1    4    4  501    0  0.24710420717E+02  0.59347204413E+02  0.46339546250E+01  0.64588245828E+02  0.41800000000E+01 0. -1.
         -5    1    4    4    0  501 -0.40498783897E+02  0.33487676937E+02 -0.11643506830E+03  0.12781304133E+03  0.41800000000E+01 0. -1.
</event>
<event>
11    1  0.8037748E-009  0.1898968E+03  0.7561462E-02  0.1061907E+00
         22   -1    0    0    0    0  0.00000000000E+00  0.00000000000E+00  0.58448038471E+03  0.58448038471E+03  0.00000000000E+00 0. -1.
         22   -1    0    0    0    0 -0.00000000000E+00 -0.00000000000E+00 -0.48294058370E+03  0.48294058370E+03  0.00000000000E+00 0.  1.
        -24    2    1    2    0    0 -0.37697238585E+02  0.10055207530E+02 -0.34712039782E+03  0.35779572802E+03  0.77479180499E+02 0.  0.
         25    2    1    2    0    0  0.10582691622E+03 -0.13245097929E+03 -0.22464001015E+02  0.21188406484E+03  0.12509047718E+03 0.  0.
         24    2    1    2    0    0 -0.68129677639E+02  0.12239577176E+03  0.47112419985E+03  0.49774117555E+03  0.78523170031E+02 0.  0.
        -11    1    5    5    0    0 -0.44284249917E+02  0.76494967141E+02  0.16410073116E+03  0.18639105332E+03  0.00000000000E+00 0.  1.
         12    1    5    5    0    0 -0.23845427722E+02  0.45900804616E+02  0.30702346869E+03  0.31135012224E+03  0.00000000000E+00 0. -1.
         11    1    3    3    0    0 -0.44667119221E+02  0.22935014905E+01 -0.90358209852E+02  0.10082171282E+03  0.00000000000E+00 0. -1.
        -12    1    3    3    0    0  0.69698806361E+01  0.77617060398E+01 -0.25676218797E+03  0.25697401520E+03  0.00000000000E+00 0.  1.
          5    1    4    4  501    0  0.57698189468E+02 -0.59562659935E+02 -0.73282137566E+02  0.11074536384E+03  0.41800000000E+01 0.  1.
         -5    1    4    4    0  501  0.48128726756E+02 -0.72888319353E+02  0.50818136551E+02  0.10113870100E+03  0.41800000000E+01 0.  1.
</event>
<event>
11    1  0.8037748E-009  0.1614011E+03  0.7561462E-02  0.1085767E+00
         22   -1    0    0    0    0  0.00000000000E+00  0.00000000000E+00  0.10796211755E+04  0.10796211755E+04  0.00000000000E+00 0. -1.
         22   -1    0    0    0    0 -0.00000000000E+00 -0.00000000000E+00 -0.12756254657E+04  0.12756254657E+04  0.00000000000E+00 0.  1.
        -24    2    1    2    0    0 -0.86566440983E+02  0.52113108839E+02 -0.11470229631E+04  0.11544769093E+04  0.83341055221E+02 0.  0.
         25    2    1    2    0    0  0.11620171857E+03 -0.34765345842E+02 -0.61226617083E+02  0.18468332912E+03  0.12509102584E+03 0.  0.
         24    2    1    2    0    0 -0.29635277582E+02 -0.17347762996E+02  0.10122452899E+04  0.10160864028E+04  0.81313322199E+02 0.  0.
        -13    1    5    5    0    0  0.19417607814E+02 -0.18742170204E+01  0.77169727343E+02  0.79597254984E+02  0.00000000000E+00 0.  1.
         14    1    5    5    0    0 -0.49052885396E+02 -0.15473545976E+02  0.93507556258E+03  0.93648914779E+03  0.00000000000E+00 0. -1.
         13    1    3    3    0    0 -0.58889584843E+02 -0.12738963758E+01 -0.32782934509E+03  0.33307909799E+03  0.00000000000E+00 0. -1.
        -14    1    3    3    0    0 -0.27676856140E+02  0.53387005214E+02 -0.81919361797E+03  0.82139781130E+03  0.00000000000E+00 0.  1.
          5    1    4    4  501    0  0.13008586042E+03 -0.24045186651E+02 -0.12757921877E+02  0.13296894018E+03  0.41800000000E+01 0. -1.
         -5    1    4    4    0  501 -0.13884141857E+02 -0.10720159191E+02 -0.48468695206E+02  0.51714388937E+02  0.41800000000E+01 0. -1.
</event>
<event>
11    1  0.8037748E-009  0.3749560E+03  0.7561462E-02  0.9726686E-01
         22   -1    0    0    0    0  0.00000000000E+00  0.00000000000E+00  0.19164869428E+04  0.19164869428E+04  0.00000000000E+00 0. -1.
         22   -1    0    0    0    0 -0.00000000000E+00 -0.00000000000E+00 -0.18751427602E+03  0.18751427602E+03  0.00000000000E+00 0. -1.
         24    2    1    2    0    0  0.26890660328E+03 -0.55732153166E+02  0.16970603663E+03  0.33227267329E+03  0.78664835603E+02 0.  0.
         25    2    1    2    0    0 -0.17689429103E+02  0.34919455298E+03  0.39407713076E+03  0.54147377402E+03  0.12508921308E+03 0.  0.
        -24    2    1    2    0    0 -0.25121717418E+03 -0.29346239981E+03  0.11651894993E+04  0.12302547715E+04  0.81424717592E+02 0.  0.
        -13    1    3    3    0    0  0.11115017032E+03 -0.62748392436E+02  0.80540536623E+02  0.15092547550E+03  0.00000000000E+00 0.  1.
         14    1    3    3    0    0  0.15775643296E+03  0.70162392690E+01  0.89165500009E+02  0.18134719779E+03  0.00000000000E+00 0. -1.
         11    1    5    5    0    0 -0.19015349513E+03 -0.25716257893E+03  0.10132555731E+04  0.10625336701E+04  0.00000000000E+00 0. -1.
        -12    1    5    5    0    0 -0.61063679044E+02 -0.36299820888E+02  0.15193392622E+03  0.16772110133E+03  0.00000000000E+00 0.  1.
          5    1    4    4  501    0 -0.54180191290E+02  0.11934037397E+03  0.92308881653E+02  0.16036215270E+03  0.41800000000E+01 0. -1.
         -5    1    4    4    0  501  0.36490762187E+02  0.22985417901E+03  0.30176824911E+03  0.38111162132E+03  0.41800000000E+01 0. -1.
</event>
<event>
11    1  0.8037748E-009  0.1598096E+03  0.7561462E-02  0.1087256E+00
         22   -1    0    0    0    0  0.00000000000E+00  0.00000000000E+00  0.20078334278E+04  0.20078334278E+04  0.00000000000E+00 0.  1.
         22   -1    0    0    0    0 -0.00000000000E+00 -0.00000000000E+00 -0.10154120864E+03  0.10154120864E+03  0.00000000000E+00 0. -1.
         24    2    1    2    0    0 -0.90680606643E+02 -0.35516178694E+02 -0.41776771668E+02  0.13503738449E+03  0.83698418085E+02 0.  0.
         25    2    1    2    0    0  0.10941408774E+03  0.91405480447E+02  0.80921963800E+03  0.83115052184E+03  0.12509341702E+03 0.  0.
        -24    2    1    2    0    0 -0.18733481100E+02 -0.55889301753E+02  0.11388493528E+04  0.11431867301E+04  0.80146703493E+02 0.  0.
        -11    1    3    3    0    0 -0.50451977752E+02  0.22359201532E+02 -0.32239187048E+02  0.63911666648E+02  0.00000000000E+00 0.  1.
         12    1    3    3    0    0 -0.40228628891E+02 -0.57875380226E+02 -0.95375846197E+01  0.71125717846E+02  0.00000000000E+00 0. -1.
         13    1    5    5    0    0  0.32037624014E+01  0.19949729411E+02  0.27219945699E+03  0.27294834710E+03  0.00000000000E+00 0. -1.
        -14    1    5    5    0    0 -0.21937243501E+02 -0.75839031164E+02  0.86664989579E+03  0.87023838296E+03  0.00000000000E+00 0.  1.
          5    1    4    4  501    0  0.13622622126E+03  0.83864204140E+02  0.72094877921E+03  0.73849536406E+03  0.41800000000E+01 0.  1.
         -5    1    4    4    0  501 -0.26812133516E+02  0.75412763078E+01  0.88270858782E+02  0.92655157774E+02  0.41800000000E+01 0.  1.
</event>
<event>
11    1  0.8037748E-009  0.1490107E+03  0.7561462E-02  0.1097894E+00
         22   -1    0    0    0    0  0.00000000000E+00  0.00000000000E+00  0.14761243262E+03  0.14761243262E+03  0.00000000000E+00 0.  1.
         22   -1    0    0    0    0 -0.00000000000E+00 -0.00000000000E+00 -0.20914505904E+04  0.20914505904E+04  0.00000000000E+00 0. -1.
        -24    2    1    2    0    0 -0.70196813107E+02  0.37639671135E+02 -0.18670614876E+04  0.18703985478E+04  0.78280213558E+02 0.  0.
         25    2    1    2    0    0  0.90723984148E+02 -0.56049459789E+02 -0.17431803629E+03  0.23960315470E+03  0.12510200129E+03 0.  0.
         24    2    1    2    0    0 -0.20527171041E+02  0.18409788654E+02  0.97541366107E+02  0.12906132049E+03  0.79888805694E+02 0.  0.
        -11    1    5    5    0    0 -0.31771764868E+02  0.28841621737E+02  0.10393444188E+03  0.11244399671E+03  0.00000000000E+00 0.  1.
         12    1    5    5    0    0  0.11244593827E+02 -0.10431833083E+02 -0.63930757719E+01  0.16617323780E+02  0.00000000000E+00 0. -1.
         13    1    3    3    0    0 -0.53608113446E+02  0.59079193266E+02 -0.15939343104E+04  0.15959294366E+04  0.00000000000E+00 0. -1.
        -14    1    3    3    0    0 -0.16588699661E+02 -0.21439522131E+02 -0.27312717721E+03  0.27446911119E+03  0.00000000000E+00 0.  1.
          5    1    4    4  501    0 -0.71374716851E+01 -0.65423230804E+02 -0.72679265480E+02  0.98137101351E+02  0.41800000000E+01 0.  1.
         -5    1    4    4    0  501  0.97861455833E+02  0.93737710150E+01 -0.10163877080E+03  0.14146605335E+03  0.41800000000E+01 0.  1.
</event>
<event>
11    1  0.8037748E-009  0.1431458E+03  0.7561462E-02  0.1104096E+00
         22   -1    0    0    0    0  0.00000000000E+00  0.00000000000E+00  0.14616916080E+04  0.14616916080E+04  0.00000000000E+00 0. -1.
         22   -1    0    0    0    0 -0.00000000000E+00 -0.00000000000E+00 -0.14161848724E+03  0.14161848724E+03  0.00000000000E+00 0. -1.
         24    2    1    2    0    0 -0.17027361463E+02  0.46554725020E+02 -0.10455492367E+03  0.14100649466E+03  0.80584278934E+02 0.  0.
         25    2    1    2    0    0  0.72388414835E+02 -0.29912720301E+00  0.32387520272E+03  0.35465813450E+03  0.12508826224E+03 0.  0.
        -24    2    1    2    0    0 -0.55361053372E+02 -0.46255597817E+02  0.11007528417E+04  0.11076454661E+04  0.10008612996E+03 0.  0.
        -11    1    3    3    0    0 -0.22632398755E+02 -0.14115696657E+02 -0.59573810550E+02  0.65272637981E+02  0.00000000000E+00 0.  1.
         12    1    3    3    0    0  0.56050372914E+01  0.60670421677E+02 -0.44981113124E+02  0.75733856678E+02  0.00000000000E+00 0. -1.
         13    1    5    5    0    0 -0.60110043688E+02 -0.59795359224E+02  0.53218708709E+03  0.53889868992E+03  0.00000000000E+00 0. -1.
        -14    1    5    5    0    0  0.47489903163E+01  0.13539761407E+02  0.56856575462E+03  0.56874677614E+03  0.00000000000E+00 0.  1.
          5    1    4    4  501    0  0.59753791103E+02 -0.17490488030E+02  0.50109126492E+02  0.80030179811E+02  0.41800000000E+01 0.  1.
         -5    1    4    4    0  501  0.12634623732E+02  0.17191360827E+02  0.27376607623E+03  0.27462795469E+03  0.41800000000E+01 0.  1.
</event>
<event>
11    1  0.8037748E-009  0.1611554E+03  0.7561462E-02  0.1085996E+00
         22   -1    0    0    0    0  0.00000000000E+00  0.00000000000E+00  0.22014885636E+03  0.22014885636E+03  0.00000000000E+00 0. -1.
         22   -1    0    0    0    0 -0.00000000000E+00 -0.00000000000E+00 -0.19245917009E+04  0.19245917009E+04  0.00000000000E+00 0.  1.
        -24    2    1    2    0    0 -0.36030820059E+02 -0.38687596643E+02 -0.17288780574E+04  0.17315061609E+04  0.79368114753E+02 0.  0.
         25    2    1    2    0    0  0.13058166563E+03  0.10997958589E+02 -0.12236772165E+03  0.21861879304E+03  0.12509113029E+03 0.  0.
         24    2    1    2    0    0 -0.94550845574E+02  0.27689638053E+02  0.14680293455E+03  0.19461560332E+03  0.81348343609E+02 0.  0.
        -11    1    5    5    0    0 -0.20377652461E+02  0.15763705785E+02 -0.40609717736E+01  0.26081308089E+02  0.00000000000E+00 0.  1.
         12    1    5    5    0    0 -0.74173193113E+02  0.11925932268E+02  0.15086390632E+03  0.16853429523E+03  0.00000000000E+00 0. -1.
         13    1    3    3    0    0 -0.19981108970E+02  0.92505442445E+01 -0.13167556042E+03  0.13350382203E+03  0.00000000000E+00 0. -1.
        -14    1    3    3    0    0 -0.16049711089E+02 -0.47938140887E+02 -0.15972024970E+04  0.15980023389E+04  0.00000000000E+00 0.  1.
          5    1    4    4  501    0  0.61450135292E+02 -0.45498632870E+02 -0.13489982847E+02  0.77754078720E+02  0.41800000000E+01 0.  1.
         -5    1    4    4    0  501  0.69131530341E+02  0.56496591459E+02 -0.10887773881E+03  0.14086471432E+03  0.41800000000E+01 0.  1.
</event>
<event>
11    1  0.8037748E-009  0.1610052E+03  0.7561462E-02  0.1086136E+00
         22   -1    0    0    0    0  0.00000000000E+00  0.00000000000E+00  0.85069982569E+03  0.85069982569E+03  0.00000000000E+00 0.  1.
         22   -1    0    0    0    0 -0.00000000000E+00 -0.00000000000E+00 -0.10036436906E+04  0.10036436906E+04  0.00000000000E+00 0.  1.
         24    2    1    2    0    0 -0.56862730258E+02 -0.84335683539E+02 -0.92426858498E+03  0.93325063048E+03  0.79614348559E+02 0.  0.
         25    2    1    2    0    0  0.10854019178E+03  0.38157800970E+02  0.30474719418E+02  0.17266974760E+03  0.12509653155E+03 0.  0.
        -24    2    1    2    0    0 -0.51677461525E+02  0.46177882569E+02  0.74085000068E+03  0.74842313819E+03  0.80470574781E+02 0.  0.
        -11    1    3    3    0    0 -0.55948020910E+02 -0.23534557261E+02 -0.62009376550E+03  0.62305724813E+03  0.00000000000E+00 0.  1.
         12    1    3    3    0    0 -0.91470934797E+00 -0.60801126278E+02 -0.30417481947E+03  0.31019338235E+03  0.00000000000E+00 0. -1.
         13    1    5    5    0    0 -0.28165259424E+02 -0.14436154269E+02  0.11736259205E+03  0.12155518254E+03  0.00000000000E+00 0. -1.
        -14    1    5    5    0    0 -0.23512202102E+02  0.60614036837E+02  0.62348740863E+03  0.62686795565E+03  0.00000000000E+00 0.  1.
          5    1    4    4  501    0  0.71206627873E+02  0.96820812007E+01 -0.44120040538E+02  0.84428531472E+02  0.41800000000E+01 0. -1.
         -5    1    4    4    0  501  0.37333563910E+02  0.28475719770E+02  0.74594759957E+02  0.88241216127E+02  0.41800000000E+01 0. -1.
</event>
<event>
11    1  0.8037748E-009  0.1342992E+03  0.7561462E-02  0.1114097E+00
         22   -1    0    0    0    0  0.00000000000E+00  0.00000000000E+00  0.13311916204E+03  0.13311916204E+03  0.00000000000E+00 0. -1.
         22   -1    0    0    0    0 -0.00000000000E+00 -0.00000000000E+00 -0.50977048159E+03  0.50977048159E+03  0.00000000000E+00 0.  1.
         24    2    1    2    0    0 -0.28802668146E+02 -0.45586521543E+02 -0.34027768470E+03  0.35381857772E+03  0.80566485587E+02 0.  0.
         25    2    1    2    0    0 -0.24485114325E+02  0.34669432484E+02 -0.10495766222E+03  0.16872489187E+03  0.12510191008E+03 0.  0.
        -24    2    1    2    0    0  0.53287782471E+02  0.10917089060E+02  0.68584027371E+02  0.12034617403E+03  0.82587300477E+02 0.  0.
        -13    1    3    3    0    0 -0.21562375312E+02 -0.58885260684E+02 -0.32903972278E+03  0.33496201147E+03  0.00000000000E+00 0.  1.
         14    1    3    3    0    0 -0.72402928339E+01  0.13298739141E+02 -0.11237961912E+02  0.18856566257E+02  0.00000000000E+00 0. -1.
         13    1    5    5    0    0  0.63624540884E+02 -0.19641358185E+02  0.44500247409E+02  0.80088308595E+02  0.00000000000E+00 0. -1.
        -14    1    5    5    0    0 -0.10336758413E+02  0.30558447244E+02  0.24083779962E+02  0.40257865439E+02  0.00000000000E+00 0.  1.
          5    1    4    4  501    0  0.22327544597E+02 -0.28126625486E+02 -0.77679259525E+02  0.85680604978E+02  0.41800000000E+01 0.  1.
         -5    1    4    4    0  501 -0.46812658922E+02  0.62796057970E+02 -0.27278402699E+02  0.83044286894E+02  0.41800000000E+01 0.  1.
</event>
<event>
11    1  0.8037748E-009  0.1275846E+03  0.7561462E-02  0.1122273E+00
         22   -1    0    0    0    0  0.00000000000E+00  0.00000000000E+00  0.20661537125E+03  0.20661537125E+03  0.00000000000E+00 0.  1.
         22   -1    0    0    0    0 -0.00000000000E+00 -0.00000000000E+00 -0.83456923062E+03  0.83456923062E+03  0.00000000000E+00 0. -1.
        -24    2    1    2    0    0 -0.21536301297E+01  0.12942994773E+02 -0.68634387467E+03  0.69112111145E+03  0.80051965381E+02 0.  0.
         25    2    1    2    0    0  0.17077326163E+02  0.80565337260E+01 -0.10587754861E+03  0.16496693931E+03  0.12508993948E+03 0.  0.
         24    2    1    2    0    0 -0.14923696033E+02 -0.20999528499E+02  0.16426756391E+03  0.18509655110E+03  0.81321607071E+02 0.  0.
        -11    1    5    5    0    0 -0.12223098644E+01 -0.30009732586E+02  0.16591859358E+03  0.16861511732E+03  0.00000000000E+00 0.  1.
         12    1    5    5    0    0 -0.13701386169E+02  0.90102040861E+01 -0.16510296737E+01  0.16481433785E+02  0.00000000000E+00 0. -1.
         13    1    3    3    0    0 -0.25372488385E+02 -0.23311894131E+02 -0.40981022860E+03  0.41125616231E+03  0.00000000000E+00 0. -1.
        -14    1    3    3    0    0  0.23218858256E+02  0.36254888904E+02 -0.27653364607E+03  0.27986494914E+03  0.00000000000E+00 0.  1.
          5    1    4    4  501    0  0.41380105649E+02  0.48888788270E+02 -0.20876407774E+02  0.67496100358E+02  0.41800000000E+01 0.  1.
         -5    1    4    4    0  501 -0.24302779485E+02 -0.40832254544E+02 -0.85001140836E+02  0.97470838948E+02  0.41800000000E+01 0.  1.
</event>
<event>
11    1  0.8037748E-009  0.1528199E+03  0.7561462E-02  0.1094032E+00
         22   -1    0    0    0    0  0.00000000000E+00  0.00000000000E+00  0.85351428993E+02  0.85351428993E+02  0.00000000000E+00 0. -1.
         22   -1    0    0    0    0 -0.00000000000E+00 -0.00000000000E+00 -0.77465568694E+03  0.77465568694E+03  0.00000000000E+00 0.  1.
         24    2    1    2    0    0 -0.88103364520E+02 -0.11630777270E+02 -0.53007195641E+03  0.54341264497E+03  0.80147026932E+02 0.  0.
         25    2    1    2    0    0  0.85411144085E+02 -0.21032962593E+02 -0.16942083583E+03  0.22822967674E+03  0.12509163315E+03 0.  0.
        -24    2    1    2    0    0  0.26922204342E+01  0.32663739863E+02  0.10188534293E+02  0.88364794215E+02  0.81427038955E+02 0.  0.
        -11    1    3    3    0    0 -0.76144294622E+02 -0.40112856361E+02 -0.33338255303E+03  0.34431224421E+03  0.00000000000E+00 0.  1.
         12    1    3    3    0    0 -0.11959069898E+02  0.28482079091E+02 -0.19668940337E+03  0.19910040076E+03  0.00000000000E+00 0. -1.
         11    1    5    5    0    0 -0.10195835426E+02  0.36684858757E+02  0.40253109995E+02  0.55408002909E+02  0.00000000000E+00 0. -1.
        -12    1    5    5    0    0  0.12888055861E+02 -0.40211188945E+01 -0.30064575702E+02  0.32956791306E+02  0.00000000000E+00 0.  1.
          5    1    4    4  501    0  0.71401907943E+02 -0.69911031174E+02 -0.94580025320E+02  0.13765405307E+03  0.41800000000E+01 0. -1.
         -5    1    4    4    0  501  0.14009236142E+02  0.48878068581E+02 -0.74840810509E+02  0.90575623670E+02  0.41800000000E+01 0. -1.
</event>
<event>
11    1  0.8037748E-009  0.1639737E+03  0.7561462E-02  0.1083398E+00
         22   -1    0    0    0    0  0.00000000000E+00  0.00000000000E+00  0.11172678744E+04  0.11172678744E+04  0.00000000000E+00 0.  1.
         22   -1    0    0    0    0 -0.00000000000E+00 -0.00000000000E+00 -0.18906501793E+03  0.18906501793E+03  0.00000000000E+00 0.  1.
         24    2    1    2    0    0 -0.13329377207E+02  0.63991546609E+01 -0.14981589091E+03  0.17444268777E+03  0.88129612893E+02 0.  0.
         25    2    1    2    0    0 -0.69049340978E+02 -0.75053734364E+02  0.28264933330E+03  0.32548412937E+03  0.12509355830E+03 0.  0.
        -24    2    1    2    0    0  0.82378718185E+02  0.68654579703E+02  0.79536941408E+03  0.80640607518E+03  0.78603744909E+02 0.  0.
        -11    1    3    3    0    0 -0.14026162044E+02  0.17771238789E+02 -0.15850522993E+03  0.16011389092E+03  0.00000000000E+00 0.  1.
         12    1    3    3    0    0  0.69678483718E+00 -0.11372084128E+02  0.86893390188E+01  0.14328796848E+02  0.00000000000E+00 0. -1.
         13    1    5    5    0    0  0.38377783842E+01 -0.89561905474E+01  0.23829338178E+03  0.23849251077E+03  0.00000000000E+00 0. -1.
        -14    1    5    5    0    0  0.78540939800E+02  0.77610770250E+02  0.55707603230E+03  0.56791356441E+03  0.00000000000E+00 0.  1.
          5    1    4    4  501    0 -0.43175589722E+02 -0.74567758069E+02  0.28630270220E+03  0.29901704262E+03  0.41800000000E+01 0.  1.
         -5    1    4    4    0  501 -0.25873751255E+02 -0.48597629487E+00 -0.36533688966E+01  0.26467086755E+02  0.41800000000E+01 0.  1.
</event>
<event>
11    1  0.8037748E-009  0.1526824E+03  0.7561462E-02  0.1094169E+00
         22   -1    0    0    0    0  0.00000000000E+00  0.00000000000E+00  0.39050998301E+03  0.39050998301E+03  0.00000000000E+00 0. -1.
         22   -1    0    0    0    0 -0.00000000000E+00 -0.00000000000E+00 -0.57350410243E+03  0.57350410243E+03  0.00000000000E+00 0.  1.
         24    2    1    2    0    0 -0.41872630637E+02  0.47517496925E+02 -0.35251401151E+03  0.36701633882E+03  0.80147582217E+02 0.  0.
         25    2    1    2    0    0  0.10082927675E+03 -0.10799212155E+03 -0.15721611912E+03  0.24938575915E+03  0.12508999717E+03 0.  0.
        -24    2    1    2    0    0 -0.58956646110E+02  0.60474624629E+02  0.32673601121E+03  0.34761198746E+03  0.83334305416E+02 0.  0.
        -13    1    3    3    0    0 -0.57405452227E+02  0.59382934672E+02 -0.28716891569E+03  0.29881048344E+03  0.00000000000E+00 0.  1.
         14    1    3    3    0    0  0.15532821590E+02 -0.11865437747E+02 -0.65345095827E+02  0.68205855380E+02  0.00000000000E+00 0. -1.
         11    1    5    5    0    0 -0.59649175704E+02  0.73181140409E+02  0.21076086235E+03  0.23094078153E+03  0.00000000000E+00 0. -1.
        -12    1    5    5    0    0  0.69252959394E+00 -0.12706515780E+02  0.11597514886E+03  0.11667120594E+03  0.00000000000E+00 0.  1.
          5    1    4    4  501    0 -0.21377253787E+02  0.80048219927E+01 -0.88310124894E+01  0.24829887962E+02  0.41800000000E+01 0.  1.
         -5    1    4    4    0  501  0.12220653053E+03 -0.11599694355E+03 -0.14838510663E+03  0.22455587119E+03  0.41800000000E+01 0.  1.
</event>
<event>
11    1  0.8037748E-009  0.1792120E+03  0.7561462E-02  0.1070282E+00
         22   -1    0    0    0    0  0.00000000000E+00  0.00000000000E+00  0.11872353928E+04  0.11872353928E+04  0.00000000000E+00 0. -1.
         22   -1    0    0    0    0 -0.00000000000E+00 -0.00000000000E+00 -0.16839884941E+03  0.16839884941E+03  0.00000000000E+00 0.  1.
         24    2    1    2    0    0  0.12322053538E+03 -0.25772346974E+01 -0.64757238231E+02  0.16093205755E+03  0.80719791655E+02 0.  0.
         25    2    1    2    0    0 -0.14387566590E+03  0.88130322448E+02  0.16178948329E+03  0.26512480062E+03  0.12509261380E+03 0.  0.
        -24    2    1    2    0    0  0.20655130524E+02 -0.85553087750E+02  0.92180429837E+03  0.92957738407E+03  0.81516766603E+02 0.  0.
        -13    1    3    3    0    0  0.80586687696E+02 -0.34413084884E+02 -0.62579986937E+02  0.10767882526E+03  0.00000000000E+00 0.  1.
         14    1    3    3    0    0  0.42633847685E+02  0.31835850187E+02 -0.21772512948E+01  0.53253232284E+02  0.00000000000E+00 0. -1.
         11    1    5    5    0    0  0.10249791856E+02 -0.10086499170E+03  0.79018781797E+03  0.79666529512E+03  0.00000000000E+00 0. -1.
        -12    1    5    5    0    0  0.10405338668E+02  0.15311903947E+02  0.13161648040E+03  0.13291208895E+03  0.00000000000E+00 0.  1.
          5    1    4    4  501    0 -0.16073539959E+03  0.78187844300E+02  0.16677298550E+03  0.24449930218E+03  0.41800000000E+01 0. -1.
         -5    1    4    4    0  501  0.16859733681E+02  0.99424781474E+01 -0.49835022112E+01  0.20625498438E+02  0.41800000000E+01 0. -1.
</event>
<event>
11    1  0.9324124E-009  0.1721251E+03  0.7561462E-02  0.1076197E+00
         22   -1    0    0    0    0  0.00000000000E+00  0.00000000000E+00  0.22873718096E+04  0.22873718096E+04  0.00000000000E+00 0. -1.
         22   -1    0    0    0    0 -0.00000000000E+00 -0.00000000000E+00 -0.20982998633E+03  0.20982998633E+03  0.00000000000E+00 0.  1.
         24    2    1    2    0    0  0.74357452730E+01 -0.75555868940E+02 -0.15073011365E+03  0.18624138512E+03  0.78754725153E+02 0.  0.
         25    2    1    2    0    0  0.10715483081E+03  0.10184005820E+03  0.20252984636E+03  0.28021180838E+03  0.12508702438E+03 0.  0.
        -24    2    1    2    0    0 -0.11459057608E+03 -0.26284189261E+02  0.20257420906E+04  0.20307486025E+04  0.80541977021E+02 0.  0.
        -13    1    3    3    0    0  0.31843238983E+01 -0.27266950970E+02 -0.13109751046E+03  0.13394097126E+03  0.00000000000E+00 0.  1.
         14    1    3    3    0    0  0.42514213747E+01 -0.48288917970E+02 -0.19632603190E+02  0.52300413865E+02  0.00000000000E+00 0. -1.
         11    1    5    5    0    0 -0.10858250933E+03 -0.44843193668E+02  0.14788880141E+04  0.14835467069E+04  0.00000000000E+00 0. -1.
        -12    1    5    5    0    0 -0.60080667476E+01  0.18559004407E+02  0.54685407651E+03  0.54720189556E+03  0.00000000000E+00 0.  1.
          5    1    4    4  501    0 -0.10543679122E+01  0.80872182731E+02  0.64559073290E+02  0.10357011140E+03  0.41800000000E+01 0. -1.
         -5    1    4    4    0  501  0.10820919872E+03  0.20967875470E+02  0.13797077307E+03  0.17664169698E+03  0.41800000000E+01 0. -1.
</event>
<event>
11    1  0.8037748E-009  0.1576237E+03  0.7561462E-02  0.1089334E+00
         22   -1    0    0    0    0  0.00000000000E+00  0.00000000000E+00  0.98534549688E+02  0.98534549688E+02  0.00000000000E+00 0.  1.
         22   -1    0    0    0    0 -0.00000000000E+00 -0.00000000000E+00 -0.24105384132E+04  0.24105384132E+04  0.00000000000E+00 0.  1.
         24    2    1    2    0    0 -0.20542272392E+02 -0.98981227147E+02 -0.21664185658E+04  0.21703278746E+04  0.82063467921E+02 0.  0.
         25    2    1    2    0    0  0.39328808291E+01  0.40985688241E+02 -0.18863294585E+03  0.23005543079E+03  0.12509124183E+03 0.  0.
        -24    2    1    2    0    0  0.16609391563E+02  0.57995538905E+02  0.43047648159E+02  0.10868965747E+03  0.79504636394E+02 0.  0.
        -13    1    3    3    0    0 -0.17529457728E+02 -0.10677003837E+03 -0.21372571447E+04  0.21399942116E+04  0.00000000000E+00 0.  1.
         14    1    3    3    0    0 -0.30128146641E+01  0.77888112279E+01 -0.29161421071E+02  0.30333663007E+02  0.00000000000E+00 0. -1.
         13    1    5    5    0    0  0.17686259827E+02  0.54623522987E+02 -0.76019506975E+01  0.57916514955E+02  0.00000000000E+00 0. -1.
        -14    1    5    5    0    0 -0.10768682637E+01  0.33720159188E+01  0.50649598857E+02  0.50773142516E+02  0.00000000000E+00 0.  1.
          5    1    4    4  501    0 -0.83509322650E+01  0.27725447647E+02  0.97263674723E+01  0.30830393139E+02  0.41800000000E+01 0. -1.
         -5    1    4    4    0  501  0.12283813094E+02  0.13260240594E+02 -0.19835931332E+03  0.19922503765E+03  0.41800000000E+01 0. -1.
</event>
<event>
11    1  0.8037748E-009  0.1492859E+03  0.7561462E-02  0.1097611E+00
         22   -1    0    0    0    0  0.00000000000E+00  0.00000000000E+00  0.47680093460E+03  0.47680093460E+03  0.00000000000E+00 0.  1.
         22   -1    0    0    0    0 -0.00000000000E+00 -0.00000000000E+00 -0.13786454496E+04  0.13786454496E+04  0.00000000000E+00 0. -1.
         24    2    1    2    0    0 -0.80763633934E+02 -0.16146925233E+02 -0.13319730240E+04  0.13368243356E+04  0.78509106868E+02 0.  0.
         25    2    1    2    0    0  0.37662726974E+02  0.17011055370E+02  0.74641519349E+02  0.15141618707E+03  0.12509056035E+03 0.  0.
        -24    2    1    2    0    0  0.43100906961E+02 -0.86413013657E+00  0.35548698967E+03  0.36720586150E+03  0.81306272824E+02 0.  0.
        -11    1    3    3    0    0  0.34651741275E+01 -0.27919902815E+02 -0.27508770514E+03  0.27652264631E+03  0.00000000000E+00 0.  1.
         12    1    3    3    0    0 -0.84228808062E+02  0.11772977582E+02 -0.10568853189E+04  0.10603016893E+04  0.00000000000E+00 0. -1.
         11    1    5    5    0    0  0.35669101093E+02 -0.53681663359E+01  0.50307760861E+02  0.61902930346E+02  0.00000000000E+00 0. -1.
        -12    1    5    5    0    0  0.74318058681E+01  0.45040361994E+01  0.30517922880E+03  0.30530293116E+03  0.00000000000E+00 0.  1.
          5    1    4    4  501    0  0.58559679072E+02  0.28207067704E+02 -0.77380739051E+01  0.65591347517E+02  0.41800000000E+01 0. -1.
         -5    1    4    4    0  501 -0.20896952098E+02 -0.11196012334E+02  0.82379593255E+02  0.85824839551E+02  0.41800000000E+01 0. -1.
</event>
<event>
11    1  0.8037748E-009  0.1469635E+03  0.7561462E-02  0.1100022E+00
         22   -1    0    0    0    0  0.00000000000E+00  0.00000000000E+00  0.31395836781E+03  0.31395836781E+03  0.00000000000E+00 0.  1.
         22   -1    0    0    0    0 -0.00000000000E+00 -0.00000000000E+00 -0.65212544945E+03  0.65212544945E+03  0.00000000000E+00 0. -1.
        -24    2    1    2    0    0  0.11457051010E+02 -0.57943886013E+02 -0.48648114372E+03  0.49693219010E+03  0.82395026648E+02 0.  0.
         25    2    1    2    0    0  0.60064130457E+02  0.22908223399E+02 -0.11572587729E+03  0.18212854865E+03  0.12508334458E+03 0.  0.
         24    2    1    2    0    0 -0.71521181467E+02  0.35035662614E+02  0.26403993936E+03  0.28702307851E+03  0.79513401182E+02 0.  0.
        -11    1    5    5    0    0 -0.61792832809E+02  0.58782822620E+02  0.22136725016E+03  0.23722823160E+03  0.00000000000E+00 0.  1.
         12    1    5    5    0    0 -0.97283486582E+01 -0.23747160006E+02  0.42672689202E+02  0.49794846919E+02  0.00000000000E+00 0. -1.
         11    1    3    3    0    0  0.37724976969E+02 -0.22108477146E+02 -0.36445316543E+03  0.36706684465E+03  0.00000000000E+00 0. -1.
        -12    1    3    3    0    0 -0.26267925959E+02 -0.35835408866E+02 -0.12202797828E+03  0.12986534544E+03  0.00000000000E+00 0.  1.
          5    1    4    4  501    0  0.47759767262E+02 -0.17409932033E+02 -0.12819626726E+03  0.13797049120E+03  0.41800000000E+01 0. -1.
         -5    1    4    4    0  501  0.12304363195E+02  0.40318155432E+02  0.12470389976E+02  0.44158057444E+02  0.41800000000E+01 0. -1.
</event>
<event>
11    1  0.8037748E-009  0.1458611E+03  0.7561462E-02  0.1101185E+00
         22   -1    0    0    0    0  0.00000000000E+00  0.00000000000E+00  0.57706868053E+03  0.57706868053E+03  0.00000000000E+00 0. -1.
         22   -1    0    0    0    0 -0.00000000000E+00 -0.00000000000E+00 -0.77494090580E+03  0.77494090580E+03  0.00000000000E+00 0. -1.
         24    2    1    2    0    0  0.34895978712E+02 -0.64996421191E+02 -0.70861197004E+03  0.71706654010E+03  0.81309499710E+02 0.  0.
         25    2    1    2    0    0 -0.23909271593E+02  0.11535399486E+03  0.71764031446E+02  0.18621331516E+03  0.12508846922E+03 0.  0.
        -24    2    1    2    0    0 -0.10986707119E+02 -0.50357573673E+02  0.43897571332E+03  0.44872973108E+03  0.77473232188E+02 0.  0.
        -11    1    3    3    0    0  0.39104482287E+02 -0.12179168075E+02 -0.50553006777E+03  0.50718649636E+03  0.00000000000E+00 0.  1.
         12    1    3    3    0    0 -0.42085035751E+01 -0.52817253116E+02 -0.20308190227E+03  0.20988004373E+03  0.00000000000E+00 0. -1.
         13    1    5    5    0    0  0.56224759588E+01 -0.79592418686E+01  0.33593088235E+03  0.33607219386E+03  0.00000000000E+00 0. -1.
        -14    1    5    5    0    0 -0.16609183078E+02 -0.42398331805E+02  0.10304483097E+03  0.11265753722E+03  0.00000000000E+00 0.  1.
          5    1    4    4  501    0 -0.43459321324E+02  0.12499232021E+03  0.87771112960E+02  0.15884909000E+03  0.41800000000E+01 0. -1.
         -5    1    4    4    0  501  0.19550049731E+02 -0.96383253480E+01 -0.16007081514E+02  0.27364225160E+02  0.41800000000E+01 0. -1.
</event>
<event>
11    1  0.8037748E-009  0.1352222E+03  0.7561462E-02  0.1113014E+00
         22   -1    0    0    0    0  0.00000000000E+00  0.00000000000E+00  0.25424797134E+03  0.25424797134E+03  0.00000000000E+00 0.  1.
         22   -1    0    0    0    0 -0.00000000000E+00 -0.00000000000E+00 -0.13483906462E+03  0.13483906462E+03  0.00000000000E+00 0. -1.
         24    2    1    2    0    0  0.84145175681E+02 -0.30754184772E+02  0.23304600924E+02  0.12268773090E+03  0.80516733770E+02 0.  0.
         25    2    1    2    0    0  0.62350863495E+01  0.22496268833E+02  0.44108880711E+02  0.13467833436E+03  0.12509077494E+03 0.  0.
        -24    2    1    2    0    0 -0.90380262030E+02  0.82579159392E+01  0.51995425084E+02  0.13172097071E+03  0.80063131057E+02 0.  0.
        -11    1    3    3    0    0  0.60864613931E+02  0.16753180702E+02  0.29012294351E+02  0.69475776470E+02  0.00000000000E+00 0.  1.
         12    1    3    3    0    0  0.23280561750E+02 -0.47507365474E+02 -0.57076934268E+01  0.53211954427E+02  0.00000000000E+00 0. -1.
         11    1    5    5    0    0 -0.23672223918E+01  0.87352339072E+01 -0.17417643800E+02  0.19628610975E+02  0.00000000000E+00 0. -1.
        -12    1    5    5    0    0 -0.88013039639E+02 -0.47731796800E+00  0.69413068884E+02  0.11209235973E+03  0.00000000000E+00 0.  1.
          5    1    4    4  501    0 -0.45510839108E+02 -0.10609027023E+02  0.54847794837E+02  0.72177149633E+02  0.41800000000E+01 0.  1.
         -5    1    4    4    0  501  0.51745925457E+02  0.33105295856E+02 -0.10738914127E+02  0.62501184723E+02  0.41800000000E+01 0.  1.
</event>
<event>
11    1  0.8037748E-009  0.1560062E+03  0.7561462E-02  0.1090895E+00
         22   -1    0    0    0    0  0.00000000000E+00  0.00000000000E+00  0.15062602665E+04  0.15062602665E+04  0.00000000000E+00 0.  1.
         22   -1    0    0    0    0 -0.00000000000E+00 -0.00000000000E+00 -0.18298304055E+04  0.18298304055E+04  0.00000000000E+00 0.  1.
         24    2    1    2    0    0  0.54701559514E+02  0.42412435601E+02 -0.17559699457E+04  0.17594320419E+04  0.85904507449E+02 0.  0.
         25    2    1    2    0    0 -0.28107189828E+02 -0.13077174721E+03  0.51260777772E+02  0.19017283770E+03  0.12508707716E+03 0.  0.
        -24    2    1    2    0    0 -0.26594369686E+02  0.88359311611E+02  0.13811390289E+04  0.13864857925E+04  0.79266683417E+02 0.  0.
        -11    1    3    3    0    0  0.76190380549E+02  0.40768294636E+02 -0.15294611766E+04  0.15319002966E+04  0.00000000000E+00 0.  1.
         12    1    3    3    0    0 -0.21488821034E+02  0.16441409648E+01 -0.22650876911E+03  0.22753174528E+03  0.00000000000E+00 0. -1.
         13    1    5    5    0    0  0.15695854972E+02  0.74234900555E+02  0.95969587757E+03  0.96269068643E+03  0.00000000000E+00 0. -1.
        -14    1    5    5    0    0 -0.42290224658E+02  0.14124411056E+02  0.42144315136E+03  0.42379510606E+03  0.00000000000E+00 0.  1.
          5    1    4    4  501    0 -0.49313000237E+00 -0.37493110361E+02  0.80168189585E+02  0.88602412625E+02  0.41800000000E+01 0. -1.
         -5    1    4    4    0  501 -0.27614059826E+02 -0.93278636851E+02 -0.28907411813E+02  0.10157042508E+03  0.41800000000E+01 0. -1.
</event>
<event>
11    1  0.1252950E-008  0.1784385E+03  0.7561462E-02  0.1070913E+00
         22   -1    0    0    0    0  0.00000000000E+00  0.00000000000E+00  0.51847854547E+03  0.51847854547E+03  0.00000000000E+00 0. -1.
         22   -1    0    0    0    0 -0.00000000000E+00 -0.00000000000E+00 -0.14068200480E+04  0.14068200480E+04  0.00000000000E+00 0.  1.
        -24    2    1    2    0    0  0.19048061275E+02 -0.35790058331E+02 -0.11531431711E+04  0.11566330212E+04  0.80106278091E+02 0.  0.
         25    2    1    2    0    0  0.77611290172E+02 -0.49674577003E+02 -0.21504389252E+03  0.26529601282E+03  0.12508805997E+03 0.  0.
         24    2    1    2    0    0 -0.96659351447E+02  0.85464635334E+02  0.47984556107E+03  0.50336955946E+03  0.80510352104E+02 0.  0.
        -11    1    5    5    0    0  0.61635195906E+01  0.18866914034E+02  0.22982901537E+02  0.30367139839E+02  0.00000000000E+00 0.  1.
         12    1    5    5    0    0 -0.10282287104E+03  0.66597721300E+02  0.45686265953E+03  0.47300241962E+03  0.00000000000E+00 0. -1.
         11    1    3    3    0    0 -0.34632260250E+01 -0.14956793153E+02 -0.36871623907E+02  0.39940158305E+02  0.00000000000E+00 0. -1.
        -12    1    3    3    0    0  0.22511287300E+02 -0.20833265178E+02 -0.11162715472E+04  0.11166928629E+04  0.00000000000E+00 0.  1.
          5    1    4    4  501    0  0.60997167485E+02  0.20558693510E+02 -0.39971237546E+02  0.75884692468E+02  0.41800000000E+01 0.  1.
         -5    1    4    4    0  501  0.16614122687E+02 -0.70233270514E+02 -0.17507265497E+03  0.18941132035E+03  0.41800000000E+01 0.  1.
</event>
<event>
11    1  0.8037748E-009  0.1688287E+03  0.7561462E-02  0.1079056E+00
         22   -1    0    0    0    0  0.00000000000E+00  0.00000000000E+00  0.65441909790E+03  0.65441909790E+03  0.00000000000E+00 0.  1.
         22   -1    0    0    0    0 -0.00000000000E+00 -0.00000000000E+00 -0.45169287474E+03  0.45169287474E+03  0.00000000000E+00 0.  1.
        -24    2    1    2    0    0  0.24179522376E+02 -0.10220060297E+02 -0.39754082360E+03  0.40629901395E+03  0.79693684677E+02 0.  0.
         25    2    1    2    0    0 -0.62574566073E+02  0.11281791218E+03  0.16553075697E+03  0.24431968373E+03  0.12509284044E+03 0.  0.
         24    2    1    2    0    0  0.38395043697E+02 -0.10259785189E+03  0.43473628979E+03  0.45549327495E+03  0.80485919712E+02 0.  0.
        -13    1    5    5    0    0  0.25164923658E+02 -0.10403382451E+03  0.42676089606E+03  0.43997860451E+03  0.00000000000E+00 0.  1.
         14    1    5    5    0    0  0.13230120038E+02  0.14359726261E+01  0.79753937355E+01  0.15514670440E+02  0.00000000000E+00 0. -1.
         13    1    3    3    0    0 -0.68831266246E+01  0.12023238013E+02 -0.10516334664E+02  0.17393360205E+02  0.00000000000E+00 0. -1.
        -14    1    3    3    0    0  0.31062649001E+02 -0.22243298310E+02 -0.38702448893E+03  0.38890565375E+03  0.00000000000E+00 0.  1.
          5    1    4    4  501    0 -0.80443485079E+02  0.38682254469E+02  0.41185673109E+02  0.98393105306E+02  0.41800000000E+01 0.  1.
         -5    1    4    4    0  501  0.17868919006E+02  0.74135657715E+02  0.12434508386E+03  0.14592657843E+03  0.41800000000E+01 0.  1.
</event>
<event>
11    1  0.8037748E-009  0.1361416E+03  0.7561462E-02  0.1111945E+00
         22   -1    0    0    0    0  0.00000000000E+00  0.00000000000E+00  0.40468704227E+03  0.40468704227E+03  0.00000000000E+00 0. -1.
         22   -1    0    0    0    0 -0.00000000000E+00 -0.00000000000E+00 -0.14282713856E+04  0.14282713856E+04  0.00000000000E+00 0. -1.
        -24    2    1    2    0    0  0.50455098892E+02 -0.23107662981E+02 -0.12330034876E+04  0.12367254530E+04  0.78182892962E+02 0.  0.
         25    2    1    2    0    0 -0.30571443516E+02  0.12293878580E+02 -0.16668919997E+03  0.21099068493E+03  0.12508408025E+03 0.  0.
         24    2    1    2    0    0 -0.19883655376E+02  0.10813784401E+02  0.37610834422E+03  0.38524228989E+03  0.80261059311E+02 0.  0.
        -11    1    5    5    0    0 -0.38096646408E+02  0.35120496130E+02  0.20420307167E+03  0.21067438904E+03  0.00000000000E+00 0.  1.
         12    1    5    5    0    0  0.18212991032E+02 -0.24306711729E+02  0.17190527255E+03  0.17456790085E+03  0.00000000000E+00 0. -1.
         11    1    3    3    0    0  0.50747294068E+02  0.67856712779E+01 -0.10540030432E+04  0.10552458237E+04  0.00000000000E+00 0. -1.
        -12    1    3    3    0    0 -0.29219517687E+00 -0.29893334259E+02 -0.17900044434E+03  0.18147962939E+03  0.00000000000E+00 0.  1.
          5    1    4    4  501    0 -0.37559045246E+02  0.56667426974E+02 -0.46121874963E+02  0.82259217780E+02  0.41800000000E+01 0.  1.
         -5    1    4    4    0  501  0.69876017309E+01 -0.44373548394E+02 -0.12056732501E+03  0.12873146715E+03  0.41800000000E+01 0.  1.
</event>
<event>
11    1  0.8037748E-009  0.2217230E+03  0.7561462E-02  0.1040143E+00
         22   -1    0    0    0    0  0.00000000000E+00  0.00000000000E+00  0.58745593246E+02  0.58745593246E+02  0.00000000000E+00 0.  1.
         22   -1    0    0    0    0 -0.00000000000E+00 -0.00000000000E+00 -0.25505485521E+04  0.25505485521E+04  0.00000000000E+00 0.  1.
         24    2    1    2    0    0  0.66440845501E+02 -0.17176242470E+03 -0.19835220834E+04  0.19936524181E+04  0.79833530060E+02 0.  0.
         25    2    1    2    0    0 -0.62006725759E+01  0.18594044394E+03 -0.44380490835E+03  0.49721404661E+03  0.12508682757E+03 0.  0.
        -24    2    1    2    0    0 -0.60240172925E+02 -0.14178019237E+02 -0.64475967162E+02  0.11842768066E+03  0.77705022631E+02 0.  0.
        -13    1    3    3    0    0  0.84808691180E+01 -0.10357827743E+03 -0.79462588432E+03  0.80139296274E+03  0.00000000000E+00 0.  1.
         14    1    3    3    0    0  0.57959976383E+02 -0.68184147272E+02 -0.11888961990E+04  0.11922594553E+04  0.00000000000E+00 0. -1.
         13    1    5    5    0    0  0.48106532752E+01 -0.13295102504E+02  0.11628471785E+02  0.18306378440E+02  0.00000000000E+00 0. -1.
        -14    1    5    5    0    0 -0.65050826201E+02 -0.88291673285E+00 -0.76104438947E+02  0.10012130222E+03  0.00000000000E+00 0.  1.
          5    1    4    4  501    0 -0.64338932049E+02  0.75689394293E+02 -0.20191920296E+03  0.22507158752E+03  0.41800000000E+01 0. -1.
         -5    1    4    4    0  501  0.58138259473E+02  0.11025104965E+03 -0.24188570539E+03  0.27214245908E+03  0.41800000000E+01 0. -1.
</event>
<event>
11    1  0.8037748E-009  0.1416120E+03  0.7561462E-02  0.1105772E+00
         22   -1    0    0    0    0  0.00000000000E+00  0.00000000000E+00  0.20253728219E+04  0.20253728219E+04  0.00000000000E+00 0.  1.
         22   -1    0    0    0    0 -0.00000000000E+00 -0.00000000000E+00 -0.48034274261E+03  0.48034274261E+03  0.00000000000E+00 0. -1.
        -24    2    1    2    0    0 -0.85643980203E+01  0.11348958263E+03 -0.44778662988E+03  0.46965396794E+03  0.84313400003E+02 0.  0.
         25    2    1    2    0    0 -0.12081324162E+02 -0.68009062404E+01  0.18842969604E+03  0.22659751838E+03  0.12509386184E+03 0.  0.
         24    2    1    2    0    0  0.20645722182E+02 -0.10668867639E+03  0.18043870131E+04  0.18094640781E+04  0.80864315608E+02 0.  0.
        -13    1    5    5    0    0 -0.14774121268E+02 -0.95600406954E+02  0.14192340477E+04  0.14225269750E+04  0.00000000000E+00 0.  1.
         14    1    5    5    0    0  0.35419843450E+02 -0.11088269435E+02  0.38515296543E+03  0.38693710317E+03  0.00000000000E+00 0. -1.
         11    1    3    3    0    0 -0.15465552080E+02 -0.38097362405E+01 -0.12755102113E+03  0.12854166788E+03  0.00000000000E+00 0. -1.
        -12    1    3    3    0    0  0.69011540597E+01  0.11729931887E+03 -0.32023560875E+03  0.34111230005E+03  0.00000000000E+00 0.  1.
          5    1    4    4  501    0 -0.45923978549E+02  0.10445231902E+02  0.18175715118E+03  0.18780641384E+03  0.41800000000E+01 0. -1.
         -5    1    4    4    0  501  0.33842654387E+02 -0.17246138142E+02  0.66725448597E+01  0.38791104543E+02  0.41800000000E+01 0. -1.
</event>
<event>
11    1  0.8037748E-009  0.1470883E+03  0.7561462E-02  0.1099892E+00
         22   -1    0    0    0    0  0.00000000000E+00  0.00000000000E+00  0.39034001119E+03  0.39034001119E+03  0.00000000000E+00 0.  1.
         22   -1    0    0    0    0 -0.00000000000E+00 -0.00000000000E+00 -0.18793128675E+03  0.18793128675E+03  0.00000000000E+00 0.  1.
         24    2    1    2    0    0  0.52826005435E+02 -0.47684105226E+02 -0.97558784697E+02  0.14572426497E+03  0.81568892282E+02 0.  0.
         25    2    1    2    0    0 -0.60358290662E+02  0.98198173983E+02  0.78400734258E+02  0.18729777233E+03  0.12509106987E+03 0.  0.
        -24    2    1    2    0    0  0.75322852270E+01 -0.50514068757E+02  0.22156677488E+03  0.24524926063E+03  0.91907331862E+02 0.  0.
        -13    1    3    3    0    0  0.63755873021E+02 -0.59147143971E+02 -0.62020855257E+02  0.10681658332E+03  0.00000000000E+00 0.  1.
         14    1    3    3    0    0 -0.10929867586E+02  0.11463038745E+02 -0.35537929440E+02  0.38907681653E+02  0.00000000000E+00 0. -1.
         13    1    5    5    0    0 -0.28678872206E+01  0.40825998035E+01 -0.77921068853E+01  0.92525308958E+01  0.00000000000E+00 0. -1.
        -14    1    5    5    0    0  0.10400172448E+02 -0.54596668561E+02  0.22935888176E+03  0.23599672974E+03  0.00000000000E+00 0.  1.
          5    1    4    4  501    0 -0.19588063989E+01 -0.24739118363E+02 -0.75481036392E+01  0.26273697274E+02  0.41800000000E+01 0.  1.
         -5    1    4    4    0  501 -0.58399484263E+02  0.12293729235E+03  0.85948837897E+02  0.16102407506E+03  0.41800000000E+01 0.  1.
</event>
<event>
11    1  0.8037748E-009  0.1272638E+03  0.7561462E-02  0.1122677E+00
         22   -1    0    0    0    0  0.00000000000E+00  0.00000000000E+00  0.36991000055E+04  0.36991000055E+04  0.00000000000E+00 0.  1.
         22   -1    0    0    0    0 -0.00000000000E+00 -0.00000000000E+00 -0.14829406573E+02  0.14829406573E+02  0.00000000000E+00 0. -1.
         24    2    1    2    0    0  0.26699633499E+02  0.16674136511E+02  0.22048785773E+03  0.23501451936E+03  0.75006877337E+02 0.  0.
         25    2    1    2    0    0 -0.31811944258E+02 -0.37611548937E+02  0.64216500321E+03  0.65608693749E+03  0.12509016660E+03 0.  0.
        -24    2    1    2    0    0  0.51123107587E+01  0.20937412426E+02  0.28216177379E+04  0.28228279552E+04  0.79790315935E+02 0.  0.
        -11    1    3    3    0    0  0.39341867326E+02 -0.88497497914E+00  0.20413455858E+03  0.20789296215E+03  0.00000000000E+00 0.  1.
         12    1    3    3    0    0 -0.12642233827E+02  0.17559111490E+02  0.16353299146E+02  0.27121557208E+02  0.00000000000E+00 0. -1.
         11    1    5    5    0    0 -0.31344108544E+02  0.14599868148E+02  0.66966070230E+03  0.67055280590E+03  0.00000000000E+00 0. -1.
        -12    1    5    5    0    0  0.36456419303E+02  0.63375442786E+01  0.21519570356E+04  0.21522751493E+04  0.00000000000E+00 0.  1.
          5    1    4    4  501    0  0.46025086881E+02 -0.90395196354E+01  0.15845936099E+03  0.16530838763E+03  0.41800000000E+01 0. -1.
         -5    1    4    4    0  501 -0.77837031139E+02 -0.28572029301E+02  0.48370564223E+03  0.49077854986E+03  0.41800000000E+01 0. -1.
</event>
<event>
11    1  0.8037748E-009  0.1507602E+03  0.7561462E-02  0.1096105E+00
         22   -1    0    0    0    0  0.00000000000E+00  0.00000000000E+00  0.92904969245E+03  0.92904969245E+03  0.00000000000E+00 0.  1.
         22   -1    0    0    0    0 -0.00000000000E+00 -0.00000000000E+00 -0.37046432365E+03  0.37046432365E+03  0.00000000000E+00 0.  1.
        -24    2    1    2    0    0  0.85712900064E+02 -0.68247154940E+01 -0.33415283442E+03  0.35476357694E+03  0.82497277472E+02 0.  0.
         25    2    1    2    0    0 -0.47716892037E+02  0.19520429116E+02  0.17299349017E+03  0.21961850537E+03  0.12509033265E+03 0.  0.
         24    2    1    2    0    0 -0.37996008028E+02 -0.12695713622E+02  0.71974471305E+03  0.72513193379E+03  0.78606562514E+02 0.  0.
        -13    1    5    5    0    0 -0.47917423271E+00  0.24899008601E+02  0.41855240339E+03  0.41929262409E+03  0.00000000000E+00 0.  1.
         14    1    5    5    0    0 -0.37516833795E+02 -0.37594722223E+02  0.30119230966E+03  0.30583930969E+03  0.00000000000E+00 0. -1.
         13    1    3    3    0    0  0.14413578378E+02  0.15764140482E+02 -0.12974630115E+02  0.24992006591E+02  0.00000000000E+00 0. -1.
        -14    1    3    3    0    0  0.71299321686E+02 -0.22588855976E+02 -0.32117820431E+03  0.32977157035E+03  0.00000000000E+00 0.  1.
          5    1    4    4  501    0 -0.23388496718E+02  0.44070551518E+02  0.76482982374E+01  0.50647844532E+02  0.41800000000E+01 0.  1.
         -5    1    4    4    0  501 -0.24328395318E+02 -0.24550122402E+02  0.16534519193E+03  0.16897066084E+03  0.41800000000E+01 0.  1.
</event>
<event>
11    1  0.8037748E-009  0.1904799E+03  0.7561462E-02  0.1061468E+00
         22   -1    0    0    0    0  0.00000000000E+00  0.00000000000E+00  0.73777987475E+03  0.73777987475E+03  0.00000000000E+00 0. -1.
         22   -1    0    0    0    0 -0.00000000000E+00 -0.00000000000E+00 -0.57775960533E+03  0.57775960533E+03  0.00000000000E+00 0.  1.
        -24    2    1    2    0    0  0.89275081344E+02 -0.11156705204E+03 -0.51241712776E+03  0.53763585283E+03  0.77870085225E+02 0.  0.
         25    2    1    2    0    0 -0.90730934864E+02  0.12585128914E+03  0.15059418860E+03  0.24981923470E+03  0.12514148341E+03 0.  0.
         24    2    1    2    0    0  0.14558535208E+01 -0.14284237099E+02  0.52184320859E+03  0.52808439256E+03  0.79665754095E+02 0.  0.
        -13    1    5    5    0    0 -0.15826397065E+02  0.27381903841E+02  0.13681660207E+03  0.14042444981E+03  0.00000000000E+00 0.  1.
         14    1    5    5    0    0  0.17282250585E+02 -0.41666140940E+02  0.38502660652E+03  0.38765994275E+03  0.00000000000E+00 0. -1.
         11    1    3    3    0    0 -0.14055196547E+01 -0.49180178734E+02 -0.11126972801E+03  0.12166189970E+03  0.00000000000E+00 0. -1.
        -12    1    3    3    0    0  0.90680600998E+02 -0.62386873303E+02 -0.40114739975E+03  0.41597395313E+03  0.00000000000E+00 0.  1.
          5    1    4    4  501    0 -0.74663081959E+02  0.13388733089E+03  0.72597236262E+02  0.16967092943E+03  0.41800000000E+01 0.  1.
         -5    1    4    4    0  501 -0.16067852905E+02 -0.80360417556E+01  0.77996952337E+02  0.80148305272E+02  0.41800000000E+01 0.  1.
</event>
<event>
11    1  0.8037748E-009  0.1269171E+03  0.7561462E-02  0.1123116E+00
         22   -1    0    0    0    0  0.00000000000E+00  0.00000000000E+00  0.14688909466E+04  0.14688909466E+04  0.00000000000E+00 0. -1.
         22   -1    0    0    0    0 -0.00000000000E+00 -0.00000000000E+00 -0.74433086633E+02  0.74433086633E+02  0.00000000000E+00 0. -1.
         24    2    1    2    0    0 -0.15114911878E+02  0.14226855858E+02 -0.36250971407E+02  0.91060770696E+02  0.80913948384E+02 0.  0.
         25    2    1    2    0    0  0.31303788241E+02 -0.14955024173E+02  0.45647202049E+03  0.47457159862E+03  0.12509163368E+03 0.  0.
        -24    2    1    2    0    0 -0.16188876363E+02  0.72816831562E+00  0.97423681092E+03  0.97769166396E+03  0.80504758075E+02 0.  0.
        -13    1    3    3    0    0 -0.93538871720E+01 -0.71435711295E+01  0.24077539349E+02  0.26800255873E+02  0.00000000000E+00 0.  1.
         14    1    3    3    0    0 -0.57610247059E+01  0.21370426987E+02 -0.60328510757E+02  0.64260514823E+02  0.00000000000E+00 0. -1.
         13    1    5    5    0    0 -0.26337777492E+02  0.26681604246E+02  0.82648028644E+03  0.82733019430E+03  0.00000000000E+00 0. -1.
        -14    1    5    5    0    0  0.10148901129E+02 -0.25953435930E+02  0.14775652448E+03  0.15036146966E+03  0.00000000000E+00 0.  1.
          5    1    4    4  501    0  0.37022830491E+02  0.47215078151E+02  0.30156535228E+03  0.30750461407E+03  0.41800000000E+01 0. -1.
         -5    1    4    4    0  501 -0.57190422504E+01 -0.62170102324E+02  0.15490666821E+03  0.16706698454E+03  0.41800000000E+01 0. -1.
</event>
<event>
11    1  0.8037748E-009  0.1636706E+03  0.7561462E-02  0.1083675E+00
         22   -1    0    0    0    0  0.00000000000E+00  0.00000000000E+00  0.71331147684E+03  0.71331147684E+03  0.00000000000E+00 0.  1.
         22   -1    0    0    0    0 -0.00000000000E+00 -0.00000000000E+00 -0.17078776860E+03  0.17078776860E+03  0.00000000000E+00 0.  1.
         24    2    1    2    0    0  0.53652399204E+01  0.20852387193E+02 -0.12558939311E+03  0.15112936029E+03  0.81263645193E+02 0.  0.
         25    2    1    2    0    0 -0.66547175072E+02 -0.98206541611E+02  0.33117172237E+03  0.37335647082E+03  0.12508914134E+03 0.  0.
        -24    2    1    2    0    0  0.61181935151E+02  0.77354154419E+02  0.33694137898E+03  0.35961341433E+03  0.77880809574E+02 0.  0.
        -13    1    3    3    0    0  0.21675685539E+02 -0.24230113622E+02 -0.30215492784E+02  0.44383665395E+02  0.00000000000E+00 0.  1.
         14    1    3    3    0    0 -0.16310445618E+02  0.45082500815E+02 -0.95373900326E+02  0.10674569490E+03  0.00000000000E+00 0. -1.
         11    1    5    5    0    0 -0.15514169577E+02  0.23408686466E+02  0.12057910295E+03  0.12380620391E+03  0.00000000000E+00 0. -1.
        -12    1    5    5    0    0  0.76696104728E+02  0.53945467952E+02  0.21636227603E+03  0.23580721041E+03  0.00000000000E+00 0.  1.
          5    1    4    4  501    0 -0.35472842394E+02 -0.11739463645E+03  0.18046444896E+03  0.21823087076E+03  0.41800000000E+01 0.  1.
         -5    1    4    4    0  501 -0.31074332678E+02  0.19188094840E+02  0.15070727341E+03  0.15512560006E+03  0.41800000000E+01 0.  1.
</event>
<event>
11    1  0.8037748E-009  0.2119632E+03  0.7561462E-02  0.1046372E+00
         22   -1    0    0    0    0  0.00000000000E+00  0.00000000000E+00  0.56988485118E+03  0.56988485118E+03  0.00000000000E+00 0. -1.
         22   -1    0    0    0    0 -0.00000000000E+00 -0.00000000000E+00 -0.97582285718E+03  0.97582285718E+03  0.00000000000E+00 0.  1.
        -24    2    1    2    0    0 -0.14031683224E+03 -0.74713007679E+01 -0.78318483622E+03  0.79971929128E+03  0.80173707733E+02 0.  0.
         25    2    1    2    0    0  0.18004220727E+03 -0.15556641672E+03 -0.55791040146E+02  0.27454733731E+03  0.12508994307E+03 0.  0.
         24    2    1    2    0    0 -0.39725375025E+02  0.16303771749E+03  0.43303787037E+03  0.47144107977E+03  0.81089406040E+02 0.  0.
        -11    1    5    5    0    0 -0.49934310792E+01  0.20936280243E+02  0.98256571476E+01  0.23660213920E+02  0.00000000000E+00 0.  1.
         12    1    5    5    0    0 -0.34731943946E+02  0.14210143724E+03  0.42321221322E+03  0.44778086585E+03  0.00000000000E+00 0. -1.
         13    1    3    3    0    0 -0.74609617126E+02 -0.24757076702E+00 -0.21247299182E+03  0.22519198146E+03  0.00000000000E+00 0. -1.
        -14    1    3    3    0    0 -0.65707215118E+02 -0.72237300009E+01 -0.57071184440E+03  0.57452730982E+03  0.00000000000E+00 0.  1.
          5    1    4    4  501    0  0.18280211266E+03 -0.12610273592E+03 -0.80001381382E+02  0.23608516646E+03  0.41800000000E+01 0. -1.
         -5    1    4    4    0  501 -0.27599053923E+01 -0.29463680794E+02  0.24210341236E+02  0.38462170850E+02  0.41800000000E+01 0. -1.
</event>
<event>
11    1  0.8037748E-009  0.1637929E+03  0.7561462E-02  0.1083563E+00
         22   -1    0    0    0    0  0.00000000000E+00  0.00000000000E+00  0.79926142284E+03  0.79926142284E+03  0.00000000000E+00 0. -1.
         22   -1    0    0    0    0 -0.00000000000E+00 -0.00000000000E+00 -0.13248194417E+04  0.13248194417E+04  0.00000000000E+00 0.  1.
        -24    2    1    2    0    0  0.33672016449E+02 -0.48160647323E+02 -0.12679189598E+04  0.12717689487E+04  0.79526835687E+02 0.  0.
         25    2    1    2    0    0 -0.13486528184E+03  0.33615103999E+02  0.13352244696E+03  0.22977172806E+03  0.12509270047E+03 0.  0.
         24    2    1    2    0    0  0.10119326539E+03  0.14545543324E+02  0.60883849399E+03  0.62254018778E+03  0.80126923363E+02 0.  0.
        -13    1    5    5    0    0  0.14398766930E+00 -0.13383032902E+02  0.20091392226E+03  0.20135920753E+03  0.00000000000E+00 0.  1.
         14    1    5    5    0    0  0.10104927772E+03  0.27928576227E+02  0.40792457173E+03  0.42118098025E+03  0.00000000000E+00 0. -1.
         11    1    3    3    0    0  0.32278135901E+02  0.15053726814E+02 -0.47368026696E+03  0.47501735553E+03  0.00000000000E+00 0. -1.
        -12    1    3    3    0    0  0.13938805476E+01 -0.63214374137E+02 -0.79423869284E+03  0.79675159316E+03  0.00000000000E+00 0.  1.
          5    1    4    4  501    0  0.70192493713E+01 -0.22238637297E+02  0.51246448812E+02  0.56457929172E+02  0.41800000000E+01 0.  1.
         -5    1    4    4    0  501 -0.14188453121E+03  0.55853741296E+02  0.82275998145E+02  0.17331379889E+03  0.41800000000E+01 0.  1.
</event>
<event>
11    1  0.8037748E-009  0.1554946E+03  0.7561462E-02  0.1091393E+00
         22   -1    0    0    0    0  0.00000000000E+00  0.00000000000E+00  0.55083728409E+03  0.55083728409E+03  0.00000000000E+00 0. -1.
         22   -1    0    0    0    0 -0.00000000000E+00 -0.00000000000E+00 -0.12324117022E+04  0.12324117022E+04  0.00000000000E+00 0. -1.
        -24    2    1    2    0    0  0.29053885751E+02  0.93716113907E+02 -0.10727059442E+04  0.10802539652E+04  0.81386413943E+02 0.  0.
         25    2    1    2    0    0 -0.32748757500E+02 -0.38446221531E+02 -0.12177161703E+03  0.18173210396E+03  0.12509051853E+03 0.  0.
         24    2    1    2    0    0  0.36948717492E+01 -0.55269892376E+02  0.51290314314E+03  0.52126291708E+03  0.74679189895E+02 0.  0.
        -13    1    5    5    0    0 -0.32381075042E+02 -0.18581260432E+02  0.14277555520E+03  0.14757593443E+03  0.00000000000E+00 0.  1.
         14    1    5    5    0    0  0.36075946791E+02 -0.36688631945E+02  0.37012758794E+03  0.37368698266E+03  0.00000000000E+00 0. -1.
         13    1    3    3    0    0  0.44086828179E+02  0.77511532999E+02 -0.10067764269E+04  0.10107177944E+04  0.00000000000E+00 0. -1.
        -14    1    3    3    0    0 -0.15032942429E+02  0.16204580908E+02 -0.65929517295E+02  0.69536170812E+02  0.00000000000E+00 0.  1.
          5    1    4    4  501    0  0.34191119579E+02  0.10875762607E+02 -0.81717035370E+02  0.89344620095E+02  0.41800000000E+01 0. -1.
         -5    1    4    4    0  501 -0.66939877079E+02 -0.49321984138E+02 -0.40054581661E+02  0.92387483864E+02  0.41800000000E+01 0. -1.
</event>
<event>
11    1  0.8037748E-009  0.1572778E+03  0.7561462E-02  0.1089666E+00
         22   -1    0    0    0    0  0.00000000000E+00  0.00000000000E+00  0.50055589447E+03  0.50055589447E+03  0.00000000000E+00 0.  1.
         22   -1    0    0    0    0 -0.00000000000E+00 -0.00000000000E+00 -0.11214588414E+04  0.11214588414E+04  0.00000000000E+00 0.  1.
         24    2    1    2    0    0  0.93764259817E+02  0.14817654403E+02 -0.10770158559E+04  0.10842131408E+04  0.80893024661E+02 0.  0.
         25    2    1    2    0    0 -0.12748981066E+03 -0.57896459531E+02  0.32540865697E+03  0.37569122147E+03  0.12508975982E+03 0.  0.
        -24    2    1    2    0    0  0.33725550847E+02  0.43078805128E+02  0.13070425206E+03  0.16211037358E+03  0.78758970811E+02 0.  0.
        -11    1    3    3    0    0  0.73290777645E+02  0.32078445964E+02 -0.98857694328E+03  0.99180892190E+03  0.00000000000E+00 0.  1.
         12    1    3    3    0    0  0.20473482172E+02 -0.17260791561E+02 -0.88438912660E+02  0.92404218898E+02  0.00000000000E+00 0. -1.
         11    1    5    5    0    0  0.11716382857E+02  0.88496607930E+01 -0.85779230072E+01  0.17005025332E+02  0.00000000000E+00 0. -1.
        -12    1    5    5    0    0  0.22009167990E+02  0.34229144335E+02  0.13928217507E+03  0.14510534825E+03  0.00000000000E+00 0.  1.
          5    1    4    4  501    0 -0.20016637267E+02 -0.22300523195E+02 -0.90532454569E+00  0.30269970512E+02  0.41800000000E+01 0.  1.
         -5    1    4    4    0  501 -0.10747317340E+03 -0.35595936336E+02  0.32631398151E+03  0.34542125096E+03  0.41800000000E+01 0.  1.
</event>
<event>
11    1  0.8037748E-009  0.1772257E+03  0.7561462E-02  0.1071909E+00
         22   -1    0    0    0    0  0.00000000000E+00  0.00000000000E+00  0.22197436001E+04  0.22197436001E+04  0.00000000000E+00 0. -1.
         22   -1    0    0    0    0 -0.00000000000E+00 -0.00000000000E+00 -0.87504032759E+02  0.87504032759E+02  0.00000000000E+00 0. -1.
        -24    2    1    2    0    0  0.79633622850E+02  0.71135199253E+02  0.62721442092E+02  0.15435583107E+03  0.92141265593E+02 0.  0.
         25    2    1    2    0    0 -0.18202063323E+03 -0.64113516203E+02  0.29713349928E+03  0.37573525981E+03  0.12508643088E+03 0.  0.
         24    2    1    2    0    0  0.10238701038E+03 -0.70216830497E+01  0.17723846260E+04  0.17771565420E+04  0.80035669582E+02 0.  0.
        -13    1    5    5    0    0  0.10322801785E+03 -0.23423148692E+01  0.11187954301E+04  0.11235500543E+04  0.00000000000E+00 0.  1.
         14    1    5    5    0    0 -0.84100746175E+00 -0.46793681804E+01  0.65358919591E+03  0.65360648772E+03  0.00000000000E+00 0. -1.
         13    1    3    3    0    0  0.82212116560E+02  0.80043607289E+02  0.27578930149E+02  0.11801020534E+03  0.00000000000E+00 0. -1.
        -14    1    3    3    0    0 -0.25784937096E+01 -0.89084080357E+01  0.35142511943E+02  0.36345625723E+02  0.00000000000E+00 0.  1.
          5    1    4    4  501    0 -0.99821045695E+02 -0.98526667085E+02  0.19292880612E+03  0.23855972402E+03  0.41800000000E+01 0. -1.
         -5    1    4    4    0  501 -0.82199587539E+02  0.34413150882E+02  0.10420469316E+03  0.13717553580E+03  0.41800000000E+01 0. -1.
</event>
<event>
11    1  0.8037748E-009  0.1437947E+03  0.7561462E-02  0.1103393E+00
         22   -1    0    0    0    0  0.00000000000E+00  0.00000000000E+00  0.13831303019E+03  0.13831303019E+03  0.00000000000E+00 0. -1.
         22   -1    0    0    0    0 -0.00000000000E+00 -0.00000000000E+00 -0.12999392969E+04  0.12999392969E+04  0.00000000000E+00 0. -1.
        -24    2    1    2    0    0 -0.17982282558E+02 -0.54696280175E+01 -0.10270319401E+04  0.10302462350E+04  0.79116493287E+02 0.  0.
         25    2    1    2    0    0  0.85889383868E+02  0.18764285482E+02 -0.22253442449E+03  0.26999566786E+03  0.12508799267E+03 0.  0.
         24    2    1    2    0    0 -0.67907101310E+02 -0.13294657464E+02  0.87940097870E+02  0.13801042419E+03  0.80779292192E+02 0.  0.
        -13    1    5    5    0    0  0.29140662669E+01 -0.68482664977E+01 -0.12735951425E+02  0.14751101482E+02  0.00000000000E+00 0.  1.
         14    1    5    5    0    0 -0.70821167577E+02 -0.64463909668E+01  0.10067604930E+03  0.12325932271E+03  0.00000000000E+00 0. -1.
         11    1    3    3    0    0 -0.45071131464E+01 -0.38953287075E+02 -0.72600018765E+03  0.72705841932E+03  0.00000000000E+00 0. -1.
        -12    1    3    3    0    0 -0.13475169412E+02  0.33483659057E+02 -0.30103175241E+03  0.30318781567E+03  0.00000000000E+00 0.  1.
          5    1    4    4  501    0 -0.21612735183E+02  0.48389328544E+01 -0.12346411985E+00  0.22539148978E+02  0.41800000000E+01 0.  1.
         -5    1    4    4    0  501  0.10750211905E+03  0.13925352628E+02 -0.22241096037E+03  0.24745651889E+03  0.41800000000E+01 0.  1.
</event>
<event>
11    1  0.8037748E-009  0.1735003E+03  0.7561462E-02  0.1075025E+00
         22   -1    0    0    0    0  0.00000000000E+00  0.00000000000E+00  0.14374521958E+04  0.14374521958E+04  0.00000000000E+00 0.  1.
         22   -1    0    0    0    0 -0.00000000000E+00 -0.00000000000E+00 -0.73456298147E+02  0.73456298147E+02  0.00000000000E+00 0. -1.
        -24    2    1    2    0    0 -0.12079305720E+03 -0.16136968038E+02  0.25958344432E+02  0.14814494658E+03  0.80135667133E+02 0.  0.
         25    2    1    2    0    0  0.10621764229E+03  0.13118140491E+02  0.69146959760E+03  0.71079702683E+03  0.12509170952E+03 0.  0.
         24    2    1    2    0    0  0.14575414903E+02  0.30188275465E+01  0.64656795562E+03  0.65196652055E+03  0.82393365250E+02 0.  0.
        -13    1    5    5    0    0 -0.19629160936E+01 -0.11603990041E+01  0.62229430750E+03  0.62229848523E+03  0.00000000000E+00 0.  1.
         14    1    5    5    0    0  0.16538330997E+02  0.41792265506E+01  0.24273648120E+02  0.29668035320E+02  0.00000000000E+00 0. -1.
         13    1    3    3    0    0 -0.59906897104E+02 -0.40840691496E+02 -0.10084481789E+02  0.73201742981E+02  0.00000000000E+00 0. -1.
        -14    1    3    3    0    0 -0.60886160093E+02  0.24703723458E+02  0.36042826222E+02  0.74943203599E+02  0.00000000000E+00 0.  1.
          5    1    4    4  501    0  0.11324948533E+03 -0.32260810787E+02  0.46650441875E+03  0.48115491368E+03  0.41800000000E+01 0.  1.
         -5    1    4    4    0  501 -0.70318430399E+01  0.45378951278E+02  0.22496517885E+03  0.22964211315E+03  0.41800000000E+01 0.  1.
</event>
<event>
11    1  0.8037748E-009  0.1419635E+03  0.7561462E-02  0.1105385E+00
         22   -1    0    0    0    0  0.00000000000E+00  0.00000000000E+00  0.65446787994E+03  0.65446787994E+03  0.00000000000E+00 0.  1.
         22   -1    0    0    0    0 -0.00000000000E+00 -0.00000000000E+00 -0.11208261924E+04  0.11208261924E+04  0.00000000000E+00 0.  1.
         24    2    1    2    0    0 -0.88801733594E+01 -0.52341671160E+02 -0.10711718363E+04  0.10756168896E+04  0.82000501233E+02 0.  0.
         25    2    1    2    0    0  0.74862387180E+02  0.41525820901E+02  0.93196042981E+02  0.17793523565E+03  0.12508666932E+03 0.  0.
        -24    2    1    2    0    0 -0.65982213820E+02  0.10815850259E+02  0.51161748086E+03  0.52174194713E+03  0.77405280930E+02 0.  0.
        -11    1    3    3    0    0  0.28123640982E+02 -0.12514386666E+02 -0.67870097556E+03  0.67939867772E+03  0.00000000000E+00 0.  1.
         12    1    3    3    0    0 -0.37003814342E+02 -0.39827284494E+02 -0.39247086077E+03  0.39621821187E+03  0.00000000000E+00 0. -1.
         13    1    5    5    0    0  0.20501063831E+01 -0.84353009267E+01  0.46113651551E+01  0.98296452886E+01  0.00000000000E+00 0. -1.
        -14    1    5    5    0    0 -0.68032320204E+02  0.19251151186E+02  0.50700611570E+03  0.51191230184E+03  0.00000000000E+00 0.  1.
          5    1    4    4  501    0  0.46577987037E+02  0.73159481455E+02  0.10245727045E+03  0.13430109184E+03  0.41800000000E+01 0.  1.
         -5    1    4    4    0  501  0.28284400143E+02 -0.31633660553E+02 -0.92612274654E+01  0.43634143805E+02  0.41800000000E+01 0.  1.
</event>
<event>
11    1  0.8037748E-009  0.1641037E+03  0.7561462E-02  0.1083280E+00
         22   -1    0    0    0    0  0.00000000000E+00  0.00000000000E+00  0.10140722432E+04  0.10140722432E+04  0.00000000000E+00 0. -1.
         22   -1    0    0    0    0 -0.00000000000E+00 -0.00000000000E+00 -0.48502474210E+03  0.48502474210E+03  0.00000000000E+00 0. -1.
         24    2    1    2    0    0 -0.56372038975E+02 -0.95405266255E+02 -0.38146565248E+03  0.40403819127E+03  0.73829833925E+02 0.  0.
         25    2    1    2    0    0 -0.39192607993E+02  0.10383301409E+03 -0.85998474318E+01  0.16744954959E+03  0.12509212184E+03 0.  0.
        -24    2    1    2    0    0  0.95564646968E+02 -0.84277478298E+01  0.91911300096E+03  0.92760924440E+03  0.80539264211E+02 0.  0.
        -13    1    3    3    0    0 -0.13485687095E+02 -0.71602292114E+02 -0.14201129873E+03  0.15961190732E+03  0.00000000000E+00 0.  1.
         14    1    3    3    0    0 -0.42886351880E+02 -0.23802974141E+02 -0.23945435375E+03  0.24442628395E+03  0.00000000000E+00 0. -1.
         13    1    5    5    0    0  0.86069232089E+02 -0.38051243099E+02  0.70158817939E+03  0.70787130417E+03  0.00000000000E+00 0. -1.
        -14    1    5    5    0    0  0.94954148789E+01  0.29623495269E+02  0.21752482157E+03  0.21973794023E+03  0.00000000000E+00 0.  1.
          5    1    4    4  501    0  0.94915042653E+01 -0.25377532299E+02  0.73700688608E+01  0.28388344682E+02  0.41800000000E+01 0. -1.
         -5    1    4    4    0  501 -0.48684112258E+02  0.12921054638E+03 -0.15969916293E+02  0.13906120490E+03  0.41800000000E+01 0. -1.
</event>
<event>
11    1  0.8037748E-009  0.2088786E+03  0.7561462E-02  0.1048417E+00
         22   -1    0    0    0    0  0.00000000000E+00  0.00000000000E+00  0.37959031946E+03  0.37959031946E+03  0.00000000000E+00 0. -1.
         22   -1    0    0    0    0 -0.00000000000E+00 -0.00000000000E+00 -0.52849578020E+03  0.52849578020E+03  0.00000000000E+00 0. -1.
         24    2    1    2    0    0  0.37696596301E+02  0.44882685278E+02 -0.29658881192E+03  0.31212745016E+03  0.77608845983E+02 0.  0.
         25    2    1    2    0    0 -0.18148501435E+03  0.37816545583E+02 -0.13323397325E+03  0.26031873714E+03  0.12509057408E+03 0.  0.
        -24    2    1    2    0    0  0.14378841805E+03 -0.82699230861E+02  0.28091732443E+03  0.33563991236E+03  0.78900796282E+02 0.  0.
        -13    1    3    3    0    0 -0.56028502209E+01 -0.16161378937E+02 -0.10599102253E+03  0.10736237217E+03  0.00000000000E+00 0.  1.
         14    1    3    3    0    0  0.43299446522E+02  0.61044064215E+02 -0.19059778939E+03  0.20476507799E+03  0.00000000000E+00 0. -1.
         11    1    5    5    0    0  0.14947882812E+03 -0.69293090149E+02  0.23165666645E+03  0.28427146095E+03  0.00000000000E+00 0. -1.
        -12    1    5    5    0    0 -0.56904100748E+01 -0.13406140712E+02  0.49260657987E+02  0.51368451417E+02  0.00000000000E+00 0.  1.
          5    1    4    4  501    0 -0.50319741332E+02 -0.45667270336E+02 -0.42266859941E+02  0.80134485691E+02  0.41800000000E+01 0. -1.
         -5    1    4    4    0  501 -0.13116527301E+03  0.83483815919E+02 -0.90967113311E+02  0.18018425145E+03  0.41800000000E+01 0. -1.
</event>
<event>
11    1  0.8037748E-009  0.1376081E+03  0.7561462E-02  0.1110259E+00
         22   -1    0    0    0    0  0.00000000000E+00  0.00000000000E+00  0.69579076026E+03  0.69579076026E+03  0.00000000000E+00 0.  1.
         22   -1    0    0    0    0 -0.00000000000E+00 -0.00000000000E+00 -0.77718345945E+03  0.77718345945E+03  0.00000000000E+00 0.  1.
         24    2    1    2    0    0 -0.19730123405E+02  0.28113763618E+02 -0.66475114992E+03  0.67059145379E+03  0.81358128717E+02 0.  0.
         25    2    1    2    0    0  0.14749083486E+02  0.30033483648E+02 -0.66020896951E+02  0.14535471629E+03  0.12509871745E+03 0.  0.
        -24    2    1    2    0    0  0.49810399194E+01 -0.58147247266E+02  0.64937934768E+03  0.65702804963E+03  0.81156686001E+02 0.  0.
        -13    1    3    3    0    0 -0.39836275518E+01  0.31120588487E+02 -0.84786052618E+02  0.90404839665E+02  0.00000000000E+00 0.  1.
         14    1    3    3    0    0 -0.15746495854E+02 -0.30068248691E+01 -0.57996509730E+03  0.58018661413E+03  0.00000000000E+00 0. -1.
         13    1    5    5    0    0  0.53793445979E+01  0.86653634830E+01  0.10405486837E+02  0.14570519171E+02  0.00000000000E+00 0. -1.
        -14    1    5    5    0    0 -0.39830467849E+00 -0.66812610749E+02  0.63897386084E+03  0.64245753046E+03  0.00000000000E+00 0.  1.
          5    1    4    4  501    0 -0.28208387717E+02  0.64970740935E+02 -0.21372836310E+02  0.74102502300E+02  0.41800000000E+01 0.  1.
         -5    1    4    4    0  501  0.42957471203E+02 -0.34937257287E+02 -0.44648060642E+02  0.71252213986E+02  0.41800000000E+01 0.  1.
</event>
<event>
11    1  0.8037748E-009  0.1381532E+03  0.7561462E-02  0.1109638E+00
         22   -1    0    0    0    0  0.00000000000E+00  0.00000000000E+00  0.15547240654E+04  0.15547240654E+04  0.00000000000E+00 0. -1.
         22   -1    0    0    0    0 -0.00000000000E+00 -0.00000000000E+00 -0.77656403389E+03  0.77656403389E+03  0.00000000000E+00 0. -1.
        -24    2    1    2    0    0 -0.23187019187E+02  0.21582361320E+02 -0.67211908713E+03  0.67775557776E+03  0.81271887656E+02 0.  0.
         25    2    1    2    0    0 -0.34528373727E+02 -0.33485911749E+02 -0.55121426781E+02  0.14491187528E+03  0.12509022755E+03 0.  0.
         24    2    1    2    0    0  0.57715392914E+02  0.11903550429E+02  0.15054005454E+04  0.15086206462E+04  0.78947394367E+02 0.  0.
        -13    1    5    5    0    0  0.58684355047E+02  0.78363512433E+01  0.54421414937E+03  0.54742515680E+03  0.00000000000E+00 0.  1.
         14    1    5    5    0    0 -0.96896213307E+00  0.40671991858E+01  0.96118639600E+03  0.96119548941E+03  0.00000000000E+00 0. -1.
         11    1    3    3    0    0 -0.15748760851E+02  0.30304061062E+02 -0.66067789062E+03  0.66156000087E+03  0.00000000000E+00 0. -1.
        -12    1    3    3    0    0 -0.74382583359E+01 -0.87216997422E+01 -0.11441196501E+02  0.16195576891E+02  0.00000000000E+00 0.  1.
          5    1    4    4  501    0 -0.20897221989E+01 -0.25293659016E+02 -0.91655775379E+02  0.95196584422E+02  0.41800000000E+01 0.  1.
         -5    1    4    4    0  501 -0.32438651528E+02 -0.81922527334E+01  0.36534348598E+02  0.49715290860E+02  0.41800000000E+01 0.  1.
</event>
<event>
11    1  0.8037748E-009  0.1274268E+03  0.7561462E-02  0.1122472E+00
         22   -1    0    0    0    0  0.00000000000E+00  0.00000000000E+00  0.30798587216E+04  0.30798587216E+04  0.00000000000E+00 0. -1.
         22   -1    0    0    0    0 -0.00000000000E+00 -0.00000000000E+00 -0.12224440888E+03  0.12224440888E+03  0.00000000000E+00 0.  1.
         24    2    1    2    0    0 -0.17043377656E+02 -0.17604164915E+02 -0.10140284452E+03  0.13163825829E+03  0.80285184343E+02 0.  0.
         25    2    1    2    0    0  0.93737612198E+01  0.92851339501E+01  0.78814113516E+03  0.79811531810E+03  0.12509009132E+03 0.  0.
        -24    2    1    2    0    0  0.76696164358E+01  0.83190309645E+01  0.22708760221E+04  0.22723495541E+04  0.81034307712E+02 0.  0.
        -13    1    3    3    0    0  0.19775193209E+02 -0.20150079618E+02 -0.87926992555E+02  0.92348470452E+02  0.00000000000E+00 0.  1.
         14    1    3    3    0    0 -0.36818570865E+02  0.25459147031E+01 -0.13475851963E+02  0.39289787838E+02  0.00000000000E+00 0. -1.
         13    1    5    5    0    0 -0.11084444568E+02 -0.32773911607E+02  0.12431812527E+04  0.12436625834E+04  0.00000000000E+00 0. -1.
        -14    1    5    5    0    0  0.18754061004E+02  0.41092942572E+02  0.10276947694E+04  0.10286869707E+04  0.00000000000E+00 0.  1.
          5    1    4    4  501    0 -0.46950649794E+02  0.37922526288E+02  0.45553813754E+03  0.45953775543E+03  0.41800000000E+01 0.  1.
         -5    1    4    4    0  501  0.56324411014E+02 -0.28637392338E+02  0.33260299762E+03  0.33857756267E+03  0.41800000000E+01 0.  1.
</event>
<event>
11    1  0.8037748E-009  0.1280924E+03  0.7561462E-02  0.1121635E+00
         22   -1    0    0    0    0  0.00000000000E+00  0.00000000000E+00  0.90569461130E+03  0.90569461130E+03  0.00000000000E+00 0. -1.
         22   -1    0    0    0    0 -0.00000000000E+00 -0.00000000000E+00 -0.18441067145E+03  0.18441067145E+03  0.00000000000E+00 0. -1.
         24    2    1    2    0    0 -0.13415725567E+01  0.57845927468E+01 -0.14852351393E+03  0.16887752881E+03  0.80156872540E+02 0.  0.
         25    2    1    2    0    0 -0.22793852828E+02 -0.18636266942E+02  0.15454472735E+03  0.20100370584E+03  0.12510614230E+03 0.  0.
        -24    2    1    2    0    0  0.24135425385E+02  0.12851674195E+02  0.71526272643E+03  0.72022404810E+03  0.79838758446E+02 0.  0.
        -13    1    3    3    0    0  0.15087446759E+02  0.39820501213E+02 -0.78759231799E+02  0.89533903970E+02  0.00000000000E+00 0.  1.
         14    1    3    3    0    0 -0.16429019316E+02 -0.34035908467E+02 -0.69764282130E+02  0.79343624835E+02  0.00000000000E+00 0. -1.
         13    1    5    5    0    0  0.33481870046E+02  0.12899255989E+02  0.70650523576E+03  0.70741577207E+03  0.00000000000E+00 0. -1.
        -14    1    5    5    0    0 -0.93464446615E+01 -0.47581793413E-01  0.87574906753E+01  0.12808276026E+02  0.00000000000E+00 0.  1.
          5    1    4    4  501    0 -0.36801550046E+02  0.68179625794E+01  0.16545618287E+03  0.16968812436E+03  0.41800000000E+01 0.  1.
         -5    1    4    4    0  501  0.14007697218E+02 -0.25454229522E+02 -0.10911455526E+02  0.31315581482E+02  0.41800000000E+01 0.  1.
</event>
<event>
11    1  0.8037748E-009  0.1541199E+03  0.7561462E-02  0.1092742E+00
         22   -1    0    0    0    0  0.00000000000E+00  0.00000000000E+00  0.83621543605E+02  0.83621543605E+02  0.00000000000E+00 0.  1.
         22   -1    0    0    0    0 -0.00000000000E+00 -0.00000000000E+00 -0.47899820121E+03  0.47899820121E+03  0.00000000000E+00 0. -1.
         24    2    1    2    0    0  0.79066848978E+02 -0.41659389866E+02 -0.24252915099E+03  0.27066459775E+03  0.80323496109E+02 0.  0.
         25    2    1    2    0    0 -0.62080332423E+02  0.75224702989E+02 -0.10794385230E+03  0.19186849221E+03  0.12509564117E+03 0.  0.
        -24    2    1    2    0    0 -0.16986516555E+02 -0.33565313123E+02 -0.44903654313E+02  0.10008665485E+03  0.81153116509E+02 0.  0.
        -13    1    3    3    0    0  0.60645005295E+02 -0.52057972087E+02 -0.10732296722E+03  0.13381355843E+03  0.00000000000E+00 0.  1.
         14    1    3    3    0    0  0.18421843683E+02  0.10398582221E+02 -0.13520618376E+03  0.13685103933E+03  0.00000000000E+00 0. -1.
         11    1    5    5    0    0 -0.81977447677E+01  0.74876838163E+01 -0.55652576657E+02  0.56749253006E+02  0.00000000000E+00 0. -1.
        -12    1    5    5    0    0 -0.87887717876E+01 -0.41052996939E+02  0.10748922343E+02  0.43337401846E+02  0.00000000000E+00 0.  1.
          5    1    4    4  501    0 -0.23968519914E+02 -0.71958162716E+01  0.21798819115E+02  0.33450420528E+02  0.41800000000E+01 0.  1.
         -5    1    4    4    0  501 -0.38111812509E+02  0.82420519260E+02 -0.12974267142E+03  0.15841807168E+03  0.41800000000E+01 0.  1.
</event>
<event>
11    1  0.8037748E-009  0.1567429E+03  0.7561462E-02  0.1090181E+00
         22   -1    0    0    0    0  0.00000000000E+00  0.00000000000E+00  0.67677247834E+03  0.67677247834E+03  0.00000000000E+00 0. -1.
         22   -1    0    0    0    0 -0.00000000000E+00 -0.00000000000E+00 -0.13791424501E+03  0.13791424501E+03  0.00000000000E+00 0.  1.
        -24    2    1    2    0    0 -0.40065929672E+02 -0.71204777070E+02 -0.38485760610E+02  0.12086329621E+03  0.80320505500E+02 0.  0.
         25    2    1    2    0    0  0.83089364977E+02  0.12854370388E+03  0.13700601294E+03  0.24051165693E+03  0.12509149915E+03 0.  0.
         24    2    1    2    0    0 -0.43023435305E+02 -0.57338926810E+02  0.44033798101E+03  0.45331177020E+03  0.80344601390E+02 0.  0.
        -13    1    5    5    0    0  0.14901902312E+02 -0.36408235754E+02  0.25477520048E+03  0.25779454824E+03  0.00000000000E+00 0.  1.
         14    1    5    5    0    0 -0.57925337617E+02 -0.20930691056E+02  0.18556278053E+03  0.19551722196E+03  0.00000000000E+00 0. -1.
         13    1    3    3    0    0 -0.83428532031E+01 -0.74829833260E+02 -0.45769799275E+02  0.88113459080E+02  0.00000000000E+00 0. -1.
        -14    1    3    3    0    0 -0.31723076469E+02  0.36250561906E+01  0.72840386643E+01  0.32749837134E+02  0.00000000000E+00 0.  1.
          5    1    4    4  501    0 -0.10134542791E+02  0.56284643208E+02  0.10266508837E+03  0.11759363414E+03  0.41800000000E+01 0. -1.
         -5    1    4    4    0  501  0.93223907768E+02  0.72259060671E+02  0.34340924567E+02  0.12291802280E+03  0.41800000000E+01 0. -1.
</event>
<event>
11    1  0.8037748E-009  0.1331544E+03  0.7561462E-02  0.1115453E+00
         22   -1    0    0    0    0  0.00000000000E+00  0.00000000000E+00  0.63145861642E+03  0.63145861642E+03  0.00000000000E+00 0. -1.
         22   -1    0    0    0    0 -0.00000000000E+00 -0.00000000000E+00 -0.11260841323E+03  0.11260841323E+03  0.00000000000E+00 0.  1.
        -24    2    1    2    0    0 -0.79472781538E+01 -0.49794738509E+02 -0.62424140705E+02  0.11350430658E+03  0.80273152777E+02 0.  0.
         25    2    1    2    0    0 -0.10196147735E+02  0.87922305891E+01  0.18508337183E+03  0.22379733125E+03  0.12509247060E+03 0.  0.
         24    2    1    2    0    0  0.18143425889E+02  0.41002507920E+02  0.39619097206E+03  0.40676539182E+03  0.80500981857E+02 0.  0.
        -13    1    5    5    0    0 -0.25673236612E+02 -0.45361808769E+01  0.74610331075E+02  0.79034128819E+02  0.00000000000E+00 0.  1.
         14    1    5    5    0    0  0.43816662501E+02  0.45538688797E+02  0.32158064099E+03  0.32773126300E+03  0.00000000000E+00 0. -1.
         11    1    3    3    0    0 -0.82161051963E+01  0.17810032707E+02  0.25001997057E+01  0.19772522555E+02  0.00000000000E+00 0. -1.
        -12    1    3    3    0    0  0.26882704255E+00 -0.67604771217E+02 -0.64924340411E+02  0.93731784027E+02  0.00000000000E+00 0.  1.
          5    1    4    4  501    0 -0.45305713850E+02  0.93322375658E+00  0.12136402018E+02  0.47098229988E+02  0.41800000000E+01 0. -1.
         -5    1    4    4    0  501  0.35109566115E+02  0.78590068325E+01  0.17294696981E+03  0.17669910126E+03  0.41800000000E+01 0. -1.
</event>
<event>
11    1  0.8037748E-009  0.2754015E+03  0.7561462E-02  0.1011175E+00
         22   -1    0    0    0    0  0.00000000000E+00  0.00000000000E+00  0.25464828655E+03  0.25464828655E+03  0.00000000000E+00 0. -1.
         22   -1    0    0    0    0 -0.00000000000E+00 -0.00000000000E+00 -0.45180621185E+03  0.45180621185E+03  0.00000000000E+00 0. -1.
        -24    2    1    2    0    0  0.15008849937E+00  0.10290060249E+02 -0.35864298943E+02  0.88430520395E+02  0.80173568788E+02 0.  0.
         25    2    1    2    0    0  0.18657143143E+01  0.23777373363E+03 -0.22383684646E+03  0.34969966843E+03  0.12508834867E+03 0.  0.
         24    2    1    2    0    0 -0.20158028137E+01 -0.24806379388E+03  0.62543220111E+02  0.26832430958E+03  0.80910885738E+02 0.  0.
        -13    1    5    5    0    0 -0.28619678803E+02 -0.10395344119E+03  0.56325867390E+02  0.12164706033E+03  0.00000000000E+00 0.  1.
         14    1    5    5    0    0  0.26603875990E+02 -0.14411035269E+03  0.62173527207E+01  0.14667724924E+03  0.00000000000E+00 0. -1.
         11    1    3    3    0    0 -0.35100390819E+02  0.22953734048E+02 -0.10625073770E+02  0.43264344847E+02  0.00000000000E+00 0. -1.
        -12    1    3    3    0    0  0.35250479319E+02 -0.12663673799E+02 -0.25239225173E+02  0.45166175548E+02  0.00000000000E+00 0.  1.
          5    1    4    4  501    0 -0.34420072697E+02  0.22823317897E+03 -0.19517034288E+03  0.30229796646E+03  0.41800000000E+01 0. -1.
         -5    1    4    4    0  501  0.36285787011E+02  0.95405546672E+01 -0.28666503585E+02  0.47401701975E+02  0.41800000000E+01 0. -1.
</event>
<event>
11    1  0.8037748E-009  0.1546188E+03  0.7561462E-02  0.1092251E+00
         22   -1    0    0    0    0  0.00000000000E+00  0.00000000000E+00  0.27796129537E+03  0.27796129537E+03  0.00000000000E+00 0.  1.
         22   -1    0    0    0    0 -0.00000000000E+00 -0.00000000000E+00 -0.51229449554E+03  0.51229449554E+03  0.00000000000E+00 0. -1.
         24    2    1    2    0    0 -0.34246173371E+02 -0.80305372737E+02 -0.30743021829E+03  0.32716527467E+03  0.70014459600E+02 0.  0.
         25    2    1    2    0    0 -0.57951404918E+02  0.90198251940E+02 -0.14075044462E+03  0.21669067216E+03  0.12510023883E+03 0.  0.
        -24    2    1    2    0    0  0.92197578289E+02 -0.98928792028E+01  0.21384746274E+03  0.24639984408E+03  0.79899207388E+02 0.  0.
        -11    1    3    3    0    0 -0.22732134749E+02 -0.68592189566E+02 -0.12802949383E+03  0.14701425002E+03  0.00000000000E+00 0.  1.
         12    1    3    3    0    0 -0.11514038622E+02 -0.11713183172E+02 -0.17940072446E+03  0.18015102465E+03  0.00000000000E+00 0. -1.
         11    1    5    5    0    0  0.23738286904E+02 -0.32484165608E+02  0.34119859228E+02  0.52753123833E+02  0.00000000000E+00 0. -1.
        -12    1    5    5    0    0  0.68459291385E+02  0.22591286405E+02  0.17972760352E+03  0.19364672025E+03  0.00000000000E+00 0.  1.
          5    1    4    4  501    0 -0.94305783134E+02  0.81445401094E+02 -0.91196442049E+02  0.15447070122E+03  0.41800000000E+01 0.  1.
         -5    1    4    4    0  501  0.36354378215E+02  0.87528508460E+01 -0.49554002574E+02  0.62219970946E+02  0.41800000000E+01 0.  1.
</event>
<event>
11    1  0.8037748E-009  0.1403777E+03  0.7561462E-02  0.1107137E+00
         22   -1    0    0    0    0  0.00000000000E+00  0.00000000000E+00  0.10995508931E+03  0.10995508931E+03  0.00000000000E+00 0. -1.
         22   -1    0    0    0    0 -0.00000000000E+00 -0.00000000000E+00 -0.55453344643E+03  0.55453344643E+03  0.00000000000E+00 0. -1.
        -24    2    1    2    0    0  0.26129774929E+02 -0.38003766821E+02 -0.39867977821E+03  0.40894213111E+03  0.78492353863E+02 0.  0.
         25    2    1    2    0    0 -0.80052323822E+02  0.11183742009E+02 -0.52115526004E+02  0.15778320648E+03  0.12508421788E+03 0.  0.
         24    2    1    2    0    0  0.53922548893E+02  0.26820024812E+02  0.62169470959E+01  0.97763198141E+02  0.76759608320E+02 0.  0.
        -11    1    5    5    0    0 -0.13272455092E+01  0.31243593209E+02 -0.19296830003E+02  0.36746310637E+02  0.00000000000E+00 0.  1.
         12    1    5    5    0    0  0.55249794402E+02 -0.44235683970E+01  0.25513777098E+02  0.61016887504E+02  0.00000000000E+00 0. -1.
         11    1    3    3    0    0  0.50576005647E+02 -0.27526225609E+02 -0.18884934124E+03  0.19743277117E+03  0.00000000000E+00 0. -1.
        -12    1    3    3    0    0 -0.24446230718E+02 -0.10477541211E+02 -0.20983043696E+03  0.21150935994E+03  0.00000000000E+00 0.  1.
          5    1    4    4  501    0 -0.78943698155E+02 -0.44375481995E+02 -0.17952707121E+02  0.92417871506E+02  0.41800000000E+01 0. -1.
         -5    1    4    4    0  501 -0.11086256666E+01  0.55559224003E+02 -0.34162818883E+02  0.65365334977E+02  0.41800000000E+01 0. -1.
</event>
<event>
11    1  0.8037748E-009  0.1532869E+03  0.7561462E-02  0.1093567E+00
         22   -1    0    0    0    0  0.00000000000E+00  0.00000000000E+00  0.20108968767E+03  0.20108968767E+03  0.00000000000E+00 0. -1.
         22   -1    0    0    0    0 -0.00000000000E+00 -0.00000000000E+00 -0.18204972516E+04  0.18204972516E+04  0.00000000000E+00 0. -1.
        -24    2    1    2    0    0 -0.83282458841E+02  0.19273882841E+02 -0.14128678961E+04  0.14176937549E+04  0.79702197713E+02 0.  0.
         25    2    1    2    0    0  0.11167544880E+03 -0.12561182894E+02 -0.37684075999E+03  0.41265569728E+03  0.12508627790E+03 0.  0.
         24    2    1    2    0    0 -0.28392989962E+02 -0.67126999477E+01  0.17030109214E+03  0.19123748713E+03  0.81963969401E+02 0.  0.
        -13    1    5    5    0    0  0.29119636917E+02 -0.25063959132E+01  0.61858124691E+02  0.68415370093E+02  0.00000000000E+00 0.  1.
         14    1    5    5    0    0 -0.57512626880E+02 -0.42063040345E+01  0.10844296745E+03  0.12282211704E+03  0.00000000000E+00 0. -1.
         11    1    3    3    0    0 -0.82790557051E+02  0.58075918555E+01 -0.13749511924E+04  0.13774537328E+04  0.00000000000E+00 0. -1.
        -12    1    3    3    0    0 -0.49190179047E+00  0.13466290986E+02 -0.37916703687E+02  0.40240022102E+02  0.00000000000E+00 0.  1.
          5    1    4    4  501    0  0.34985914052E+02  0.55301665355E+02 -0.15372736907E+03  0.16712828837E+03  0.41800000000E+01 0.  1.
         -5    1    4    4    0  501  0.76689534751E+02 -0.67862848248E+02 -0.22311339093E+03  0.24552740890E+03  0.41800000000E+01 0.  1.
</event>
<event>
11    1  0.8037748E-009  0.1463583E+03  0.7561462E-02  0.1100659E+00
         22   -1    0    0    0    0  0.00000000000E+00  0.00000000000E+00  0.39579735392E+04  0.39579735392E+04  0.00000000000E+00 0.  1.
         22   -1    0    0    0    0 -0.00000000000E+00 -0.00000000000E+00 -0.69317190717E+03  0.69317190717E+03  0.00000000000E+00 0. -1.
        -24    2    1    2    0    0 -0.58159250041E+02  0.48506574484E+02 -0.55642391889E+03  0.56684978713E+03  0.77302765295E+02 0.  0.
         25    2    1    2    0    0  0.78567849395E+02 -0.26533405369E+02 -0.88145040595E+02  0.17405488848E+03  0.12509447416E+03 0.  0.
         24    2    1    2    0    0 -0.20408599354E+02 -0.21973169115E+02  0.39093705916E+04  0.39102407708E+04  0.76844859233E+02 0.  0.
        -11    1    5    5    0    0 -0.22173140890E+02 -0.34078159742E+02  0.37950097996E+04  0.37952275753E+04  0.00000000000E+00 0.  1.
         12    1    5    5    0    0  0.17645415358E+01  0.12104990626E+02  0.11436079195E+03  0.11501319551E+03  0.00000000000E+00 0. -1.
         13    1    3    3    0    0 -0.27409840603E+02  0.24252763455E+02 -0.47591988651E+03  0.47732508239E+03  0.00000000000E+00 0. -1.
        -14    1    3    3    0    0 -0.30749409438E+02  0.24253811029E+02 -0.80504032373E+02  0.89524704738E+02  0.00000000000E+00 0.  1.
          5    1    4    4  501    0 -0.15998638610E+02 -0.49906636843E+02 -0.31771523786E+02  0.61429072613E+02  0.41800000000E+01 0. -1.
         -5    1    4    4    0  501  0.94566488005E+02  0.23373231475E+02 -0.56373516809E+02  0.11262581587E+03  0.41800000000E+01 0. -1.
</event>
<event>
11    1  0.8037748E-009  0.2071672E+03  0.7561462E-02  0.1049568E+00
         22   -1    0    0    0    0  0.00000000000E+00  0.00000000000E+00  0.14891812929E+04  0.14891812929E+04  0.00000000000E+00 0.  1.
         22   -1    0    0    0    0 -0.00000000000E+00 -0.00000000000E+00 -0.55311400943E+03  0.55311400943E+03  0.00000000000E+00 0.  1.
         24    2    1    2    0    0  0.19318996589E+02 -0.48956593871E+02 -0.38688241619E+03  0.39909150654E+03  0.82619942641E+02 0.  0.
         25    2    1    2    0    0 -0.14970996070E+03 -0.53273266553E+02 -0.87824039768E+02  0.22047975555E+03  0.12508855817E+03 0.  0.
        -24    2    1    2    0    0  0.13039096411E+03  0.10222986042E+03  0.14107737394E+04  0.14227240402E+04  0.80052501153E+02 0.  0.
        -13    1    3    3    0    0 -0.48975131875E+01 -0.40658628767E+02 -0.35865429686E+03  0.36098478415E+03  0.00000000000E+00 0.  1.
         14    1    3    3    0    0  0.24216509777E+02 -0.82979651038E+01 -0.28228119329E+02  0.38106722392E+02  0.00000000000E+00 0. -1.
         11    1    5    5    0    0  0.44854204988E+01 -0.12265217560E+02  0.71697847691E+02  0.72877540590E+02  0.00000000000E+00 0. -1.
        -12    1    5    5    0    0  0.12590554361E+03  0.11449507798E+03  0.13390758917E+04  0.13498464996E+04  0.00000000000E+00 0.  1.
          5    1    4    4  501    0 -0.10029180771E+03  0.30290024738E+02 -0.50613797641E+02  0.11642663443E+03  0.41800000000E+01 0. -1.
         -5    1    4    4    0  501 -0.49418152985E+02 -0.83563291290E+02 -0.37210242128E+02  0.10405312112E+03  0.41800000000E+01 0. -1.
</event>
<event>
11    1  0.8037748E-009  0.1643997E+03  0.7561462E-02  0.1083011E+00
         22   -1    0    0    0    0  0.00000000000E+00  0.00000000000E+00  0.32853412783E+04  0.32853412783E+04  0.00000000000E+00 0. -1.
         22   -1    0    0    0    0 -0.00000000000E+00 -0.00000000000E+00 -0.58696214610E+03  0.58696214610E+03  0.00000000000E+00 0.  1.
         24    2    1    2    0    0  0.80544233364E+02 -0.57972923524E+01 -0.53961599599E+03  0.55174408892E+03  0.81945923690E+02 0.  0.
         25    2    1    2    0    0 -0.14909783940E+03  0.84799987291E+02  0.24331353085E+03  0.32290949901E+03  0.12509143337E+03 0.  0.
        -24    2    1    2    0    0  0.68553606037E+02 -0.79002694939E+02  0.29946815973E+04  0.29976498364E+04  0.82738442597E+02 0.  0.
        -11    1    3    3    0    0  0.93542264086E+02 -0.49980266751E+01 -0.51880650079E+03  0.52719571385E+03  0.00000000000E+00 0.  1.
         12    1    3    3    0    0 -0.12998030723E+02 -0.79926567735E+00 -0.20809495196E+02  0.24548375071E+02  0.00000000000E+00 0. -1.
         13    1    5    5    0    0  0.12718618245E+02 -0.74616828602E+02  0.19492261095E+04  0.19506952249E+04  0.00000000000E+00 0. -1.
        -14    1    5    5    0    0  0.55834987792E+02 -0.43858663361E+01  0.10454554878E+04  0.10469546115E+04  0.00000000000E+00 0.  1.
          5    1    4    4  501    0 -0.15675879730E+03  0.46146496165E+02  0.22774232762E+03  0.28033347968E+03  0.41800000000E+01 0.  1.
         -5    1    4    4    0  501  0.76609579033E+01  0.38653491126E+02  0.15571203225E+02  0.42576019331E+02  0.41800000000E+01 0.  1.
</event>
<event>
11    1  0.8037748E-009  0.1879448E+03  0.7561462E-02  0.1063392E+00
         22   -1    0    0    0    0  0.00000000000E+00  0.00000000000E+00  0.25115126120E+03  0.25115126120E+03  0.00000000000E+00 0.  1.
         22   -1    0    0    0    0 -0.00000000000E+00 -0.00000000000E+00 -0.16407122920E+04  0.16407122920E+04  0.00000000000E+00 0.  1.
        -24    2    1    2    0    0  0.13799815696E+03  0.48114344923E+02 -0.14385212203E+04  0.14480916644E+04  0.79168717800E+02 0.  0.
         25    2    1    2    0    0 -0.84354560772E+02 -0.54556417883E+02 -0.15160534087E+03  0.22073279600E+03  0.12508674269E+03 0.  0.
         24    2    1    2    0    0 -0.53643596193E+02  0.64420729602E+01  0.20056553036E+03  0.22303909276E+03  0.81245118094E+02 0.  0.
        -13    1    5    5    0    0 -0.70173824909E+02  0.15774990050E+02  0.18500193722E+03  0.19849164413E+03  0.00000000000E+00 0.  1.
         14    1    5    5    0    0  0.16530228717E+02 -0.93329170900E+01  0.15563593135E+02  0.24547448628E+02  0.00000000000E+00 0. -1.
         11    1    3    3    0    0  0.54745352196E+02  0.60766771556E+02 -0.74537602720E+03  0.74985003570E+03  0.00000000000E+00 0. -1.
        -12    1    3    3    0    0  0.83252804769E+02 -0.12652426634E+02 -0.69314519309E+03  0.69824162874E+03  0.00000000000E+00 0.  1.
          5    1    4    4  501    0  0.14772610994E+02 -0.54785470922E+02 -0.80888593081E+02  0.98894462688E+02  0.41800000000E+01 0. -1.
         -5    1    4    4    0  501 -0.99127171766E+02  0.22905303868E+00 -0.70716747784E+02  0.12183833331E+03  0.41800000000E+01 0. -1.
</event>
<event>
11    1  0.1261552E-008  0.1761493E+03  0.7561462E-02  0.1072801E+00
         22   -1    0    0    0    0  0.00000000000E+00  0.00000000000E+00  0.32647004694E+03  0.32647004694E+03  0.00000000000E+00 0. -1.
         22   -1    0    0    0    0 -0.00000000000E+00 -0.00000000000E+00 -0.12375558385E+04  0.12375558385E+04  0.00000000000E+00 0.  1.
         24    2    1    2    0    0 -0.49180462824E+02  0.73418728150E+02 -0.70851281807E+03  0.71872279100E+03  0.82237518049E+02 0.  0.
         25    2    1    2    0    0  0.69567884514E+02 -0.19292347625E+03 -0.47733615107E+03  0.53437473927E+03  0.12508957834E+03 0.  0.
        -24    2    1    2    0    0 -0.20387421690E+02  0.11950474810E+03  0.27476317762E+03  0.31092835513E+03  0.80527054277E+02 0.  0.
        -11    1    3    3    0    0 -0.27213277998E+02  0.89362505426E+02 -0.53316631465E+03  0.54128785221E+03  0.00000000000E+00 0.  1.
         12    1    3    3    0    0 -0.21967184826E+02 -0.15943777275E+02 -0.17534650342E+03  0.17743493879E+03  0.00000000000E+00 0. -1.
         13    1    5    5    0    0 -0.25419618010E+01  0.55229411286E+02  0.21286364052E+03  0.21992653068E+03  0.00000000000E+00 0. -1.
        -14    1    5    5    0    0 -0.17845459889E+02  0.64275336817E+02  0.61899537095E+02  0.91001824455E+02  0.00000000000E+00 0.  1.
          5    1    4    4  501    0  0.62314412195E+02 -0.11311225037E+03 -0.15300711853E+03  0.20026511895E+03  0.41800000000E+01 0. -1.
         -5    1    4    4    0  501  0.72534723193E+01 -0.79811225887E+02 -0.32432903254E+03  0.33410962032E+03  0.41800000000E+01 0. -1.
</event>
<event>
11    1  0.8037748E-009  0.1401220E+03  0.7561462E-02  0.1107422E+00
         22   -1    0    0    0    0  0.00000000000E+00  0.00000000000E+00  0.67660901299E+03  0.67660901299E+03  0.00000000000E+00 0. -1.
         22   -1    0    0    0    0 -0.00000000000E+00 -0.00000000000E+00 -0.53880693684E+03  0.53880693684E+03  0.00000000000E+00 0. -1.
         24    2    1    2    0    0 -0.81365747067E+01 -0.60438266645E+02 -0.29076107571E+03  0.30781364016E+03  0.80549649278E+02 0.  0.
         25    2    1    2    0    0  0.60721172583E+02  0.24566155196E+02 -0.21370676972E+03  0.25614209558E+03  0.12509049894E+03 0.  0.
        -24    2    1    2    0    0 -0.52584597876E+02  0.35872111449E+02  0.64226992158E+03  0.65146021410E+03  0.88531407260E+02 0.  0.
        -11    1    3    3    0    0  0.24318935380E+02 -0.43730263340E+02 -0.24076429289E+03  0.24590890851E+03  0.00000000000E+00 0.  1.
         12    1    3    3    0    0 -0.32455510087E+02 -0.16708003305E+02 -0.49996782813E+02  0.61904731654E+02  0.00000000000E+00 0. -1.
         11    1    5    5    0    0 -0.40715107217E+02 -0.23623041572E+02  0.33134028996E+03  0.33466723144E+03  0.00000000000E+00 0. -1.
        -12    1    5    5    0    0 -0.11869490660E+02  0.59495153021E+02  0.31092963161E+03  0.31679298265E+03  0.00000000000E+00 0.  1.
          5    1    4    4  501    0 -0.36930964649E+00 -0.11166429151E+02  0.13567952355E+02  0.18066191095E+02  0.41800000000E+01 0. -1.
         -5    1    4    4    0  501  0.61090482229E+02  0.35732584347E+02 -0.22727472207E+03  0.23807590449E+03  0.41800000000E+01 0. -1.
</event>
<event>
11    1  0.8317071E-009  0.1743777E+03  0.7561462E-02  0.1074284E+00
         22   -1    0    0    0    0  0.00000000000E+00  0.00000000000E+00  0.10621508931E+04  0.10621508931E+04  0.00000000000E+00 0.  1.
         22   -1    0    0    0    0 -0.00000000000E+00 -0.00000000000E+00 -0.23483438352E+04  0.23483438352E+04  0.00000000000E+00 0. -1.
         24    2    1    2    0    0 -0.36082579410E+01  0.45882300497E+02 -0.19627752786E+04  0.19649534901E+04  0.80232280017E+02 0.  0.
         25    2    1    2    0    0 -0.11616703084E+03 -0.65901907634E+02 -0.35731026348E+03  0.40144220584E+03  0.12508948698E+03 0.  0.
        -24    2    1    2    0    0  0.11977528879E+03  0.20019607137E+02  0.10338926000E+04  0.10440990324E+04  0.80386420715E+02 0.  0.
        -13    1    3    3    0    0  0.25385126997E+02  0.55014738111E+02 -0.14635516053E+04  0.14648052182E+04  0.00000000000E+00 0.  1.
         14    1    3    3    0    0 -0.28993384938E+02 -0.91324376146E+01 -0.49922367335E+03  0.50014827183E+03  0.00000000000E+00 0. -1.
         13    1    5    5    0    0  0.35182089399E+02  0.16091291080E+02  0.11543073380E+03  0.12174137904E+03  0.00000000000E+00 0. -1.
        -14    1    5    5    0    0  0.84593199387E+02  0.39283160571E+01  0.91846186621E+03  0.92235765337E+03  0.00000000000E+00 0.  1.
          5    1    4    4  501    0 -0.92985343011E+02 -0.12604043255E+02 -0.31690771811E+03  0.33053458234E+03  0.41800000000E+01 0. -1.
         -5    1    4    4    0  501 -0.23181687833E+02 -0.53297864379E+02 -0.40402545369E+02  0.70907623500E+02  0.41800000000E+01 0. -1.
</event>
<event>
11    1  0.8037748E-009  0.1627121E+03  0.7561462E-02  0.1084554E+00
         22   -1    0    0    0    0  0.00000000000E+00  0.00000000000E+00  0.93750326434E+03  0.93750326434E+03  0.00000000000E+00 0. -1.
         22   -1    0    0    0    0 -0.00000000000E+00 -0.00000000000E+00 -0.32490492070E+03  0.32490492070E+03  0.00000000000E+00 0. -1.
         24    2    1    2    0    0  0.71452828960E+02  0.83026300665E+02 -0.24516695306E+03  0.28027958730E+03  0.80317736607E+02 0.  0.
         25    2    1    2    0    0 -0.57456632538E+02 -0.50720720580E+02  0.29878090944E+02  0.14971353731E+03  0.12509031464E+03 0.  0.
        -24    2    1    2    0    0 -0.13996196422E+02 -0.32305580085E+02  0.82788720576E+03  0.83241506042E+03  0.79234230837E+02 0.  0.
        -13    1    3    3    0    0  0.73547479800E+01 -0.14478819423E+02 -0.53271022448E+02  0.55691384992E+02  0.00000000000E+00 0.  1.
         14    1    3    3    0    0  0.64098080980E+02  0.97505120088E+02 -0.19189593061E+03  0.22458820231E+03  0.00000000000E+00 0. -1.
         13    1    5    5    0    0  0.22472141340E+02 -0.34630124912E+02  0.61745874197E+03  0.61883724898E+03  0.00000000000E+00 0. -1.
        -14    1    5    5    0    0 -0.36468337763E+02  0.23245448271E+01  0.21042846379E+03  0.21357781145E+03  0.00000000000E+00 0.  1.
          5    1    4    4  501    0 -0.39784623571E+02  0.38188205907E+02  0.45027215537E+01  0.55487856729E+02  0.41800000000E+01 0. -1.
         -5    1    4    4    0  501 -0.17672008967E+02 -0.88908926487E+02  0.25375369390E+02  0.94225680585E+02  0.41800000000E+01 0. -1.
</event>
<event>
11    1  0.8037748E-009  0.1300153E+03  0.7561462E-02  0.1119250E+00
         22   -1    0    0    0    0  0.00000000000E+00  0.00000000000E+00  0.99746099835E+03  0.99746099835E+03  0.00000000000E+00 0. -1.
         22   -1    0    0    0    0 -0.00000000000E+00 -0.00000000000E+00 -0.12067942383E+04  0.12067942383E+04  0.00000000000E+00 0. -1.
         24    2    1    2    0    0 -0.82788527611E+01 -0.34838252092E+02 -0.11684926641E+04  0.11733443796E+04  0.10039762794E+03 0.  0.
         25    2    1    2    0    0 -0.21018113143E+02  0.22480650518E+02  0.89648949310E+02  0.15694393012E+03  0.12508925758E+03 0.  0.
        -24    2    1    2    0    0  0.29296965904E+02  0.12357601574E+02  0.86951047488E+03  0.87396692696E+03  0.82211319068E+02 0.  0.
        -13    1    3    3    0    0 -0.29005543460E+02  0.26058765172E+02 -0.30951902240E+03  0.31196539234E+03  0.00000000000E+00 0.  1.
         14    1    3    3    0    0  0.20726690699E+02 -0.60897017264E+02 -0.85897364175E+03  0.86137898723E+03  0.00000000000E+00 0. -1.
         13    1    5    5    0    0  0.55190138886E+02  0.15090226846E+02  0.71428697452E+03  0.71657487282E+03  0.00000000000E+00 0. -1.
        -14    1    5    5    0    0 -0.25893172982E+02 -0.27326252723E+01  0.15522350035E+03  0.15739205415E+03  0.00000000000E+00 0.  1.
          5    1    4    4  501    0 -0.18504331574E+02  0.73854102577E+02  0.62738761777E+02  0.98744434697E+02  0.41800000000E+01 0.  1.
         -5    1    4    4    0  501 -0.25137815691E+01 -0.51373452059E+02  0.26910187533E+02  0.58199495421E+02  0.41800000000E+01 0.  1.
</event>
<event>
11    1  0.8037748E-009  0.1850883E+03  0.7561462E-02  0.1065600E+00
         22   -1    0    0    0    0  0.00000000000E+00  0.00000000000E+00  0.92261131818E+03  0.92261131818E+03  0.00000000000E+00 0. -1.
         22   -1    0    0    0    0 -0.00000000000E+00 -0.00000000000E+00 -0.21233102182E+03  0.21233102182E+03  0.00000000000E+00 0. -1.
        -24    2    1    2    0    0 -0.38761502672E+02 -0.12721216165E+02 -0.15510575310E+03  0.17938236018E+03  0.80348945647E+02 0.  0.
         25    2    1    2    0    0 -0.87500153340E+02  0.78483718269E+02  0.17221993087E+03  0.24315130604E+03  0.12508749808E+03 0.  0.
         24    2    1    2    0    0  0.12626165601E+03 -0.65762502104E+02  0.69316611859E+03  0.71240867379E+03  0.82341593708E+02 0.  0.
        -11    1    5    5    0    0  0.70358206204E+02  0.91882900428E+01  0.30002156054E+03  0.30829797055E+03  0.00000000000E+00 0.  1.
         12    1    5    5    0    0  0.55903449808E+02 -0.74950792147E+02  0.39314455805E+03  0.40411070324E+03  0.00000000000E+00 0. -1.
         13    1    3    3    0    0 -0.50252216011E+02  0.20732400687E+02 -0.10186276291E+03  0.11546055655E+03  0.00000000000E+00 0. -1.
        -14    1    3    3    0    0  0.11490713339E+02 -0.33453616853E+02 -0.53242990196E+02  0.63921803624E+02  0.00000000000E+00 0.  1.
          5    1    4    4  501    0  0.24637859885E+02  0.49539289991E+02  0.49436510673E+02  0.74314240762E+02  0.41800000000E+01 0. -1.
         -5    1    4    4    0  501 -0.11213801322E+03  0.28944428278E+02  0.12278342019E+03  0.16883706528E+03  0.41800000000E+01 0. -1.
</event>
<event>
11    1  0.8037748E-009  0.1310440E+03  0.7561462E-02  0.1117993E+00
         22   -1    0    0    0    0  0.00000000000E+00  0.00000000000E+00  0.12626407024E+04  0.12626407024E+04  0.00000000000E+00 0. -1.
         22   -1    0    0    0    0 -0.00000000000E+00 -0.00000000000E+00 -0.66041858008E+02  0.66041858008E+02  0.00000000000E+00 0.  1.
         24    2    1    2    0    0 -0.35929891787E+02 -0.25967516898E+02 -0.41738167349E+00  0.93392203394E+02  0.82198907472E+02 0.  0.
         25    2    1    2    0    0  0.95152625443E+01  0.78324295794E+01  0.21172459582E+03  0.24624474276E+03  0.12512906013E+03 0.  0.
        -24    2    1    2    0    0  0.26414629243E+02  0.18135087319E+02  0.98529163023E+03  0.98904561424E+03  0.79906297688E+02 0.  0.
        -13    1    3    3    0    0 -0.13145933914E+02 -0.27943271378E+02 -0.38265012722E+02  0.49171670628E+02  0.00000000000E+00 0.  1.
         14    1    3    3    0    0 -0.22783957873E+02  0.19757544795E+01  0.37847631048E+02  0.44220532766E+02  0.00000000000E+00 0. -1.
         13    1    5    5    0    0 -0.24203116760E+01 -0.64591461888E+01  0.79430769288E+03  0.79433764197E+03  0.00000000000E+00 0. -1.
        -14    1    5    5    0    0  0.28834940919E+02  0.24594233508E+02  0.19098393735E+03  0.19470797227E+03  0.00000000000E+00 0.  1.
          5    1    4    4  501    0 -0.14271253839E+02 -0.43319620509E+02  0.16971014752E+03  0.17578186703E+03  0.41800000000E+01 0.  1.
         -5    1    4    4    0  501  0.23786516383E+02  0.51152050089E+02  0.42014448306E+02  0.70462875731E+02  0.41800000000E+01 0.  1.
</event>
<event>
11    1  0.8037748E-009  0.1524535E+03  0.7561462E-02  0.1094398E+00
         22   -1    0    0    0    0  0.00000000000E+00  0.00000000000E+00  0.20111557877E+03  0.20111557877E+03  0.00000000000E+00 0.  1.
         22   -1    0    0    0    0 -0.00000000000E+00 -0.00000000000E+00 -0.49063377995E+03  0.49063377995E+03  0.00000000000E+00 0.  1.
         24    2    1    2    0    0 -0.20352971143E+02 -0.15181693318E+02 -0.29427622629E+03  0.30687882764E+03  0.83254971327E+02 0.  0.
         25    2    1    2    0    0 -0.68471014846E+02  0.24627397880E+02 -0.13639639225E+03  0.19886113943E+03  0.12508792250E+03 0.  0.
        -24    2    1    2    0    0  0.88823985989E+02 -0.94457045619E+01  0.14115441736E+03  0.18600939164E+03  0.81829104962E+02 0.  0.
        -11    1    3    3    0    0 -0.37754910606E+02 -0.88304763433E+00 -0.27394802201E+03  0.27653884322E+03  0.00000000000E+00 0.  1.
         12    1    3    3    0    0  0.17401939463E+02 -0.14298645684E+02 -0.20328204281E+02  0.30339984423E+02  0.00000000000E+00 0. -1.
         11    1    5    5    0    0  0.76404406792E+01 -0.27062469497E+02  0.82985800555E+01  0.29319277276E+02  0.00000000000E+00 0. -1.
        -12    1    5    5    0    0  0.81183545310E+02  0.17616764935E+02  0.13285583730E+03  0.15669011437E+03  0.00000000000E+00 0.  1.
          5    1    4    4  501    0  0.19460853286E+02  0.49402539236E+02 -0.50189972994E+02  0.73183614851E+02  0.41800000000E+01 0. -1.
         -5    1    4    4    0  501 -0.87931868131E+02 -0.24775141356E+02 -0.86206419259E+02  0.12567752458E+03  0.41800000000E+01 0. -1.
</event>
<event>
11    1  0.8037748E-009  0.1550790E+03  0.7561462E-02  0.1091799E+00
         22   -1    0    0    0    0  0.00000000000E+00  0.00000000000E+00  0.23505065929E+03  0.23505065929E+03  0.00000000000E+00 0.  1.
         22   -1    0    0    0    0 -0.00000000000E+00 -0.00000000000E+00 -0.13119518427E+04  0.13119518427E+04  0.00000000000E+00 0.  1.
         24    2    1    2    0    0  0.29845194931E+02  0.89836661547E+02 -0.11095823473E+04  0.11163769442E+04  0.78505634122E+02 0.  0.
         25    2    1    2    0    0 -0.71403282538E+02 -0.42921378740E+02 -0.15563271664E+03  0.21635443986E+03  0.12508807956E+03 0.  0.
        -24    2    1    2    0    0  0.41558087607E+02 -0.46915282807E+02  0.18831388051E+03  0.21427111799E+03  0.80758132759E+02 0.  0.
        -13    1    3    3    0    0  0.46593671686E+02  0.44692602764E+02 -0.84393359973E+03  0.84639962177E+03  0.00000000000E+00 0.  1.
         14    1    3    3    0    0 -0.16748476755E+02  0.45144058784E+02 -0.26564874759E+03  0.26997732241E+03  0.00000000000E+00 0. -1.
         11    1    5    5    0    0 -0.58604027417E+01  0.18071823788E+02  0.19267721198E+02  0.27058828790E+02  0.00000000000E+00 0. -1.
        -12    1    5    5    0    0  0.47418490348E+02 -0.64987106595E+02  0.16904615931E+03  0.18721228920E+03  0.00000000000E+00 0.  1.
          5    1    4    4  501    0 -0.24896399558E+02 -0.73008506492E+02 -0.37622552134E+02  0.85924394442E+02  0.41800000000E+01 0.  1.
         -5    1    4    4    0  501 -0.46506882979E+02  0.30087127752E+02 -0.11801016451E+03  0.13043004542E+03  0.41800000000E+01 0.  1.
</event>
<event>
11    1  0.8037748E-009  0.1313659E+03  0.7561462E-02  0.1117602E+00
         22   -1    0    0    0    0  0.00000000000E+00  0.00000000000E+00  0.25953773418E+03  0.25953773418E+03  0.00000000000E+00 0. -1.
         22   -1    0    0    0    0 -0.00000000000E+00 -0.00000000000E+00 -0.16787779006E+04  0.16787779006E+04  0.00000000000E+00 0. -1.
         24    2    1    2    0    0  0.71298082268E+01 -0.27635795804E+02 -0.66963033060E+03  0.67498043412E+03  0.79870115920E+02 0.  0.
         25    2    1    2    0    0  0.13998930610E+02 -0.67321828017E+01 -0.99427153330E+03  0.10022297722E+04  0.12508933610E+03 0.  0.
        -24    2    1    2    0    0 -0.21128738836E+02  0.34367978606E+02  0.24466169750E+03  0.26110542844E+03  0.81787022058E+02 0.  0.
        -11    1    3    3    0    0  0.31483918516E+02 -0.22007633005E+02 -0.15309262332E+03  0.15783828544E+03  0.00000000000E+00 0.  1.
         12    1    3    3    0    0 -0.24354110289E+02 -0.56281627994E+01 -0.51653770728E+03  0.51714214869E+03  0.00000000000E+00 0. -1.
         13    1    5    5    0    0 -0.29689915608E+01  0.40391887194E+02  0.45050667686E+02  0.60579552004E+02  0.00000000000E+00 0. -1.
        -14    1    5    5    0    0 -0.18159747276E+02 -0.60239085884E+01  0.19961102981E+03  0.20052587643E+03  0.00000000000E+00 0.  1.
          5    1    4    4  501    0 -0.55698758337E+02 -0.24254164269E+01 -0.41473572176E+03  0.41848706746E+03  0.41800000000E+01 0. -1.
         -5    1    4    4    0  501  0.69697688947E+02 -0.43067663748E+01 -0.57953581154E+03  0.58374270474E+03  0.41800000000E+01 0. -1.
</event>
<event>
11    1  0.8037748E-009  0.1447459E+03  0.7561462E-02  0.1102372E+00
         22   -1    0    0    0    0  0.00000000000E+00  0.00000000000E+00  0.38296869328E+03  0.38296869328E+03  0.00000000000E+00 0.  1.
         22   -1    0    0    0    0 -0.00000000000E+00 -0.00000000000E+00 -0.97107046807E+03  0.97107046807E+03  0.00000000000E+00 0. -1.
         24    2    1    2    0    0 -0.55402413351E+02  0.66953501089E+02 -0.85642443864E+03  0.86455592396E+03  0.80261621232E+02 0.  0.
         25    2    1    2    0    0  0.10175541232E+03 -0.91204500855E+01 -0.33247825313E+02  0.16489544597E+03  0.12509094159E+03 0.  0.
        -24    2    1    2    0    0 -0.46352998969E+02 -0.57833051003E+02  0.30157048916E+03  0.32458779143E+03  0.94441580412E+02 0.  0.
        -11    1    3    3    0    0 -0.54872821783E+02  0.52320930547E+02 -0.35913753756E+03  0.36705350731E+03  0.00000000000E+00 0.  1.
         12    1    3    3    0    0 -0.52959156736E+00  0.14632570542E+02 -0.49728690108E+03  0.49750241665E+03  0.00000000000E+00 0. -1.
         13    1    5    5    0    0  0.15766996931E+02 -0.54336154150E+01  0.54914809877E+01  0.17557868098E+02  0.00000000000E+00 0. -1.
        -14    1    5    5    0    0 -0.62119995900E+02 -0.52399435588E+02  0.29607900817E+03  0.30702992333E+03  0.00000000000E+00 0.  1.
          5    1    4    4  501    0  0.20231163537E+01  0.40009166322E+02 -0.35394280354E+02  0.53619528825E+02  0.41800000000E+01 0.  1.
         -5    1    4    4    0  501  0.99732295966E+02 -0.49129616408E+02  0.21464550410E+01  0.11127591714E+03  0.41800000000E+01 0.  1.
</event>
<event>
11    1  0.8037748E-009  0.1591023E+03  0.7561462E-02  0.1087925E+00
         22   -1    0    0    0    0  0.00000000000E+00  0.00000000000E+00  0.14834961217E+03  0.14834961217E+03  0.00000000000E+00 0. -1.
         22   -1    0    0    0    0 -0.00000000000E+00 -0.00000000000E+00 -0.10054108477E+04  0.10054108477E+04  0.00000000000E+00 0. -1.
        -24    2    1    2    0    0 -0.46320566423E+02  0.93833393298E+01 -0.81393493296E+03  0.81911426544E+03  0.78895264801E+02 0.  0.
         25    2    1    2    0    0 -0.56674790886E+02  0.23958850120E+02 -0.11623381286E+03  0.18150464916E+03  0.12509028737E+03 0.  0.
         24    2    1    2    0    0  0.10299535731E+03 -0.33342189450E+02  0.73107510270E+02  0.15314154529E+03  0.79924211667E+02 0.  0.
        -11    1    5    5    0    0  0.20515138255E+01  0.15853897172E+02  0.27766244998E+02  0.32039337163E+02  0.00000000000E+00 0.  1.
         12    1    5    5    0    0  0.10094384348E+03 -0.49196086622E+02  0.45341265272E+02  0.12110220812E+03  0.00000000000E+00 0. -1.
         13    1    3    3    0    0 -0.38608466248E+02  0.36041281158E+02 -0.69416252094E+03  0.69616894005E+03  0.00000000000E+00 0. -1.
        -14    1    3    3    0    0 -0.77121001752E+01 -0.26657941828E+02 -0.11977241203E+03  0.12294532539E+03  0.00000000000E+00 0.  1.
          5    1    4    4  501    0 -0.66323751825E+02 -0.16514564329E+02 -0.12431607430E+02  0.69595891793E+02  0.41800000000E+01 0. -1.
         -5    1    4    4    0  501  0.96489609397E+01  0.40473414449E+02 -0.10380220543E+03  0.11190875737E+03  0.41800000000E+01 0. -1.
</event>
<event>
11    1  0.8037748E-009  0.3244768E+03  0.7561462E-02  0.9903332E-01
         22   -1    0    0    0    0  0.00000000000E+00  0.00000000000E+00  0.25827577713E+03  0.25827577713E+03  0.00000000000E+00 0. -1.
         22   -1    0    0    0    0 -0.00000000000E+00 -0.00000000000E+00 -0.17134058456E+04  0.17134058456E+04  0.00000000000E+00 0. -1.
        -24    2    1    2    0    0 -0.23952154612E+03  0.17226872076E+03 -0.14151614528E+04  0.14480507115E+04  0.84391009801E+02 0.  0.
         25    2    1    2    0    0  0.22800812196E+03 -0.27088940431E+03 -0.37894308090E+02  0.37742858914E+03  0.12509032045E+03 0.  0.
         24    2    1    2    0    0  0.11513424156E+02  0.98620683553E+02 -0.20743076123E+01  0.14620232207E+03  0.10729500485E+03 0.  0.
        -13    1    5    5    0    0  0.30103924885E+02 -0.13170951860E+02 -0.75643732916E+00  0.32867802845E+02  0.00000000000E+00 0.  1.
         14    1    5    5    0    0 -0.18590500729E+02  0.11179163541E+03 -0.13178702831E+01  0.11333451922E+03  0.00000000000E+00 0. -1.
         13    1    3    3    0    0 -0.21833725867E+03  0.17913418004E+03 -0.12574550674E+04  0.12887798336E+04  0.00000000000E+00 0. -1.
        -14    1    3    3    0    0 -0.21184287443E+02 -0.68654592849E+01 -0.15770638541E+03  0.15927087796E+03  0.00000000000E+00 0.  1.
          5    1    4    4  501    0 -0.33770239248E+01 -0.41570234275E+02 -0.29982076488E+02  0.51535288674E+02  0.41800000000E+01 0. -1.
         -5    1    4    4    0  501  0.23138514588E+03 -0.22931917004E+03 -0.79122316026E+01  0.32589330047E+03  0.41800000000E+01 0. -1.
</event>
<event>
11    1  0.8037748E-009  0.2002097E+03  0.7561462E-02  0.1054375E+00
         22   -1    0    0    0    0  0.00000000000E+00  0.00000000000E+00  0.15564368180E+03  0.15564368180E+03  0.00000000000E+00 0. -1.
         22   -1    0    0    0    0 -0.00000000000E+00 -0.00000000000E+00 -0.13119629470E+04  0.13119629470E+04  0.00000000000E+00 0. -1.
        -24    2    1    2    0    0 -0.12831114667E+03 -0.41281231777E+02 -0.98236586760E+03  0.99464265966E+03  0.78124465639E+02 0.  0.
         25    2    1    2    0    0  0.93615472372E+01 -0.10070668880E+03 -0.21104331088E+03  0.26536115985E+03  0.12509112818E+03 0.  0.
         24    2    1    2    0    0  0.11894959943E+03  0.14198792058E+03  0.37089913244E+02  0.20760280934E+03  0.86102775711E+02 0.  0.
        -11    1    5    5    0    0  0.29813365729E+02  0.54224408148E+02  0.53038129537E+02  0.81499487115E+02  0.00000000000E+00 0.  1.
         12    1    5    5    0    0  0.89136233701E+02  0.87763512433E+02 -0.15948216293E+02  0.12610332222E+03  0.00000000000E+00 0. -1.
         11    1    3    3    0    0 -0.10519680259E+03 -0.26851032351E+02 -0.92250307619E+03  0.92886988906E+03  0.00000000000E+00 0. -1.
        -12    1    3    3    0    0 -0.23114344073E+02 -0.14430199426E+02 -0.59862791410E+02  0.65772770602E+02  0.00000000000E+00 0.  1.
          5    1    4    4  501    0  0.66488562113E+02 -0.65390544620E+02 -0.11570303392E+03  0.14866511587E+03  0.41800000000E+01 0.  1.
         -5    1    4    4    0  501 -0.57127014875E+02 -0.35316144184E+02 -0.95340276961E+02  0.11669604398E+03  0.41800000000E+01 0.  1.
</event>
<event>
11    1  0.8037748E-009  0.4047584E+03  0.7561462E-02  0.9635821E-01
         22   -1    0    0    0    0  0.00000000000E+00  0.00000000000E+00  0.25120847848E+03  0.25120847848E+03  0.00000000000E+00 0.  1.
         22   -1    0    0    0    0 -0.00000000000E+00 -0.00000000000E+00 -0.16867146341E+04  0.16867146341E+04  0.00000000000E+00 0.  1.
        -24    2    1    2    0    0 -0.27514935599E+02  0.43105360972E+03 -0.11070797251E+04  0.11912143854E+04  0.82473680501E+02 0.  0.
         25    2    1    2    0    0  0.68372000984E+02 -0.31374988815E+03 -0.44145826296E+03  0.56004028943E+03  0.12508399185E+03 0.  0.
         24    2    1    2    0    0 -0.40857065385E+02 -0.11730372157E+03  0.11303183246E+03  0.18666843780E+03  0.81482805771E+02 0.  0.
        -11    1    5    5    0    0 -0.62894964921E+02 -0.60051864763E+02  0.71568537012E+02  0.11262352580E+03  0.00000000000E+00 0.  1.
         12    1    5    5    0    0  0.22037899537E+02 -0.57251856804E+02  0.41463295448E+02  0.74044911999E+02  0.00000000000E+00 0. -1.
         13    1    3    3    0    0 -0.18747278310E+02  0.62421103634E+02 -0.10658597642E+03  0.12493368237E+03  0.00000000000E+00 0. -1.
        -14    1    3    3    0    0 -0.87676572893E+01  0.36863250608E+03 -0.10004937487E+04  0.10662807030E+04  0.00000000000E+00 0.  1.
          5    1    4    4  501    0  0.53962127653E+02 -0.26244886635E+03 -0.42792333916E+03  0.50490313454E+03  0.41800000000E+01 0. -1.
         -5    1    4    4    0  501  0.14409873331E+02 -0.51301021796E+02 -0.13534923796E+02  0.55137154886E+02  0.41800000000E+01 0. -1.
</event>
<event>
11    1  0.8037748E-009  0.1853935E+03  0.7561462E-02  0.1065362E+00
         22   -1    0    0    0    0  0.00000000000E+00  0.00000000000E+00  0.50733030462E+03  0.50733030462E+03  0.00000000000E+00 0.  1.
         22   -1    0    0    0    0 -0.00000000000E+00 -0.00000000000E+00 -0.28459112126E+03  0.28459112126E+03  0.00000000000E+00 0.  1.
        -24    2    1    2    0    0  0.55266545310E+01  0.13160270342E+03 -0.18879101891E+03  0.24269759444E+03  0.76878202796E+02 0.  0.
         25    2    1    2    0    0 -0.37055938953E+02 -0.17146508346E+03  0.13154114649E+03  0.25243560374E+03  0.12508894178E+03 0.  0.
         24    2    1    2    0    0  0.31529284422E+02  0.39862380035E+02  0.27998905578E+03  0.29678822770E+03  0.84298728507E+02 0.  0.
        -13    1    5    5    0    0  0.96267083930E+00  0.48869571946E+02  0.24343831783E+03  0.24829695203E+03  0.00000000000E+00 0.  1.
         14    1    5    5    0    0  0.30566613583E+02 -0.90071919113E+01  0.36550737949E+02  0.48491275676E+02  0.00000000000E+00 0. -1.
         13    1    3    3    0    0  0.35508088843E+02  0.30000513772E+02 -0.53698294954E+02  0.71023672679E+02  0.00000000000E+00 0. -1.
        -14    1    3    3    0    0 -0.29981434312E+02  0.10160218965E+03 -0.13509272396E+03  0.17167392176E+03  0.00000000000E+00 0.  1.
          5    1    4    4  501    0 -0.53562676824E+02 -0.17858309955E+03  0.90191471159E+02  0.20715418814E+03  0.41800000000E+01 0. -1.
         -5    1    4    4    0  501  0.16506737871E+02  0.71180160932E+01  0.41349675335E+02  0.45281415598E+02  0.41800000000E+01 0. -1.
</event>
<event>
11    1  0.8037748E-009  0.1644398E+03  0.7561462E-02  0.1082974E+00
         22   -1    0    0    0    0  0.00000000000E+00  0.00000000000E+00  0.11085889086E+04  0.11085889086E+04  0.00000000000E+00 0.  1.
         22   -1    0    0    0    0 -0.00000000000E+00 -0.00000000000E+00 -0.14199682599E+04  0.14199682599E+04  0.00000000000E+00 0. -1.
        -24    2    1    2    0    0 -0.10931091918E+03 -0.42418671079E+00 -0.13633479435E+04  0.13701224149E+04  0.81047886156E+02 0.  0.
         25    2    1    2    0    0  0.39149707699E+02  0.25692139935E+02  0.38352637590E+02  0.13896482758E+03  0.12509001890E+03 0.  0.
         24    2    1    2    0    0  0.70161211483E+02 -0.25267953224E+02  0.10136159545E+04  0.10194699260E+04  0.79627644558E+02 0.  0.
        -11    1    5    5    0    0  0.56923483303E+00  0.67489702656E+01  0.51144234946E+03  0.51148719382E+03  0.00000000000E+00 0.  1.
         12    1    5    5    0    0  0.69591976650E+02 -0.32016923490E+02  0.50217360508E+03  0.50798273223E+03  0.00000000000E+00 0. -1.
         13    1    3    3    0    0 -0.73722747973E+02  0.46059147542E+01 -0.12235645570E+04  0.12257921860E+04  0.00000000000E+00 0. -1.
        -14    1    3    3    0    0 -0.35588171209E+02 -0.50301014650E+01 -0.13978338643E+03  0.14433022889E+03  0.00000000000E+00 0.  1.
          5    1    4    4  501    0 -0.16189963616E+02  0.46985704805E+01 -0.38285948463E+02  0.42041381235E+02  0.41800000000E+01 0. -1.
         -5    1    4    4    0  501  0.55339671315E+02  0.20993569454E+02  0.76638586053E+02  0.96923446348E+02  0.41800000000E+01 0. -1.
</event>
<event>
11    1  0.8037748E-009  0.1725512E+03  0.7561462E-02  0.1075833E+00
         22   -1    0    0    0    0  0.00000000000E+00  0.00000000000E+00  0.83217054394E+03  0.83217054394E+03  0.00000000000E+00 0.  1.
         22   -1    0    0    0    0 -0.00000000000E+00 -0.00000000000E+00 -0.61550710005E+03  0.61550710005E+03  0.00000000000E+00 0. -1.
        -24    2    1    2    0    0 -0.44191763890E+02 -0.99478227626E+02 -0.55839938924E+03  0.57362798196E+03  0.73419030299E+02 0.  0.
         25    2    1    2    0    0  0.15393360278E+03  0.68812150008E+02  0.23631655194E+03  0.31610585581E+03  0.12508690299E+03 0.  0.
         24    2    1    2    0    0 -0.10974183889E+03  0.30666077618E+02  0.53874628119E+03  0.55794380622E+03  0.89833489749E+02 0.  0.
        -13    1    5    5    0    0 -0.59545777007E+02  0.61385586379E+02  0.34606801440E+03  0.35647855527E+03  0.00000000000E+00 0.  1.
         14    1    5    5    0    0 -0.50196061883E+02 -0.30719508762E+02  0.19267826679E+03  0.20146525095E+03  0.00000000000E+00 0. -1.
         13    1    3    3    0    0 -0.61109637800E+02 -0.95994623374E+02 -0.47258655813E+03  0.48609403460E+03  0.00000000000E+00 0. -1.
        -14    1    3    3    0    0  0.16917873910E+02 -0.34836042514E+01 -0.85812831115E+02  0.87533947358E+02  0.00000000000E+00 0.  1.
          5    1    4    4  501    0  0.15992832856E+03  0.89732107484E+02  0.18652840289E+03  0.26160894265E+03  0.41800000000E+01 0.  1.
         -5    1    4    4    0  501 -0.59947257752E+01 -0.20919957476E+02  0.49788149051E+02  0.54496913159E+02  0.41800000000E+01 0.  1.
</event>
<event>
11    1  0.8037748E-009  0.1443081E+03  0.7561462E-02  0.1102841E+00
         22   -1    0    0    0    0  0.00000000000E+00  0.00000000000E+00  0.12617215322E+04  0.12617215322E+04  0.00000000000E+00 0. -1.
         22   -1    0    0    0    0 -0.00000000000E+00 -0.00000000000E+00 -0.85534601039E+02  0.85534601039E+02  0.00000000000E+00 0. -1.
         24    2    1    2    0    0 -0.69684410323E+02  0.18314861026E+02 -0.15133963738E+02  0.10957904312E+03  0.81161435767E+02 0.  0.
         25    2    1    2    0    0  0.69631622148E+02 -0.16131099211E+02  0.21920866974E+03  0.26231446319E+03  0.12509061333E+03 0.  0.
        -24    2    1    2    0    0  0.52788174514E-01 -0.21837618152E+01  0.97211222519E+03  0.97536262697E+03  0.79531780547E+02 0.  0.
        -13    1    3    3    0    0 -0.38473074565E+02  0.42065173828E+02  0.16329073543E+02  0.59298355445E+02  0.00000000000E+00 0.  1.
         14    1    3    3    0    0 -0.31211335758E+02 -0.23750312802E+02 -0.31463037280E+02  0.50280687673E+02  0.00000000000E+00 0. -1.
         13    1    5    5    0    0  0.32622053875E+02 -0.19844542233E+02  0.33396083205E+03  0.33613664126E+03  0.00000000000E+00 0. -1.
        -14    1    5    5    0    0 -0.32569265701E+02  0.17660780418E+02  0.63815139315E+03  0.63922598571E+03  0.00000000000E+00 0.  1.
          5    1    4    4  501    0  0.49428449133E+02 -0.56932437875E+02  0.19800751334E+03  0.21191725226E+03  0.41800000000E+01 0.  1.
         -5    1    4    4    0  501  0.20203173015E+02  0.40801338664E+02  0.21201156404E+02  0.50397210930E+02  0.41800000000E+01 0.  1.
</event>
<event>
11    1  0.8037748E-009  0.1486443E+03  0.7561462E-02  0.1098272E+00
         22   -1    0    0    0    0  0.00000000000E+00  0.00000000000E+00  0.36877751324E+03  0.36877751324E+03  0.00000000000E+00 0. -1.
         22   -1    0    0    0    0 -0.00000000000E+00 -0.00000000000E+00 -0.29766380534E+03  0.29766380534E+03  0.00000000000E+00 0. -1.
         24    2    1    2    0    0  0.42645180790E+02 -0.79193109841E+00 -0.20858670152E+03  0.22788223793E+03  0.81256776397E+02 0.  0.
         25    2    1    2    0    0 -0.57581517262E+02 -0.76751598857E+02  0.24268120547E+02  0.15950887338E+03  0.12509076686E+03 0.  0.
        -24    2    1    2    0    0  0.14936336471E+02  0.77543529956E+02  0.25543228887E+03  0.27905020728E+03  0.79920402891E+02 0.  0.
        -11    1    3    3    0    0  0.35132797215E+02 -0.19786364522E+02 -0.35886472754E+02  0.53978260326E+02  0.00000000000E+00 0.  1.
         12    1    3    3    0    0  0.75123835755E+01  0.18994433424E+02 -0.17270022877E+03  0.17390397760E+03  0.00000000000E+00 0. -1.
         13    1    5    5    0    0  0.45459829467E+02  0.56922915225E+02  0.19631970706E+03  0.20939971766E+03  0.00000000000E+00 0. -1.
        -14    1    5    5    0    0 -0.30523492995E+02  0.20620614731E+02  0.59112581808E+02  0.69650489621E+02  0.00000000000E+00 0.  1.
          5    1    4    4  501    0 -0.32045988267E+02 -0.10163417514E+03  0.47500803887E+02  0.11674866034E+03  0.41800000000E+01 0. -1.
         -5    1    4    4    0  501 -0.25535528995E+02  0.24882576287E+02 -0.23232683339E+02  0.42760213036E+02  0.41800000000E+01 0. -1.
</event>
<event>
11    1  0.1324492E-008  0.1787030E+03  0.7561462E-02  0.1070697E+00
         22   -1    0    0    0    0  0.00000000000E+00  0.00000000000E+00  0.11447919488E+04  0.11447919488E+04  0.00000000000E+00 0. -1.
         22   -1    0    0    0    0 -0.00000000000E+00 -0.00000000000E+00 -0.47070553664E+03  0.47070553664E+03  0.00000000000E+00 0. -1.
        -24    2    1    2    0    0 -0.25834344269E+02  0.46021353057E+02 -0.29664941225E+03  0.31350098942E+03  0.86583013937E+02 0.  0.
         25    2    1    2    0    0 -0.88103157071E+02  0.14479944695E+02 -0.12352946378E+03  0.19719418282E+03  0.12511667448E+03 0.  0.
         24    2    1    2    0    0  0.11393750134E+03 -0.60501297753E+02  0.10942652881E+04  0.11048023131E+04  0.80805130074E+02 0.  0.
        -13    1    5    5    0    0  0.84879765844E+01  0.22228015693E+01  0.88074637797E+01  0.12432136242E+02  0.00000000000E+00 0.  1.
         14    1    5    5    0    0  0.10544952476E+03 -0.62724099322E+02  0.10854578244E+04  0.10923701769E+04  0.00000000000E+00 0. -1.
         11    1    3    3    0    0  0.19443868692E+02  0.24396518149E+02 -0.21791566162E+03  0.22013743368E+03  0.00000000000E+00 0. -1.
        -12    1    3    3    0    0 -0.45278212960E+02  0.21624834908E+02 -0.78733750630E+02  0.93363555748E+02  0.00000000000E+00 0.  1.
          5    1    4    4  501    0 -0.51749106503E+02  0.37886671177E+02  0.20598255494E+01  0.64304627812E+02  0.41800000000E+01 0.  1.
         -5    1    4    4    0  501 -0.36354050569E+02 -0.23406726482E+02 -0.12558928933E+03  0.13288955501E+03  0.41800000000E+01 0.  1.
</event>
<event>
11    1  0.8037748E-009  0.1395556E+03  0.7561462E-02  0.1108056E+00
         22   -1    0    0    0    0  0.00000000000E+00  0.00000000000E+00  0.26148559888E+03  0.26148559888E+03  0.00000000000E+00 0.  1.
         22   -1    0    0    0    0 -0.00000000000E+00 -0.00000000000E+00 -0.13237674141E+04  0.13237674141E+04  0.00000000000E+00 0. -1.
         24    2    1    2    0    0 -0.30981227437E+01 -0.66530389246E+02 -0.12336515935E+04  0.12380424499E+04  0.80105946274E+02 0.  0.
         25    2    1    2    0    0  0.60461720576E+02  0.33599936085E+02 -0.36037249052E+01  0.14298722185E+03  0.12509110049E+03 0.  0.
        -24    2    1    2    0    0 -0.57363597832E+02  0.32930453161E+02  0.17497350311E+03  0.20422334127E+03  0.81953945755E+02 0.  0.
        -13    1    3    3    0    0  0.12963557491E+02  0.59078495517E+01 -0.58298348248E+03  0.58315752362E+03  0.00000000000E+00 0.  1.
         14    1    3    3    0    0 -0.16061680234E+02 -0.72438238797E+02 -0.65066811099E+03  0.65488492628E+03  0.00000000000E+00 0. -1.
         11    1    5    5    0    0  0.19883599715E+02  0.42801914327E+01  0.19030404893E+02  0.27853794835E+02  0.00000000000E+00 0. -1.
        -12    1    5    5    0    0 -0.77247197547E+02  0.28650261728E+02  0.15594309822E+03  0.17636954643E+03  0.00000000000E+00 0.  1.
          5    1    4    4  501    0  0.59316983284E+02  0.58881217579E+02  0.39726129691E+02  0.92634443215E+02  0.41800000000E+01 0. -1.
         -5    1    4    4    0  501  0.11447372916E+01 -0.25281281494E+02 -0.43329854596E+02  0.50352778640E+02  0.41800000000E+01 0. -1.
</event>
<event>
11    1  0.8037748E-009  0.1274328E+03  0.7561462E-02  0.1122464E+00
         22   -1    0    0    0    0  0.00000000000E+00  0.00000000000E+00  0.51326610031E+03  0.51326610031E+03  0.00000000000E+00 0.  1.
         22   -1    0    0    0    0 -0.00000000000E+00 -0.00000000000E+00 -0.14627101764E+04  0.14627101764E+04  0.00000000000E+00 0.  1.
        -24    2    1    2    0    0 -0.16745653310E+02  0.17145773395E+02 -0.13642716878E+04  0.13668130424E+04  0.79788848432E+02 0.  0.
         25    2    1    2    0    0  0.22000971519E+02 -0.30859118272E+02 -0.47948760119E+02  0.13922097957E+03  0.12508824736E+03 0.  0.
         24    2    1    2    0    0 -0.52553182088E+01  0.13713344877E+02  0.46277637180E+03  0.46994225474E+03  0.80424363832E+02 0.  0.
        -11    1    5    5    0    0  0.12551277271E+02 -0.24988125622E+02  0.31236663754E+03  0.31361577963E+03  0.00000000000E+00 0.  1.
         12    1    5    5    0    0 -0.17806595480E+02  0.38701470499E+02  0.15040973426E+03  0.15632647512E+03  0.00000000000E+00 0. -1.
         13    1    3    3    0    0 -0.21922547948E+02  0.13391678799E+00 -0.98237189979E+02  0.10065367126E+03  0.00000000000E+00 0. -1.
        -14    1    3    3    0    0  0.51768946376E+01  0.17011856607E+02 -0.12660344978E+04  0.12661593712E+04  0.00000000000E+00 0.  1.
          5    1    4    4  501    0  0.63047982345E+02  0.15857295858E+02 -0.91026378033E+01  0.65778661621E+02  0.41800000000E+01 0. -1.
         -5    1    4    4    0  501 -0.41047010826E+02 -0.46716414130E+02 -0.38846122315E+02  0.73442317950E+02  0.41800000000E+01 0. -1.
</event>
<event>
11    1  0.8037748E-009  0.2018703E+03  0.7561462E-02  0.1053209E+00
         22   -1    0    0    0    0  0.00000000000E+00  0.00000000000E+00  0.74540046803E+03  0.74540046803E+03  0.00000000000E+00 0.  1.
         22   -1    0    0    0    0 -0.00000000000E+00 -0.00000000000E+00 -0.20111568324E+03  0.20111568324E+03  0.00000000000E+00 0.  1.
        -24    2    1    2    0    0  0.55984684943E+02 -0.13836964560E+03 -0.63535888476E+02  0.18034358873E+03  0.78781705359E+02 0.  0.
         25    2    1    2    0    0 -0.71487417101E+02  0.16989942726E+03  0.89387596635E+02  0.24003031171E+03  0.12509253344E+03 0.  0.
         24    2    1    2    0    0  0.15502732158E+02 -0.31529781662E+02  0.51843307663E+03  0.52614225084E+03  0.82573308859E+02 0.  0.
        -11    1    5    5    0    0  0.81278367370E+01 -0.53286672587E+02  0.46314753177E+03  0.46627370438E+03  0.00000000000E+00 0.  1.
         12    1    5    5    0    0  0.73748954211E+01  0.21756890925E+02  0.55285544855E+02  0.59868546459E+02  0.00000000000E+00 0. -1.
         13    1    3    3    0    0  0.25841695786E+02 -0.23931447100E+02 -0.50100541642E+02  0.61241911092E+02  0.00000000000E+00 0. -1.
        -14    1    3    3    0    0  0.30142989158E+02 -0.11443819850E+03 -0.13435346834E+02  0.11910167763E+03  0.00000000000E+00 0.  1.
          5    1    4    4  501    0 -0.88950543685E+02  0.17992741291E+03  0.72598199018E+02  0.21348078143E+03  0.41800000000E+01 0.  1.
         -5    1    4    4    0  501  0.17463126584E+02 -0.10027985647E+02  0.16789397617E+02  0.26549530289E+02  0.41800000000E+01 0.  1.
</event>
<event>
11    1  0.8037748E-009  0.1575599E+03  0.7561462E-02  0.1089395E+00
         22   -1    0    0    0    0  0.00000000000E+00  0.00000000000E+00  0.13638596439E+04  0.13638596439E+04  0.00000000000E+00 0. -1.
         22   -1    0    0    0    0 -0.00000000000E+00 -0.00000000000E+00 -0.42586343734E+03  0.42586343734E+03  0.00000000000E+00 0. -1.
        -24    2    1    2    0    0 -0.26538846620E+02  0.26824849064E+02 -0.38011031263E+03  0.38785555895E+03  0.67262188006E+02 0.  0.
         25    2    1    2    0    0 -0.70308217374E+02 -0.10901737333E+02  0.95365603320E+02  0.17264011202E+03  0.12509163311E+03 0.  0.
         24    2    1    2    0    0  0.96847063994E+02 -0.15923111732E+02  0.12227409158E+04  0.12292274102E+04  0.79194567448E+02 0.  0.
        -13    1    5    5    0    0  0.10409624100E+02 -0.20322612809E+02  0.79472872239E+02  0.82688005704E+02  0.00000000000E+00 0.  1.
         14    1    5    5    0    0  0.86437439894E+02  0.43995010777E+01  0.11432680436E+04  0.11465394045E+04  0.00000000000E+00 0. -1.
         13    1    3    3    0    0  0.14484314509E+02  0.20213043892E+01 -0.22573503995E+03  0.22620828742E+03  0.00000000000E+00 0. -1.
        -14    1    3    3    0    0 -0.41023161129E+02  0.24803544675E+02 -0.15437527268E+03  0.16164727153E+03  0.00000000000E+00 0.  1.
          5    1    4    4  501    0  0.23104025111E+02  0.33081167984E+02  0.25979529956E+02  0.48172274477E+02  0.41800000000E+01 0. -1.
         -5    1    4    4    0  501 -0.93412242486E+02 -0.43982905317E+02  0.69386073364E+02  0.12446783755E+03  0.41800000000E+01 0. -1.
</event>
<event>
11    1  0.8037748E-009  0.1785627E+03  0.7561462E-02  0.1070811E+00
         22   -1    0    0    0    0  0.00000000000E+00  0.00000000000E+00  0.81413266105E+02  0.81413266105E+02  0.00000000000E+00 0. -1.
         22   -1    0    0    0    0 -0.00000000000E+00 -0.00000000000E+00 -0.10555099311E+04  0.10555099311E+04  0.00000000000E+00 0.  1.
        -24    2    1    2    0    0 -0.72189329855E+02  0.81475295801E+02 -0.47923767955E+03  0.49802172424E+03  0.80668216436E+02 0.  0.
         25    2    1    2    0    0  0.17311721112E+03 -0.82624736899E+02 -0.44521136680E+03  0.50065702744E+03  0.12509149476E+03 0.  0.
         24    2    1    2    0    0 -0.10092788126E+03  0.11494410984E+01 -0.49647618634E+02  0.13824444552E+03  0.80367171471E+02 0.  0.
        -11    1    5    5    0    0  0.93287407667E+01  0.22277480693E+01  0.91753806219E+01  0.13273126056E+02  0.00000000000E+00 0.  1.
         12    1    5    5    0    0 -0.11025662203E+03 -0.10783069709E+01 -0.58822999256E+02  0.12497131946E+03  0.00000000000E+00 0. -1.
         11    1    3    3    0    0 -0.22775808192E+02 -0.61830850870E+01 -0.32947212368E+02  0.40527605195E+02  0.00000000000E+00 0. -1.
        -12    1    3    3    0    0 -0.49413521664E+02  0.87658380888E+02 -0.44629046718E+03  0.45749411904E+03  0.00000000000E+00 0.  1.
          5    1    4    4  501    0  0.13598339075E+03 -0.85264839393E+02 -0.22003944118E+03  0.27239016772E+03  0.41800000000E+01 0.  1.
         -5    1    4    4    0  501  0.37133820369E+02  0.26401024936E+01 -0.22517192562E+03  0.22826685972E+03  0.41800000000E+01 0.  1.
</event>
<event>
11    1  0.8037748E-009  0.1318158E+03  0.7561462E-02  0.1117058E+00
         22   -1    0    0    0    0  0.00000000000E+00  0.00000000000E+00  0.47373005935E+03  0.47373005935E+03  0.00000000000E+00 0. -1.
         22   -1    0    0    0    0 -0.00000000000E+00 -0.00000000000E+00 -0.34869827848E+03  0.34869827848E+03  0.00000000000E+00 0.  1.
        -24    2    1    2    0    0  0.40153565816E+02 -0.14001690016E+02 -0.30884817330E+03  0.32212739689E+03  0.81058679399E+02 0.  0.
         25    2    1    2    0    0 -0.21813350498E+02 -0.48829687293E+00  0.11860035557E+03  0.17375195133E+03  0.12509050945E+03 0.  0.
         24    2    1    2    0    0 -0.18340215318E+02  0.14489986889E+02  0.31527959860E+03  0.32654898961E+03  0.81772208644E+02 0.  0.
        -13    1    5    5    0    0 -0.11602337541E+02 -0.27961362112E+02  0.55334900422E+02  0.63074584520E+02  0.00000000000E+00 0.  1.
         14    1    5    5    0    0 -0.67378777765E+01  0.42451349001E+02  0.25994469818E+03  0.26347440509E+03  0.00000000000E+00 0. -1.
         13    1    3    3    0    0  0.62994744451E+02  0.29180064280E+01 -0.20796964318E+03  0.21732055833E+03  0.00000000000E+00 0. -1.
        -14    1    3    3    0    0 -0.22841178635E+02 -0.16919696444E+02 -0.10087853012E+03  0.10480683856E+03  0.00000000000E+00 0.  1.
          5    1    4    4  501    0 -0.19121390089E+02  0.60930985856E+02  0.47713329224E+02  0.79826353931E+02  0.41800000000E+01 0. -1.
         -5    1    4    4    0  501 -0.26919604085E+01 -0.61419282729E+02  0.70887026345E+02  0.93925597394E+02  0.41800000000E+01 0. -1.
</event>
<event>
11    1  0.8037748E-009  0.1456466E+03  0.7561462E-02  0.1101412E+00
         22   -1    0    0    0    0  0.00000000000E+00  0.00000000000E+00  0.18303487942E+03  0.18303487942E+03  0.00000000000E+00 0.  1.
         22   -1    0    0    0    0 -0.00000000000E+00 -0.00000000000E+00 -0.13769145461E+04  0.13769145461E+04  0.00000000000E+00 0. -1.
        -24    2    1    2    0    0  0.24448385350E+02 -0.64716649254E+02 -0.80803625410E+03  0.81491514698E+03  0.79863261885E+02 0.  0.
         25    2    1    2    0    0 -0.56351819616E+02  0.76047665871E+02 -0.54283630054E+03  0.56504616172E+03  0.12508853121E+03 0.  0.
         24    2    1    2    0    0  0.31903434266E+02 -0.11331016617E+02  0.15699288798E+03  0.17998811680E+03  0.81257210506E+02 0.  0.
        -13    1    5    5    0    0  0.31738482963E+02 -0.15155808798E+01  0.16455605884E+03  0.16759571828E+03  0.00000000000E+00 0.  1.
         14    1    5    5    0    0  0.16495130261E+00 -0.98154357372E+01 -0.75631708603E+01  0.12392398521E+02  0.00000000000E+00 0. -1.
         11    1    3    3    0    0  0.25992201556E+02 -0.82518080679E+02 -0.71134785508E+03  0.71658956112E+03  0.00000000000E+00 0. -1.
        -12    1    3    3    0    0 -0.15438162058E+01  0.17801431425E+02 -0.96688399015E+02  0.98325585853E+02  0.00000000000E+00 0.  1.
          5    1    4    4  501    0  0.10639282279E+02  0.61309660866E+02 -0.10718986414E+03  0.12401293568E+03  0.41800000000E+01 0. -1.
         -5    1    4    4    0  501 -0.66991101895E+02  0.14738005006E+02 -0.43564643640E+03  0.44103322604E+03  0.41800000000E+01 0. -1.
</event>
<event>
11    1  0.8037748E-009  0.1508160E+03  0.7561462E-02  0.1096048E+00
         22   -1    0    0    0    0  0.00000000000E+00  0.00000000000E+00  0.63161434837E+03  0.63161434837E+03  0.00000000000E+00 0.  1.
         22   -1    0    0    0    0 -0.00000000000E+00 -0.00000000000E+00 -0.32952892799E+03  0.32952892799E+03  0.00000000000E+00 0. -1.
        -24    2    1    2    0    0  0.29518949716E+02  0.79383137283E+02 -0.16989745845E+03  0.20598257223E+03  0.79941370991E+02 0.  0.
         25    2    1    2    0    0 -0.60496152761E+02 -0.64061484395E+02 -0.95965438205E+02  0.18060785033E+03  0.12508465928E+03 0.  0.
         24    2    1    2    0    0  0.30977203045E+02 -0.15321652889E+02  0.56794831703E+03  0.57455285381E+03  0.79695362741E+02 0.  0.
        -13    1    5    5    0    0  0.39036450850E+01  0.13890085600E+02  0.44665098652E+03  0.44688396333E+03  0.00000000000E+00 0.  1.
         14    1    5    5    0    0  0.27073557960E+02 -0.29211738489E+02  0.12129733052E+03  0.12766889048E+03  0.00000000000E+00 0. -1.
         13    1    3    3    0    0  0.49647067990E+02  0.75876692616E+02 -0.10920295617E+03  0.14194150020E+03  0.00000000000E+00 0. -1.
        -14    1    3    3    0    0 -0.20128118273E+02  0.35064446677E+01 -0.60694502283E+02  0.64041072030E+02  0.00000000000E+00 0.  1.
          5    1    4    4  501    0 -0.97952890587E+01 -0.52932976479E+02  0.16676755656E+02  0.56510479257E+02  0.41800000000E+01 0.  1.
         -5    1    4    4    0  501 -0.50700863702E+02 -0.11128507916E+02 -0.11264219386E+03  0.12409737107E+03  0.41800000000E+01 0.  1.
</event>
<event>
11    1  0.8037748E-009  0.1254828E+03  0.7561462E-02  0.1124947E+00
         22   -1    0    0    0    0  0.00000000000E+00  0.00000000000E+00  0.85852239479E+03  0.85852239479E+03  0.00000000000E+00 0. -1.
         22   -1    0    0    0    0 -0.00000000000E+00 -0.00000000000E+00 -0.36856755229E+03  0.36856755229E+03  0.00000000000E+00 0. -1.
        -24    2    1    2    0    0  0.14941663486E+00  0.10823646854E+02 -0.30769490859E+03  0.31915411539E+03  0.84059615398E+02 0.  0.
         25    2    1    2    0    0  0.24794621186E+02  0.41760862039E+01  0.24108666160E+02  0.12985044809E+03  0.12509075965E+03 0.  0.
         24    2    1    2    0    0 -0.24944037821E+02 -0.14999733058E+02  0.77354108494E+03  0.77808538360E+03  0.78764567394E+02 0.  0.
        -11    1    5    5    0    0 -0.46519456376E+02 -0.31283005644E+02  0.46635195514E+03  0.46970930619E+03  0.00000000000E+00 0.  1.
         12    1    5    5    0    0  0.21575418556E+02  0.16283272586E+02  0.30718912980E+03  0.30837607741E+03  0.00000000000E+00 0. -1.
         11    1    3    3    0    0  0.20479812406E+02 -0.43069645922E+01 -0.28298782983E+03  0.28376061124E+03  0.00000000000E+00 0. -1.
        -12    1    3    3    0    0 -0.20330395771E+02  0.15130611447E+02 -0.24707078759E+02  0.35393504146E+02  0.00000000000E+00 0.  1.
          5    1    4    4  501    0  0.99227070314E+01  0.48311266973E+02 -0.30358018300E+02  0.58064794037E+02  0.41800000000E+01 0.  1.
         -5    1    4    4    0  501  0.14871914154E+02 -0.44135180770E+02  0.54466684460E+02  0.71785654056E+02  0.41800000000E+01 0.  1.
</event>
<event>
11    1  0.8037748E-009  0.1747904E+03  0.7561462E-02  0.1073937E+00
         22   -1    0    0    0    0  0.00000000000E+00  0.00000000000E+00  0.49820866562E+03  0.49820866562E+03  0.00000000000E+00 0.  1.
         22   -1    0    0    0    0 -0.00000000000E+00 -0.00000000000E+00 -0.48751549565E+03  0.48751549565E+03  0.00000000000E+00 0. -1.
        -24    2    1    2    0    0 -0.10712630957E+02  0.54398998358E+02 -0.33135080897E+03  0.34564134523E+03  0.81243888640E+02 0.  0.
         25    2    1    2    0    0  0.13182161901E+03 -0.54093176062E+02 -0.70725241475E+02  0.20236932576E+03  0.12509305852E+03 0.  0.
         24    2    1    2    0    0 -0.12110898805E+03 -0.30582229603E+00  0.41276922041E+03  0.43771349028E+03  0.80914706574E+02 0.  0.
        -13    1    5    5    0    0 -0.12329238293E+03  0.14637795119E+02  0.39663667449E+03  0.41561512037E+03  0.00000000000E+00 0.  1.
         14    1    5    5    0    0  0.21833948748E+01 -0.14943617415E+02  0.16132545927E+02  0.22098369911E+02  0.00000000000E+00 0. -1.
         13    1    3    3    0    0  0.19467143891E+02  0.77960418053E+01 -0.22213849865E+03  0.22312610905E+03  0.00000000000E+00 0. -1.
        -14    1    3    3    0    0 -0.30179774848E+02  0.46602956552E+02 -0.10921231032E+03  0.12251523618E+03  0.00000000000E+00 0.  1.
          5    1    4    4  501    0  0.13814841248E+03 -0.73202087830E+02 -0.84359469972E+02  0.17770065309E+03  0.41800000000E+01 0.  1.
         -5    1    4    4    0  501 -0.63267934705E+01  0.19108911768E+02  0.13634228497E+02  0.24668672670E+02  0.41800000000E+01 0.  1.
</event>
<event>
11    1  0.8037748E-009  0.1789905E+03  0.7561462E-02  0.1070462E+00
         22   -1    0    0    0    0  0.00000000000E+00  0.00000000000E+00  0.28643329651E+03  0.28643329651E+03  0.00000000000E+00 0.  1.
         22   -1    0    0    0    0 -0.00000000000E+00 -0.00000000000E+00 -0.10747334033E+04  0.10747334033E+04  0.00000000000E+00 0.  1.
         24    2    1    2    0    0  0.12430047112E+03 -0.22226004564E+02 -0.88310843002E+03  0.89568055509E+03  0.80115886073E+02 0.  0.
         25    2    1    2    0    0 -0.14172287812E+03  0.14455893034E+02 -0.12729897905E+03  0.22835698757E+03  0.12509011424E+03 0.  0.
        -24    2    1    2    0    0  0.17422406999E+02  0.77701115298E+01  0.22210730229E+03  0.23712915713E+03  0.80837296664E+02 0.  0.
        -11    1    3    3    0    0  0.61057798194E+02  0.10526950422E+02 -0.62050200165E+03  0.62358768867E+03  0.00000000000E+00 0.  1.
         12    1    3    3    0    0  0.63242672923E+02 -0.32752954987E+02 -0.26260642837E+03  0.27209286642E+03  0.00000000000E+00 0. -1.
         11    1    5    5    0    0  0.88290326389E+01 -0.27073136387E+02  0.28735185482E+02  0.40455128425E+02  0.00000000000E+00 0. -1.
        -12    1    5    5    0    0  0.85933743600E+01  0.34843247917E+02  0.19337211681E+03  0.19667402871E+03  0.00000000000E+00 0.  1.
          5    1    4    4  501    0 -0.15090222085E+03  0.13518940155E+00 -0.66272846242E+02  0.16486679800E+03  0.41800000000E+01 0. -1.
         -5    1    4    4    0  501  0.91793427382E+01  0.14320703633E+02 -0.61026132811E+02  0.63490189569E+02  0.41800000000E+01 0. -1.
</event>
<event>
11    1  0.8468597E-009  0.1641888E+03  0.7561462E-02  0.1083202E+00
         22   -1    0    0    0    0  0.00000000000E+00  0.00000000000E+00  0.10033013909E+04  0.10033013909E+04  0.00000000000E+00 0.  1.
         22   -1    0    0    0    0 -0.00000000000E+00 -0.00000000000E+00 -0.10583013266E+04  0.10583013266E+04  0.00000000000E+00 0. -1.
         24    2    1    2    0    0  0.35429868362E+02  0.12201322474E+02 -0.86208692381E+03  0.86674060211E+03  0.81493921775E+02 0.  0.
         25    2    1    2    0    0  0.28331688066E+02  0.74032323381E+02 -0.15919777995E+03  0.21742337124E+03  0.12508205214E+03 0.  0.
        -24    2    1    2    0    0 -0.63761556428E+02 -0.86233645855E+02  0.96628476800E+03  0.97743874412E+03  0.10088839314E+03 0.  0.
        -13    1    3    3    0    0  0.39777508183E+02  0.42991619759E+02 -0.55241050400E+03  0.55550688066E+03  0.00000000000E+00 0.  1.
         14    1    3    3    0    0 -0.43476398207E+01 -0.30790297285E+02 -0.30967641981E+03  0.31123372145E+03  0.00000000000E+00 0. -1.
         13    1    5    5    0    0  0.15481456594E+02 -0.43201780728E+02  0.17074383692E+03  0.17680364024E+03  0.00000000000E+00 0. -1.
        -14    1    5    5    0    0 -0.79243013022E+02 -0.43031865127E+02  0.79554093109E+03  0.80063510388E+03  0.00000000000E+00 0.  1.
          5    1    4    4  501    0  0.37723067869E+02  0.71863847366E+02 -0.28228651219E+02  0.86033549023E+02  0.41800000000E+01 0.  1.
         -5    1    4    4    0  501 -0.93913798038E+01  0.21684760145E+01 -0.13096912873E+03  0.13138982222E+03  0.41800000000E+01 0.  1.
</event>
<event>
11    1  0.8037748E-009  0.1328330E+03  0.7561462E-02  0.1115836E+00
         22   -1    0    0    0    0  0.00000000000E+00  0.00000000000E+00  0.83637395770E+03  0.83637395770E+03  0.00000000000E+00 0.  1.
         22   -1    0    0    0    0 -0.00000000000E+00 -0.00000000000E+00 -0.20754884319E+04  0.20754884319E+04  0.00000000000E+00 0. -1.
         24    2    1    2    0    0 -0.39805678834E+02  0.17644391875E+02 -0.19029664691E+04  0.19051541144E+04  0.80218455116E+02 0.  0.
         25    2    1    2    0    0  0.79193099627E+02 -0.16642837841E+02 -0.13614389313E+03  0.20181906629E+03  0.12508894756E+03 0.  0.
        -24    2    1    2    0    0 -0.39387420793E+02 -0.10015540331E+01  0.79999588801E+03  0.80488920890E+03  0.79377866880E+02 0.  0.
        -13    1    3    3    0    0  0.13898299904E+02  0.13342602708E+02 -0.11896297227E+04  0.11897857223E+04  0.00000000000E+00 0.  1.
         14    1    3    3    0    0 -0.53703978738E+02  0.43017891665E+01 -0.71333674637E+03  0.71536839212E+03  0.00000000000E+00 0. -1.
         13    1    5    5    0    0  0.52733257331E+01  0.31610284960E+02  0.23100870431E+03  0.23322101009E+03  0.00000000000E+00 0. -1.
        -14    1    5    5    0    0 -0.44660746526E+02 -0.32611838993E+02  0.56898718370E+03  0.57166819882E+03  0.00000000000E+00 0.  1.
          5    1    4    4  501    0  0.93183820418E+02  0.75110147973E+01 -0.14470288265E+03  0.17232537938E+03  0.41800000000E+01 0. -1.
         -5    1    4    4    0  501 -0.13990720791E+02 -0.24153852639E+02  0.85589895247E+01  0.29493686905E+02  0.41800000000E+01 0. -1.
</event>
<event>
11    1  0.8037748E-009  0.1654391E+03  0.7561462E-02  0.1082070E+00
         22   -1    0    0    0    0  0.00000000000E+00  0.00000000000E+00  0.25727974406E+04  0.25727974406E+04  0.00000000000E+00 0. -1.
         22   -1    0    0    0    0 -0.00000000000E+00 -0.00000000000E+00 -0.25360375124E+03  0.25360375124E+03  0.00000000000E+00 0.  1.
         24    2    1    2    0    0 -0.10199158286E+03  0.35738786627E+02 -0.21201194198E+03  0.25090738414E+03  0.79535577143E+02 0.  0.
         25    2    1    2    0    0  0.12185355085E+03  0.11053808892E+02  0.34128321481E+03  0.38352647799E+03  0.12509137483E+03 0.  0.
        -24    2    1    2    0    0 -0.19861967988E+02 -0.46792595519E+02  0.21899224165E+04  0.21919673297E+04  0.79853236568E+02 0.  0.
        -13    1    3    3    0    0 -0.10286765817E+03  0.34815137331E+02 -0.13220659283E+03  0.17109188196E+03  0.00000000000E+00 0.  1.
         14    1    3    3    0    0  0.87607530700E+00  0.92364929617E+00 -0.79805349152E+02  0.79815502186E+02  0.00000000000E+00 0. -1.
         11    1    5    5    0    0 -0.29337055536E+02  0.26956005722E+01  0.14648670779E+04  0.14651632964E+04  0.00000000000E+00 0. -1.
        -12    1    5    5    0    0  0.94750875476E+01 -0.49488196092E+02  0.72505533863E+03  0.72680403336E+03  0.00000000000E+00 0.  1.
          5    1    4    4  501    0  0.13292984817E+03  0.27335195982E+02  0.20578506673E+03  0.24654111942E+03  0.41800000000E+01 0. -1.
         -5    1    4    4    0  501 -0.11076297322E+02 -0.16281387089E+02  0.13549814808E+03  0.13698535857E+03  0.41800000000E+01 0. -1.
</event>
<event>
11    1  0.8037748E-009  0.1683098E+03  0.7561462E-02  0.1079512E+00
         22   -1    0    0    0    0  0.00000000000E+00  0.00000000000E+00  0.55454260344E+03  0.55454260344E+03  0.00000000000E+00 0. -1.
         22   -1    0    0    0    0 -0.00000000000E+00 -0.00000000000E+00 -0.66112674527E+03  0.66112674527E+03  0.00000000000E+00 0.  1.
         24    2    1    2    0    0  0.17684275283E+02  0.42393558566E+02 -0.48865720730E+03  0.49752138552E+03  0.81435344937E+02 0.  0.
         25    2    1    2    0    0  0.24801458964E+02 -0.14469307881E+03 -0.99928678744E+02  0.21721965141E+03  0.12508971460E+03 0.  0.
        -24    2    1    2    0    0 -0.42485734247E+02  0.10229952024E+03  0.48200174421E+03  0.50092831178E+03  0.79581798520E+02 0.  0.
        -13    1    3    3    0    0  0.31868762080E+02 -0.13460627775E+02 -0.22463785439E+03  0.22728610191E+03  0.00000000000E+00 0.  1.
         14    1    3    3    0    0 -0.14184486797E+02  0.55854186341E+02 -0.26401935291E+03  0.27023528361E+03  0.00000000000E+00 0. -1.
         11    1    5    5    0    0 -0.53542092810E+02  0.64031145591E+02  0.41215201069E+03  0.42051875490E+03  0.00000000000E+00 0. -1.
        -12    1    5    5    0    0  0.11056358564E+02  0.38268374653E+02  0.69849733528E+02  0.80409556878E+02  0.00000000000E+00 0.  1.
          5    1    4    4  501    0 -0.50827037861E+02 -0.68850002231E+02 -0.44133212145E+02  0.96379060999E+02  0.41800000000E+01 0. -1.
         -5    1    4    4    0  501  0.75628496824E+02 -0.75843076580E+02 -0.55795466599E+02  0.12084059041E+03  0.41800000000E+01 0. -1.
</event>
<event>
11    1  0.8037748E-009  0.1448948E+03  0.7561462E-02  0.1102212E+00
         22   -1    0    0    0    0  0.00000000000E+00  0.00000000000E+00  0.19792984421E+04  0.19792984421E+04  0.00000000000E+00 0.  1.
         22   -1    0    0    0    0 -0.00000000000E+00 -0.00000000000E+00 -0.10186576921E+03  0.10186576921E+03  0.00000000000E+00 0.  1.
         24    2    1    2    0    0  0.37955488028E+02  0.38359852303E+02 -0.41205988151E+02  0.11266142229E+03  0.89903088221E+02 0.  0.
         25    2    1    2    0    0 -0.96623463649E+02 -0.75502534631E+02  0.30766993254E+03  0.35404024462E+03  0.12508789293E+03 0.  0.
        -24    2    1    2    0    0  0.58667975621E+02  0.37142682328E+02  0.16109687285E+04  0.16144625444E+04  0.80296655261E+02 0.  0.
        -11    1    3    3    0    0  0.64616408911E+02  0.41282269114E+02 -0.38219114204E+02  0.85675006474E+02  0.00000000000E+00 0.  1.
         12    1    3    3    0    0 -0.26660920883E+02 -0.29224168113E+01 -0.29868739473E+01  0.26986415811E+02  0.00000000000E+00 0. -1.
         11    1    5    5    0    0  0.34754718754E+02  0.16509635406E+02  0.23482245199E+03  0.23795386632E+03  0.00000000000E+00 0. -1.
        -12    1    5    5    0    0  0.23913256867E+02  0.20633046922E+02  0.13761462765E+04  0.13765086781E+04  0.00000000000E+00 0.  1.
          5    1    4    4  501    0 -0.26796550461E+02 -0.14424372212E+02  0.23262293071E+03  0.23464231912E+03  0.41800000000E+01 0. -1.
         -5    1    4    4    0  501 -0.69826913188E+02 -0.61078162419E+02  0.75047001833E+02  0.11939792550E+03  0.41800000000E+01 0. -1.
</event>
<event>
11    1  0.8037748E-009  0.1615416E+03  0.7561462E-02  0.1085636E+00
         22   -1    0    0    0    0  0.00000000000E+00  0.00000000000E+00  0.66603387697E+03  0.66603387697E+03  0.00000000000E+00 0.  1.
         22   -1    0    0    0    0 -0.00000000000E+00 -0.00000000000E+00 -0.24798252547E+03  0.24798252547E+03  0.00000000000E+00 0. -1.
        -24    2    1    2    0    0  0.50336170853E+01 -0.35360024902E+02 -0.20418013535E+03  0.22224115554E+03  0.80161929154E+02 0.  0.
         25    2    1    2    0    0  0.29193547846E+02 -0.73477488501E+02  0.21465618281E+03  0.26072288657E+03  0.12509173519E+03 0.  0.
         24    2    1    2    0    0 -0.34227164931E+02  0.10883751340E+03  0.40757530404E+03  0.43105236032E+03  0.81678673657E+02 0.  0.
        -13    1    5    5    0    0 -0.54598714936E+02  0.10409805114E+03  0.36758827928E+03  0.38592559773E+03  0.00000000000E+00 0.  1.
         14    1    5    5    0    0  0.20371550005E+02  0.47394622663E+01  0.39987024763E+02  0.45126762587E+02  0.00000000000E+00 0. -1.
         13    1    3    3    0    0  0.61089896439E+01 -0.18428354778E+02 -0.20435431593E+03  0.20527447590E+03  0.00000000000E+00 0. -1.
        -14    1    3    3    0    0 -0.10753725586E+01 -0.16931670124E+02  0.17418058851E+00  0.16966679646E+02  0.00000000000E+00 0.  1.
          5    1    4    4  501    0  0.20319863421E+02  0.30289925509E+02  0.25334768377E+02  0.44606045840E+02  0.41800000000E+01 0.  1.
         -5    1    4    4    0  501  0.88736844250E+01 -0.10376741401E+03  0.18932141443E+03  0.21611684073E+03  0.41800000000E+01 0.  1.
</event>
<event>
11    1  0.8037748E-009  0.2424210E+03  0.7561462E-02  0.1028016E+00
         22   -1    0    0    0    0  0.00000000000E+00  0.00000000000E+00  0.10129011040E+04  0.10129011040E+04  0.00000000000E+00 0.  1.
         22   -1    0    0    0    0 -0.00000000000E+00 -0.00000000000E+00 -0.33193825977E+03  0.33193825977E+03  0.00000000000E+00 0.  1.
        -24    2    1    2    0    0  0.24368790160E+02  0.21928264331E+02 -0.22920649772E+03  0.24634472245E+03  0.84115497810E+02 0.  0.
         25    2    1    2    0    0 -0.19288105231E+03  0.97295567340E+02  0.11817447403E+03  0.27619545950E+03  0.12509675364E+03 0.  0.
         24    2    1    2    0    0  0.16851226215E+03 -0.11922383167E+03  0.79199486795E+03  0.82229918186E+03  0.79431537162E+02 0.  0.
        -11    1    5    5    0    0  0.13474341190E+03 -0.10984381805E+03  0.52547453922E+03  0.55348436543E+03  0.00000000000E+00 0.  1.
         12    1    5    5    0    0  0.33768850251E+02 -0.93800136230E+01  0.26652032874E+03  0.26881481643E+03  0.00000000000E+00 0. -1.
         11    1    3    3    0    0  0.13062492487E+01  0.89899248000E+00 -0.20934339284E+03  0.20934939838E+03  0.00000000000E+00 0. -1.
        -12    1    3    3    0    0  0.23062540912E+02  0.21029271851E+02 -0.19863104878E+02  0.36995324073E+02  0.00000000000E+00 0.  1.
          5    1    4    4  501    0 -0.15180931905E+03  0.22388933770E+02  0.36186117548E+02  0.15771569741E+03  0.41800000000E+01 0.  1.
         -5    1    4    4    0  501 -0.41071733256E+02  0.74906633571E+02  0.81988356479E+02  0.11847976208E+03  0.41800000000E+01 0.  1.
</event>
<event>
11    1  0.8037748E-009  0.1545582E+03  0.7561462E-02  0.1092310E+00
         22   -1    0    0    0    0  0.00000000000E+00  0.00000000000E+00  0.10264819632E+04  0.10264819632E+04  0.00000000000E+00 0.  1.
         22   -1    0    0    0    0 -0.00000000000E+00 -0.00000000000E+00 -0.10042680541E+04  0.10042680541E+04  0.00000000000E+00 0. -1.
         24    2    1    2    0    0  0.51475356094E+02  0.74778887282E+02 -0.97963214675E+03  0.98737134454E+03  0.83554980702E+02 0.  0.
         25    2    1    2    0    0  0.14731099285E+02 -0.11931642226E+03  0.51269633573E+03  0.54125629036E+03  0.12508966895E+03 0.  0.
        -24    2    1    2    0    0 -0.66206455379E+02  0.44537534980E+02  0.48914972019E+03  0.50212238239E+03  0.80576369871E+02 0.  0.
        -13    1    3    3    0    0 -0.55920315307E+01  0.45672344227E+01 -0.55775632863E+01  0.91235771014E+01  0.00000000000E+00 0.  1.
         14    1    3    3    0    0  0.57067387625E+02  0.70211652859E+02 -0.97405458346E+03  0.97824776744E+03  0.00000000000E+00 0. -1.
         11    1    5    5    0    0 -0.86961513213E+00  0.24046847192E+02  0.32886751695E+02  0.40749791747E+02  0.00000000000E+00 0. -1.
        -12    1    5    5    0    0 -0.65336840247E+02  0.20490687789E+02  0.45626296850E+03  0.46137259065E+03  0.00000000000E+00 0.  1.
          5    1    4    4  501    0  0.67961163813E+02 -0.78957618517E+02  0.26785140157E+03  0.28742802757E+03  0.41800000000E+01 0.  1.
         -5    1    4    4    0  501 -0.53230064528E+02 -0.40358803745E+02  0.24484493416E+03  0.25382826279E+03  0.41800000000E+01 0.  1.
</event>
<event>
11    1  0.8037748E-009  0.1358299E+03  0.7561462E-02  0.1112306E+00
         22   -1    0    0    0    0  0.00000000000E+00  0.00000000000E+00  0.50960190531E+03  0.50960190531E+03  0.00000000000E+00 0.  1.
         22   -1    0    0    0    0 -0.00000000000E+00 -0.00000000000E+00 -0.11942097405E+03  0.11942097405E+03  0.00000000000E+00 0.  1.
         24    2    1    2    0    0 -0.50523494825E+02 -0.11389973665E+02 -0.59761523087E+02  0.11292109571E+03  0.80606322245E+02 0.  0.
         25    2    1    2    0    0  0.49781274520E+02  0.49311409916E+02  0.16832844580E+03  0.22112475604E+03  0.12510756024E+03 0.  0.
        -24    2    1    2    0    0  0.74222030442E+00 -0.37921436252E+02  0.28161400855E+03  0.29497702760E+03  0.79160664362E+02 0.  0.
        -13    1    3    3    0    0 -0.64997366187E+02  0.17196365330E+01 -0.65775218321E+02  0.92487805176E+02  0.00000000000E+00 0.  1.
         14    1    3    3    0    0  0.14473871363E+02 -0.13109610198E+02  0.60136952341E+01  0.20433290536E+02  0.00000000000E+00 0. -1.
         11    1    5    5    0    0  0.27829599589E+02 -0.37575104487E+02  0.89652772240E+02  0.10111377088E+03  0.00000000000E+00 0. -1.
        -12    1    5    5    0    0 -0.27087379284E+02 -0.34633176475E+00  0.19196123631E+03  0.19386325673E+03  0.00000000000E+00 0.  1.
          5    1    4    4  501    0 -0.41208518485E+02  0.89650182420E+01  0.36797366486E+02  0.56125147021E+02  0.41800000000E+01 0.  1.
         -5    1    4    4    0  501  0.90989793005E+02  0.40346391674E+02  0.13153107932E+03  0.16499960902E+03  0.41800000000E+01 0.  1.
</event>
<event>
11    1  0.8037748E-009  0.1378027E+03  0.7561462E-02  0.1110037E+00
         22   -1    0    0    0    0  0.00000000000E+00  0.00000000000E+00  0.70863487011E+03  0.70863487011E+03  0.00000000000E+00 0. -1.
         22   -1    0    0    0    0 -0.00000000000E+00 -0.00000000000E+00 -0.35289725502E+03  0.35289725502E+03  0.00000000000E+00 0.  1.
         24    2    1    2    0    0 -0.38517571838E+02 -0.46851368992E+02 -0.31507027870E+03  0.33094461740E+03  0.81095037763E+02 0.  0.
         25    2    1    2    0    0  0.11850901516E+02 -0.73763120235E+01  0.13142156814E+03  0.18196964808E+03  0.12508585214E+03 0.  0.
        -24    2    1    2    0    0  0.26666670322E+02  0.54227681015E+02  0.53938632566E+03  0.54861785964E+03  0.79951203362E+02 0.  0.
        -11    1    3    3    0    0  0.11366339516E+02 -0.35797591380E+02 -0.21836386708E+03  0.22157039439E+03  0.00000000000E+00 0.  1.
         12    1    3    3    0    0 -0.49883911354E+02 -0.11053777612E+02 -0.96706411618E+02  0.10937422301E+03  0.00000000000E+00 0. -1.
         13    1    5    5    0    0  0.26963586830E+01  0.70138372791E+02  0.41922480577E+03  0.42506011276E+03  0.00000000000E+00 0. -1.
        -14    1    5    5    0    0  0.23970311639E+02 -0.15910691776E+02  0.12016151989E+03  0.12355774688E+03  0.00000000000E+00 0.  1.
          5    1    4    4  501    0  0.30535718133E+02  0.55958845827E+01 -0.14292978538E+02  0.34431172528E+02  0.41800000000E+01 0. -1.
         -5    1    4    4    0  501 -0.18684816617E+02 -0.12972196606E+02  0.14571454667E+03  0.14753847556E+03  0.41800000000E+01 0. -1.
</event>
<event>
11    1  0.8037748E-009  0.2812998E+03  0.7561462E-02  0.1008432E+00
         22   -1    0    0    0    0  0.00000000000E+00  0.00000000000E+00  0.11639942771E+04  0.11639942771E+04  0.00000000000E+00 0. -1.
         22   -1    0    0    0    0 -0.00000000000E+00 -0.00000000000E+00 -0.79680555324E+03  0.79680555324E+03  0.00000000000E+00 0.  1.
        -24    2    1    2    0    0 -0.69204443065E+02  0.23773569518E+03 -0.69292104388E+03  0.74015907518E+03  0.79927265855E+02 0.  0.
         25    2    1    2    0    0  0.13074363135E+03 -0.30411232139E+03  0.34099269963E+03  0.49142698643E+03  0.12508501360E+03 0.  0.
         24    2    1    2    0    0 -0.61539188282E+02  0.66376626217E+02  0.71911706811E+03  0.72921376873E+03  0.80189991066E+02 0.  0.
        -11    1    5    5    0    0 -0.41619281815E+02 -0.67684237048E+01  0.33887802374E+03  0.34149127537E+03  0.00000000000E+00 0.  1.
         12    1    5    5    0    0 -0.19919906468E+02  0.73145049922E+02  0.38023904436E+03  0.38772249336E+03  0.00000000000E+00 0. -1.
         11    1    3    3    0    0 -0.22485859531E+02  0.72791682886E+02 -0.33149013063E+03  0.34013225322E+03  0.00000000000E+00 0. -1.
        -12    1    3    3    0    0 -0.46718583534E+02  0.16494401229E+03 -0.36143091324E+03  0.40002682196E+03  0.00000000000E+00 0.  1.
          5    1    4    4  501    0  0.12145983796E+03 -0.20617854294E+03  0.16811405533E+03  0.29247545505E+03  0.41800000000E+01 0. -1.
         -5    1    4    4    0  501  0.92837933851E+01 -0.97933778450E+02  0.17287864430E+03  0.19895153138E+03  0.41800000000E+01 0. -1.
</event>
<event>
11    1  0.8037748E-009  0.1647272E+03  0.7561462E-02  0.1082714E+00
         22   -1    0    0    0    0  0.00000000000E+00  0.00000000000E+00  0.15338029334E+04  0.15338029334E+04  0.00000000000E+00 0.  1.
         22   -1    0    0    0    0 -0.00000000000E+00 -0.00000000000E+00 -0.30031513447E+03  0.30031513447E+03  0.00000000000E+00 0.  1.
         24    2    1    2    0    0  0.10518301388E+03 -0.24421021893E+02 -0.25210307530E+03  0.28590219958E+03  0.80772857014E+02 0.  0.
         25    2    1    2    0    0 -0.73891469219E+02  0.93979231610E+02  0.23055436530E+03  0.28826312630E+03  0.12509304310E+03 0.  0.
        -24    2    1    2    0    0 -0.31291544661E+02 -0.69558209717E+02  0.12550365089E+04  0.12599527420E+04  0.80912100271E+02 0.  0.
        -13    1    3    3    0    0  0.11146500912E+03 -0.39659811292E+02 -0.21851555310E+03  0.24848822072E+03  0.00000000000E+00 0.  1.
         14    1    3    3    0    0 -0.62819952429E+01  0.15238789399E+02 -0.33587522202E+02  0.37413978861E+02  0.00000000000E+00 0. -1.
         11    1    5    5    0    0  0.12798158025E+02 -0.51224495870E+02  0.38457158969E+03  0.38817914605E+03  0.00000000000E+00 0. -1.
        -12    1    5    5    0    0 -0.44089702686E+02 -0.18333713847E+02  0.87046491921E+03  0.87177359591E+03  0.00000000000E+00 0.  1.
          5    1    4    4  501    0  0.13133356471E+01  0.14489485050E+02 -0.13805772845E+02  0.20487600918E+02  0.41800000000E+01 0. -1.
         -5    1    4    4    0  501 -0.75204804866E+02  0.79489746560E+02  0.24436013814E+03  0.26777552539E+03  0.41800000000E+01 0. -1.
</event>
<event>
11    1  0.8037748E-009  0.1546867E+03  0.7561462E-02  0.1092184E+00
         22   -1    0    0    0    0  0.00000000000E+00  0.00000000000E+00  0.23051319997E+04  0.23051319997E+04  0.00000000000E+00 0. -1.
         22   -1    0    0    0    0 -0.00000000000E+00 -0.00000000000E+00 -0.63974600793E+03  0.63974600793E+03  0.00000000000E+00 0. -1.
        -24    2    1    2    0    0  0.37961611350E+02 -0.82558510440E+02 -0.62059861662E+03  0.63256684637E+03  0.82104692913E+02 0.  0.
         25    2    1    2    0    0 -0.43622232837E+02  0.92658375664E+02  0.51949807434E+03  0.54407201081E+03  0.12509048695E+03 0.  0.
         24    2    1    2    0    0  0.56606214868E+01 -0.10099865223E+02  0.17664865340E+04  0.17682391505E+04  0.77852220931E+02 0.  0.
        -11    1    5    5    0    0  0.47745001058E+01 -0.14145444943E+02  0.62897012843E+02  0.64644595199E+02  0.00000000000E+00 0.  1.
         12    1    5    5    0    0  0.88612138101E+00  0.40455797198E+01  0.17035895212E+04  0.17035945553E+04  0.00000000000E+00 0. -1.
         11    1    3    3    0    0  0.48628817167E+02 -0.55440002175E+02 -0.56501690386E+03  0.56980914116E+03  0.00000000000E+00 0. -1.
        -12    1    3    3    0    0 -0.10667205817E+02 -0.27118508266E+02 -0.55581712754E+02  0.62757705209E+02  0.00000000000E+00 0.  1.
          5    1    4    4  501    0 -0.22690011945E+02  0.12257278332E+03  0.41205691419E+03  0.43051979837E+03  0.41800000000E+01 0.  1.
         -5    1    4    4    0  501 -0.20932220892E+02 -0.29914407653E+02  0.10744116015E+03  0.11355221244E+03  0.41800000000E+01 0.  1.
</event>
<event>
11    1  0.8037748E-009  0.4344508E+03  0.7561462E-02  0.9553244E-01
         22   -1    0    0    0    0  0.00000000000E+00  0.00000000000E+00  0.21233602565E+04  0.21233602565E+04  0.00000000000E+00 0.  1.
         22   -1    0    0    0    0 -0.00000000000E+00 -0.00000000000E+00 -0.12487469689E+04  0.12487469689E+04  0.00000000000E+00 0.  1.
        -24    2    1    2    0    0  0.99708917542E+02 -0.17741822532E+03 -0.40027713785E+03  0.45707532444E+03  0.85305159376E+02 0.  0.
         25    2    1    2    0    0  0.12291057212E+03  0.52584608879E+03 -0.70201411035E+03  0.89447913235E+03  0.12509192318E+03 0.  0.
         24    2    1    2    0    0 -0.22261948966E+03 -0.34842786347E+03  0.19769045358E+04  0.20205527686E+04  0.59334087289E+02 0.  0.
        -13    1    5    5    0    0 -0.91764095562E+02 -0.15688867774E+03  0.73254599087E+03  0.75475713655E+03  0.00000000000E+00 0.  1.
         14    1    5    5    0    0 -0.13085539410E+03 -0.19153918573E+03  0.12443585449E+04  0.12657956321E+04  0.00000000000E+00 0. -1.
         11    1    3    3    0    0  0.55617276579E+02 -0.59331517297E+02 -0.85503081534E+02  0.11800121758E+03  0.00000000000E+00 0. -1.
        -12    1    3    3    0    0  0.44091640963E+02 -0.11808670803E+03 -0.31477405631E+03  0.33907410686E+03  0.00000000000E+00 0.  1.
          5    1    4    4  501    0  0.13303956053E+03  0.34921018966E+03 -0.52251791762E+03  0.64240931490E+03  0.41800000000E+01 0. -1.
         -5    1    4    4    0  501 -0.10128988413E+02  0.17663589913E+03 -0.17949619272E+03  0.25206981745E+03  0.41800000000E+01 0. -1.
</event>
<event>
11    1  0.8037748E-009  0.1420784E+03  0.7561462E-02  0.1105260E+00
         22   -1    0    0    0    0  0.00000000000E+00  0.00000000000E+00  0.26879953656E+02  0.26879953656E+02  0.00000000000E+00 0.  1.
         22   -1    0    0    0    0 -0.00000000000E+00 -0.00000000000E+00 -0.10718231110E+04  0.10718231110E+04  0.00000000000E+00 0. -1.
        -24    2    1    2    0    0 -0.80980052855E+01  0.83432857295E+01 -0.43416464240E+03  0.44163922203E+03  0.80069205217E+02 0.  0.
         25    2    1    2    0    0  0.31776731641E+02 -0.66345905905E+02 -0.34281389659E+03  0.37226240871E+03  0.12508554408E+03 0.  0.
         24    2    1    2    0    0 -0.23678726356E+02  0.58002620176E+02 -0.26796461832E+03  0.28480143388E+03  0.73360984438E+02 0.  0.
        -13    1    5    5    0    0 -0.43017070742E+02  0.12828740249E+02 -0.16004545117E+03  0.16622151302E+03  0.00000000000E+00 0.  1.
         14    1    5    5    0    0  0.19338344387E+02  0.45173879926E+02 -0.10791916716E+03  0.11857992086E+03  0.00000000000E+00 0. -1.
         13    1    3    3    0    0  0.24302035265E+02  0.26958804039E+02 -0.30579773478E+03  0.30794418428E+03  0.00000000000E+00 0. -1.
        -14    1    3    3    0    0 -0.32400040550E+02 -0.18615518309E+02 -0.12836690762E+03  0.13369503776E+03  0.00000000000E+00 0.  1.
          5    1    4    4  501    0  0.25795591152E+02 -0.86179538951E+02 -0.33903822403E+03  0.35079440590E+03  0.41800000000E+01 0.  1.
         -5    1    4    4    0  501  0.59811404895E+01  0.19833633046E+02 -0.37756725594E+01  0.21468002809E+02  0.41800000000E+01 0.  1.
</event>
<event>
11    1  0.8037748E-009  0.3003670E+03  0.7561462E-02  0.1000036E+00
         22   -1    0    0    0    0  0.00000000000E+00  0.00000000000E+00  0.49094193294E+03  0.49094193294E+03  0.00000000000E+00 0. -1.
         22   -1    0    0    0    0 -0.00000000000E+00 -0.00000000000E+00 -0.10484709508E+04  0.10484709508E+04  0.00000000000E+00 0. -1.
        -24    2    1    2    0    0  0.33600391717E+02 -0.75741564746E+00 -0.54841157706E+03  0.55520809257E+03  0.79819848388E+02 0.  0.
         25    2    1    2    0    0 -0.22842128730E+03  0.18880589747E+03 -0.39293335071E+03  0.50780592805E+03  0.12508513521E+03 0.  0.
         24    2    1    2    0    0  0.19482089558E+03 -0.18804848182E+03  0.38381590992E+03  0.47639886312E+03  0.79522394387E+02 0.  0.
        -13    1    5    5    0    0  0.45016512721E+02 -0.54499297899E+01  0.50295356546E+02  0.67718616660E+02  0.00000000000E+00 0.  1.
         14    1    5    5    0    0  0.14980438286E+03 -0.18259855203E+03  0.33352055337E+03  0.40868024646E+03  0.00000000000E+00 0. -1.
         13    1    3    3    0    0  0.37334331550E+02  0.29126639625E+01 -0.54868872246E+03  0.54996513533E+03  0.00000000000E+00 0. -1.
        -14    1    3    3    0    0 -0.37339398321E+01 -0.36700796100E+01  0.27714540063E+00  0.52429572368E+01  0.00000000000E+00 0.  1.
          5    1    4    4  501    0 -0.95072295538E+02  0.47628598472E+02 -0.59506078387E+02  0.12192485610E+03  0.41800000000E+01 0.  1.
         -5    1    4    4    0  501 -0.13334899176E+03  0.14117729899E+03 -0.33342727232E+03  0.38588107194E+03  0.41800000000E+01 0.  1.
</event>
<event>
11    1  0.8037748E-009  0.2480447E+03  0.7561462E-02  0.1024946E+00
         22   -1    0    0    0    0  0.00000000000E+00  0.00000000000E+00  0.55115041543E+03  0.55115041543E+03  0.00000000000E+00 0. -1.
         22   -1    0    0    0    0 -0.00000000000E+00 -0.00000000000E+00 -0.58223557721E+03  0.58223557721E+03  0.00000000000E+00 0.  1.
         24    2    1    2    0    0 -0.70944595808E+02  0.19539606846E+03 -0.43546142233E+03  0.48979268093E+03  0.84008694262E+02 0.  0.
         25    2    1    2    0    0  0.12591247028E+03 -0.22769239480E+03  0.74343943252E+02  0.29811538049E+03  0.12509189169E+03 0.  0.
        -24    2    1    2    0    0 -0.54967874467E+02  0.32296326338E+02  0.33003231730E+03  0.34547793121E+03  0.79806958169E+02 0.  0.
        -11    1    3    3    0    0 -0.75316287739E+02  0.13989754682E+03 -0.25052755000E+03  0.29666128853E+03  0.00000000000E+00 0.  1.
         12    1    3    3    0    0  0.43716919306E+01  0.55498521641E+02 -0.18493387233E+03  0.19313139240E+03  0.00000000000E+00 0. -1.
         13    1    5    5    0    0  0.17159647061E+01  0.38172242536E+02  0.19829360095E+03  0.20194161733E+03  0.00000000000E+00 0. -1.
        -14    1    5    5    0    0 -0.56683839173E+02 -0.58759161981E+01  0.13173871635E+03  0.14353631388E+03  0.00000000000E+00 0.  1.
          5    1    4    4  501    0 -0.50628788477E+01 -0.89638544134E+02 -0.89925135391E+01  0.90327399146E+02  0.41800000000E+01 0.  1.
         -5    1    4    4    0  501  0.13097534912E+03 -0.13805385066E+03  0.83336456791E+02  0.20778798134E+03  0.41800000000E+01 0.  1.
</event>
<event>
11    1  0.8037748E-009  0.1428739E+03  0.7561462E-02  0.1104391E+00
         22   -1    0    0    0    0  0.00000000000E+00  0.00000000000E+00  0.92415291454E+03  0.92415291454E+03  0.00000000000E+00 0.  1.
         22   -1    0    0    0    0 -0.00000000000E+00 -0.00000000000E+00 -0.42821269968E+03  0.42821269968E+03  0.00000000000E+00 0.  1.
        -24    2    1    2    0    0 -0.25538702863E+02 -0.66211388845E+02 -0.39999697157E+03  0.41416978121E+03  0.80640294187E+02 0.  0.
         25    2    1    2    0    0 -0.81835697439E+01  0.10401150993E+02  0.21096344695E+03  0.24561763843E+03  0.12508914263E+03 0.  0.
         24    2    1    2    0    0  0.33722272607E+02  0.55810237851E+02  0.68497373947E+03  0.69257819458E+03  0.78889527363E+02 0.  0.
        -13    1    5    5    0    0  0.26613726940E+01  0.68305004970E+02  0.49117545674E+03  0.49590925169E+03  0.00000000000E+00 0.  1.
         14    1    5    5    0    0  0.31060899913E+02 -0.12494767119E+02  0.19379828273E+03  0.19666894289E+03  0.00000000000E+00 0. -1.
         13    1    3    3    0    0  0.23299434715E+01  0.15888155312E+02 -0.28723983058E+02  0.32907891432E+02  0.00000000000E+00 0. -1.
        -14    1    3    3    0    0 -0.27868646334E+02 -0.82099544156E+02 -0.37127298851E+03  0.38126188978E+03  0.00000000000E+00 0.  1.
          5    1    4    4  501    0 -0.25617578187E+02 -0.53120467763E+02  0.11229987733E+03  0.12691248660E+03  0.41800000000E+01 0.  1.
         -5    1    4    4    0  501  0.17434008443E+02  0.63521618756E+02  0.98663569623E+02  0.11870515183E+03  0.41800000000E+01 0.  1.
</event>
<event>
11    1  0.8037748E-009  0.1555454E+03  0.7561462E-02  0.1091343E+00
         22   -1    0    0    0    0  0.00000000000E+00  0.00000000000E+00  0.18625115841E+04  0.18625115841E+04  0.00000000000E+00 0.  1.
         22   -1    0    0    0    0 -0.00000000000E+00 -0.00000000000E+00 -0.31548768179E+02  0.31548768179E+02  0.00000000000E+00 0. -1.
         24    2    1    2    0    0 -0.21461552640E+02  0.82356902462E+02  0.16052400805E+03  0.19813023610E+03  0.79021362120E+02 0.  0.
         25    2    1    2    0    0 -0.11238117678E+02 -0.13990137524E+03  0.10125788120E+04  0.10298843583E+04  0.12508897162E+03 0.  0.
        -24    2    1    2    0    0  0.32699670318E+02  0.57544472776E+02  0.65785999590E+03  0.66604575794E+03  0.80352614603E+02 0.  0.
        -11    1    3    3    0    0  0.24020714895E+02  0.24007830917E+01  0.34367897936E+02  0.41998939416E+02  0.00000000000E+00 0.  1.
         12    1    3    3    0    0 -0.45482267534E+02  0.79956119370E+02  0.12615611012E+03  0.15613129668E+03  0.00000000000E+00 0. -1.
         11    1    5    5    0    0 -0.26047321097E+02  0.14518781836E+02  0.14430292583E+03  0.14735193370E+03  0.00000000000E+00 0. -1.
        -12    1    5    5    0    0  0.58746991415E+02  0.43025690940E+02  0.51355707007E+03  0.51869382423E+03  0.00000000000E+00 0.  1.
          5    1    4    4  501    0  0.15054727550E+02 -0.66444856040E+02  0.80824444051E+03  0.81112151478E+03  0.41800000000E+01 0.  1.
         -5    1    4    4    0  501 -0.26292845228E+02 -0.73456519197E+02  0.20433437148E+03  0.21876284349E+03  0.41800000000E+01 0.  1.
</event>
<event>
11    1  0.8037748E-009  0.1643316E+03  0.7561462E-02  0.1083073E+00
         22   -1    0    0    0    0  0.00000000000E+00  0.00000000000E+00  0.81167698010E+03  0.81167698010E+03  0.00000000000E+00 0.  1.
         22   -1    0    0    0    0 -0.00000000000E+00 -0.00000000000E+00 -0.78786180993E+03  0.78786180993E+03  0.00000000000E+00 0. -1.
        -24    2    1    2    0    0  0.79845997616E+02 -0.45399871776E+02 -0.73965426435E+03  0.74978871806E+03  0.81597544404E+02 0.  0.
         25    2    1    2    0    0 -0.13572683074E+02 -0.56017996684E+02  0.99060506687E+02  0.16965305694E+03  0.12508773747E+03 0.  0.
         24    2    1    2    0    0 -0.66273314542E+02  0.10141786846E+03  0.66440892784E+03  0.68009701504E+03  0.80093634055E+02 0.  0.
        -13    1    5    5    0    0 -0.81636617730E+02  0.10072245632E+03  0.58214161260E+03  0.59640456712E+03  0.00000000000E+00 0.  1.
         14    1    5    5    0    0  0.15363303189E+02  0.69541214476E+00  0.82267315237E+02  0.83692447922E+02  0.00000000000E+00 0. -1.
         11    1    3    3    0    0  0.85770668446E+02 -0.28369037986E+02 -0.70460586991E+03  0.71037373389E+03  0.00000000000E+00 0. -1.
        -12    1    3    3    0    0 -0.59246708296E+01 -0.17030833790E+02 -0.35048394444E+02  0.39414984170E+02  0.00000000000E+00 0.  1.
          5    1    4    4  501    0  0.21377789918E+02 -0.59400557791E+02 -0.12616688442E+01  0.63281121798E+02  0.41800000000E+01 0.  1.
         -5    1    4    4    0  501 -0.34950472993E+02  0.33825611074E+01  0.10032217553E+03  0.10637193514E+03  0.41800000000E+01 0.  1.
</event>
<event>
11    1  0.8037748E-009  0.4767383E+03  0.7561462E-02  0.9447057E-01
         22   -1    0    0    0    0  0.00000000000E+00  0.00000000000E+00  0.89147026342E+03  0.89147026342E+03  0.00000000000E+00 0. -1.
         22   -1    0    0    0    0 -0.00000000000E+00 -0.00000000000E+00 -0.59985557007E+03  0.59985557007E+03  0.00000000000E+00 0.  1.
         24    2    1    2    0    0  0.50696713061E+02 -0.47414686478E+03 -0.21974923152E+03  0.53106952721E+03  0.79747801757E+02 0.  0.
         25    2    1    2    0    0  0.22890246571E+03  0.42232413030E+03  0.21237087444E+03  0.53991105906E+03  0.12509417870E+03 0.  0.
        -24    2    1    2    0    0 -0.27959917877E+03  0.51822734479E+02  0.29899305043E+03  0.42034524721E+03  0.80199663764E+02 0.  0.
        -13    1    3    3    0    0  0.30779538275E+02 -0.10204546637E+03 -0.20605305965E+02  0.10855982598E+03  0.00000000000E+00 0.  1.
         14    1    3    3    0    0  0.19917174787E+02 -0.37210139841E+03 -0.19914392555E+03  0.42250970123E+03  0.00000000000E+00 0. -1.
         11    1    5    5    0    0 -0.15763779794E+03  0.63765608416E+02  0.20210887985E+03  0.26412824058E+03  0.00000000000E+00 0. -1.
        -12    1    5    5    0    0 -0.12196138083E+03 -0.11942873936E+02  0.96884170574E+02  0.15621700663E+03  0.00000000000E+00 0.  1.
          5    1    4    4  501    0  0.54000984448E+02  0.23042899952E+03  0.10240843589E+03  0.25791198166E+03  0.41800000000E+01 0. -1.
         -5    1    4    4    0  501  0.17490148126E+03  0.19189513078E+03  0.10996243855E+03  0.28199907740E+03  0.41800000000E+01 0. -1.
</event>
<event>
11    1  0.8037748E-009  0.1348600E+03  0.7561462E-02  0.1113438E+00
         22   -1    0    0    0    0  0.00000000000E+00  0.00000000000E+00  0.62950849643E+03  0.62950849643E+03  0.00000000000E+00 0. -1.
         22   -1    0    0    0    0 -0.00000000000E+00 -0.00000000000E+00 -0.48573622029E+03  0.48573622029E+03  0.00000000000E+00 0.  1.
        -24    2    1    2    0    0  0.42447735204E+02 -0.47082455849E+02 -0.25585685958E+03  0.27529089532E+03  0.79396325985E+02 0.  0.
         25    2    1    2    0    0  0.35488867966E+01  0.33383006033E+02 -0.19730203048E+03  0.23601429510E+03  0.12509051353E+03 0.  0.
         24    2    1    2    0    0 -0.45996622001E+02  0.13699449816E+02  0.59693116620E+03  0.60393952630E+03  0.78184206110E+02 0.  0.
        -13    1    5    5    0    0 -0.15670565970E+02  0.45302440353E+02  0.31457651202E+03  0.31820788748E+03  0.00000000000E+00 0.  1.
         14    1    5    5    0    0 -0.30326056031E+02 -0.31602990538E+02  0.28235465418E+03  0.28573163882E+03  0.00000000000E+00 0. -1.
         13    1    3    3    0    0 -0.38174084922E+01 -0.32708412247E+02 -0.30836401270E+02  0.45114260302E+02  0.00000000000E+00 0. -1.
        -14    1    3    3    0    0  0.46265143696E+02 -0.14374043601E+02 -0.22502045831E+03  0.23017663502E+03  0.00000000000E+00 0.  1.
          5    1    4    4  501    0  0.21094174616E+02  0.76482926553E+02 -0.97146094346E+02  0.12549676611E+03  0.41800000000E+01 0.  1.
         -5    1    4    4    0  501 -0.17545287819E+02 -0.43099920520E+02 -0.10015593613E+03  0.11051752900E+03  0.41800000000E+01 0.  1.
</event>
<event>
11    1  0.8037748E-009  0.1480294E+03  0.7561462E-02  0.1098910E+00
         22   -1    0    0    0    0  0.00000000000E+00  0.00000000000E+00  0.10943783375E+04  0.10943783375E+04  0.00000000000E+00 0.  1.
         22   -1    0    0    0    0 -0.00000000000E+00 -0.00000000000E+00 -0.98534903589E+02  0.98534903589E+02  0.00000000000E+00 0.  1.
        -24    2    1    2    0    0  0.71563210927E+02  0.12753178861E+01 -0.34977190530E+01  0.10968158869E+03  0.83035518099E+02 0.  0.
         25    2    1    2    0    0 -0.11401268067E+03 -0.63497265549E+02  0.17541439636E+03  0.25189129495E+03  0.12509284527E+03 0.  0.
         24    2    1    2    0    0  0.42449469742E+02  0.62221947663E+02  0.82392675657E+03  0.83134035741E+03  0.81227836392E+02 0.  0.
        -13    1    5    5    0    0  0.38461886283E+02  0.67355349104E+02  0.82017652443E+03  0.82383590051E+03  0.00000000000E+00 0.  1.
         14    1    5    5    0    0  0.39875834590E+01 -0.51334014405E+01  0.37502321499E+01  0.75044569004E+01  0.00000000000E+00 0. -1.
         13    1    3    3    0    0 -0.57134580522E+01 -0.22258484911E+02  0.14161510324E+02  0.26993186697E+02  0.00000000000E+00 0. -1.
        -14    1    3    3    0    0  0.77276668979E+02  0.23533802797E+02 -0.17659229377E+02  0.82688401996E+02  0.00000000000E+00 0.  1.
          5    1    4    4  501    0 -0.32858756844E+02 -0.31547299065E+02 -0.10109449473E+02  0.46846593775E+02  0.41800000000E+01 0. -1.
         -5    1    4    4    0  501 -0.81153923825E+02 -0.31949966484E+02  0.18552384583E+03  0.20504470118E+03  0.41800000000E+01 0. -1.
</event>
<event>
11    1  0.8037748E-009  0.1335912E+03  0.7561462E-02  0.1114934E+00
         22   -1    0    0    0    0  0.00000000000E+00  0.00000000000E+00  0.22677820614E+03  0.22677820614E+03  0.00000000000E+00 0. -1.
         22   -1    0    0    0    0 -0.00000000000E+00 -0.00000000000E+00 -0.12927690803E+04  0.12927690803E+04  0.00000000000E+00 0. -1.
         24    2    1    2    0    0  0.43064717785E+02  0.16577964202E+02 -0.11853951774E+04  0.11890860995E+04  0.81453216770E+02 0.  0.
         25    2    1    2    0    0 -0.79807867247E+02  0.12517481977E+02 -0.34428178707E+02  0.15283968990E+03  0.12509471728E+03 0.  0.
        -24    2    1    2    0    0  0.36743149462E+02 -0.29095446179E+02  0.15383248197E+03  0.17762149705E+03  0.75421215068E+02 0.  0.
        -11    1    3    3    0    0 -0.21830382612E+02  0.67842165760E+01 -0.16413851505E+03  0.16572279059E+03  0.00000000000E+00 0.  1.
         12    1    3    3    0    0  0.64895100397E+02  0.97937476260E+01 -0.10212566623E+04  0.10233633089E+04  0.00000000000E+00 0. -1.
         11    1    5    5    0    0  0.14686454436E+02 -0.26331312610E+02  0.15239172020E+03  0.15534563512E+03  0.00000000000E+00 0. -1.
        -12    1    5    5    0    0  0.22056695027E+02 -0.27641335691E+01  0.14407617759E+01  0.22275861922E+02  0.00000000000E+00 0.  1.
          5    1    4    4  501    0 -0.64126785888E+02  0.46608505383E+02 -0.66299530169E+02  0.10342967438E+03  0.41800000000E+01 0. -1.
         -5    1    4    4    0  501 -0.15681081359E+02 -0.34091023406E+02  0.31871351462E+02  0.49410015518E+02  0.41800000000E+01 0. -1.
</event>
<event>
11    1  0.8037748E-009  0.1438869E+03  0.7561462E-02  0.1103294E+00
         22   -1    0    0    0    0  0.00000000000E+00  0.00000000000E+00  0.14939211190E+03  0.14939211190E+03  0.00000000000E+00 0. -1.
         22   -1    0    0    0    0 -0.00000000000E+00 -0.00000000000E+00 -0.17492917991E+04  0.17492917991E+04  0.00000000000E+00 0.  1.
         24    2    1    2    0    0 -0.67551242025E+01  0.20130331900E+02 -0.12508363126E+04  0.12536350854E+04  0.80985088190E+02 0.  0.
         25    2    1    2    0    0  0.65912512153E+02  0.19741158802E+02 -0.46505072780E+03  0.48647114337E+03  0.12509125188E+03 0.  0.
        -24    2    1    2    0    0 -0.59157387951E+02 -0.39871490702E+02  0.11598735320E+03  0.15857768222E+03  0.81267969558E+02 0.  0.
        -11    1    3    3    0    0  0.18094347884E+02  0.21338771622E+02 -0.11258054095E+04  0.11261529952E+04  0.00000000000E+00 0.  1.
         12    1    3    3    0    0 -0.24849472086E+02 -0.12084397219E+01 -0.12503090307E+03  0.12748209016E+03  0.00000000000E+00 0. -1.
         13    1    5    5    0    0 -0.24093165648E+02  0.23581702820E+02  0.51478277108E+02  0.61535277304E+02  0.00000000000E+00 0. -1.
        -14    1    5    5    0    0 -0.35064222302E+02 -0.63453193521E+02  0.64509076089E+02  0.97042404914E+02  0.00000000000E+00 0.  1.
          5    1    4    4  501    0 -0.29827827091E+02 -0.60927605323E+01 -0.42656137887E+02  0.52572231257E+02  0.41800000000E+01 0. -1.
         -5    1    4    4    0  501  0.95740339244E+02  0.25833919334E+02 -0.42239458991E+03  0.43389891211E+03  0.41800000000E+01 0. -1.
</event>
<event>
11    1  0.8037748E-009  0.1532728E+03  0.7561462E-02  0.1093581E+00
         22   -1    0    0    0    0  0.00000000000E+00  0.00000000000E+00  0.23439664819E+04  0.23439664819E+04  0.00000000000E+00 0. -1.
         22   -1    0    0    0    0 -0.00000000000E+00 -0.00000000000E+00 -0.21683677693E+03  0.21683677693E+03  0.00000000000E+00 0.  1.
         24    2    1    2    0    0 -0.64831141329E+02  0.55619622215E+02 -0.16489580637E+03  0.20167217202E+03  0.78641075436E+02 0.  0.
         25    2    1    2    0    0  0.69991315988E+02 -0.13125261485E+03  0.26300396285E+03  0.32701739462E+03  0.12507301344E+03 0.  0.
        -24    2    1    2    0    0 -0.51601746597E+01  0.75632992635E+02  0.20290215485E+04  0.20321136922E+04  0.82526582459E+02 0.  0.
        -13    1    3    3    0    0 -0.23854819253E+02  0.35209314631E+02 -0.14613675276E+03  0.15219953595E+03  0.00000000000E+00 0.  1.
         14    1    3    3    0    0 -0.40976322075E+02  0.20410307584E+02 -0.18759053615E+02  0.49472636063E+02  0.00000000000E+00 0. -1.
         11    1    5    5    0    0  0.34300864736E+02  0.59406608199E+02  0.11300142750E+04  0.11320944997E+04  0.00000000000E+00 0. -1.
        -12    1    5    5    0    0 -0.39461039396E+02  0.16226384436E+02  0.89900727348E+03  0.90001919255E+03  0.00000000000E+00 0.  1.
          5    1    4    4  501    0  0.12288282766E+02 -0.10392885714E+03  0.76095714921E+02  0.12946134353E+03  0.41800000000E+01 0.  1.
         -5    1    4    4    0  501  0.57703033222E+02 -0.27323757710E+02  0.18690824793E+03  0.19755605109E+03  0.41800000000E+01 0.  1.
</event>
<event>
11    1  0.8037748E-009  0.1304322E+03  0.7561462E-02  0.1118739E+00
         22   -1    0    0    0    0  0.00000000000E+00  0.00000000000E+00  0.18356102085E+04  0.18356102085E+04  0.00000000000E+00 0.  1.
         22   -1    0    0    0    0 -0.00000000000E+00 -0.00000000000E+00 -0.20103240993E+04  0.20103240993E+04  0.00000000000E+00 0.  1.
        -24    2    1    2    0    0  0.47525399417E+01  0.31376587461E+02 -0.19980150530E+04  0.19999541704E+04  0.82130718180E+02 0.  0.
         25    2    1    2    0    0 -0.40623158902E+02 -0.21538021421E+02  0.44004214615E+03  0.45978167898E+03  0.12509186436E+03 0.  0.
         24    2    1    2    0    0  0.35870618960E+02 -0.98385660392E+01  0.13832590161E+04  0.13861984584E+04  0.82201957747E+02 0.  0.
        -13    1    5    5    0    0  0.40043741352E+02  0.39128443473E+01  0.13402171004E+04  0.13408209007E+04  0.00000000000E+00 0.  1.
         14    1    5    5    0    0 -0.41731223918E+01 -0.13751410387E+02  0.43041915717E+02  0.45377557743E+02  0.00000000000E+00 0. -1.
         11    1    3    3    0    0 -0.31595919951E+02 -0.98329127096E+01 -0.76446553407E+03  0.76518137792E+03  0.00000000000E+00 0. -1.
        -12    1    3    3    0    0  0.36348459893E+02  0.41209500170E+02 -0.12335495189E+04  0.12347727925E+04  0.00000000000E+00 0.  1.
          5    1    4    4  501    0  0.17021259792E+02 -0.32272164764E+02  0.35796472346E+02  0.51284264018E+02  0.41800000000E+01 0.  1.
         -5    1    4    4    0  501 -0.57644418694E+02  0.10734143343E+02  0.40424567381E+03  0.40849741496E+03  0.41800000000E+01 0.  1.
</event>
<event>
11    1  0.8037748E-009  0.1943040E+03  0.7561462E-02  0.1058626E+00
         22   -1    0    0    0    0  0.00000000000E+00  0.00000000000E+00  0.11193198500E+04  0.11193198500E+04  0.00000000000E+00 0. -1.
         22   -1    0    0    0    0 -0.00000000000E+00 -0.00000000000E+00 -0.12156600464E+04  0.12156600464E+04  0.00000000000E+00 0. -1.
         24    2    1    2    0    0  0.10195548396E+03  0.27798488530E+02 -0.11092655160E+04  0.11171609206E+04  0.80067851633E+02 0.  0.
         25    2    1    2    0    0 -0.21162010294E+03  0.66128122521E+02  0.74816511443E+02  0.26533241550E+03  0.12509110191E+03 0.  0.
        -24    2    1    2    0    0  0.10966461898E+03 -0.93926611051E+02  0.93810880809E+03  0.95248656037E+03  0.79586273659E+02 0.  0.
        -13    1    3    3    0    0  0.88115181617E+02  0.31650549690E+02 -0.56493827337E+03  0.57264412618E+03  0.00000000000E+00 0.  1.
         14    1    3    3    0    0  0.13840302340E+02 -0.38520611599E+01 -0.54432724260E+03  0.54451679439E+03  0.00000000000E+00 0. -1.
         13    1    5    5    0    0  0.76734644981E+02 -0.24376198817E+02  0.33763373496E+03  0.34710076893E+03  0.00000000000E+00 0. -1.
        -14    1    5    5    0    0  0.32929973998E+02 -0.69550412234E+02  0.60047507313E+03  0.60538579144E+03  0.00000000000E+00 0.  1.
          5    1    4    4  501    0 -0.15733073668E+03  0.96024250279E+02  0.83890862209E+02  0.20255558869E+03  0.41800000000E+01 0. -1.
         -5    1    4    4    0  501 -0.54289366256E+02 -0.29896127759E+02 -0.90743507667E+01  0.62776826817E+02  0.41800000000E+01 0. -1.
</event>
<event>
11    1  0.8037748E-009  0.1626393E+03  0.7561462E-02  0.1084621E+00
         22   -1    0    0    0    0  0.00000000000E+00  0.00000000000E+00  0.13092788110E+03  0.13092788110E+03  0.00000000000E+00 0.  1.
         22   -1    0    0    0    0 -0.00000000000E+00 -0.00000000000E+00 -0.46135245680E+03  0.46135245680E+03  0.00000000000E+00 0.  1.
        -24    2    1    2    0    0  0.52659344485E+02 -0.10990475623E+03 -0.22239867381E+03  0.26567518333E+03  0.79183779436E+02 0.  0.
         25    2    1    2    0    0  0.41789954706E+02  0.88138316249E+02 -0.12093116167E+03  0.19946590877E+03  0.12509012668E+03 0.  0.
         24    2    1    2    0    0 -0.94449299192E+02  0.21766439981E+02  0.12905259774E+02  0.12713924580E+03  0.81261270396E+02 0.  0.
        -11    1    5    5    0    0 -0.61352189569E+02 -0.24955963697E+02  0.20609304111E+02  0.69365947733E+02  0.00000000000E+00 0.  1.
         12    1    5    5    0    0 -0.33097109623E+02  0.46722403678E+02 -0.77040443371E+01  0.57773298070E+02  0.00000000000E+00 0. -1.
         13    1    3    3    0    0  0.43210626127E+02 -0.13350607986E+02 -0.97887858408E+02  0.10783056045E+03  0.00000000000E+00 0. -1.
        -14    1    3    3    0    0  0.94487183582E+01 -0.96554148243E+02 -0.12451081540E+03  0.15784462288E+03  0.00000000000E+00 0.  1.
          5    1    4    4  501    0  0.30824957950E+02 -0.21589686180E+02 -0.30438221976E+01  0.37987232533E+02  0.41800000000E+01 0. -1.
         -5    1    4    4    0  501  0.10964996756E+02  0.10972800243E+03 -0.11788733947E+03  0.16147867624E+03  0.41800000000E+01 0. -1.
</event>
<event>
11    1  0.1164523E-008  0.1478896E+03  0.7561462E-02  0.1099055E+00
         22   -1    0    0    0    0  0.00000000000E+00  0.00000000000E+00  0.83533775711E+03  0.83533775711E+03  0.00000000000E+00 0. -1.
         22   -1    0    0    0    0 -0.00000000000E+00 -0.00000000000E+00 -0.56787849859E+03  0.56787849859E+03  0.00000000000E+00 0. -1.
         24    2    1    2    0    0 -0.56182286714E+02  0.14982360735E+02 -0.29438629661E+03  0.31292601540E+03  0.88760796603E+02 0.  0.
         25    2    1    2    0    0  0.50943129757E+02 -0.93507831584E+02 -0.23388892884E+03  0.28581546722E+03  0.12509010045E+03 0.  0.
        -24    2    1    2    0    0  0.52391569571E+01  0.78525470849E+02  0.79573448397E+03  0.80447477308E+03  0.88275665982E+02 0.  0.
        -13    1    3    3    0    0 -0.59107759794E+02 -0.22694770801E+02 -0.13483858685E+03  0.14896383586E+03  0.00000000000E+00 0.  1.
         14    1    3    3    0    0  0.29254730792E+01  0.37677131536E+02 -0.15954770975E+03  0.16396217954E+03  0.00000000000E+00 0. -1.
         11    1    5    5    0    0  0.62638672035E+01  0.31843324631E+02  0.66251237490E+03  0.66330677688E+03  0.00000000000E+00 0. -1.
        -12    1    5    5    0    0 -0.10247102464E+01  0.46682146218E+02  0.13322210907E+03  0.14116799620E+03  0.00000000000E+00 0.  1.
          5    1    4    4  501    0 -0.22656036187E+02  0.16544817026E+02 -0.66937531428E+02  0.72698916497E+02  0.41800000000E+01 0. -1.
         -5    1    4    4    0  501  0.73599165944E+02 -0.11005264861E+03 -0.16695139741E+03  0.21311655072E+03  0.41800000000E+01 0. -1.
</event>
<event>
11    1  0.8037748E-009  0.1989314E+03  0.7561462E-02  0.1055282E+00
         22   -1    0    0    0    0  0.00000000000E+00  0.00000000000E+00  0.13750196680E+04  0.13750196680E+04  0.00000000000E+00 0.  1.
         22   -1    0    0    0    0 -0.00000000000E+00 -0.00000000000E+00 -0.16074892033E+04  0.16074892033E+04  0.00000000000E+00 0.  1.
         24    2    1    2    0    0  0.11730018934E+03 -0.10070100545E+03 -0.15736284406E+04  0.15836023650E+04  0.87120343960E+02 0.  0.
         25    2    1    2    0    0 -0.11806946824E+03  0.11036102556E+03  0.35651886947E+03  0.41094044575E+03  0.12508553221E+03 0.  0.
        -24    2    1    2    0    0  0.76927890250E+00 -0.96600201047E+01  0.98464003587E+03  0.98796606055E+03  0.80417838739E+02 0.  0.
        -11    1    3    3    0    0  0.77375010617E+02 -0.10250189007E+03 -0.13755505434E+04  0.13815327818E+04  0.00000000000E+00 0.  1.
         12    1    3    3    0    0  0.39925178725E+02  0.18008846133E+01 -0.19807789728E+03  0.20206958325E+03  0.00000000000E+00 0. -1.
         13    1    5    5    0    0  0.26004363187E+01  0.24459828194E+02  0.11253395334E+03  0.11519086821E+03  0.00000000000E+00 0. -1.
        -14    1    5    5    0    0 -0.18311574162E+01 -0.34119848299E+02  0.87210608253E+03  0.87277519235E+03  0.00000000000E+00 0.  1.
          5    1    4    4  501    0 -0.60138490741E+02 -0.89560239325E+01  0.57460733589E+02  0.83761905051E+02  0.41800000000E+01 0. -1.
         -5    1    4    4    0  501 -0.57930977504E+02  0.11931704949E+03  0.29905813588E+03  0.32717854070E+03  0.41800000000E+01 0. -1.
</event>
<event>
11    1  0.8037748E-009  0.1765892E+03  0.7561462E-02  0.1072436E+00
         22   -1    0    0    0    0  0.00000000000E+00  0.00000000000E+00  0.12381754155E+04  0.12381754155E+04  0.00000000000E+00 0.  1.
         22   -1    0    0    0    0 -0.00000000000E+00 -0.00000000000E+00 -0.60806712892E+03  0.60806712892E+03  0.00000000000E+00 0. -1.
        -24    2    1    2    0    0 -0.11040930989E+03  0.56832827401E+02 -0.57821320481E+03  0.59879375541E+03  0.93825717854E+02 0.  0.
         25    2    1    2    0    0  0.16229800729E+03 -0.39415798284E+02  0.81022530948E+03  0.83666326959E+03  0.12508447638E+03 0.  0.
         24    2    1    2    0    0 -0.51888697400E+02 -0.17417029117E+02  0.39809618189E+03  0.41078551941E+03  0.85254812756E+02 0.  0.
        -13    1    5    5    0    0 -0.46169403996E+02  0.23111619427E+02  0.30129382845E+03  0.30568567497E+03  0.00000000000E+00 0.  1.
         14    1    5    5    0    0 -0.57192934036E+01 -0.40528648544E+02  0.96802353440E+02  0.10509984444E+03  0.00000000000E+00 0. -1.
         11    1    3    3    0    0 -0.91136219939E+02  0.64161317101E+02 -0.56090940888E+03  0.57187572965E+03  0.00000000000E+00 0. -1.
        -12    1    3    3    0    0 -0.19273089947E+02 -0.73284897002E+01 -0.17303795928E+02  0.26918025762E+02  0.00000000000E+00 0.  1.
          5    1    4    4  501    0  0.54039219250E+02 -0.76734196772E+02  0.37979480284E+03  0.39124153516E+03  0.41800000000E+01 0.  1.
         -5    1    4    4    0  501  0.10825878804E+03  0.37318398488E+02  0.43043050665E+03  0.44542173443E+03  0.41800000000E+01 0.  1.
</event>
<event>
11    1  0.8037748E-009  0.1374565E+03  0.7561462E-02  0.1110432E+00
         22   -1    0    0    0    0  0.00000000000E+00  0.00000000000E+00  0.58260403000E+03  0.58260403000E+03  0.00000000000E+00 0.  1.
         22   -1    0    0    0    0 -0.00000000000E+00 -0.00000000000E+00 -0.79235473707E+03  0.79235473707E+03  0.00000000000E+00 0. -1.
         24    2    1    2    0    0 -0.24155045765E+02 -0.51146128691E+02 -0.72188952108E+03  0.72848701094E+03  0.79808845002E+02 0.  0.
         25    2    1    2    0    0  0.36620493966E+02  0.56673050896E+02  0.15179229294E+02  0.14293756119E+03  0.12509133511E+03 0.  0.
        -24    2    1    2    0    0 -0.12465448201E+02 -0.55269222052E+01  0.49695958473E+03  0.50353419494E+03  0.79949498795E+02 0.  0.
        -13    1    3    3    0    0  0.48042471543E+01 -0.30290947183E+01 -0.14495863790E+01  0.58615276339E+01  0.00000000000E+00 0.  1.
         14    1    3    3    0    0 -0.28959292919E+02 -0.48117033972E+02 -0.72043993470E+03  0.72262548330E+03  0.00000000000E+00 0. -1.
         11    1    5    5    0    0 -0.25701127950E+02 -0.27847790782E+02  0.12371856430E+03  0.12939215811E+03  0.00000000000E+00 0. -1.
        -12    1    5    5    0    0  0.13235679749E+02  0.22320868576E+02  0.37324102043E+03  0.37414203683E+03  0.00000000000E+00 0.  1.
          5    1    4    4  501    0  0.57112654081E+02  0.17362417407E+01  0.48765792623E+02  0.75235927068E+02  0.41800000000E+01 0. -1.
         -5    1    4    4    0  501 -0.20492160115E+02  0.54936809155E+02 -0.33586563329E+02  0.67701634121E+02  0.41800000000E+01 0. -1.
</event>
<event>
11    1  0.8037748E-009  0.1935271E+03  0.7561462E-02  0.1059198E+00
         22   -1    0    0    0    0  0.00000000000E+00  0.00000000000E+00  0.44647216853E+03  0.44647216853E+03  0.00000000000E+00 0. -1.
         22   -1    0    0    0    0 -0.00000000000E+00 -0.00000000000E+00 -0.27984374221E+04  0.27984374221E+04  0.00000000000E+00 0. -1.
         24    2    1    2    0    0  0.38878099627E+02  0.11694799122E+03 -0.23025569409E+04  0.23072435842E+04  0.80100884053E+02 0.  0.
         25    2    1    2    0    0 -0.11263365354E+03 -0.24021145894E+03 -0.43196112203E+03  0.52213549808E+03  0.12508869850E+03 0.  0.
        -24    2    1    2    0    0  0.73755553914E+02  0.12326346772E+03  0.38255280936E+03  0.41553050833E+03  0.75400180371E+02 0.  0.
        -11    1    3    3    0    0  0.31614121037E+02  0.30381426956E+01 -0.62657118517E+03  0.62737559169E+03  0.00000000000E+00 0.  1.
         12    1    3    3    0    0  0.72639785906E+01  0.11390984852E+03 -0.16759857557E+04  0.16798679926E+04  0.00000000000E+00 0. -1.
         13    1    5    5    0    0  0.82281350657E+02  0.98260004951E+02  0.35469447717E+03  0.37713846446E+03  0.00000000000E+00 0. -1.
        -14    1    5    5    0    0 -0.85257967436E+01  0.25003462767E+02  0.27858332184E+02  0.38392043871E+02  0.00000000000E+00 0.  1.
          5    1    4    4  501    0 -0.83710588098E+02 -0.21267706839E+03 -0.42326833636E+03  0.48105358844E+03  0.41800000000E+01 0.  1.
         -5    1    4    4    0  501 -0.28923065442E+02 -0.27534390543E+02 -0.86927856689E+01  0.41081909642E+02  0.41800000000E+01 0.  1.
</event>
<event>
11    1  0.8037748E-009  0.1408747E+03  0.7561462E-02  0.1106586E+00
         22   -1    0    0    0    0  0.00000000000E+00  0.00000000000E+00  0.24918592296E+04  0.24918592296E+04  0.00000000000E+00 0. -1.
         22   -1    0    0    0    0 -0.00000000000E+00 -0.00000000000E+00 -0.51168502380E+02  0.51168502380E+02  0.00000000000E+00 0.  1.
         24    2    1    2    0    0  0.25930889406E+02  0.43078874501E+00  0.11343639322E+02  0.83917332018E+02  0.78999011738E+02 0.  0.
         25    2    1    2    0    0  0.37969955842E+02 -0.20382649919E+02  0.30873555446E+03  0.33589106704E+03  0.12509195165E+03 0.  0.
        -24    2    1    2    0    0 -0.63900845248E+02  0.19951861174E+02  0.21206115334E+04  0.21232193329E+04  0.81152111177E+02 0.  0.
        -13    1    3    3    0    0  0.51623034068E+02 -0.12326160480E+02  0.90898314043E-02  0.53074211828E+02  0.00000000000E+00 0.  1.
         14    1    3    3    0    0 -0.25692144662E+02  0.12756949225E+02  0.11334549491E+02  0.30843120189E+02  0.00000000000E+00 0. -1.
         11    1    5    5    0    0 -0.74888820014E+02  0.14702022970E+02  0.20591058219E+04  0.20605196603E+04  0.00000000000E+00 0. -1.
        -12    1    5    5    0    0  0.10987974766E+02  0.52498382041E+01  0.61505711558E+02  0.62699672606E+02  0.00000000000E+00 0.  1.
          5    1    4    4  501    0  0.83553427796E+01 -0.27005794736E+02  0.31220712062E+01  0.28746207244E+02  0.41800000000E+01 0. -1.
         -5    1    4    4    0  501  0.29614613062E+02  0.66231448175E+01  0.30561348326E+03  0.30714485980E+03  0.41800000000E+01 0. -1.
</event>
<event>
11    1  0.8037748E-009  0.2237681E+03  0.7561462E-02  0.1038882E+00
         22   -1    0    0    0    0  0.00000000000E+00  0.00000000000E+00  0.12025849286E+04  0.12025849286E+04  0.00000000000E+00 0. -1.
         22   -1    0    0    0    0 -0.00000000000E+00 -0.00000000000E+00 -0.10683445261E+04  0.10683445261E+04  0.00000000000E+00 0. -1.
         24    2    1    2    0    0  0.18812218002E+03  0.10257931035E+02 -0.86491176080E+03  0.88882834824E+03  0.80301300660E+02 0.  0.
         25    2    1    2    0    0 -0.16549117773E+03 -0.67797734903E+02 -0.12608953201E+03  0.25205634839E+03  0.12509983980E+03 0.  0.
        -24    2    1    2    0    0 -0.22631002297E+02  0.57539803868E+02  0.11252416954E+04  0.11300447581E+04  0.83721508920E+02 0.  0.
        -13    1    3    3    0    0  0.10118860109E+03  0.24664320124E+02 -0.31164138848E+03  0.32858456551E+03  0.00000000000E+00 0.  1.
         14    1    3    3    0    0  0.86933578932E+02 -0.14406389089E+02 -0.55327037232E+03  0.56024378273E+03  0.00000000000E+00 0. -1.
         13    1    5    5    0    0 -0.51105719756E+01  0.50861521132E+02  0.10780988138E+04  0.10793099947E+04  0.00000000000E+00 0. -1.
        -14    1    5    5    0    0 -0.17520430322E+02  0.66782827360E+01  0.47142881514E+02  0.50734763391E+02  0.00000000000E+00 0.  1.
          5    1    4    4  501    0  0.92694055306E+01  0.19979531156E+02 -0.96029074357E+01  0.24388353272E+02  0.41800000000E+01 0.  1.
         -5    1    4    4    0  501 -0.17476058326E+03 -0.87777266059E+02 -0.11648662458E+03  0.22766799512E+03  0.41800000000E+01 0.  1.
</event>
<event>
11    1  0.8037748E-009  0.2130088E+03  0.7561462E-02  0.1045687E+00
         22   -1    0    0    0    0  0.00000000000E+00  0.00000000000E+00  0.87122804398E+03  0.87122804398E+03  0.00000000000E+00 0. -1.
         22   -1    0    0    0    0 -0.00000000000E+00 -0.00000000000E+00 -0.21053316608E+03  0.21053316608E+03  0.00000000000E+00 0. -1.
        -24    2    1    2    0    0  0.10005821775E+03  0.13773365841E+03 -0.10685411977E+03  0.21563335341E+03  0.78087979826E+02 0.  0.
         25    2    1    2    0    0 -0.13081401788E+03 -0.13106654520E+03  0.22755258047E+03  0.31893150352E+03  0.12508549281E+03 0.  0.
         24    2    1    2    0    0  0.30755800135E+02 -0.66671132073E+01  0.53999641719E+03  0.54719635313E+03  0.82688261896E+02 0.  0.
        -11    1    5    5    0    0  0.16813072939E+02 -0.31085196242E+02  0.95798515478E+02  0.10210937476E+03  0.00000000000E+00 0.  1.
         12    1    5    5    0    0  0.13942727196E+02  0.24418083035E+02  0.44419790172E+03  0.44508697836E+03  0.00000000000E+00 0. -1.
         11    1    3    3    0    0  0.83323908635E+02  0.61719723018E+02 -0.86875985017E+02  0.13527614251E+03  0.00000000000E+00 0. -1.
        -12    1    3    3    0    0  0.16734309114E+02  0.76013935394E+02 -0.19978134748E+02  0.80357210900E+02  0.00000000000E+00 0.  1.
          5    1    4    4  501    0 -0.81587562119E+02 -0.14928887844E+03  0.18361500539E+03  0.25035103779E+03  0.41800000000E+01 0.  1.
         -5    1    4    4    0  501 -0.49226455765E+02  0.18222333234E+02  0.43937575079E+02  0.68580465729E+02  0.41800000000E+01 0.  1.
</event>
<event>
11    1  0.8037748E-009  0.2226689E+03  0.7561462E-02  0.1039558E+00
         22   -1    0    0    0    0  0.00000000000E+00  0.00000000000E+00  0.75427880660E+03  0.75427880660E+03  0.00000000000E+00 0.  1.
         22   -1    0    0    0    0 -0.00000000000E+00 -0.00000000000E+00 -0.31006947102E+03  0.31006947102E+03  0.00000000000E+00 0.  1.
         24    2    1    2    0    0 -0.92186642907E+02 -0.15804917705E+03 -0.23470065437E+03  0.30736704511E+03  0.76890726116E+02 0.  0.
         25    2    1    2    0    0  0.10397846241E+03  0.16884615376E+03  0.37710672732E+03  0.44404690479E+03  0.12509046959E+03 0.  0.
        -24    2    1    2    0    0 -0.11791819508E+02 -0.10796976714E+02  0.30180326264E+03  0.31293432772E+03  0.81160719643E+02 0.  0.
        -13    1    3    3    0    0 -0.81927506829E+02 -0.66030606994E+02 -0.13726006224E+03  0.17295225387E+03  0.00000000000E+00 0.  1.
         14    1    3    3    0    0 -0.10259136077E+02 -0.92018570052E+02 -0.97440592135E+02  0.13441479124E+03  0.00000000000E+00 0. -1.
         11    1    5    5    0    0  0.18783259706E+02  0.73974651517E+01  0.18425934497E+02  0.27332186117E+02  0.00000000000E+00 0. -1.
        -12    1    5    5    0    0 -0.30575079213E+02 -0.18194441866E+02  0.28337732814E+03  0.28560214160E+03  0.00000000000E+00 0.  1.
          5    1    4    4  501    0 -0.15096922325E+02  0.38301670235E+02  0.15374062163E+03  0.15921239319E+03  0.41800000000E+01 0.  1.
         -5    1    4    4    0  501  0.11907538474E+03  0.13054448352E+03  0.22336610569E+03  0.28483451160E+03  0.41800000000E+01 0.  1.
</event>
<event>
11    1  0.8037748E-009  0.1581184E+03  0.7561462E-02  0.1088860E+00
         22   -1    0    0    0    0  0.00000000000E+00  0.00000000000E+00  0.64960611067E+02  0.64960611067E+02  0.00000000000E+00 0.  1.
         22   -1    0    0    0    0 -0.00000000000E+00 -0.00000000000E+00 -0.21116784430E+04  0.21116784430E+04  0.00000000000E+00 0.  1.
        -24    2    1    2    0    0  0.10210827335E+03  0.23393580241E+02 -0.14778784552E+04  0.14837369594E+04  0.79857855773E+02 0.  0.
         25    2    1    2    0    0 -0.75351019638E+02  0.12147892094E+02 -0.58022392085E+03  0.59843996805E+03  0.12508097213E+03 0.  0.
         24    2    1    2    0    0 -0.26757253711E+02 -0.35541472335E+02  0.11384544128E+02  0.94462126653E+02  0.82549007534E+02 0.  0.
        -13    1    5    5    0    0 -0.44238072651E+02 -0.52168182387E+02  0.15723477810E+01  0.68417823723E+02  0.00000000000E+00 0.  1.
         14    1    5    5    0    0  0.17480818940E+02  0.16626710051E+02  0.98121963472E+01  0.26044302930E+02  0.00000000000E+00 0. -1.
         13    1    3    3    0    0  0.17215322415E+02 -0.27596451109E+02 -0.39854292663E+03  0.39986797297E+03  0.00000000000E+00 0. -1.
        -14    1    3    3    0    0  0.84892950933E+02  0.50990031350E+02 -0.10793355286E+04  0.10838689864E+04  0.00000000000E+00 0.  1.
          5    1    4    4  501    0  0.15564224921E+02 -0.26841720358E+02 -0.29221116920E+03  0.29388358725E+03  0.41800000000E+01 0. -1.
         -5    1    4    4    0  501 -0.90915244559E+02  0.38989612452E+02 -0.28801275165E+03  0.30455638080E+03  0.41800000000E+01 0. -1.
</event>
<event>
11    1  0.8037748E-009  0.2416858E+03  0.7561462E-02  0.1028424E+00
         22   -1    0    0    0    0  0.00000000000E+00  0.00000000000E+00  0.11774700885E+04  0.11774700885E+04  0.00000000000E+00 0.  1.
         22   -1    0    0    0    0 -0.00000000000E+00 -0.00000000000E+00 -0.25822558746E+03  0.25822558746E+03  0.00000000000E+00 0.  1.
         24    2    1    2    0    0  0.18809345718E+02 -0.96287697873E+02 -0.94315039945E+02  0.15804765407E+03  0.80365552011E+02 0.  0.
         25    2    1    2    0    0 -0.73240911430E+02 -0.11163758788E+03 -0.49993638193E+02  0.18966949951E+03  0.12509185845E+03 0.  0.
        -24    2    1    2    0    0  0.54431565711E+02  0.20792528575E+03  0.10635531791E+04  0.10879785223E+04  0.79725657113E+02 0.  0.
        -11    1    3    3    0    0  0.19937238510E+02 -0.73969767980E+00  0.46443334555E+01  0.20484395654E+02  0.00000000000E+00 0.  1.
         12    1    3    3    0    0 -0.11278927916E+01 -0.95548000193E+02 -0.98959373400E+02  0.13756325842E+03  0.00000000000E+00 0. -1.
         11    1    5    5    0    0 -0.10769045033E+02  0.30712280895E+02  0.78310228226E+02  0.84803940790E+02  0.00000000000E+00 0. -1.
        -12    1    5    5    0    0  0.65200610745E+02  0.17721300486E+03  0.98524295091E+03  0.10031745815E+04  0.00000000000E+00 0.  1.
          5    1    4    4  501    0 -0.35609137077E+02  0.14886336942E+02 -0.42246372849E+02  0.57374577034E+02  0.41800000000E+01 0. -1.
         -5    1    4    4    0  501 -0.37631774352E+02 -0.12652392482E+03 -0.77472653437E+01  0.13229492248E+03  0.41800000000E+01 0. -1.
</event>
<event>
11    1  0.8037748E-009  0.1339343E+03  0.7561462E-02  0.1114527E+00
         22   -1    0    0    0    0  0.00000000000E+00  0.00000000000E+00  0.32973573664E+03  0.32973573664E+03  0.00000000000E+00 0. -1.
         22   -1    0    0    0    0 -0.00000000000E+00 -0.00000000000E+00 -0.18039931580E+04  0.18039931580E+04  0.00000000000E+00 0. -1.
         24    2    1    2    0    0 -0.48162035685E+02 -0.91406998778E+01 -0.17086491691E+04  0.17112516275E+04  0.80604065808E+02 0.  0.
         25    2    1    2    0    0  0.73014813696E+01  0.23162361625E+01 -0.41528128008E+02  0.13202539102E+03  0.12508973530E+03 0.  0.
        -24    2    1    2    0    0  0.40860554316E+02  0.68244637153E+01  0.27591987574E+03  0.29045187616E+03  0.80711562549E+02 0.  0.
        -11    1    3    3    0    0 -0.36838846038E+02  0.30246863543E+02 -0.12031699167E+04  0.12041137080E+04  0.00000000000E+00 0.  1.
         12    1    3    3    0    0 -0.11323189647E+02 -0.39387563421E+02 -0.50547925245E+03  0.50713791954E+03  0.00000000000E+00 0. -1.
         11    1    5    5    0    0  0.42603297209E+02  0.23276617605E+02  0.26753524360E+03  0.27190430013E+03  0.00000000000E+00 0. -1.
        -12    1    5    5    0    0 -0.17427428933E+01 -0.16452153889E+02  0.83846321444E+01  0.18547576030E+02  0.00000000000E+00 0.  1.
          5    1    4    4  501    0  0.57142680575E+02 -0.12186333049E+02 -0.52665645339E+02  0.78771411409E+02  0.41800000000E+01 0. -1.
         -5    1    4    4    0  501 -0.49841199205E+02  0.14502569211E+02  0.11137517330E+02  0.53253979609E+02  0.41800000000E+01 0. -1.
</event>
<event>
11    1  0.8037748E-009  0.1401370E+03  0.7561462E-02  0.1107406E+00
         22   -1    0    0    0    0  0.00000000000E+00  0.00000000000E+00  0.15997726451E+03  0.15997726451E+03  0.00000000000E+00 0.  1.
         22   -1    0    0    0    0 -0.00000000000E+00 -0.00000000000E+00 -0.11479073785E+04  0.11479073785E+04  0.00000000000E+00 0.  1.
        -24    2    1    2    0    0 -0.40112977956E+02 -0.46525409853E+02 -0.10147057709E+04  0.10197592516E+04  0.80668860128E+02 0.  0.
         25    2    1    2    0    0  0.88932701854E+02  0.68586463229E+02 -0.37270832037E+02  0.17218503523E+03  0.12508174542E+03 0.  0.
         24    2    1    2    0    0 -0.48819723898E+02 -0.22061053376E+02  0.64046488890E+02  0.11594035622E+03  0.80437291995E+02 0.  0.
        -13    1    5    5    0    0 -0.70383369212E+02 -0.23232051412E+02  0.42521314848E+02  0.85449453426E+02  0.00000000000E+00 0.  1.
         14    1    5    5    0    0  0.21563645313E+02  0.11709980356E+01  0.21525174042E+02  0.30490902793E+02  0.00000000000E+00 0. -1.
         11    1    3    3    0    0 -0.18066643323E+02 -0.33600605115E+02 -0.15333888364E+03  0.15801334596E+03  0.00000000000E+00 0. -1.
        -12    1    3    3    0    0 -0.22046334633E+02 -0.12924804739E+02 -0.86136688723E+03  0.86174590563E+03  0.00000000000E+00 0.  1.
          5    1    4    4  501    0  0.11869791923E+01  0.58420964602E+02  0.25344837526E+02  0.63829861459E+02  0.41800000000E+01 0.  1.
         -5    1    4    4    0  501  0.87745722662E+02  0.10165498627E+02 -0.62615669563E+02  0.10835517377E+03  0.41800000000E+01 0.  1.
</event>
<event>
11    1  0.8037748E-009  0.1499822E+03  0.7561462E-02  0.1096897E+00
         22   -1    0    0    0    0  0.00000000000E+00  0.00000000000E+00  0.21802034070E+03  0.21802034070E+03  0.00000000000E+00 0.  1.
         22   -1    0    0    0    0 -0.00000000000E+00 -0.00000000000E+00 -0.53804337856E+03  0.53804337856E+03  0.00000000000E+00 0.  1.
        -24    2    1    2    0    0  0.66033150141E+02  0.43927619675E+02 -0.43017045535E+03  0.44470888891E+03  0.80183305830E+02 0.  0.
         25    2    1    2    0    0 -0.11086290527E+03 -0.87098673713E+02  0.49147140331E+02  0.19477738041E+03  0.12508406689E+03 0.  0.
         24    2    1    2    0    0  0.44829755126E+02  0.43171054039E+02  0.61000277162E+02  0.11657744993E+03  0.77432687975E+02 0.  0.
        -13    1    5    5    0    0  0.51619135143E+02  0.22236492188E+01  0.53542767767E+02  0.74406368739E+02  0.00000000000E+00 0.  1.
         14    1    5    5    0    0 -0.67893800169E+01  0.40947404820E+02  0.74575093949E+01  0.42171081192E+02  0.00000000000E+00 0. -1.
         11    1    3    3    0    0  0.28090425000E+02 -0.19861161351E+02 -0.19791020613E+03  0.20087804110E+03  0.00000000000E+00 0. -1.
        -12    1    3    3    0    0  0.37942725141E+02  0.63788781026E+02 -0.23226024922E+03  0.24383084781E+03  0.00000000000E+00 0.  1.
          5    1    4    4  501    0 -0.66295063531E+02  0.20077610574E+02  0.35147708938E+02  0.77788043673E+02  0.41800000000E+01 0. -1.
         -5    1    4    4    0  501 -0.44567841737E+02 -0.10717628429E+03  0.13999431393E+02  0.11698933674E+03  0.41800000000E+01 0. -1.
</event>
<event>
11    1  0.8037748E-009  0.1741992E+03  0.7561462E-02  0.1074434E+00
         22   -1    0    0    0    0  0.00000000000E+00  0.00000000000E+00  0.55732883357E+03  0.55732883357E+03  0.00000000000E+00 0. -1.
         22   -1    0    0    0    0 -0.00000000000E+00 -0.00000000000E+00 -0.77978617243E+03  0.77978617243E+03  0.00000000000E+00 0. -1.
        -24    2    1    2    0    0 -0.11949200779E+02 -0.13979226970E+02 -0.69634371723E+03  0.70144282736E+03  0.82396998388E+02 0.  0.
         25    2    1    2    0    0  0.44926526846E+02 -0.10420498059E+03  0.34108237965E+02  0.17230904505E+03  0.12509981740E+03 0.  0.
         24    2    1    2    0    0 -0.32977326067E+02  0.11818420756E+03  0.43977814041E+03  0.46336313360E+03  0.79028917774E+02 0.  0.
        -11    1    5    5    0    0  0.74260190782E+01  0.97286397020E+02  0.25394730755E+03  0.27204599578E+03  0.00000000000E+00 0.  1.
         12    1    5    5    0    0 -0.40403345145E+02  0.20897810544E+02  0.18583083285E+03  0.19131713782E+03  0.00000000000E+00 0. -1.
         13    1    3    3    0    0 -0.34761751375E+02  0.68772665173E+00 -0.60885537670E+03  0.60984729405E+03  0.00000000000E+00 0. -1.
        -14    1    3    3    0    0  0.22812550596E+02 -0.14666953621E+02 -0.87488340532E+02  0.91595533309E+02  0.00000000000E+00 0.  1.
          5    1    4    4  501    0  0.17842043981E+02 -0.12997496372E+03  0.27632991087E+02  0.13413755747E+03  0.41800000000E+01 0. -1.
         -5    1    4    4    0  501  0.27084482866E+02  0.25769983123E+02  0.64752468786E+01  0.38171487584E+02  0.41800000000E+01 0. -1.
</event>
<event>
11    1  0.8037748E-009  0.1417980E+03  0.7561462E-02  0.1105567E+00
         22   -1    0    0    0    0  0.00000000000E+00  0.00000000000E+00  0.24933713767E+02  0.24933713767E+02  0.00000000000E+00 0. -1.
         22   -1    0    0    0    0 -0.00000000000E+00 -0.00000000000E+00 -0.19518465210E+04  0.19518465210E+04  0.00000000000E+00 0. -1.
         24    2    1    2    0    0  0.31679179233E+02  0.47827344309E+02 -0.10815410872E+04  0.10857715618E+04  0.76666392995E+02 0.  0.
         25    2    1    2    0    0 -0.91517581555E+02 -0.34862427808E+02 -0.67004464182E+03  0.68862033193E+03  0.12508909987E+03 0.  0.
        -24    2    1    2    0    0  0.59838402322E+02 -0.12964916502E+02 -0.17532707813E+03  0.20238834097E+03  0.80453295667E+02 0.  0.
        -13    1    3    3    0    0 -0.23971445620E+02  0.17972221646E+02 -0.47723307148E+03  0.47817260008E+03  0.00000000000E+00 0.  1.
         14    1    3    3    0    0  0.55650624852E+02  0.29855122664E+02 -0.60430801576E+03  0.60759896174E+03  0.00000000000E+00 0. -1.
         11    1    5    5    0    0  0.28929662989E+02 -0.39451501230E+02 -0.14064924842E+03  0.14891459778E+03  0.00000000000E+00 0. -1.
        -12    1    5    5    0    0  0.30908739333E+02  0.26486584728E+02 -0.34677829701E+02  0.53473743188E+02  0.00000000000E+00 0.  1.
          5    1    4    4  501    0  0.29155016686E+02  0.83377416656E+01 -0.13278683618E+03  0.13626939934E+03  0.41800000000E+01 0. -1.
         -5    1    4    4    0  501 -0.12067259824E+03 -0.43200169473E+02 -0.53725780564E+03  0.55235093259E+03  0.41800000000E+01 0. -1.
</event>
<event>
11    1  0.8037748E-009  0.1367193E+03  0.7561462E-02  0.1111278E+00
         22   -1    0    0    0    0  0.00000000000E+00  0.00000000000E+00  0.33276895150E+03  0.33276895150E+03  0.00000000000E+00 0. -1.
         22   -1    0    0    0    0 -0.00000000000E+00 -0.00000000000E+00 -0.16928754252E+03  0.16928754252E+03  0.00000000000E+00 0. -1.
        -24    2    1    2    0    0  0.38790010418E+02 -0.46392844568E+02 -0.98638119836E+02  0.13966330316E+03  0.78226585183E+02 0.  0.
         25    2    1    2    0    0 -0.16729862213E+02  0.24285385642E+02  0.58442128588E+02  0.14118587658E+03  0.12509316971E+03 0.  0.
         24    2    1    2    0    0 -0.22060148205E+02  0.22107458926E+02  0.20367740023E+03  0.22120731427E+03  0.80453729838E+02 0.  0.
        -11    1    5    5    0    0 -0.39458452213E+02  0.53263232751E+01  0.42538534360E+02  0.58265479283E+02  0.00000000000E+00 0.  1.
         12    1    5    5    0    0  0.17398304008E+02  0.16781135651E+02  0.16113886587E+03  0.16294183499E+03  0.00000000000E+00 0. -1.
         11    1    3    3    0    0  0.89305480108E+01 -0.31723358199E+02 -0.10106880621E+03  0.10630630147E+03  0.00000000000E+00 0. -1.
        -12    1    3    3    0    0  0.29859462407E+02 -0.14669486369E+02  0.24306863738E+01  0.33357001691E+02  0.00000000000E+00 0.  1.
          5    1    4    4  501    0  0.85079409051E+01  0.71474635831E+02  0.18959453648E+02  0.74551605671E+02  0.41800000000E+01 0. -1.
         -5    1    4    4    0  501 -0.25237803118E+02 -0.47189250189E+02  0.39482674940E+02  0.66634270913E+02  0.41800000000E+01 0. -1.
</event>
<event>
11    1  0.8037748E-009  0.1551764E+03  0.7561462E-02  0.1091704E+00
         22   -1    0    0    0    0  0.00000000000E+00  0.00000000000E+00  0.93758696340E+03  0.93758696340E+03  0.00000000000E+00 0.  1.
         22   -1    0    0    0    0 -0.00000000000E+00 -0.00000000000E+00 -0.22415216691E+03  0.22415216691E+03  0.00000000000E+00 0.  1.
         24    2    1    2    0    0  0.79718871072E+02  0.51198322351E+02 -0.15975946365E+03  0.20276012809E+03  0.81315537896E+02 0.  0.
         25    2    1    2    0    0 -0.58251493610E+02 -0.46623960859E+02  0.89914389947E+02  0.17115957979E+03  0.12507587297E+03 0.  0.
        -24    2    1    2    0    0 -0.21467377462E+02 -0.45743614923E+01  0.78327987020E+03  0.78781942243E+03  0.81549458810E+02 0.  0.
        -13    1    3    3    0    0  0.73564380891E+02  0.22649802669E+02 -0.15514993712E+03  0.17319421089E+03  0.00000000000E+00 0.  1.
         14    1    3    3    0    0  0.61544901816E+01  0.28548519682E+02 -0.46095265269E+01  0.29565917206E+02  0.00000000000E+00 0. -1.
         13    1    5    5    0    0 -0.27095637257E+01 -0.40377717730E+02  0.50507817505E+03  0.50669681737E+03  0.00000000000E+00 0. -1.
        -14    1    5    5    0    0 -0.18757813736E+02  0.35803356237E+02  0.27820169515E+03  0.28112260506E+03  0.00000000000E+00 0.  1.
          5    1    4    4  501    0 -0.25325375034E+02 -0.47854613661E+02 -0.18814649967E+02  0.57470880649E+02  0.41800000000E+01 0.  1.
         -5    1    4    4    0  501 -0.32926118577E+02  0.12306528016E+01  0.10872903991E+03  0.11368869914E+03  0.41800000000E+01 0.  1.
</event>
<event>
11    1  0.8037748E-009  0.1852034E+03  0.7561462E-02  0.1065510E+00
         22   -1    0    0    0    0  0.00000000000E+00  0.00000000000E+00  0.20721979011E+03  0.20721979011E+03  0.00000000000E+00 0.  1.
         22   -1    0    0    0    0 -0.00000000000E+00 -0.00000000000E+00 -0.79516286054E+03  0.79516286054E+03  0.00000000000E+00 0.  1.
        -24    2    1    2    0    0  0.80990938328E+01  0.17439255602E+02 -0.59327409151E+03  0.59899595978E+03  0.80326142755E+02 0.  0.
         25    2    1    2    0    0 -0.11924786674E+03  0.63173774829E+02 -0.10225891633E+03  0.21051214091E+03  0.12508995144E+03 0.  0.
         24    2    1    2    0    0  0.11114877291E+03 -0.80613030432E+02  0.10758993742E+03  0.19287454996E+03  0.82295121320E+02 0.  0.
        -13    1    5    5    0    0  0.70950311264E+02 -0.87545019105E+02  0.10144643884E+03  0.15162274563E+03  0.00000000000E+00 0.  1.
         14    1    5    5    0    0  0.40198461647E+02  0.69319886738E+01  0.61434985793E+01  0.41251804331E+02  0.00000000000E+00 0. -1.
         13    1    3    3    0    0  0.36597637429E+02 -0.84191885032E+01 -0.17660053275E+03  0.18054921204E+03  0.00000000000E+00 0. -1.
        -14    1    3    3    0    0 -0.28498543597E+02  0.25858444105E+02 -0.41667355876E+03  0.41844674774E+03  0.00000000000E+00 0.  1.
          5    1    4    4  501    0 -0.81644675485E+02  0.80256118947E+02 -0.17175712036E+02  0.11584202669E+03  0.41800000000E+01 0. -1.
         -5    1    4    4    0  501 -0.37603191259E+02 -0.17082344117E+02 -0.85083204296E+02  0.94670114222E+02  0.41800000000E+01 0. -1.
</event>
<event>
11    1  0.8037748E-009  0.1357551E+03  0.7561462E-02  0.1112393E+00
         22   -1    0    0    0    0  0.00000000000E+00  0.00000000000E+00  0.19808770285E+03  0.19808770285E+03  0.00000000000E+00 0. -1.
         22   -1    0    0    0    0 -0.00000000000E+00 -0.00000000000E+00 -0.13263526822E+04  0.13263526822E+04  0.00000000000E+00 0.  1.
        -24    2    1    2    0    0  0.46199368558E+02 -0.25227067065E+02 -0.12133845825E+04  0.12171738352E+04  0.80244709178E+02 0.  0.
         25    2    1    2    0    0 -0.70545993286E+02 -0.17692836648E+02 -0.39975589154E+02  0.15013655128E+03  0.12511259994E+03 0.  0.
         24    2    1    2    0    0  0.24346624728E+02  0.42919903713E+02  0.12509519234E+03  0.15712999858E+03  0.81278244560E+02 0.  0.
        -13    1    5    5    0    0 -0.16823592705E+02 -0.48591200276E+01  0.54312193743E+00  0.17519683227E+02  0.00000000000E+00 0.  1.
         14    1    5    5    0    0  0.41170217433E+02  0.47779023741E+02  0.12455207040E+03  0.13961031536E+03  0.00000000000E+00 0. -1.
         11    1    3    3    0    0 -0.20420649851E+02 -0.64375077085E+01 -0.49482099081E+03  0.49528401690E+03  0.00000000000E+00 0. -1.
        -12    1    3    3    0    0  0.66620018409E+02 -0.18789559357E+02 -0.71856359171E+03  0.72188981827E+03  0.00000000000E+00 0.  1.
          5    1    4    4  501    0 -0.44872187712E+02 -0.71716571227E+02 -0.21346903495E+02  0.87349542114E+02  0.41800000000E+01 0. -1.
         -5    1    4    4    0  501 -0.25673805573E+02  0.54023734579E+02 -0.18628685658E+02  0.62787009164E+02  0.41800000000E+01 0. -1.
</event>
<event>
11    1  0.8037748E-009  0.2122047E+03  0.7561462E-02  0.1046214E+00
         22   -1    0    0    0    0  0.00000000000E+00  0.00000000000E+00  0.12590485147E+03  0.12590485147E+03  0.00000000000E+00 0. -1.
         22   -1    0    0    0    0 -0.00000000000E+00 -0.00000000000E+00 -0.13426997569E+04  0.13426997569E+04  0.00000000000E+00 0. -1.
        -24    2    1    2    0    0 -0.41513204998E+02 -0.77477411556E+02 -0.99060338246E+03  0.99768209997E+03  0.79676946240E+02 0.  0.
         25    2    1    2    0    0  0.23958980115E+02  0.21604635521E+03 -0.12246472002E+03  0.27909641616E+03  0.12508853478E+03 0.  0.
         24    2    1    2    0    0  0.17554224883E+02 -0.13856894366E+03 -0.10372680291E+03  0.19182609220E+03  0.80799115403E+02 0.  0.
        -13    1    5    5    0    0  0.16366583807E+01 -0.16937039273E+02  0.13826161130E+02  0.21924978485E+02  0.00000000000E+00 0.  1.
         14    1    5    5    0    0  0.15917566502E+02 -0.12163190439E+03 -0.11755296404E+03  0.16990111372E+03  0.00000000000E+00 0. -1.
         11    1    3    3    0    0 -0.57480709639E+02 -0.27162703022E+02 -0.63625436059E+03  0.63942275201E+03  0.00000000000E+00 0. -1.
        -12    1    3    3    0    0  0.15967504642E+02 -0.50314708534E+02 -0.35434902187E+03  0.35825934796E+03  0.00000000000E+00 0.  1.
          5    1    4    4  501    0  0.65613854991E+01  0.17135482498E+03 -0.14623669030E+03  0.22540667651E+03  0.41800000000E+01 0.  1.
         -5    1    4    4    0  501  0.17397594616E+02  0.44691530231E+02  0.23771970279E+02  0.53689739651E+02  0.41800000000E+01 0.  1.
</event>
<event>
11    1  0.8037748E-009  0.1577351E+03  0.7561462E-02  0.1089227E+00
         22   -1    0    0    0    0  0.00000000000E+00  0.00000000000E+00  0.70368901976E+03  0.70368901976E+03  0.00000000000E+00 0. -1.
         22   -1    0    0    0    0 -0.00000000000E+00 -0.00000000000E+00 -0.77547504197E+03  0.77547504197E+03  0.00000000000E+00 0.  1.
         24    2    1    2    0    0 -0.44649288488E+02 -0.13623981398E+02 -0.61076168028E+03  0.61742097021E+03  0.77457423946E+02 0.  0.
         25    2    1    2    0    0  0.13879789685E+03  0.56442444820E+01 -0.99163933900E+02  0.21160197326E+03  0.12508075646E+03 0.  0.
        -24    2    1    2    0    0 -0.94148608366E+02  0.79797369165E+01  0.63813959198E+03  0.65014111825E+03  0.80831294271E+02 0.  0.
        -11    1    3    3    0    0 -0.41846480551E+02 -0.40404348843E+02 -0.30656173780E+03  0.31203163049E+03  0.00000000000E+00 0.  1.
         12    1    3    3    0    0 -0.28028079369E+01  0.26780367444E+02 -0.30419994248E+03  0.30538933972E+03  0.00000000000E+00 0. -1.
         11    1    5    5    0    0 -0.63705107547E+02 -0.20248032310E+02  0.53179803503E+03  0.53598271764E+03  0.00000000000E+00 0. -1.
        -12    1    5    5    0    0 -0.30443500819E+02  0.28227769226E+02  0.10634155694E+03  0.11415840061E+03  0.00000000000E+00 0.  1.
          5    1    4    4  501    0 -0.16385151966E+02 -0.15643882265E+02  0.48339941032E+01  0.23538142583E+02  0.41800000000E+01 0.  1.
         -5    1    4    4    0  501  0.15518304882E+03  0.21288126747E+02 -0.10399792800E+03  0.18806383068E+03  0.41800000000E+01 0.  1.
</event>
<event>
11    1  0.8037748E-009  0.2073047E+03  0.7561462E-02  0.1049475E+00
         22   -1    0    0    0    0  0.00000000000E+00  0.00000000000E+00  0.10969651130E+04  0.10969651130E+04  0.00000000000E+00 0. -1.
         22   -1    0    0    0    0 -0.00000000000E+00 -0.00000000000E+00 -0.99484700786E+03  0.99484700786E+03  0.00000000000E+00 0.  1.
        -24    2    1    2    0    0  0.50422476080E+02 -0.75571488702E+02 -0.93277761116E+03  0.94058105734E+03  0.79782062862E+02 0.  0.
         25    2    1    2    0    0 -0.20659152618E+03  0.51359010376E+02  0.26910597245E+03  0.36521945668E+03  0.12509764383E+03 0.  0.
         24    2    1    2    0    0  0.15616905010E+03  0.24212478326E+02  0.76578974386E+03  0.78601160686E+03  0.80033105672E+02 0.  0.
        -13    1    5    5    0    0  0.11143593402E+02 -0.69467288081E+01  0.12076230484E+02  0.17840180989E+02  0.00000000000E+00 0.  1.
         14    1    5    5    0    0  0.14502545670E+03  0.31159207134E+02  0.75371351338E+03  0.76817142587E+03  0.00000000000E+00 0. -1.
         13    1    3    3    0    0  0.33090880393E+01  0.17388598831E+01 -0.41033380961E+03  0.41035083649E+03  0.00000000000E+00 0. -1.
        -14    1    3    3    0    0  0.47113388041E+02 -0.77310348585E+02 -0.52244380154E+03  0.53023022085E+03  0.00000000000E+00 0.  1.
          5    1    4    4  501    0 -0.12275902408E+03 -0.32864161860E+02  0.12383164299E+03  0.17748684270E+03  0.41800000000E+01 0. -1.
         -5    1    4    4    0  501 -0.83832502108E+02  0.84223172236E+02  0.14527432946E+03  0.18773261398E+03  0.41800000000E+01 0. -1.
</event>
<event>
11    1  0.8037748E-009  0.1935575E+03  0.7561462E-02  0.1059175E+00
         22   -1    0    0    0    0  0.00000000000E+00  0.00000000000E+00  0.58377294898E+03  0.58377294898E+03  0.00000000000E+00 0. -1.
         22   -1    0    0    0    0 -0.00000000000E+00 -0.00000000000E+00 -0.42812276167E+03  0.42812276167E+03  0.00000000000E+00 0. -1.
        -24    2    1    2    0    0  0.14433702655E+03 -0.10601959095E+02 -0.33188050553E+03  0.37091033568E+03  0.80524706710E+02 0.  0.
         25    2    1    2    0    0 -0.17220437071E+03 -0.40630341373E+01  0.84443769519E+02  0.22902422804E+03  0.12510193156E+03 0.  0.
         24    2    1    2    0    0  0.27867344158E+02  0.14664993232E+02  0.40308692332E+03  0.41196114694E+03  0.79001695781E+02 0.  0.
        -13    1    5    5    0    0 -0.14964992287E+02  0.18047625754E+02  0.29065828390E+03  0.29160230758E+03  0.00000000000E+00 0.  1.
         14    1    5    5    0    0  0.42832336444E+02 -0.33826325216E+01  0.11242863943E+03  0.12035883936E+03  0.00000000000E+00 0. -1.
         13    1    3    3    0    0  0.83118766737E+02 -0.45078775282E+02 -0.20822600387E+03  0.22868951452E+03  0.00000000000E+00 0. -1.
        -14    1    3    3    0    0  0.61218259816E+02  0.34476816187E+02 -0.12365450166E+03  0.14222082116E+03  0.00000000000E+00 0.  1.
          5    1    4    4  501    0 -0.70978469299E+02 -0.81165866983E+01  0.10352419782E+03  0.12585131711E+03  0.41800000000E+01 0.  1.
         -5    1    4    4    0  501 -0.10122590141E+03  0.40535525610E+01 -0.19080428304E+02  0.10317291093E+03  0.41800000000E+01 0.  1.
</event>
<event>
11    1  0.8037748E-009  0.1530178E+03  0.7561462E-02  0.1093835E+00
         22   -1    0    0    0    0  0.00000000000E+00  0.00000000000E+00  0.10161050428E+04  0.10161050428E+04  0.00000000000E+00 0.  1.
         22   -1    0    0    0    0 -0.00000000000E+00 -0.00000000000E+00 -0.43517193166E+02  0.43517193166E+02  0.00000000000E+00 0. -1.
         24    2    1    2    0    0 -0.19787002347E+02 -0.21749283619E+02  0.91842475710E+02  0.12561875522E+03  0.80501394511E+02 0.  0.
         25    2    1    2    0    0 -0.64318590874E+02  0.54350827164E+02  0.25087355430E+03  0.29270516259E+03  0.12509148018E+03 0.  0.
        -24    2    1    2    0    0  0.84105593221E+02 -0.32601543545E+02  0.62987181957E+03  0.64129831811E+03  0.79927543842E+02 0.  0.
        -13    1    3    3    0    0  0.40359349438E+01 -0.39818425115E+02  0.86410548580E+02  0.95229085133E+02  0.00000000000E+00 0.  1.
         14    1    3    3    0    0 -0.23822937291E+02  0.18069141496E+02  0.54319271308E+01  0.30389670085E+02  0.00000000000E+00 0. -1.
         11    1    5    5    0    0 -0.23163907143E+01  0.19171711183E+02  0.12371407577E+03  0.12521219078E+03  0.00000000000E+00 0. -1.
        -12    1    5    5    0    0  0.86421983935E+02 -0.51773254728E+02  0.50615774381E+03  0.51608612734E+03  0.00000000000E+00 0.  1.
          5    1    4    4  501    0 -0.57572849709E+01  0.33258054186E+02  0.22088361874E+03  0.22348666610E+03  0.41800000000E+01 0. -1.
         -5    1    4    4    0  501 -0.58561305903E+02  0.21092772978E+02  0.29989935565E+02  0.69218496489E+02  0.41800000000E+01 0. -1.
</event>
<event>
11    1  0.8037748E-009  0.1691393E+03  0.7561462E-02  0.1078783E+00
         22   -1    0    0    0    0  0.00000000000E+00  0.00000000000E+00  0.90830658985E+03  0.90830658985E+03  0.00000000000E+00 0. -1.
         22   -1    0    0    0    0 -0.00000000000E+00 -0.00000000000E+00 -0.27299993186E+03  0.27299993186E+03  0.00000000000E+00 0.  1.
        -24    2    1    2    0    0  0.13441075165E+01  0.48641244019E+02 -0.20661947923E+03  0.22681083186E+03  0.79898479368E+02 0.  0.
         25    2    1    2    0    0 -0.11399366902E+03 -0.58445237841E+02  0.11093632011E+03  0.21062905578E+03  0.12508928658E+03 0.  0.
         24    2    1    2    0    0  0.11264956150E+03  0.98039938212E+01  0.73098981711E+03  0.74386663407E+03  0.78774453731E+02 0.  0.
        -13    1    5    5    0    0  0.38792215571E+02 -0.32121653312E+02  0.34400291665E+03  0.34767030829E+03  0.00000000000E+00 0.  1.
         14    1    5    5    0    0  0.73857345930E+02  0.41925647133E+02  0.38698690046E+03  0.39619632578E+03  0.00000000000E+00 0. -1.
         11    1    3    3    0    0  0.31945057148E+02  0.34892778884E+02 -0.17286307416E+03  0.17921951653E+03  0.00000000000E+00 0. -1.
        -12    1    3    3    0    0 -0.30600949632E+02  0.13748465136E+02 -0.33756405070E+02  0.47591315334E+02  0.00000000000E+00 0.  1.
          5    1    4    4  501    0  0.49981109969E+01 -0.46301501954E+02  0.69918820754E+02  0.84112567981E+02  0.41800000000E+01 0.  1.
         -5    1    4    4    0  501 -0.11899178001E+03 -0.12143735887E+02  0.41017499356E+02  0.12651648780E+03  0.41800000000E+01 0.  1.
</event>
<event>
11    1  0.8037748E-009  0.1611887E+03  0.7561462E-02  0.1085965E+00
         22   -1    0    0    0    0  0.00000000000E+00  0.00000000000E+00  0.36582654288E+03  0.36582654288E+03  0.00000000000E+00 0. -1.
         22   -1    0    0    0    0 -0.00000000000E+00 -0.00000000000E+00 -0.22846413891E+03  0.22846413891E+03  0.00000000000E+00 0.  1.
         24    2    1    2    0    0 -0.34675572542E+02  0.93968537266E+02 -0.11781152040E+03  0.17788628670E+03  0.87928922038E+02 0.  0.
         25    2    1    2    0    0  0.17182618438E+02 -0.10631958593E+03  0.17339400684E+02  0.16597476114E+03  0.12509144572E+03 0.  0.
        -24    2    1    2    0    0  0.17492954104E+02  0.12351048660E+02  0.23783452369E+03  0.25042963395E+03  0.75439969874E+02 0.  0.
        -13    1    3    3    0    0 -0.25497009657E+02  0.43576110173E+02 -0.11613814952E+03  0.12663745359E+03  0.00000000000E+00 0.  1.
         14    1    3    3    0    0 -0.91785628850E+01  0.50392427093E+02 -0.16733708828E+01  0.51248833109E+02  0.00000000000E+00 0. -1.
         13    1    5    5    0    0  0.20623188942E+02  0.39349239136E+02  0.92992039858E+02  0.10305919668E+03  0.00000000000E+00 0. -1.
        -14    1    5    5    0    0 -0.31302348376E+01 -0.26998190476E+02  0.14484248383E+03  0.14737043727E+03  0.00000000000E+00 0.  1.
          5    1    4    4  501    0 -0.35130651296E+02 -0.45817308699E+02 -0.37442045229E+02  0.68940319029E+02  0.41800000000E+01 0.  1.
         -5    1    4    4    0  501  0.52313269734E+02 -0.60502277227E+02  0.54781445913E+02  0.97034442113E+02  0.41800000000E+01 0.  1.
</event>
<event>
11    1  0.8037748E-009  0.1446672E+03  0.7561462E-02  0.1102456E+00
         22   -1    0    0    0    0  0.00000000000E+00  0.00000000000E+00  0.96142379610E+02  0.96142379610E+02  0.00000000000E+00 0.  1.
         22   -1    0    0    0    0 -0.00000000000E+00 -0.00000000000E+00 -0.14167370847E+04  0.14167370847E+04  0.00000000000E+00 0. -1.
         24    2    1    2    0    0 -0.31905827561E+02 -0.44820910777E+02 -0.11365664053E+04  0.11402966649E+04  0.73935069355E+02 0.  0.
         25    2    1    2    0    0  0.94721495300E+02  0.64312706544E+02 -0.20506372789E+03  0.26609649885E+03  0.12509167962E+03 0.  0.
        -24    2    1    2    0    0 -0.62815667739E+02 -0.19491795767E+02  0.21035428130E+02  0.10648630052E+03  0.81062350972E+02 0.  0.
        -11    1    3    3    0    0 -0.54575808980E+01  0.14158923387E+02 -0.63605712513E+02  0.65390725374E+02  0.00000000000E+00 0.  1.
         12    1    3    3    0    0 -0.26448246663E+02 -0.58979834164E+02 -0.10729606928E+04  0.10749059396E+04  0.00000000000E+00 0. -1.
         11    1    5    5    0    0 -0.19884540450E+02 -0.99981801803E+01 -0.31126758214E+02  0.38265305863E+02  0.00000000000E+00 0. -1.
        -12    1    5    5    0    0 -0.42931127288E+02 -0.94936155865E+01  0.52162186345E+02  0.68220994653E+02  0.00000000000E+00 0.  1.
          5    1    4    4  501    0  0.64113773463E+02  0.29039046484E+02 -0.17343948538E+02  0.72609414811E+02  0.41800000000E+01 0.  1.
         -5    1    4    4    0  501  0.30607721837E+02  0.35273660060E+02 -0.18771977936E+03  0.19348708404E+03  0.41800000000E+01 0.  1.
</event>
<event>
11    1  0.8037748E-009  0.1540518E+03  0.7561462E-02  0.1092809E+00
         22   -1    0    0    0    0  0.00000000000E+00  0.00000000000E+00  0.10840375397E+04  0.10840375397E+04  0.00000000000E+00 0. -1.
         22   -1    0    0    0    0 -0.00000000000E+00 -0.00000000000E+00 -0.58466739217E+02  0.58466739217E+02  0.00000000000E+00 0. -1.
         24    2    1    2    0    0  0.83828330227E+01 -0.37745039474E+02 -0.25507148616E+00  0.76801246873E+02  0.66358168792E+02 0.  0.
         25    2    1    2    0    0 -0.42676118271E+02 -0.56206605298E+02  0.36532914684E+03  0.39254706571E+03  0.12508948683E+03 0.  0.
        -24    2    1    2    0    0  0.34293285248E+02  0.93951644772E+02  0.66049672511E+03  0.67315596632E+03  0.82946308776E+02 0.  0.
        -11    1    3    3    0    0 -0.21164159959E+02  0.68821387889E+01 -0.57840841316E+01  0.22994371710E+02  0.00000000000E+00 0.  1.
         12    1    3    3    0    0  0.29546992982E+02 -0.44627178263E+02  0.55290126455E+01  0.53806875163E+02  0.00000000000E+00 0. -1.
         13    1    5    5    0    0  0.56436755765E+02  0.88248674225E+02  0.58379175809E+03  0.59311529462E+03  0.00000000000E+00 0. -1.
        -14    1    5    5    0    0 -0.22143470516E+02  0.57029705469E+01  0.76704967019E+02  0.80040671693E+02  0.00000000000E+00 0.  1.
          5    1    4    4  501    0  0.36332629615E+02 -0.35512920718E+02  0.21959857166E+03  0.22543786857E+03  0.41800000000E+01 0. -1.
         -5    1    4    4    0  501 -0.79008747886E+02 -0.20693684579E+02  0.14573057518E+03  0.16710919713E+03  0.41800000000E+01 0. -1.
</event>
<event>
11    1  0.8037748E-009  0.1463785E+03  0.7561462E-02  0.1100638E+00
         22   -1    0    0    0    0  0.00000000000E+00  0.00000000000E+00  0.23465985959E+03  0.23465985959E+03  0.00000000000E+00 0.  1.
         22   -1    0    0    0    0 -0.00000000000E+00 -0.00000000000E+00 -0.82590493233E+03  0.82590493233E+03  0.00000000000E+00 0. -1.
         24    2    1    2    0    0  0.15020719696E+02  0.75816307623E+02 -0.49848879227E+03  0.51023518818E+03  0.76649440441E+02 0.  0.
         25    2    1    2    0    0 -0.32561966948E+01 -0.72994506251E+02 -0.29700324824E+03  0.33044793905E+03  0.12508441229E+03 0.  0.
        -24    2    1    2    0    0 -0.11764523001E+02 -0.28218013721E+01  0.20424696776E+03  0.21988166469E+03  0.80527983117E+02 0.  0.
        -13    1    3    3    0    0  0.23982236354E+02  0.39410464248E+02 -0.10164857896E+03  0.11162780101E+03  0.00000000000E+00 0.  1.
         14    1    3    3    0    0 -0.89615166582E+01  0.36405843375E+02 -0.39684021331E+03  0.39860738718E+03  0.00000000000E+00 0. -1.
         13    1    5    5    0    0 -0.36089549302E+02 -0.13519662304E+02  0.48814500806E+02  0.62193989474E+02  0.00000000000E+00 0. -1.
        -14    1    5    5    0    0  0.24325026301E+02  0.10697860932E+02  0.15543246695E+03  0.15768767522E+03  0.00000000000E+00 0.  1.
          5    1    4    4  501    0 -0.41769863746E+02 -0.50572749079E+02 -0.27062743382E+03  0.27849417373E+03  0.41800000000E+01 0. -1.
         -5    1    4    4    0  501  0.38513667051E+02 -0.22421757172E+02 -0.26375814419E+02  0.51953765317E+02  0.41800000000E+01 0. -1.
</event>
<event>
11    1  0.8037748E-009  0.1349196E+03  0.7561462E-02  0.1113368E+00
         22   -1    0    0    0    0  0.00000000000E+00  0.00000000000E+00  0.11232353104E+04  0.11232353104E+04  0.00000000000E+00 0. -1.
         22   -1    0    0    0    0 -0.00000000000E+00 -0.00000000000E+00 -0.29565648795E+03  0.29565648795E+03  0.00000000000E+00 0.  1.
        -24    2    1    2    0    0 -0.23030672407E+02  0.51376779922E+02 -0.23099145107E+03  0.25144035609E+03  0.81824304560E+02 0.  0.
         25    2    1    2    0    0  0.19267511313E+01 -0.82783420448E+01  0.22828436185E+02  0.12743842919E+03  0.12508865823E+03 0.  0.
         24    2    1    2    0    0  0.21103921276E+02 -0.43098437877E+02  0.10357418373E+04  0.10400130130E+04  0.81012732846E+02 0.  0.
        -13    1    5    5    0    0  0.28316207241E+02  0.17369633102E+02  0.35066765219E+03  0.35223758181E+03  0.00000000000E+00 0.  1.
         14    1    5    5    0    0 -0.72122859657E+01 -0.60468070979E+02  0.68507418512E+03  0.68777543122E+03  0.00000000000E+00 0. -1.
         11    1    3    3    0    0  0.63311393131E+01  0.13063024854E+02 -0.18230024224E+03  0.18287729291E+03  0.00000000000E+00 0. -1.
        -12    1    3    3    0    0 -0.29361811720E+02  0.38313755068E+02 -0.48691208838E+02  0.68563063183E+02  0.00000000000E+00 0.  1.
          5    1    4    4  501    0  0.32868699309E+01  0.39972083037E+02 -0.34010475848E+02  0.52751832231E+02  0.41800000000E+01 0.  1.
         -5    1    4    4    0  501 -0.13601187997E+01 -0.48250425082E+02  0.56838912033E+02  0.74686596956E+02  0.41800000000E+01 0.  1.
</event>
<event>
11    1  0.8037748E-009  0.1449155E+03  0.7561462E-02  0.1102190E+00
         22   -1    0    0    0    0  0.00000000000E+00  0.00000000000E+00  0.13989780093E+03  0.13989780093E+03  0.00000000000E+00 0. -1.
         22   -1    0    0    0    0 -0.00000000000E+00 -0.00000000000E+00 -0.19323566736E+04  0.19323566736E+04  0.00000000000E+00 0.  1.
        -24    2    1    2    0    0  0.46587679221E+02 -0.26325828168E+01 -0.15072863073E+04  0.15102375527E+04  0.82025062514E+02 0.  0.
         25    2    1    2    0    0  0.26938731232E+02  0.20547513659E+02 -0.38917420172E+03  0.41018581385E+03  0.12509175450E+03 0.  0.
         24    2    1    2    0    0 -0.73526410453E+02 -0.17914930842E+02  0.10400163635E+03  0.15183110805E+03  0.80680029911E+02 0.  0.
        -13    1    5    5    0    0 -0.52465815563E+01  0.27876363038E+02  0.28462262833E+02  0.40183561811E+02  0.00000000000E+00 0.  1.
         14    1    5    5    0    0 -0.68279828897E+02 -0.45791293880E+02  0.75539373515E+02  0.11164754624E+03  0.00000000000E+00 0. -1.
         11    1    3    3    0    0  0.85009680608E+01  0.37596854832E+02 -0.69002478714E+03  0.69110056925E+03  0.00000000000E+00 0. -1.
        -12    1    3    3    0    0  0.38086711161E+02 -0.40229437649E+02 -0.81726152018E+03  0.81913698340E+03  0.00000000000E+00 0.  1.
          5    1    4    4  501    0  0.38448200223E+02  0.59906539157E+02 -0.33277715721E+03  0.34033096582E+03  0.41800000000E+01 0.  1.
         -5    1    4    4    0  501 -0.11509468991E+02 -0.39359025498E+02 -0.56397044512E+02  0.69854848037E+02  0.41800000000E+01 0.  1.
</event>
<event>
11    1  0.8037748E-009  0.1401864E+03  0.7561462E-02  0.1107350E+00
         22   -1    0    0    0    0  0.00000000000E+00  0.00000000000E+00  0.71815941931E+03  0.71815941931E+03  0.00000000000E+00 0.  1.
         22   -1    0    0    0    0 -0.00000000000E+00 -0.00000000000E+00 -0.17805669910E+04  0.17805669910E+04  0.00000000000E+00 0.  1.
        -24    2    1    2    0    0 -0.23533449610E+02  0.48752605816E+02 -0.17334395042E+04  0.17363433842E+04  0.84529246357E+02 0.  0.
         25    2    1    2    0    0  0.23484943703E+02  0.19380666557E+02  0.59707985980E+02  0.14191004769E+03  0.12508503199E+03 0.  0.
         24    2    1    2    0    0  0.48505907148E-01 -0.68133272373E+02  0.61132394647E+03  0.62047297844E+03  0.81410099428E+02 0.  0.
        -11    1    5    5    0    0 -0.20418419068E+02 -0.31695384839E+02  0.50230364499E+03  0.50371664756E+03  0.00000000000E+00 0.  1.
         12    1    5    5    0    0  0.20466924976E+02 -0.36437887534E+02  0.10902030147E+03  0.11675633087E+03  0.00000000000E+00 0. -1.
         11    1    3    3    0    0 -0.10233171385E+02  0.47043311057E+02 -0.40720651413E+03  0.41004260274E+03  0.00000000000E+00 0. -1.
        -12    1    3    3    0    0 -0.13300278225E+02  0.17092947591E+01 -0.13262329900E+04  0.13263007815E+04  0.00000000000E+00 0.  1.
          5    1    4    4  501    0  0.16371087634E+02 -0.21895569994E+02  0.87302482019E+02  0.91578514196E+02  0.41800000000E+01 0.  1.
         -5    1    4    4    0  501  0.71138560685E+01  0.41276236551E+02 -0.27594496039E+02  0.50331533492E+02  0.41800000000E+01 0.  1.
</event>
<event>
11    1  0.8037748E-009  0.2280840E+03  0.7561462E-02  0.1036268E+00
         22   -1    0    0    0    0  0.00000000000E+00  0.00000000000E+00  0.69896361181E+03  0.69896361181E+03  0.00000000000E+00 0. -1.
         22   -1    0    0    0    0 -0.00000000000E+00 -0.00000000000E+00 -0.19217114724E+04  0.19217114724E+04  0.00000000000E+00 0. -1.
        -24    2    1    2    0    0 -0.76471917210E+02 -0.10308456984E+02 -0.18480810984E+04  0.18514561283E+04  0.80819738640E+02 0.  0.
         25    2    1    2    0    0  0.13358020920E+03 -0.16331867961E+03  0.30232175413E+03  0.38930718407E+03  0.12507988305E+03 0.  0.
         24    2    1    2    0    0 -0.57108291992E+02  0.17362713659E+03  0.32301148376E+03  0.37991177182E+03  0.81171399864E+02 0.  0.
        -11    1    5    5    0    0  0.14065305325E+02  0.29588043001E+01  0.32583599457E+02  0.35612895001E+02  0.00000000000E+00 0.  1.
         12    1    5    5    0    0 -0.71173597317E+02  0.17066833229E+03  0.29042788430E+03  0.34429887682E+03  0.00000000000E+00 0. -1.
         11    1    3    3    0    0 -0.68518259485E+02 -0.23459261615E+02 -0.17871426413E+04  0.17886094904E+04  0.00000000000E+00 0. -1.
        -12    1    3    3    0    0 -0.79536577251E+01  0.13150804631E+02 -0.60938457143E+02  0.62846637879E+02  0.00000000000E+00 0.  1.
          5    1    4    4  501    0  0.65928029002E+02 -0.24688292928E+01  0.11933353026E+03  0.13642054087E+03  0.41800000000E+01 0. -1.
         -5    1    4    4    0  501  0.67652180200E+02 -0.16084985031E+03  0.18298822387E+03  0.25288664320E+03  0.41800000000E+01 0. -1.
</event>
<event>
11    1  0.8037748E-009  0.1530774E+03  0.7561462E-02  0.1093775E+00
         22   -1    0    0    0    0  0.00000000000E+00  0.00000000000E+00  0.60437255744E+02  0.60437255744E+02  0.00000000000E+00 0.  1.
         22   -1    0    0    0    0 -0.00000000000E+00 -0.00000000000E+00 -0.11080716837E+04  0.11080716837E+04  0.00000000000E+00 0.  1.
        -24    2    1    2    0    0  0.47327676677E+02 -0.77410570261E+02 -0.80321615761E+03  0.81196162582E+03  0.76767054082E+02 0.  0.
         25    2    1    2    0    0  0.16344503811E+02  0.90551950739E+02 -0.17644112696E+03  0.23504424961E+03  0.12509008515E+03 0.  0.
         24    2    1    2    0    0 -0.63672180488E+02 -0.13141380478E+02 -0.67977143339E+02  0.12150306397E+03  0.76910728043E+02 0.  0.
        -13    1    5    5    0    0 -0.37758296852E+02 -0.44696492750E+02 -0.49689872066E+02  0.76762939178E+02  0.00000000000E+00 0.  1.
         14    1    5    5    0    0 -0.25913883636E+02  0.31555112272E+02 -0.18287271272E+02  0.44740124790E+02  0.00000000000E+00 0. -1.
         11    1    3    3    0    0  0.23757335645E+02  0.69553911136E+01 -0.31326222459E+03  0.31423877835E+03  0.00000000000E+00 0. -1.
        -12    1    3    3    0    0  0.23570341032E+02 -0.84365961374E+02 -0.48995393302E+03  0.49772284747E+03  0.00000000000E+00 0.  1.
          5    1    4    4  501    0 -0.27160194925E+02  0.64393749411E+02 -0.16981327880E+03  0.18367975721E+03  0.41800000000E+01 0.  1.
         -5    1    4    4    0  501  0.43504698735E+02  0.26158201328E+02 -0.66278481672E+01  0.51364492406E+02  0.41800000000E+01 0.  1.
</event>
<event>
11    1  0.8037748E-009  0.1605179E+03  0.7561462E-02  0.1086591E+00
         22   -1    0    0    0    0  0.00000000000E+00  0.00000000000E+00  0.23240361041E+03  0.23240361041E+03  0.00000000000E+00 0. -1.
         22   -1    0    0    0    0 -0.00000000000E+00 -0.00000000000E+00 -0.62164045953E+03  0.62164045953E+03  0.00000000000E+00 0.  1.
        -24    2    1    2    0    0 -0.37338748587E+02  0.58326799114E+01 -0.44943767701E+03  0.45924352299E+03  0.86499627689E+02 0.  0.
         25    2    1    2    0    0  0.10010196879E+03 -0.79001920552E+02 -0.87537413233E+02  0.19892431261E+03  0.12508547408E+03 0.  0.
         24    2    1    2    0    0 -0.62763220200E+02  0.73169240641E+02  0.14773824113E+03  0.19587623435E+03  0.85134902984E+02 0.  0.
        -13    1    5    5    0    0  0.21347019583E+02  0.10982053412E+02  0.28030189373E+02  0.36905179291E+02  0.00000000000E+00 0.  1.
         14    1    5    5    0    0 -0.84110239783E+02  0.62187187229E+02  0.11970805175E+03  0.15897105506E+03  0.00000000000E+00 0. -1.
         11    1    3    3    0    0  0.27971791215E+02  0.27664865668E+01 -0.16596089956E+03  0.16832437356E+03  0.00000000000E+00 0. -1.
        -12    1    3    3    0    0 -0.65310539802E+02  0.30661933446E+01 -0.28347677745E+03  0.29091914943E+03  0.00000000000E+00 0.  1.
          5    1    4    4  501    0  0.32624068878E+02 -0.25095629988E+01 -0.90983755929E+02  0.96778840764E+02  0.41800000000E+01 0. -1.
         -5    1    4    4    0  501  0.67477899909E+02 -0.76492357553E+02  0.34463426964E+01  0.10214547184E+03  0.41800000000E+01 0. -1.
</event>
<event>
11    1  0.8037748E-009  0.1492476E+03  0.7561462E-02  0.1097650E+00
         22   -1    0    0    0    0  0.00000000000E+00  0.00000000000E+00  0.40411816830E+03  0.40411816830E+03  0.00000000000E+00 0.  1.
         22   -1    0    0    0    0 -0.00000000000E+00 -0.00000000000E+00 -0.56656090890E+03  0.56656090890E+03  0.00000000000E+00 0.  1.
        -24    2    1    2    0    0  0.67900339928E+02  0.45670358708E+02 -0.39693980439E+03  0.41380642480E+03  0.83536285949E+02 0.  0.
         25    2    1    2    0    0 -0.93469143873E+02  0.23320529301E+01 -0.11422684082E+03  0.19348723160E+03  0.12509044048E+03 0.  0.
         24    2    1    2    0    0  0.25568803945E+02 -0.48002411638E+02  0.34872390461E+03  0.36338542081E+03  0.86502064411E+02 0.  0.
        -11    1    5    5    0    0 -0.31163756307E+02 -0.65155222618E+01  0.10310560620E+03  0.10790921077E+03  0.00000000000E+00 0.  1.
         12    1    5    5    0    0  0.56732560252E+02 -0.41486889376E+02  0.24561829841E+03  0.25547621004E+03  0.00000000000E+00 0. -1.
         11    1    3    3    0    0  0.38916487175E+02 -0.24597801023E+01 -0.55822603563E+02  0.68093366496E+02  0.00000000000E+00 0. -1.
        -12    1    3    3    0    0  0.28983852753E+02  0.48130138810E+02 -0.34111720083E+03  0.34571305830E+03  0.00000000000E+00 0.  1.
          5    1    4    4  501    0  0.19844751818E+02  0.32968461621E+02 -0.29162390925E+02  0.48462883538E+02  0.41800000000E+01 0.  1.
         -5    1    4    4    0  501 -0.11331389569E+03 -0.30636408691E+02 -0.85064449897E+02  0.14502434806E+03  0.41800000000E+01 0.  1.
</event>
<event>
11    1  0.8037748E-009  0.2195330E+03  0.7561462E-02  0.1041510E+00
         22   -1    0    0    0    0  0.00000000000E+00  0.00000000000E+00  0.11946786180E+04  0.11946786180E+04  0.00000000000E+00 0. -1.
         22   -1    0    0    0    0 -0.00000000000E+00 -0.00000000000E+00 -0.14881716897E+04  0.14881716897E+04  0.00000000000E+00 0. -1.
         24    2    1    2    0    0 -0.88826182481E+02 -0.15242408219E+03 -0.13378323202E+04  0.13518867946E+04  0.81727576800E+02 0.  0.
         25    2    1    2    0    0  0.19505519099E+03  0.21272500735E+03  0.41520147981E+02  0.31728292353E+03  0.12508426996E+03 0.  0.
        -24    2    1    2    0    0 -0.10622900851E+03 -0.60300925156E+02  0.10028191005E+04  0.10136805896E+04  0.83554686609E+02 0.  0.
        -11    1    3    3    0    0  0.13417566475E+02 -0.72349096820E+01 -0.67297228963E+02  0.69002116158E+02  0.00000000000E+00 0.  1.
         12    1    3    3    0    0 -0.10224374896E+03 -0.14518917251E+03 -0.12705350912E+04  0.12828846784E+04  0.00000000000E+00 0. -1.
         13    1    5    5    0    0 -0.71416952852E+02 -0.10477687406E+02  0.31420995578E+03  0.32239426081E+03  0.00000000000E+00 0. -1.
        -14    1    5    5    0    0 -0.34812055659E+02 -0.49823237750E+02  0.68860914470E+03  0.69128632882E+03  0.00000000000E+00 0.  1.
          5    1    4    4  501    0  0.69758781677E+02  0.29373978371E+01  0.43547340147E+01  0.70081039058E+02  0.41800000000E+01 0. -1.
         -5    1    4    4    0  501  0.12529640931E+03  0.20978760951E+03  0.37165413967E+02  0.24720188447E+03  0.41800000000E+01 0. -1.
</event>
<event>
11    1  0.8037748E-009  0.1361172E+03  0.7561462E-02  0.1111973E+00
         22   -1    0    0    0    0  0.00000000000E+00  0.00000000000E+00  0.70397540290E+03  0.70397540290E+03  0.00000000000E+00 0. -1.
         22   -1    0    0    0    0 -0.00000000000E+00 -0.00000000000E+00 -0.43606420086E+03  0.43606420086E+03  0.00000000000E+00 0.  1.
        -24    2    1    2    0    0 -0.11644070629E+02  0.51709051160E+02 -0.36699863486E+03  0.37949570388E+03  0.80743921909E+02 0.  0.
         25    2    1    2    0    0  0.27174026104E+02 -0.57856961728E+02  0.22560180617E+02  0.14227301665E+03  0.12508714483E+03 0.  0.
         24    2    1    2    0    0 -0.15529955475E+02  0.61479105686E+01  0.61234965628E+03  0.61827088323E+03  0.83712646494E+02 0.  0.
        -13    1    5    5    0    0  0.82944416825E+01 -0.20387942126E+02  0.48116178882E+02  0.52911554666E+02  0.00000000000E+00 0.  1.
         14    1    5    5    0    0 -0.23824397157E+02  0.26535852695E+02  0.56423347740E+03  0.56535932856E+03  0.00000000000E+00 0. -1.
         13    1    3    3    0    0 -0.35274936829E+02  0.16755785973E+02 -0.75920788086E+02  0.85375895869E+02  0.00000000000E+00 0. -1.
        -14    1    3    3    0    0  0.23630866200E+02  0.34953265187E+02 -0.29107784677E+03  0.29411980801E+03  0.00000000000E+00 0.  1.
          5    1    4    4  501    0 -0.39472063180E+02 -0.41112704286E+02  0.41786190887E+02  0.70794465704E+02  0.41800000000E+01 0. -1.
         -5    1    4    4    0  501  0.66646089284E+02 -0.16744257442E+02 -0.19226010270E+02  0.71478550944E+02  0.41800000000E+01 0. -1.
</event>
<event>
11    1  0.8037748E-009  0.1557039E+03  0.7561462E-02  0.1091189E+00
         22   -1    0    0    0    0  0.00000000000E+00  0.00000000000E+00  0.87674301089E+03  0.87674301089E+03  0.00000000000E+00 0.  1.
         22   -1    0    0    0    0 -0.00000000000E+00 -0.00000000000E+00 -0.11138810339E+04  0.11138810339E+04  0.00000000000E+00 0. -1.
         24    2    1    2    0    0 -0.52251712284E+02 -0.26035842027E+02 -0.10735570967E+04  0.10782604036E+04  0.81930163181E+02 0.  0.
         25    2    1    2    0    0  0.48955002902E+02 -0.70455699151E+02  0.14574669776E+03  0.21035749849E+03  0.12509028504E+03 0.  0.
        -24    2    1    2    0    0  0.32967093824E+01  0.96491541177E+02  0.69067237595E+03  0.70200614266E+03  0.80391589267E+02 0.  0.
        -13    1    3    3    0    0 -0.33858940062E+01 -0.44252704721E+02 -0.34568545762E+03  0.34852288557E+03  0.00000000000E+00 0.  1.
         14    1    3    3    0    0 -0.48865818278E+02  0.18216862694E+02 -0.72787163905E+03  0.72973751803E+03  0.00000000000E+00 0. -1.
         11    1    5    5    0    0  0.33196231952E+02  0.47838023174E+02  0.20897474790E+03  0.21693527039E+03  0.00000000000E+00 0. -1.
        -12    1    5    5    0    0 -0.29899522570E+02  0.48653518003E+02  0.48169762805E+03  0.48507087228E+03  0.00000000000E+00 0.  1.
          5    1    4    4  501    0  0.88433230608E+02 -0.54000811268E+02  0.12564897530E+03  0.16291611733E+03  0.41800000000E+01 0. -1.
         -5    1    4    4    0  501 -0.39478227706E+02 -0.16454887882E+02  0.20097722463E+02  0.47441381159E+02  0.41800000000E+01 0. -1.
</event>
<event>
11    1  0.8037748E-009  0.1773128E+03  0.7561462E-02  0.1071837E+00
         22   -1    0    0    0    0  0.00000000000E+00  0.00000000000E+00  0.14289945904E+03  0.14289945904E+03  0.00000000000E+00 0.  1.
         22   -1    0    0    0    0 -0.00000000000E+00 -0.00000000000E+00 -0.15170768819E+04  0.15170768819E+04  0.00000000000E+00 0.  1.
        -24    2    1    2    0    0  0.27610566124E+02  0.11137786137E+02 -0.95410669005E+03  0.95758687056E+03  0.75938429198E+02 0.  0.
         25    2    1    2    0    0 -0.13520466515E+03  0.50995315466E+02 -0.50033327416E+03  0.53559350660E+03  0.12508475290E+03 0.  0.
         24    2    1    2    0    0  0.10759409903E+03 -0.62133101602E+02  0.80262541303E+02  0.16679596382E+03  0.77083108064E+02 0.  0.
        -13    1    5    5    0    0  0.39372333035E+02 -0.62444133745E+02  0.61389626118E+02  0.96011127702E+02  0.00000000000E+00 0.  1.
         14    1    5    5    0    0  0.68221765992E+02  0.31103214307E+00  0.18872915185E+02  0.70784836114E+02  0.00000000000E+00 0. -1.
         11    1    3    3    0    0 -0.51595447755E+01 -0.29152397496E+02 -0.33480118119E+03  0.33610759305E+03  0.00000000000E+00 0. -1.
        -12    1    3    3    0    0  0.32770110900E+02  0.40290183633E+02 -0.61930550887E+03  0.62147927751E+03  0.00000000000E+00 0.  1.
          5    1    4    4  501    0 -0.43785901173E+02 -0.10310829518E+02 -0.32778347645E+03  0.33088215149E+03  0.41800000000E+01 0.  1.
         -5    1    4    4    0  501 -0.91418763978E+02  0.61306144983E+02 -0.17254979771E+03  0.20471135511E+03  0.41800000000E+01 0.  1.
</event>
<event>
11    1  0.8037748E-009  0.2175649E+03  0.7561462E-02  0.1042754E+00
         22   -1    0    0    0    0  0.00000000000E+00  0.00000000000E+00  0.23404118678E+04  0.23404118678E+04  0.00000000000E+00 0. -1.
         22   -1    0    0    0    0 -0.00000000000E+00 -0.00000000000E+00 -0.34381047514E+03  0.34381047514E+03  0.00000000000E+00 0.  1.
         24    2    1    2    0    0 -0.13807404118E+02 -0.17869765446E+03 -0.30277678696E+03  0.36099146036E+03  0.80731379345E+02 0.  0.
         25    2    1    2    0    0 -0.20882614887E+02  0.14295711353E+03  0.87026492277E+03  0.89100035772E+03  0.12509109375E+03 0.  0.
        -24    2    1    2    0    0  0.34690019005E+02  0.35740540929E+02  0.14291132568E+04  0.14322305248E+04  0.80242082151E+02 0.  0.
        -13    1    3    3    0    0  0.14674537924E+02 -0.14479735280E+03 -0.18647950175E+03  0.23655067114E+03  0.00000000000E+00 0.  1.
         14    1    3    3    0    0 -0.28481942043E+02 -0.33900301659E+02 -0.11629728521E+03  0.12444078922E+03  0.00000000000E+00 0. -1.
         11    1    5    5    0    0  0.45294326546E+02  0.24950802840E+02  0.44402130829E+03  0.44702241643E+03  0.00000000000E+00 0. -1.
        -12    1    5    5    0    0 -0.10604307541E+02  0.10789738089E+02  0.98509194854E+03  0.98520810840E+03  0.00000000000E+00 0.  1.
          5    1    4    4  501    0 -0.60749575980E+02  0.11469505685E+03  0.46545721864E+03  0.48323220281E+03  0.41800000000E+01 0.  1.
         -5    1    4    4    0  501  0.39866961093E+02  0.28262056677E+02  0.40480770413E+03  0.40776815491E+03  0.41800000000E+01 0.  1.
</event>
<event>
11    1  0.8037748E-009  0.1748144E+03  0.7561462E-02  0.1073916E+00
         22   -1    0    0    0    0  0.00000000000E+00  0.00000000000E+00  0.22212405915E+04  0.22212405915E+04  0.00000000000E+00 0. -1.
         22   -1    0    0    0    0 -0.00000000000E+00 -0.00000000000E+00 -0.49372696029E+03  0.49372696029E+03  0.00000000000E+00 0. -1.
         24    2    1    2    0    0  0.69005904527E+02  0.67975656322E+02 -0.45895138669E+03  0.47604597813E+03  0.81245881350E+02 0.  0.
         25    2    1    2    0    0  0.38598996899E+02 -0.13064819676E+03  0.34503203106E+03  0.39148550670E+03  0.12511980507E+03 0.  0.
        -24    2    1    2    0    0 -0.10760490143E+03  0.62672540440E+02  0.18414329868E+04  0.18474360670E+04  0.81473396469E+02 0.  0.
        -13    1    3    3    0    0  0.76081168924E+02  0.50719388204E+02 -0.44020926192E+03  0.44960537684E+03  0.00000000000E+00 0.  1.
         14    1    3    3    0    0 -0.70752643962E+01  0.17256268118E+02 -0.18742124775E+02  0.26440601293E+02  0.00000000000E+00 0. -1.
         11    1    5    5    0    0 -0.11727014145E+03  0.49516118824E+02  0.17444827120E+04  0.17491209405E+04  0.00000000000E+00 0. -1.
        -12    1    5    5    0    0  0.96652400279E+01  0.13156421616E+02  0.96950274830E+02  0.98315126425E+02  0.00000000000E+00 0.  1.
          5    1    4    4  501    0  0.62985442508E+02 -0.14310121552E+03  0.30557691699E+03  0.34327809200E+03  0.41800000000E+01 0. -1.
         -5    1    4    4    0  501 -0.24386445610E+02  0.12453018757E+02  0.39455114069E+02  0.48207414698E+02  0.41800000000E+01 0. -1.
</event>
<event>
11    1  0.8037748E-009  0.1686477E+03  0.7561462E-02  0.1079214E+00
         22   -1    0    0    0    0  0.00000000000E+00  0.00000000000E+00  0.18693706710E+03  0.18693706710E+03  0.00000000000E+00 0. -1.
         22   -1    0    0    0    0 -0.00000000000E+00 -0.00000000000E+00 -0.27991877277E+04  0.27991877277E+04  0.00000000000E+00 0.  1.
        -24    2    1    2    0    0  0.19643592703E+02 -0.46911830221E+02 -0.22918377892E+04  0.22938171028E+04  0.80559658364E+02 0.  0.
         25    2    1    2    0    0 -0.18861916897E+02  0.15730604475E+03 -0.45565943439E+03  0.49837123327E+03  0.12508957743E+03 0.  0.
         24    2    1    2    0    0 -0.78167580634E+00 -0.11039421453E+03  0.13524656304E+03  0.19393645867E+03  0.84452492964E+02 0.  0.
        -13    1    5    5    0    0  0.25438944047E+02 -0.10910196751E+03  0.10141358778E+03  0.15111285510E+03  0.00000000000E+00 0.  1.
         14    1    5    5    0    0 -0.26220619854E+02 -0.12922470169E+01  0.33832975259E+02  0.42823603571E+02  0.00000000000E+00 0. -1.
         11    1    3    3    0    0 -0.51170484829E-01 -0.42146383141E+01 -0.51901216490E+01  0.66860419734E+01  0.00000000000E+00 0. -1.
        -12    1    3    3    0    0  0.19694763188E+02 -0.42697191907E+02 -0.22866476676E+04  0.22871310609E+04  0.00000000000E+00 0.  1.
          5    1    4    4  501    0 -0.52501389986E+02  0.81793180081E+02 -0.13007479933E+03  0.16242981893E+03  0.41800000000E+01 0.  1.
         -5    1    4    4    0  501  0.33639473089E+02  0.75512864665E+02 -0.32558463506E+03  0.33594141434E+03  0.41800000000E+01 0.  1.
</event>
<event>
11    1  0.8037748E-009  0.1950269E+03  0.7561462E-02  0.1058097E+00
         22   -1    0    0    0    0  0.00000000000E+00  0.00000000000E+00  0.32620734855E+03  0.32620734855E+03  0.00000000000E+00 0. -1.
         22   -1    0    0    0    0 -0.00000000000E+00 -0.00000000000E+00 -0.46864076657E+03  0.46864076657E+03  0.00000000000E+00 0.  1.
         24    2    1    2    0    0 -0.98832699542E+01 -0.33209156243E+02 -0.35367897341E+03  0.36417298500E+03  0.79577758740E+02 0.  0.
         25    2    1    2    0    0  0.11261696416E+03  0.12726180368E+03  0.82611645494E+02  0.22660704449E+03  0.12509165179E+03 0.  0.
        -24    2    1    2    0    0 -0.10273369420E+03 -0.94052647439E+02  0.12863390990E+03  0.20406808564E+03  0.75478396817E+02 0.  0.
        -13    1    3    3    0    0 -0.99249001797E+01 -0.10794272709E+02 -0.33406933519E+03  0.33439099970E+03  0.00000000000E+00 0.  1.
         14    1    3    3    0    0  0.41630225503E-01 -0.22414883535E+02 -0.19609638215E+02  0.29781985291E+02  0.00000000000E+00 0. -1.
         13    1    5    5    0    0 -0.79736990726E+02 -0.10064823829E+03  0.84041608571E+02  0.15346350554E+03  0.00000000000E+00 0. -1.
        -14    1    5    5    0    0 -0.22996703476E+02  0.65955908527E+01  0.44592301325E+02  0.50604580098E+02  0.00000000000E+00 0.  1.
          5    1    4    4  501    0  0.51147180584E+02  0.35066266447E+02 -0.29605912561E+02  0.68845185618E+02  0.41800000000E+01 0.  1.
         -5    1    4    4    0  501  0.61469783572E+02  0.92195537235E+02  0.11221755805E+03  0.15776185887E+03  0.41800000000E+01 0.  1.
</event>
<event>
11    1  0.8037748E-009  0.2570069E+03  0.7561462E-02  0.1020231E+00
         22   -1    0    0    0    0  0.00000000000E+00  0.00000000000E+00  0.14148984350E+04  0.14148984350E+04  0.00000000000E+00 0. -1.
         22   -1    0    0    0    0 -0.00000000000E+00 -0.00000000000E+00 -0.11682055346E+03  0.11682055346E+03  0.00000000000E+00 0. -1.
        -24    2    1    2    0    0 -0.24204074736E+02 -0.35716332181E+02  0.98286456758E+01  0.91460829874E+02  0.80043660006E+02 0.  0.
         25    2    1    2    0    0 -0.18466084376E+03 -0.62544969470E+02  0.14987778204E+03  0.27590120167E+03  0.12508646254E+03 0.  0.
         24    2    1    2    0    0  0.20886491850E+03  0.98261301651E+02  0.11383714539E+04  0.11643569570E+04  0.80979742293E+02 0.  0.
        -11    1    5    5    0    0  0.23470026842E+02 -0.68656707331E+01  0.54564887414E+02  0.59793867018E+02  0.00000000000E+00 0.  1.
         12    1    5    5    0    0  0.18539489165E+03  0.10512697238E+03  0.10838065664E+04  0.11045630899E+04  0.00000000000E+00 0. -1.
         13    1    3    3    0    0 -0.92493422873E+01 -0.42867520431E+02 -0.26703008033E+02  0.51344184467E+02  0.00000000000E+00 0. -1.
        -14    1    3    3    0    0 -0.14954732449E+02  0.71511882495E+01  0.36531653709E+02  0.40116645407E+02  0.00000000000E+00 0.  1.
          5    1    4    4  501    0 -0.19331438356E+03 -0.30463198690E+02  0.14104212265E+03  0.24126502053E+03  0.41800000000E+01 0.  1.
         -5    1    4    4    0  501  0.86535398050E+01 -0.32081770780E+02  0.88356593862E+01  0.34636181145E+02  0.41800000000E+01 0.  1.
</event>
<event>
11    1  0.8037748E-009  0.1735835E+03  0.7561462E-02  0.1074955E+00
         22   -1    0    0    0    0  0.00000000000E+00  0.00000000000E+00  0.21166456383E+03  0.21166456383E+03  0.00000000000E+00 0.  1.
         22   -1    0    0    0    0 -0.00000000000E+00 -0.00000000000E+00 -0.55828206424E+03  0.55828206424E+03  0.00000000000E+00 0. -1.
        -24    2    1    2    0    0  0.29136866747E+02  0.11329282175E+03 -0.36794576210E+03  0.39425493762E+03  0.79803831533E+02 0.  0.
         25    2    1    2    0    0 -0.61468285204E+00 -0.13706992956E+03 -0.11095783906E+03  0.21621063986E+03  0.12508739070E+03 0.  0.
         24    2    1    2    0    0 -0.28522183895E+02  0.23777107815E+02  0.13228610075E+03  0.15948105059E+03  0.80967445412E+02 0.  0.
        -13    1    5    5    0    0 -0.36883445987E+02  0.19991925316E+02  0.14082729071E+03  0.14694349756E+03  0.00000000000E+00 0.  1.
         14    1    5    5    0    0  0.83612620923E+01  0.37851824994E+01 -0.85411899567E+01  0.12537553039E+02  0.00000000000E+00 0. -1.
         11    1    3    3    0    0 -0.17799345155E+02  0.84906610309E+02 -0.22677357307E+03  0.24280074672E+03  0.00000000000E+00 0. -1.
        -12    1    3    3    0    0  0.46936211901E+02  0.28386211437E+02 -0.14117218903E+03  0.15145419090E+03  0.00000000000E+00 0.  1.
          5    1    4    4  501    0 -0.14601712128E+01 -0.15909142823E+03 -0.11054187577E+03  0.19377614232E+03  0.41800000000E+01 0. -1.
         -5    1    4    4    0  501  0.84548836073E+00  0.22021498667E+02 -0.41596329441E+00  0.22434497533E+02  0.41800000000E+01 0. -1.
</event>
<event>
11    1  0.8037748E-009  0.1502062E+03  0.7561462E-02  0.1096668E+00
         22   -1    0    0    0    0  0.00000000000E+00  0.00000000000E+00  0.10622639066E+04  0.10622639066E+04  0.00000000000E+00 0.  1.
         22   -1    0    0    0    0 -0.00000000000E+00 -0.00000000000E+00 -0.13257050325E+03  0.13257050325E+03  0.00000000000E+00 0. -1.
         24    2    1    2    0    0  0.28077829846E+02  0.25944795182E+02 -0.68355352321E+02  0.11178850645E+03  0.79766653799E+02 0.  0.
         25    2    1    2    0    0 -0.10817522384E+03 -0.30895215752E+02  0.14589898520E+03  0.22269309818E+03  0.12509719695E+03 0.  0.
        -24    2    1    2    0    0  0.80097393991E+02  0.49504205703E+01  0.85214977051E+03  0.86035280526E+03  0.87221665607E+02 0.  0.
        -13    1    3    3    0    0 -0.16662180064E+02  0.43481306261E+01  0.93231562890E+01  0.19582025626E+02  0.00000000000E+00 0.  1.
         14    1    3    3    0    0  0.44740009910E+02  0.21596664556E+02 -0.77678508610E+02  0.92206480827E+02  0.00000000000E+00 0. -1.
         13    1    5    5    0    0  0.25885764186E+02  0.39856623306E+02  0.50775626638E+03  0.50997553790E+03  0.00000000000E+00 0. -1.
        -14    1    5    5    0    0  0.54211629806E+02 -0.34906202736E+02  0.34439350413E+03  0.35037726736E+03  0.00000000000E+00 0.  1.
          5    1    4    4  501    0 -0.99039871059E+02 -0.61782283697E+01  0.29984770581E+02  0.10374789363E+03  0.41800000000E+01 0. -1.
         -5    1    4    4    0  501 -0.91353527785E+01 -0.24716987383E+02  0.11591421461E+03  0.11894520455E+03  0.41800000000E+01 0. -1.
</event>
<event>
11    1  0.8037748E-009  0.1502545E+03  0.7561462E-02  0.1096619E+00
         22   -1    0    0    0    0  0.00000000000E+00  0.00000000000E+00  0.83956666918E+03  0.83956666918E+03  0.00000000000E+00 0.  1.
         22   -1    0    0    0    0 -0.00000000000E+00 -0.00000000000E+00 -0.62571099890E+02  0.62571099890E+02  0.00000000000E+00 0. -1.
        -24    2    1    2    0    0  0.38389086889E+02  0.55798932979E+02  0.44613936994E+02  0.11623995670E+03  0.83271130922E+02 0.  0.
         25    2    1    2    0    0  0.48360037048E+02 -0.16803407201E+01  0.22626535943E+03  0.26303110761E+03  0.12509130252E+03 0.  0.
         24    2    1    2    0    0 -0.86749123937E+02 -0.54118592258E+02  0.50611627286E+03  0.52286670476E+03  0.82350936572E+02 0.  0.
        -13    1    5    5    0    0  0.11594649129E+01 -0.42586394261E+02  0.16873641444E+03  0.17403138480E+03  0.00000000000E+00 0.  1.
         14    1    5    5    0    0 -0.87908588850E+02 -0.11532197997E+02  0.33737985842E+03  0.34883531996E+03  0.00000000000E+00 0. -1.
         11    1    3    3    0    0  0.34273652591E+02 -0.14284071913E+02  0.15819150749E+02  0.40360420002E+02  0.00000000000E+00 0. -1.
        -12    1    3    3    0    0  0.41154342979E+01  0.70083004891E+02  0.28794786245E+02  0.75879536694E+02  0.00000000000E+00 0.  1.
          5    1    4    4  501    0  0.35620187742E+02  0.31209828150E+02  0.22225980719E+03  0.22728780310E+03  0.41800000000E+01 0.  1.
         -5    1    4    4    0  501  0.12739849306E+02 -0.32890168870E+02  0.40055522424E+01  0.35743304512E+02  0.41800000000E+01 0.  1.
</event>
<event>
11    1  0.8037748E-009  0.1800744E+03  0.7561462E-02  0.1069583E+00
         22   -1    0    0    0    0  0.00000000000E+00  0.00000000000E+00  0.15113205951E+04  0.15113205951E+04  0.00000000000E+00 0.  1.
         22   -1    0    0    0    0 -0.00000000000E+00 -0.00000000000E+00 -0.42710001044E+03  0.42710001044E+03  0.00000000000E+00 0.  1.
         24    2    1    2    0    0 -0.58699003370E+02  0.18724430634E+02 -0.37325466834E+03  0.38693445461E+03  0.81259137480E+02 0.  0.
         25    2    1    2    0    0  0.17957537134E+03 -0.46294445525E+02  0.24985053139E+03  0.33535475262E+03  0.12508809850E+03 0.  0.
        -24    2    1    2    0    0 -0.12087636797E+03  0.27570014890E+02  0.12076247216E+04  0.12161313983E+04  0.72435541474E+02 0.  0.
        -11    1    3    3    0    0 -0.65482313183E+02  0.38840782813E+02 -0.33104169965E+03  0.33968389225E+03  0.00000000000E+00 0.  1.
         12    1    3    3    0    0  0.67833098133E+01 -0.20116352178E+02 -0.42212968695E+02  0.47250562357E+02  0.00000000000E+00 0. -1.
         11    1    5    5    0    0 -0.35941402280E+02 -0.23167172738E+02  0.28012404804E+03  0.28336899015E+03  0.00000000000E+00 0. -1.
        -12    1    5    5    0    0 -0.84934965691E+02  0.50737187629E+02  0.92750067355E+03  0.93276240814E+03  0.00000000000E+00 0.  1.
          5    1    4    4  501    0  0.23364846726E+02  0.22971182727E+02  0.49061560107E+00  0.33034896732E+02  0.41800000000E+01 0.  1.
         -5    1    4    4    0  501  0.15621052461E+03 -0.69265628252E+02  0.24935991579E+03  0.30231985588E+03  0.41800000000E+01 0.  1.
</event>
<event>
11    1  0.8037748E-009  0.1539964E+03  0.7561462E-02  0.1092864E+00
         22   -1    0    0    0    0  0.00000000000E+00  0.00000000000E+00  0.86745402812E+03  0.86745402812E+03  0.00000000000E+00 0.  1.
         22   -1    0    0    0    0 -0.00000000000E+00 -0.00000000000E+00 -0.23481336326E+03  0.23481336326E+03  0.00000000000E+00 0. -1.
        -24    2    1    2    0    0  0.82226006713E+02 -0.27546260478E+02 -0.18364824435E+03  0.21827372060E+03  0.79980165098E+02 0.  0.
         25    2    1    2    0    0 -0.49285281525E+02  0.11047028689E+03  0.24775267533E+03  0.30275754765E+03  0.12509205117E+03 0.  0.
         24    2    1    2    0    0 -0.32940725188E+02 -0.82924026413E+02  0.56853623387E+03  0.58123612313E+03  0.81489238980E+02 0.  0.
        -11    1    5    5    0    0 -0.37247069829E+02 -0.95953409648E+02  0.43569470237E+03  0.44768769774E+03  0.00000000000E+00 0.  1.
         12    1    5    5    0    0  0.43063446408E+01  0.13029383235E+02  0.13284153150E+03  0.13354842539E+03  0.00000000000E+00 0. -1.
         13    1    3    3    0    0  0.42933029176E+02  0.25546018526E+02 -0.59880572844E+02  0.77984146215E+02  0.00000000000E+00 0. -1.
        -14    1    3    3    0    0  0.39292977536E+02 -0.53092279003E+02 -0.12376767150E+03  0.14028957439E+03  0.00000000000E+00 0.  1.
          5    1    4    4  501    0  0.35996291466E+02  0.34044218536E+02  0.34027456786E+02  0.60250162078E+02  0.41800000000E+01 0.  1.
         -5    1    4    4    0  501 -0.85281572991E+02  0.76426068355E+02  0.21372521854E+03  0.24250738557E+03  0.41800000000E+01 0.  1.
</event>
<event>
11    1  0.8037748E-009  0.1474971E+03  0.7561462E-02  0.1099464E+00
         22   -1    0    0    0    0  0.00000000000E+00  0.00000000000E+00  0.58769094273E+03  0.58769094273E+03  0.00000000000E+00 0.  1.
         22   -1    0    0    0    0 -0.00000000000E+00 -0.00000000000E+00 -0.40844072950E+03  0.40844072950E+03  0.00000000000E+00 0. -1.
        -24    2    1    2    0    0  0.46250912893E+02 -0.58199568129E+02 -0.27958573068E+03  0.29980006695E+03  0.78648348164E+02 0.  0.
         25    2    1    2    0    0 -0.48332437817E+02  0.87765692980E+02 -0.59450018149E+02  0.17094968280E+03  0.12510254986E+03 0.  0.
         24    2    1    2    0    0  0.20815249238E+01 -0.29566124851E+02  0.51828596205E+03  0.52538192248E+03  0.80791939706E+02 0.  0.
        -11    1    5    5    0    0 -0.39099144218E+02 -0.16136514384E+02  0.28273988201E+03  0.28588629042E+03  0.00000000000E+00 0.  1.
         12    1    5    5    0    0  0.41180669142E+02 -0.13429610467E+02  0.23554608005E+03  0.23949563206E+03  0.00000000000E+00 0. -1.
         13    1    3    3    0    0  0.58015833045E+02 -0.51235173980E+02 -0.27451529496E+03  0.28521838493E+03  0.00000000000E+00 0. -1.
        -14    1    3    3    0    0 -0.11764920152E+02 -0.69643941491E+01 -0.50704357212E+01  0.14581682017E+02  0.00000000000E+00 0.  1.
          5    1    4    4  501    0 -0.39939928013E+02  0.99989593712E+02  0.18248378222E+01  0.10776789472E+03  0.41800000000E+01 0. -1.
         -5    1    4    4    0  501 -0.83925098037E+01 -0.12223900732E+02 -0.61274855971E+02  0.63181788073E+02  0.41800000000E+01 0. -1.
</event>
<event>
11    1  0.8037748E-009  0.1813942E+03  0.7561462E-02  0.1068521E+00
         22   -1    0    0    0    0  0.00000000000E+00  0.00000000000E+00  0.29847802740E+04  0.29847802740E+04  0.00000000000E+00 0.  1.
         22   -1    0    0    0    0 -0.00000000000E+00 -0.00000000000E+00 -0.21834386841E+03  0.21834386841E+03  0.00000000000E+00 0. -1.
         24    2    1    2    0    0 -0.21039223367E+02  0.97771043538E+02 -0.16580661835E+03  0.20993168300E+03  0.81102718602E+02 0.  0.
         25    2    1    2    0    0  0.10314689894E+03  0.10875556844E+02  0.20620021893E+03  0.26253395770E+03  0.12509191887E+03 0.  0.
        -24    2    1    2    0    0 -0.82107675572E+02 -0.10864660038E+03  0.27260428050E+04  0.27306585017E+04  0.81490637317E+02 0.  0.
        -11    1    3    3    0    0  0.38464498635E+01  0.74473415967E+02 -0.51441784503E+02  0.90594382029E+02  0.00000000000E+00 0.  1.
         12    1    3    3    0    0 -0.24885673231E+02  0.23297627571E+02 -0.11436483385E+03  0.11933730097E+03  0.00000000000E+00 0. -1.
         11    1    5    5    0    0 -0.17286751596E+02 -0.75232730346E+02  0.18404482665E+04  0.18420663986E+04  0.00000000000E+00 0. -1.
        -12    1    5    5    0    0 -0.64820923976E+02 -0.33413870036E+02  0.88559453854E+03  0.88859210305E+03  0.00000000000E+00 0.  1.
          5    1    4    4  501    0  0.12095812122E+03 -0.16371492067E+02  0.19016460028E+03  0.22600650531E+03  0.41800000000E+01 0.  1.
         -5    1    4    4    0  501 -0.17811222278E+02  0.27247048911E+02  0.16035618647E+02  0.36527452399E+02  0.41800000000E+01 0.  1.
</event>
<event>
11    1  0.8037748E-009  0.1756545E+03  0.7561462E-02  0.1073213E+00
         22   -1    0    0    0    0  0.00000000000E+00  0.00000000000E+00  0.18172258855E+03  0.18172258855E+03  0.00000000000E+00 0. -1.
         22   -1    0    0    0    0 -0.00000000000E+00 -0.00000000000E+00 -0.21999369474E+04  0.21999369474E+04  0.00000000000E+00 0. -1.
        -24    2    1    2    0    0 -0.48429268204E+02 -0.14639373750E+02 -0.16073711889E+04  0.16104199623E+04  0.85150516691E+02 0.  0.
         25    2    1    2    0    0  0.16726907798E+03  0.35035571833E+02 -0.53874066319E+03  0.57887441920E+03  0.12509058837E+03 0.  0.
         24    2    1    2    0    0 -0.11883980977E+03 -0.20396198083E+02  0.12789749325E+03  0.19236515452E+03  0.78151638573E+02 0.  0.
        -13    1    5    5    0    0 -0.20221553178E+02  0.17876382220E+02  0.62293548324E+02  0.67889339494E+02  0.00000000000E+00 0.  1.
         14    1    5    5    0    0 -0.98618256595E+02 -0.38272580303E+02  0.65603944923E+02  0.12447581503E+03  0.00000000000E+00 0. -1.
         11    1    3    3    0    0 -0.10046904059E+02 -0.15755104263E+02 -0.13563625044E+04  0.13564912115E+04  0.00000000000E+00 0. -1.
        -12    1    3    3    0    0 -0.38382364146E+02  0.11157305138E+01 -0.25100868459E+03  0.25392875078E+03  0.00000000000E+00 0.  1.
          5    1    4    4  501    0  0.16759057823E+03  0.62439649205E+02 -0.50147094438E+03  0.53242454128E+03  0.41800000000E+01 0. -1.
         -5    1    4    4    0  501 -0.32150025238E+00 -0.27404077372E+02 -0.37269718805E+02  0.46449877921E+02  0.41800000000E+01 0. -1.
</event>
<event>
11    1  0.8037748E-009  0.1464231E+03  0.7561462E-02  0.1100591E+00
         22   -1    0    0    0    0  0.00000000000E+00  0.00000000000E+00  0.97359990570E+02  0.97359990570E+02  0.00000000000E+00 0.  1.
         22   -1    0    0    0    0 -0.00000000000E+00 -0.00000000000E+00 -0.15121056035E+04  0.15121056035E+04  0.00000000000E+00 0. -1.
         24    2    1    2    0    0 -0.44559716426E+02  0.28572522453E+02 -0.84024590465E+03  0.84568717692E+03  0.79822700772E+02 0.  0.
         25    2    1    2    0    0  0.95134201016E+02  0.27625344844E+02 -0.62366771826E+03  0.64375646059E+03  0.12508909574E+03 0.  0.
        -24    2    1    2    0    0 -0.50574484590E+02 -0.56197867298E+02  0.49168009959E+02  0.12002195658E+03  0.79194684655E+02 0.  0.
        -13    1    3    3    0    0 -0.68372087064E+01 -0.45288595029E+01 -0.65866013117E+01  0.10518617216E+02  0.00000000000E+00 0.  1.
         14    1    3    3    0    0 -0.37722507720E+02  0.33101381956E+02 -0.83365930334E+03  0.83516855971E+03  0.00000000000E+00 0. -1.
         11    1    5    5    0    0  0.30360778132E+01  0.15386935020E+02 -0.37216876543E+01  0.16119134493E+02  0.00000000000E+00 0. -1.
        -12    1    5    5    0    0 -0.53610562403E+02 -0.71584802318E+02  0.52889697613E+02  0.10390282209E+03  0.00000000000E+00 0.  1.
          5    1    4    4  501    0  0.32838300408E+01  0.45003635550E+00 -0.40449685323E+03  0.40453202931E+03  0.41800000000E+01 0. -1.
         -5    1    4    4    0  501  0.91850370975E+02  0.27175308489E+02 -0.21917086503E+03  0.23922443127E+03  0.41800000000E+01 0. -1.
</event>
<event>
11    1  0.8037748E-009  0.1594918E+03  0.7561462E-02  0.1087556E+00
         22   -1    0    0    0    0  0.00000000000E+00  0.00000000000E+00  0.16082275972E+03  0.16082275972E+03  0.00000000000E+00 0. -1.
         22   -1    0    0    0    0 -0.00000000000E+00 -0.00000000000E+00 -0.39815407410E+03  0.39815407410E+03  0.00000000000E+00 0.  1.
        -24    2    1    2    0    0 -0.55339535611E+02 -0.77102762186E+02 -0.24454133855E+03  0.27485093535E+03  0.82068692353E+02 0.  0.
         25    2    1    2    0    0  0.77891084936E+02  0.86386037726E+02 -0.52474622208E+02  0.17869157951E+03  0.12509007149E+03 0.  0.
         24    2    1    2    0    0 -0.22551549325E+02 -0.92832755397E+01  0.59684646375E+02  0.10543431896E+03  0.83422940606E+02 0.  0.
        -11    1    5    5    0    0 -0.53927226488E+02 -0.77392599230E+00  0.31837200572E+02  0.62628683991E+02  0.00000000000E+00 0.  1.
         12    1    5    5    0    0  0.31375677163E+02 -0.85093495474E+01  0.27847445803E+02  0.42805634967E+02  0.00000000000E+00 0. -1.
         11    1    3    3    0    0  0.15233989710E+02 -0.42228974037E+01 -0.80009486657E+02  0.81556270514E+02  0.00000000000E+00 0. -1.
        -12    1    3    3    0    0 -0.70573525321E+02 -0.72879864783E+02 -0.16453185189E+03  0.19329466484E+03  0.00000000000E+00 0.  1.
          5    1    4    4  501    0  0.46045551124E+02 -0.12344459174E+02  0.20217387310E+02  0.51949914343E+02  0.41800000000E+01 0.  1.
         -5    1    4    4    0  501  0.31845533812E+02  0.98730496901E+02 -0.72692009517E+02  0.12674166517E+03  0.41800000000E+01 0.  1.
</event>
<event>
11    1  0.8037748E-009  0.1447529E+03  0.7561462E-02  0.1102364E+00
         22   -1    0    0    0    0  0.00000000000E+00  0.00000000000E+00  0.83695703332E+02  0.83695703332E+02  0.00000000000E+00 0. -1.
         22   -1    0    0    0    0 -0.00000000000E+00 -0.00000000000E+00 -0.26092439890E+04  0.26092439890E+04  0.00000000000E+00 0.  1.
         24    2    1    2    0    0 -0.66736999670E+02 -0.92261560794E+01 -0.20106777891E+04  0.20144840982E+04  0.10383670377E+03 0.  0.
         25    2    1    2    0    0  0.11263218746E+03 -0.22793085190E+02 -0.54885750288E+03  0.57454152831E+03  0.12509146612E+03 0.  0.
        -24    2    1    2    0    0 -0.45895187791E+02  0.32019241270E+02  0.33987006370E+02  0.10391406582E+03  0.80693347919E+02 0.  0.
        -13    1    3    3    0    0 -0.31004571517E+02 -0.48734688511E+02 -0.14829533685E+04  0.14840778438E+04  0.00000000000E+00 0.  1.
         14    1    3    3    0    0 -0.35732428153E+02  0.39508532432E+02 -0.52772442058E+03  0.53040625433E+03  0.00000000000E+00 0. -1.
         13    1    5    5    0    0 -0.54615122724E+02  0.23085409994E+01  0.45252712724E+02  0.70964420667E+02  0.00000000000E+00 0. -1.
        -14    1    5    5    0    0  0.87199349327E+01  0.29710700270E+02 -0.11265706354E+02  0.32949645149E+02  0.00000000000E+00 0.  1.
          5    1    4    4  501    0  0.10841344769E+03  0.12685552926E+02 -0.51009339815E+03  0.52165807396E+03  0.41800000000E+01 0. -1.
         -5    1    4    4    0  501  0.42187397756E+01 -0.35478638116E+02 -0.38764104729E+02  0.52883454344E+02  0.41800000000E+01 0. -1.
</event>
<event>
11    1  0.8037748E-009  0.2759454E+03  0.7561462E-02  0.1010919E+00
         22   -1    0    0    0    0  0.00000000000E+00  0.00000000000E+00  0.42283077800E+04  0.42283077800E+04  0.00000000000E+00 0.  1.
         22   -1    0    0    0    0 -0.00000000000E+00 -0.00000000000E+00 -0.53663965056E+02  0.53663965056E+02  0.00000000000E+00 0.  1.
         24    2    1    2    0    0 -0.13601977148E+03  0.20959681538E+03  0.43588787037E+03  0.50882501442E+03  0.80451578693E+02 0.  0.
         25    2    1    2    0    0  0.14231648345E+03 -0.18998246647E+03  0.10696513733E+04  0.11027913690E+04  0.12508966432E+03 0.  0.
        -24    2    1    2    0    0 -0.62967119717E+01 -0.19614348915E+02  0.26691045713E+04  0.26703553616E+04  0.79083334083E+02 0.  0.
        -11    1    3    3    0    0 -0.55136900614E+02  0.12812387246E+03  0.17494638512E+03  0.22374548525E+03  0.00000000000E+00 0.  1.
         12    1    3    3    0    0 -0.80882870863E+02  0.81472942922E+02  0.26094148525E+03  0.28507952917E+03  0.00000000000E+00 0. -1.
         11    1    5    5    0    0  0.34163105545E+02  0.16373118997E+01  0.87363224336E+03  0.87430148988E+03  0.00000000000E+00 0. -1.
        -12    1    5    5    0    0 -0.40459817517E+02 -0.21251660815E+02  0.17954723279E+04  0.17960538717E+04  0.00000000000E+00 0.  1.
          5    1    4    4  501    0  0.62902701343E+02 -0.16276125810E+03  0.57019998923E+03  0.59631659133E+03  0.41800000000E+01 0.  1.
         -5    1    4    4    0  501  0.79413782106E+02 -0.27221208367E+02  0.49945138405E+03  0.50647477765E+03  0.41800000000E+01 0.  1.
</event>
<event>
11    1  0.8037748E-009  0.1390474E+03  0.7561462E-02  0.1108627E+00
         22   -1    0    0    0    0  0.00000000000E+00  0.00000000000E+00  0.39138984644E+03  0.39138984644E+03  0.00000000000E+00 0.  1.
         22   -1    0    0    0    0 -0.00000000000E+00 -0.00000000000E+00 -0.41291753281E+03  0.41291753281E+03  0.00000000000E+00 0.  1.
         24    2    1    2    0    0 -0.33155622528E+02  0.52677077133E+01 -0.32556790443E+03  0.33681248437E+03  0.79505629872E+02 0.  0.
         25    2    1    2    0    0  0.89976019024E+02  0.32606826159E+01  0.74756263101E+01  0.15430250288E+03  0.12508821430E+03 0.  0.
        -24    2    1    2    0    0 -0.56820396496E+02 -0.85283903293E+01  0.29656459175E+03  0.31319239201E+03  0.82689941546E+02 0.  0.
        -11    1    3    3    0    0 -0.47119901314E+02  0.23747803072E+02 -0.28710532737E+03  0.29191387815E+03  0.00000000000E+00 0.  1.
         12    1    3    3    0    0  0.13964278785E+02 -0.18480095358E+02 -0.38462577056E+02  0.44898606217E+02  0.00000000000E+00 0. -1.
         11    1    5    5    0    0 -0.48425625709E+02 -0.12343990254E+02  0.67724761514E+02  0.84166850023E+02  0.00000000000E+00 0. -1.
        -12    1    5    5    0    0 -0.83947707868E+01  0.38155999243E+01  0.22883983024E+03  0.22902554199E+03  0.00000000000E+00 0.  1.
          5    1    4    4  501    0 -0.28323923207E+02 -0.17639202183E+02  0.55452190485E+01  0.34082369838E+02  0.41800000000E+01 0.  1.
         -5    1    4    4    0  501  0.11829994223E+03  0.20899884799E+02  0.19304072616E+01  0.12022013304E+03  0.41800000000E+01 0.  1.
</event>
<event>
11    1  0.8037748E-009  0.2395245E+03  0.7561462E-02  0.1029632E+00
         22   -1    0    0    0    0  0.00000000000E+00  0.00000000000E+00  0.13056445974E+04  0.13056445974E+04  0.00000000000E+00 0.  1.
         22   -1    0    0    0    0 -0.00000000000E+00 -0.00000000000E+00 -0.24158179053E+03  0.24158179053E+03  0.00000000000E+00 0.  1.
        -24    2    1    2    0    0  0.81075356219E+02  0.16572490825E+03 -0.76728368050E+02  0.21539184212E+03  0.80426641047E+02 0.  0.
         25    2    1    2    0    0 -0.11608133483E+02 -0.33566683002E+03  0.29977931177E+03  0.46724646754E+03  0.12507859979E+03 0.  0.
         24    2    1    2    0    0 -0.69467222736E+02  0.16994192177E+03  0.84101186316E+03  0.86458807828E+03  0.80657543418E+02 0.  0.
        -11    1    5    5    0    0 -0.40328273912E+02  0.16198936364E+03  0.76027641153E+03  0.77838752915E+03  0.00000000000E+00 0.  1.
         12    1    5    5    0    0 -0.29138948823E+02  0.79525581288E+01  0.80735451631E+02  0.86200549125E+02  0.00000000000E+00 0. -1.
         13    1    3    3    0    0 -0.14003212446E+02  0.24489228316E+02  0.10071356110E+01  0.28228116913E+02  0.00000000000E+00 0. -1.
        -14    1    3    3    0    0  0.95078568666E+02  0.14123567993E+03 -0.77735503661E+02  0.18716372521E+03  0.00000000000E+00 0.  1.
          5    1    4    4  501    0  0.42671947822E+02 -0.25973094664E+03  0.24070185058E+03  0.35670143404E+03  0.41800000000E+01 0. -1.
         -5    1    4    4    0  501 -0.54280081305E+02 -0.75935883376E+02  0.59077461190E+02  0.11054503350E+03  0.41800000000E+01 0. -1.
</event>
<event>
11    1  0.8037748E-009  0.3108406E+03  0.7561462E-02  0.9957048E-01
         22   -1    0    0    0    0  0.00000000000E+00  0.00000000000E+00  0.23016911345E+04  0.23016911345E+04  0.00000000000E+00 0. -1.
         22   -1    0    0    0    0 -0.00000000000E+00 -0.00000000000E+00 -0.63468424802E+03  0.63468424802E+03  0.00000000000E+00 0. -1.
         24    2    1    2    0    0 -0.10628125068E+03  0.26276157387E+03 -0.54793899634E+03  0.62184552884E+03  0.78200825299E+02 0.  0.
         25    2    1    2    0    0  0.38090952191E+02 -0.31016057289E+03  0.54450904375E+03  0.64014668144E+03  0.12508866223E+03 0.  0.
        -24    2    1    2    0    0  0.68190298493E+02  0.47398999016E+02  0.16704368391E+04  0.16743831722E+04  0.79392646211E+02 0.  0.
        -11    1    3    3    0    0 -0.17886526271E+01  0.10368395547E+03 -0.19505214506E+03  0.22090473329E+03  0.00000000000E+00 0.  1.
         12    1    3    3    0    0 -0.10449259806E+03  0.15907761841E+03 -0.35288685128E+03  0.40094079554E+03  0.00000000000E+00 0. -1.
         11    1    5    5    0    0  0.32792115969E+02  0.40463300373E+02  0.14561834159E+04  0.14571145262E+04  0.00000000000E+00 0. -1.
        -12    1    5    5    0    0  0.35398182523E+02  0.69356986433E+01  0.21425342313E+03  0.21726864606E+03  0.00000000000E+00 0.  1.
          5    1    4    4  501    0  0.64950658026E+02 -0.13675996994E+03  0.32913567489E+03  0.36231152651E+03  0.41800000000E+01 0.  1.
         -5    1    4    4    0  501 -0.26859705835E+02 -0.17340060295E+03  0.21537336886E+03  0.27783515493E+03  0.41800000000E+01 0.  1.
</event>
<event>
11    1  0.8037748E-009  0.1298080E+03  0.7561462E-02  0.1119505E+00
         22   -1    0    0    0    0  0.00000000000E+00  0.00000000000E+00  0.11955324007E+04  0.11955324007E+04  0.00000000000E+00 0. -1.
         22   -1    0    0    0    0 -0.00000000000E+00 -0.00000000000E+00 -0.13041125754E+03  0.13041125754E+03  0.00000000000E+00 0. -1.
         24    2    1    2    0    0 -0.33470503109E+02  0.97597788341E+01 -0.92596031352E+02  0.13988468538E+03  0.98884641481E+02 0.  0.
         25    2    1    2    0    0  0.38117827762E+02  0.20476659341E+02  0.35664499420E+03  0.38041545883E+03  0.12509199438E+03 0.  0.
        -24    2    1    2    0    0 -0.46473246527E+01 -0.30236438175E+02  0.80107218034E+03  0.80564351405E+03  0.80056191511E+02 0.  0.
        -13    1    3    3    0    0 -0.64260030205E+02  0.23854699388E+02 -0.47088586868E+02  0.83160887309E+02  0.00000000000E+00 0.  1.
         14    1    3    3    0    0  0.30789527096E+02 -0.14094920554E+02 -0.45507444484E+02  0.56723798072E+02  0.00000000000E+00 0. -1.
         13    1    5    5    0    0  0.27516677248E+02 -0.42978819372E+02  0.46096470403E+03  0.46378098797E+03  0.00000000000E+00 0. -1.
        -14    1    5    5    0    0 -0.32164001900E+02  0.12742381197E+02  0.34010747631E+03  0.34186252608E+03  0.00000000000E+00 0.  1.
          5    1    4    4  501    0 -0.40265695536E+02 -0.39683453158E+01  0.59269563234E+02  0.71884821259E+02  0.41800000000E+01 0. -1.
         -5    1    4    4    0  501  0.78383523298E+02  0.24445004656E+02  0.29737543097E+03  0.30853063757E+03  0.41800000000E+01 0. -1.
</event>
<event>
11    1  0.8037748E-009  0.1576763E+03  0.7561462E-02  0.1089283E+00
         22   -1    0    0    0    0  0.00000000000E+00  0.00000000000E+00  0.19073278026E+03  0.19073278026E+03  0.00000000000E+00 0.  1.
         22   -1    0    0    0    0 -0.00000000000E+00 -0.00000000000E+00 -0.19134883624E+04  0.19134883624E+04  0.00000000000E+00 0.  1.
         24    2    1    2    0    0 -0.15758844571E+02 -0.59421543400E+02 -0.16696552172E+04  0.16727435460E+04  0.80889835834E+02 0.  0.
         25    2    1    2    0    0  0.88640219878E+02  0.11366143955E+03 -0.17482960993E+03  0.25882227656E+03  0.12509023509E+03 0.  0.
        -24    2    1    2    0    0 -0.72881375307E+02 -0.54239896153E+02  0.12172924499E+03  0.17265532003E+03  0.82086474206E+02 0.  0.
        -13    1    3    3    0    0  0.15325472529E+01 -0.59682670944E+01 -0.11574672668E+04  0.11574836684E+04  0.00000000000E+00 0.  1.
         14    1    3    3    0    0 -0.17291391824E+02 -0.53453276305E+02 -0.51218795034E+03  0.51525987759E+03  0.00000000000E+00 0. -1.
         11    1    5    5    0    0 -0.13412899688E+02  0.16872657288E+02  0.26048462859E+01  0.21711233640E+02  0.00000000000E+00 0. -1.
        -12    1    5    5    0    0 -0.59468475619E+02 -0.71112553441E+02  0.11912439871E+03  0.15094408639E+03  0.00000000000E+00 0.  1.
          5    1    4    4  501    0  0.34798944590E+01  0.24368544125E+02  0.17348026401E+02  0.30403322651E+02  0.41800000000E+01 0. -1.
         -5    1    4    4    0  501  0.85160325419E+02  0.89292895427E+02 -0.19217763633E+03  0.22841895391E+03  0.41800000000E+01 0. -1.
</event>
<event>
11    1  0.8037748E-009  0.1550309E+03  0.7561462E-02  0.1091846E+00
         22   -1    0    0    0    0  0.00000000000E+00  0.00000000000E+00  0.12397758969E+04  0.12397758969E+04  0.00000000000E+00 0.  1.
         22   -1    0    0    0    0 -0.00000000000E+00 -0.00000000000E+00 -0.65842658468E+03  0.65842658468E+03  0.00000000000E+00 0. -1.
         24    2    1    2    0    0 -0.18127208837E+02 -0.21328255210E+02 -0.56483283049E+03  0.57123197075E+03  0.80537865832E+02 0.  0.
         25    2    1    2    0    0  0.52665626541E+02  0.10506256864E+03 -0.23743823623E+01  0.17165758701E+03  0.12509547530E+03 0.  0.
        -24    2    1    2    0    0 -0.34538417704E+02 -0.83734313428E+02  0.11485565251E+04  0.11553129238E+04  0.85799318795E+02 0.  0.
        -11    1    3    3    0    0 -0.88754169368E+01 -0.19787183729E+02 -0.34071534425E+02  0.40387809099E+02  0.00000000000E+00 0.  1.
         12    1    3    3    0    0 -0.92517919004E+01 -0.15410714809E+01 -0.53076129607E+03  0.53084416165E+03  0.00000000000E+00 0. -1.
         13    1    5    5    0    0  0.28119599933E+02 -0.37012902022E+02  0.45318261163E+03  0.45556025540E+03  0.00000000000E+00 0. -1.
        -14    1    5    5    0    0 -0.62658017637E+02 -0.46721411406E+02  0.69537391345E+03  0.69975266842E+03  0.00000000000E+00 0.  1.
          5    1    4    4  501    0  0.92297984452E+02  0.86231628145E+02  0.70730502512E+01  0.12657927187E+03  0.41800000000E+01 0.  1.
         -5    1    4    4    0  501 -0.39632357910E+02  0.18830940493E+02 -0.94474326134E+01  0.45078315145E+02  0.41800000000E+01 0.  1.
</event>
<event>
11    1  0.8037748E-009  0.1511486E+03  0.7561462E-02  0.1095711E+00
         22   -1    0    0    0    0  0.00000000000E+00  0.00000000000E+00  0.39921950050E+03  0.39921950050E+03  0.00000000000E+00 0. -1.
         22   -1    0    0    0    0 -0.00000000000E+00 -0.00000000000E+00 -0.27889646403E+03  0.27889646403E+03  0.00000000000E+00 0. -1.
         24    2    1    2    0    0  0.32720834493E+02  0.68156387518E+02 -0.88804474583E+02  0.14256460204E+03  0.81990760946E+02 0.  0.
         25    2    1    2    0    0  0.46678817966E+02 -0.98797855474E+02 -0.10764025893E+03  0.19791622271E+03  0.12507788604E+03 0.  0.
        -24    2    1    2    0    0 -0.79399652459E+02  0.30641467956E+02  0.31676776998E+03  0.33763513977E+03  0.80077856731E+02 0.  0.
        -13    1    3    3    0    0  0.46873118121E+02  0.38686197825E+02 -0.91408397331E+02  0.10976887631E+03  0.00000000000E+00 0.  1.
         14    1    3    3    0    0 -0.14152283629E+02  0.29470189693E+02  0.26039227482E+01  0.32795725730E+02  0.00000000000E+00 0. -1.
         13    1    5    5    0    0 -0.85094700385E+02  0.37391012349E+02  0.31525991485E+03  0.32867614722E+03  0.00000000000E+00 0. -1.
        -14    1    5    5    0    0  0.56950479262E+01 -0.67495443930E+01  0.15078551275E+01  0.89589925483E+01  0.00000000000E+00 0.  1.
          5    1    4    4  501    0  0.40804440495E+02  0.12061312210E+02  0.67303968314E+00  0.42759829265E+02  0.41800000000E+01 0. -1.
         -5    1    4    4    0  501  0.58743774710E+01 -0.11085916768E+03 -0.10831329861E+03  0.15515639344E+03  0.41800000000E+01 0. -1.
</event>
<event>
11    1  0.8037748E-009  0.1350882E+03  0.7561462E-02  0.1113171E+00
         22   -1    0    0    0    0  0.00000000000E+00  0.00000000000E+00  0.19674447836E+03  0.19674447836E+03  0.00000000000E+00 0.  1.
         22   -1    0    0    0    0 -0.00000000000E+00 -0.00000000000E+00 -0.19666084730E+03  0.19666084730E+03  0.00000000000E+00 0. -1.
        -24    2    1    2    0    0  0.24134725918E+02 -0.42286680617E+02 -0.10826877247E+03  0.14241555159E+03  0.78672828149E+02 0.  0.
         25    2    1    2    0    0 -0.45372321039E+02  0.50621578283E+02  0.72791924143E+02  0.15990031862E+03  0.12509298929E+03 0.  0.
         24    2    1    2    0    0  0.21237595121E+02 -0.83348976668E+01  0.35560479386E+02  0.91089455460E+02  0.80698421523E+02 0.  0.
        -13    1    5    5    0    0  0.48127354656E+02  0.17771234824E+01  0.38696165187E+01  0.48315363665E+02  0.00000000000E+00 0.  1.
         14    1    5    5    0    0 -0.26889759536E+02 -0.10112021149E+02  0.31690862867E+02  0.42774091795E+02  0.00000000000E+00 0. -1.
         13    1    3    3    0    0  0.34117865553E+02  0.12765809064E+02 -0.46588695611E+02  0.59139675258E+02  0.00000000000E+00 0. -1.
        -14    1    3    3    0    0 -0.99831396346E+01 -0.55052489681E+02 -0.61680076861E+02  0.83275876330E+02  0.00000000000E+00 0.  1.
          5    1    4    4  501    0  0.19561143522E+02  0.70153822784E+02  0.26154951793E+02  0.77496781161E+02  0.41800000000E+01 0.  1.
         -5    1    4    4    0  501 -0.64933464561E+02 -0.19532244500E+02  0.46636972350E+02  0.82403537455E+02  0.41800000000E+01 0.  1.
</event>
<event>
11    1  0.8037748E-009  0.2091048E+03  0.7561462E-02  0.1048266E+00
         22   -1    0    0    0    0  0.00000000000E+00  0.00000000000E+00  0.50338776861E+03  0.50338776861E+03  0.00000000000E+00 0. -1.
         22   -1    0    0    0    0 -0.00000000000E+00 -0.00000000000E+00 -0.18729448534E+04  0.18729448534E+04  0.00000000000E+00 0.  1.
        -24    2    1    2    0    0  0.27328244247E+00 -0.15530191379E+02 -0.16726088216E+04  0.16745997565E+04  0.80142452871E+02 0.  0.
         25    2    1    2    0    0  0.77564171630E+02  0.16243395003E+03 -0.11343545100E+03  0.24681166137E+03  0.12508959109E+03 0.  0.
         24    2    1    2    0    0 -0.77837454073E+02 -0.14690375866E+03  0.41648718784E+03  0.45492120414E+03  0.76500593268E+02 0.  0.
        -11    1    5    5    0    0  0.53460888186E+00 -0.23224623449E+02  0.14138222419E+03  0.14327805923E+03  0.00000000000E+00 0.  1.
         12    1    5    5    0    0 -0.78372062955E+02 -0.12367913521E+03  0.27510496366E+03  0.31164314490E+03  0.00000000000E+00 0. -1.
         11    1    3    3    0    0  0.35906034684E+02 -0.18789163114E+02 -0.11787425495E+04  0.11794389658E+04  0.00000000000E+00 0. -1.
        -12    1    3    3    0    0 -0.35632752242E+02  0.32589717344E+01 -0.49386627215E+03  0.49516079075E+03  0.00000000000E+00 0.  1.
          5    1    4    4  501    0  0.95956053301E+02  0.93821975453E+02 -0.11325562177E+03  0.17565430682E+03  0.41800000000E+01 0. -1.
         -5    1    4    4    0  501 -0.18391881671E+02  0.68611974582E+02 -0.17982922720E+00  0.71157354546E+02  0.41800000000E+01 0. -1.
</event>
<event>
11    1  0.8037748E-009  0.3919379E+03  0.7561462E-02  0.9673850E-01
         22   -1    0    0    0    0  0.00000000000E+00  0.00000000000E+00  0.74650357937E+03  0.74650357937E+03  0.00000000000E+00 0.  1.
         22   -1    0    0    0    0 -0.00000000000E+00 -0.00000000000E+00 -0.12597948783E+04  0.12597948783E+04  0.00000000000E+00 0.  1.
        -24    2    1    2    0    0  0.37233966108E+03  0.46352291977E+02 -0.10186262846E+04  0.10883848797E+04  0.78719631957E+02 0.  0.
         25    2    1    2    0    0 -0.35130653538E+03 -0.33445444325E+02 -0.30354926001E+02  0.37563645175E+03  0.12508574181E+03 0.  0.
         24    2    1    2    0    0 -0.21033125697E+02 -0.12906847652E+02  0.53568991173E+03  0.54227712618E+03  0.80571837243E+02 0.  0.
        -13    1    5    5    0    0 -0.26974975672E+02 -0.11252935223E+02  0.53529970630E+03  0.53609705597E+03  0.00000000000E+00 0.  1.
         14    1    5    5    0    0  0.59418499750E+01 -0.16539124288E+01  0.39020543140E+00  0.61800702040E+01  0.00000000000E+00 0. -1.
         13    1    3    3    0    0 -0.11270915780E+01 -0.44552360558E+01 -0.42911136293E+01  0.62875368721E+01  0.00000000000E+00 0. -1.
        -14    1    3    3    0    0  0.37346675266E+03  0.50807528032E+02 -0.10143351710E+04  0.10820973428E+04  0.00000000000E+00 0.  1.
          5    1    4    4  501    0 -0.24470468369E+03 -0.79901244959E+02 -0.30694278915E+02  0.25927630498E+03  0.41800000000E+01 0. -1.
         -5    1    4    4    0  501 -0.10660185169E+03  0.46455800635E+02  0.33935291371E+00  0.11636014677E+03  0.41800000000E+01 0. -1.
</event>
<event>
11    1  0.8037748E-009  0.8376905E+03  0.7561462E-02  0.8850857E-01
         22   -1    0    0    0    0  0.00000000000E+00  0.00000000000E+00  0.57233111439E+03  0.57233111439E+03  0.00000000000E+00 0.  1.
         22   -1    0    0    0    0 -0.00000000000E+00 -0.00000000000E+00 -0.30652069172E+03  0.30652069172E+03  0.00000000000E+00 0.  1.
         24    2    1    2    0    0  0.17663772725E+03 -0.12608835104E+03 -0.67622664727E+01  0.23211276016E+03  0.82045391240E+02 0.  0.
         25    2    1    2    0    0 -0.32612628508E+03  0.19162568876E+03  0.23082272785E+03  0.46044039933E+03  0.12508985259E+03 0.  0.
        -24    2    1    2    0    0  0.14948855783E+03 -0.65537337724E+02  0.41749961288E+02  0.18629864662E+03  0.79511979639E+02 0.  0.
        -13    1    3    3    0    0  0.87863441722E+01 -0.50698973824E+00  0.18967205584E+02  0.20909609518E+02  0.00000000000E+00 0.  1.
         14    1    3    3    0    0  0.16785138308E+03 -0.12558136130E+03 -0.25729472057E+02  0.21120315064E+03  0.00000000000E+00 0. -1.
         11    1    5    5    0    0  0.59058365851E+02 -0.36049203490E+02  0.57402633492E+02  0.89902713980E+02  0.00000000000E+00 0. -1.
        -12    1    5    5    0    0  0.90430191979E+02 -0.29488134234E+02 -0.15652672204E+02  0.96395932638E+02  0.00000000000E+00 0.  1.
          5    1    4    4  501    0 -0.86267395814E+02  0.53663856659E+02  0.25669302809E+01  0.10171496755E+03  0.41800000000E+01 0. -1.
         -5    1    4    4    0  501 -0.23985888927E+03  0.13796183210E+03  0.22825579757E+03  0.35872543178E+03  0.41800000000E+01 0. -1.
</event>
<event>
11    1  0.8037748E-009  0.1674276E+03  0.7561462E-02  0.1080292E+00
         22   -1    0    0    0    0  0.00000000000E+00  0.00000000000E+00  0.17806088264E+04  0.17806088264E+04  0.00000000000E+00 0.  1.
         22   -1    0    0    0    0 -0.00000000000E+00 -0.00000000000E+00 -0.19626387697E+03  0.19626387697E+03  0.00000000000E+00 0. -1.
         24    2    1    2    0    0  0.96184073078E+02 -0.53742832978E+02 -0.15531046319E+03  0.20589141259E+03  0.78296013879E+02 0.  0.
         25    2    1    2    0    0 -0.10315581928E+03  0.10473926210E+03  0.67478824483E+03  0.70185313890E+03  0.12508883701E+03 0.  0.
        -24    2    1    2    0    0  0.69717462066E+01 -0.50996429118E+02  0.10648671678E+04  0.10691281519E+04  0.80272530217E+02 0.  0.
        -11    1    3    3    0    0  0.49875237080E+02  0.11364233465E+02 -0.37009164930E+02  0.63137654097E+02  0.00000000000E+00 0.  1.
         12    1    3    3    0    0  0.46308835998E+02 -0.65107066443E+02 -0.11830129826E+03  0.14275375849E+03  0.00000000000E+00 0. -1.
         13    1    5    5    0    0 -0.10493157329E+02 -0.68658427404E+02  0.70845733039E+03  0.71185382979E+03  0.00000000000E+00 0. -1.
        -14    1    5    5    0    0  0.17464903535E+02  0.17661998286E+02  0.35640983743E+03  0.35727432213E+03  0.00000000000E+00 0.  1.
          5    1    4    4  501    0 -0.26359294201E+02  0.31415547339E+02  0.46368925278E+03  0.46551793150E+03  0.41800000000E+01 0. -1.
         -5    1    4    4    0  501 -0.76796525084E+02  0.73323714757E+02  0.21109899205E+03  0.23633520740E+03  0.41800000000E+01 0. -1.
</event>
<event>
11    1  0.8037748E-009  0.2369986E+03  0.7561462E-02  0.1031063E+00
         22   -1    0    0    0    0  0.00000000000E+00  0.00000000000E+00  0.11536636365E+03  0.11536636365E+03  0.00000000000E+00 0. -1.
         22   -1    0    0    0    0 -0.00000000000E+00 -0.00000000000E+00 -0.23044217670E+04  0.23044217670E+04  0.00000000000E+00 0.  1.
         24    2    1    2    0    0 -0.13563211772E+02  0.61119298380E+00 -0.14617333307E+04  0.14639452689E+04  0.79291146330E+02 0.  0.
         25    2    1    2    0    0 -0.18973483576E+03 -0.49744067464E+00 -0.69946373650E+03  0.73545678062E+03  0.12509037584E+03 0.  0.
        -24    2    1    2    0    0  0.20329804754E+03 -0.11375230917E+00 -0.27858336067E+02  0.22038608107E+03  0.80397940092E+02 0.  0.
        -13    1    3    3    0    0  0.12461456668E+02  0.10046530388E+02 -0.12813682706E+04  0.12814682461E+04  0.00000000000E+00 0.  1.
         14    1    3    3    0    0 -0.26024668441E+02 -0.94353374045E+01 -0.18036506010E+03  0.18247702284E+03  0.00000000000E+00 0. -1.
         11    1    5    5    0    0  0.20815015366E+03  0.44132370142E+01 -0.34455500391E+02  0.21102877680E+03  0.00000000000E+00 0. -1.
        -12    1    5    5    0    0 -0.48521061245E+01 -0.45269893234E+01  0.65971643242E+01  0.93573042751E+01  0.00000000000E+00 0.  1.
          5    1    4    4  501    0 -0.50771664009E+01 -0.32022066825E+02 -0.51974901951E+02  0.61400759077E+02  0.41800000000E+01 0. -1.
         -5    1    4    4    0  501 -0.18465766936E+03  0.31524626151E+02 -0.64748883455E+03  0.67405602154E+03  0.41800000000E+01 0. -1.
</event>
<event>
11    1  0.8037748E-009  0.1409616E+03  0.7561462E-02  0.1106489E+00
         22   -1    0    0    0    0  0.00000000000E+00  0.00000000000E+00  0.15966919350E+03  0.15966919350E+03  0.00000000000E+00 0. -1.
         22   -1    0    0    0    0 -0.00000000000E+00 -0.00000000000E+00 -0.24083293735E+03  0.24083293735E+03  0.00000000000E+00 0.  1.
         24    2    1    2    0    0 -0.16886537784E+02  0.19041861401E+02 -0.11161646671E+03  0.13978046815E+03  0.80203466206E+02 0.  0.
         25    2    1    2    0    0  0.35390114415E+01 -0.77321420361E+02 -0.75945121135E+01  0.14729532643E+03  0.12508840844E+03 0.  0.
        -24    2    1    2    0    0  0.13347526342E+02  0.58279558960E+02  0.38047234978E+02  0.11342633627E+03  0.88562284398E+02 0.  0.
        -11    1    3    3    0    0 -0.34709194700E+02 -0.57418900041E+01 -0.10181027721E+03  0.10771736185E+03  0.00000000000E+00 0.  1.
         12    1    3    3    0    0  0.17822656917E+02  0.24783751405E+02 -0.98061894989E+01  0.32063106302E+02  0.00000000000E+00 0. -1.
         11    1    5    5    0    0  0.33993377981E+02  0.52273899634E+02  0.57211127005E+02  0.84624011857E+02  0.00000000000E+00 0. -1.
        -12    1    5    5    0    0 -0.20645851639E+02  0.60056593264E+01 -0.19163892028E+02  0.28802324412E+02  0.00000000000E+00 0.  1.
          5    1    4    4  501    0 -0.58339885976E+02 -0.41043472132E+02  0.12833828409E+02  0.72596752351E+02  0.41800000000E+01 0. -1.
         -5    1    4    4    0  501  0.61878897417E+02 -0.36277948230E+02 -0.20428340522E+02  0.74698574082E+02  0.41800000000E+01 0. -1.
</event>
<event>
11    1  0.8037748E-009  0.1282552E+03  0.7561462E-02  0.1121432E+00
         22   -1    0    0    0    0  0.00000000000E+00  0.00000000000E+00  0.22136335278E+04  0.22136335278E+04  0.00000000000E+00 0. -1.
         22   -1    0    0    0    0 -0.00000000000E+00 -0.00000000000E+00 -0.51994983024E+03  0.51994983024E+03  0.00000000000E+00 0.  1.
         24    2    1    2    0    0  0.28439760849E+02 -0.70203828806E+01 -0.38508363435E+03  0.39475296625E+03  0.81745905982E+02 0.  0.
         25    2    1    2    0    0 -0.13089209666E+02  0.31162406248E+02 -0.96707980625E+02  0.16168365751E+03  0.12508696421E+03 0.  0.
        -24    2    1    2    0    0 -0.15350551182E+02 -0.24142023367E+02  0.21754753125E+04  0.21771467342E+04  0.80352911698E+02 0.  0.
        -11    1    3    3    0    0  0.43996554508E+02 -0.15616927994E+02 -0.36483533070E+03  0.36781028232E+03  0.00000000000E+00 0.  1.
         12    1    3    3    0    0 -0.15556793659E+02  0.85965451132E+01 -0.20248303643E+02  0.26942683928E+02  0.00000000000E+00 0. -1.
         13    1    5    5    0    0  0.31802309739E+02 -0.17370066547E+00  0.69613047479E+03  0.69685655268E+03  0.00000000000E+00 0. -1.
        -14    1    5    5    0    0 -0.47152860922E+02 -0.23968322702E+02  0.14793448377E+04  0.14802901816E+04  0.00000000000E+00 0.  1.
          5    1    4    4  501    0  0.49172893235E+02  0.38197223576E+02 -0.69030217128E+02  0.93057211407E+02  0.41800000000E+01 0. -1.
         -5    1    4    4    0  501 -0.62262102902E+02 -0.70348173284E+01 -0.27677763497E+02  0.68626446103E+02  0.41800000000E+01 0. -1.
</event>
<event>
11    1  0.8037748E-009  0.1261118E+03  0.7561462E-02  0.1124141E+00
         22   -1    0    0    0    0  0.00000000000E+00  0.00000000000E+00  0.18332568466E+03  0.18332568466E+03  0.00000000000E+00 0.  1.
         22   -1    0    0    0    0 -0.00000000000E+00 -0.00000000000E+00 -0.13681043279E+03  0.13681043279E+03  0.00000000000E+00 0.  1.
         24    2    1    2    0    0 -0.13970353651E+02  0.13720444777E+02 -0.46426299909E+02  0.93947581315E+02  0.79292656190E+02 0.  0.
         25    2    1    2    0    0  0.12579167005E+02  0.11053622805E+02  0.38613233331E+02  0.13198303816E+03  0.12509245603E+03 0.  0.
        -24    2    1    2    0    0  0.13911866465E+01 -0.24774067582E+02  0.54328318447E+02  0.94205497968E+02  0.72852040722E+02 0.  0.
        -13    1    3    3    0    0 -0.31842517152E+02  0.37584594707E+02 -0.39983703153E+02  0.63444812047E+02  0.00000000000E+00 0.  1.
         14    1    3    3    0    0  0.17872163501E+02 -0.23864149929E+02 -0.64425967565E+01  0.30502769268E+02  0.00000000000E+00 0. -1.
         13    1    5    5    0    0  0.14876768969E+02 -0.66738653997E+01  0.66563222049E+02  0.68531170016E+02  0.00000000000E+00 0. -1.
        -14    1    5    5    0    0 -0.13485582322E+02 -0.18100202182E+02 -0.12234903602E+02  0.25674327952E+02  0.00000000000E+00 0.  1.
          5    1    4    4  501    0  0.23279957466E+02 -0.52094087197E+02  0.36301768404E+02  0.67757221975E+02  0.41800000000E+01 0.  1.
         -5    1    4    4    0  501 -0.10700790462E+02  0.63147710002E+02  0.23114649270E+01  0.64225816189E+02  0.41800000000E+01 0.  1.
</event>
<event>
11    1  0.8037748E-009  0.3162740E+03  0.7561462E-02  0.9935296E-01
         22   -1    0    0    0    0  0.00000000000E+00  0.00000000000E+00  0.18975421881E+03  0.18975421881E+03  0.00000000000E+00 0.  1.
         22   -1    0    0    0    0 -0.00000000000E+00 -0.00000000000E+00 -0.28463974723E+04  0.28463974723E+04  0.00000000000E+00 0.  1.
         24    2    1    2    0    0  0.26128944098E+03 -0.13082766118E+03 -0.25396404601E+04  0.25576634039E+04  0.80500757886E+02 0.  0.
         25    2    1    2    0    0 -0.27709110054E+03  0.54600075576E+02 -0.17238805371E+03  0.35373225817E+03  0.12509285814E+03 0.  0.
        -24    2    1    2    0    0  0.15801659563E+02  0.76227585601E+02  0.55385260363E+02  0.12475602902E+03  0.80225946301E+02 0.  0.
        -13    1    3    3    0    0  0.79873309842E+02 -0.45934667696E+02 -0.11467095988E+04  0.11504054256E+04  0.00000000000E+00 0.  1.
         14    1    3    3    0    0  0.18141613114E+03 -0.84892993481E+02 -0.13929308614E+04  0.14072579783E+04  0.00000000000E+00 0. -1.
         11    1    5    5    0    0 -0.25262439922E+02  0.52932207834E+00  0.82447433005E+01  0.26579067793E+02  0.00000000000E+00 0. -1.
        -12    1    5    5    0    0  0.41064099485E+02  0.75698263523E+02  0.47140517062E+02  0.98176961227E+02  0.00000000000E+00 0.  1.
          5    1    4    4  501    0 -0.20981991581E+03  0.93630893342E+02 -0.14195835688E+03  0.27011254829E+03  0.41800000000E+01 0. -1.
         -5    1    4    4    0  501 -0.67271184732E+02 -0.39030817766E+02 -0.30429696835E+02  0.83619709879E+02  0.41800000000E+01 0. -1.
</event>
<event>
11    1  0.8037748E-009  0.1658515E+03  0.7561462E-02  0.1081699E+00
         22   -1    0    0    0    0  0.00000000000E+00  0.00000000000E+00  0.13312391217E+03  0.13312391217E+03  0.00000000000E+00 0.  1.
         22   -1    0    0    0    0 -0.00000000000E+00 -0.00000000000E+00 -0.21311897456E+04  0.21311897456E+04  0.00000000000E+00 0. -1.
        -24    2    1    2    0    0 -0.39507973861E+02 -0.15013239529E+02 -0.17784979389E+04  0.17806813568E+04  0.77362123468E+02 0.  0.
         25    2    1    2    0    0  0.12724469265E+03  0.70828607005E+02 -0.27992157865E+03  0.33941953113E+03  0.12506648049E+03 0.  0.
         24    2    1    2    0    0 -0.87736718792E+02 -0.55815367476E+02  0.60353684174E+02  0.14421276985E+03  0.79634595026E+02 0.  0.
        -13    1    5    5    0    0 -0.97316853100E+02 -0.64583468155E+02  0.47958560476E+02  0.12626011951E+03  0.00000000000E+00 0.  1.
         14    1    5    5    0    0  0.95801343077E+01  0.87681006787E+01  0.12395123698E+02  0.17952650343E+02  0.00000000000E+00 0. -1.
         13    1    3    3    0    0 -0.25572147698E+02 -0.41249611862E+02 -0.65705794002E+03  0.65884793523E+03  0.00000000000E+00 0. -1.
        -14    1    3    3    0    0 -0.13935826163E+02  0.26236372333E+02 -0.11214399989E+04  0.11218334215E+04  0.00000000000E+00 0.  1.
          5    1    4    4  501    0 -0.60685122021E+01  0.29023445769E+02 -0.13419115079E+03  0.13749154373E+03  0.41800000000E+01 0.  1.
         -5    1    4    4    0  501  0.13331320486E+03  0.41805161236E+02 -0.14573042785E+03  0.20192798740E+03  0.41800000000E+01 0.  1.
</event>
<event>
11    1  0.8037748E-009  0.1523568E+03  0.7561462E-02  0.1094495E+00
         22   -1    0    0    0    0  0.00000000000E+00  0.00000000000E+00  0.16465746369E+04  0.16465746369E+04  0.00000000000E+00 0. -1.
         22   -1    0    0    0    0 -0.00000000000E+00 -0.00000000000E+00 -0.63244113762E+03  0.63244113762E+03  0.00000000000E+00 0.  1.
        -24    2    1    2    0    0 -0.28316845068E+02 -0.12867401900E+02 -0.59902099426E+03  0.60520736743E+03  0.80513305009E+02 0.  0.
         25    2    1    2    0    0 -0.68305040407E+01 -0.68723972631E+02  0.15553607446E+03  0.21121176985E+03  0.12509716650E+03 0.  0.
         24    2    1    2    0    0  0.35147349108E+02  0.81591374530E+02  0.14576184190E+04  0.14625966372E+04  0.81516741148E+02 0.  0.
        -13    1    5    5    0    0  0.35038669533E+02  0.32379536388E+02  0.28653660760E+03  0.29048127346E+03  0.00000000000E+00 0.  1.
         14    1    5    5    0    0  0.10867957513E+00  0.49211838142E+02  0.11710818114E+04  0.11721153637E+04  0.00000000000E+00 0. -1.
         13    1    3    3    0    0  0.26115849701E+02 -0.15948905261E+02 -0.26580292147E+03  0.26755858844E+03  0.00000000000E+00 0. -1.
        -14    1    3    3    0    0 -0.54432694768E+02  0.30815033614E+01 -0.33321807279E+03  0.33764877899E+03  0.00000000000E+00 0.  1.
          5    1    4    4  501    0 -0.19491232994E+02  0.14260105327E+02  0.11557849231E+03  0.11814871583E+03  0.41800000000E+01 0. -1.
         -5    1    4    4    0  501  0.12660728953E+02 -0.82984077958E+02  0.39957582142E+02  0.93063054016E+02  0.41800000000E+01 0. -1.
</event>
<event>
11    1  0.8037748E-009  0.1437038E+03  0.7561462E-02  0.1103492E+00
         22   -1    0    0    0    0  0.00000000000E+00  0.00000000000E+00  0.12621069613E+03  0.12621069613E+03  0.00000000000E+00 0. -1.
         22   -1    0    0    0    0 -0.00000000000E+00 -0.00000000000E+00 -0.45026509586E+03  0.45026509586E+03  0.00000000000E+00 0.  1.
         24    2    1    2    0    0  0.77382773133E+01  0.14032279668E+01 -0.28055170606E+03  0.29398541558E+03  0.87500370370E+02 0.  0.
         25    2    1    2    0    0  0.29479102082E+02 -0.62287568578E+02 -0.85405070595E+02  0.16640468879E+03  0.12509090978E+03 0.  0.
        -24    2    1    2    0    0 -0.37217379395E+02  0.60884340611E+02  0.41902376929E+02  0.11608568763E+03  0.81412784124E+02 0.  0.
        -11    1    3    3    0    0  0.95529354862E+01 -0.39104384672E+02 -0.19754042714E+03  0.20160017815E+03  0.00000000000E+00 0.  1.
         12    1    3    3    0    0 -0.18146581728E+01  0.40507612639E+02 -0.83011278919E+02  0.92385237424E+02  0.00000000000E+00 0. -1.
         13    1    5    5    0    0 -0.41314387677E+02  0.66497360697E+02  0.49035716306E+01  0.78439930033E+02  0.00000000000E+00 0. -1.
        -14    1    5    5    0    0  0.40970082820E+01 -0.56130200858E+01  0.36998805299E+02  0.37645757595E+02  0.00000000000E+00 0.  1.
          5    1    4    4  501    0  0.40083271979E+02 -0.81768141286E+02 -0.10317544238E+03  0.13767840038E+03  0.41800000000E+01 0.  1.
         -5    1    4    4    0  501 -0.10604169897E+02  0.19480572708E+02  0.17770371785E+02  0.28726288406E+02  0.41800000000E+01 0.  1.
</event>
<event>
11    1  0.8037748E-009  0.2781112E+03  0.7561462E-02  0.1009906E+00
         22   -1    0    0    0    0  0.00000000000E+00  0.00000000000E+00  0.91219246125E+03  0.91219246125E+03  0.00000000000E+00 0. -1.
         22   -1    0    0    0    0 -0.00000000000E+00 -0.00000000000E+00 -0.14680795182E+03  0.14680795182E+03  0.00000000000E+00 0. -1.
        -24    2    1    2    0    0 -0.11108263624E+02  0.21534344552E+01  0.73425734285E+02  0.10966018944E+03  0.80659704268E+02 0.  0.
         25    2    1    2    0    0 -0.98349719293E+02  0.22240576902E+03  0.82413518402E+02  0.28561643728E+03  0.12509103826E+03 0.  0.
         24    2    1    2    0    0  0.10945798292E+03 -0.22455920347E+03  0.60954525674E+03  0.66372378635E+03  0.81092284835E+02 0.  0.
        -11    1    5    5    0    0  0.28898951071E+02 -0.97138509944E+01  0.10730519388E+03  0.11155228778E+03  0.00000000000E+00 0.  1.
         12    1    5    5    0    0  0.80559031847E+02 -0.21484535248E+03  0.50224006286E+03  0.55217149857E+03  0.00000000000E+00 0. -1.
         11    1    3    3    0    0 -0.38314774904E+02  0.24411797571E+02  0.33381043891E+02  0.56375987156E+02  0.00000000000E+00 0. -1.
        -12    1    3    3    0    0  0.27206511279E+02 -0.22258363116E+02  0.40044690394E+02  0.53284202287E+02  0.00000000000E+00 0.  1.
          5    1    4    4  501    0 -0.74859138084E+01  0.42745745313E+02  0.71754339158E+02  0.83960676724E+02  0.41800000000E+01 0.  1.
         -5    1    4    4    0  501 -0.90863805485E+02  0.17966002371E+03  0.10659179244E+02  0.20165576056E+03  0.41800000000E+01 0.  1.
</event>
<event>
11    1  0.8037748E-009  0.2475397E+03  0.7561462E-02  0.1025218E+00
         22   -1    0    0    0    0  0.00000000000E+00  0.00000000000E+00  0.21878740858E+03  0.21878740858E+03  0.00000000000E+00 0.  1.
         22   -1    0    0    0    0 -0.00000000000E+00 -0.00000000000E+00 -0.15506789510E+04  0.15506789510E+04  0.00000000000E+00 0. -1.
        -24    2    1    2    0    0 -0.83083638431E+01 -0.65581137408E+01 -0.10514989173E+04  0.10532876294E+04  0.60438558293E+02 0.  0.
         25    2    1    2    0    0  0.13604380881E+03  0.17592748454E+03 -0.38819960377E+03  0.46454451768E+03  0.12507709147E+03 0.  0.
         24    2    1    2    0    0 -0.12773544497E+03 -0.16936937080E+03  0.10780697869E+03  0.25163421249E+03  0.81823618688E+02 0.  0.
        -11    1    5    5    0    0 -0.82896876289E+02 -0.12087550291E+03  0.30060071826E+02  0.14962081146E+03  0.00000000000E+00 0.  1.
         12    1    5    5    0    0 -0.44838568677E+02 -0.48493867888E+02  0.77746906859E+02  0.10201340103E+03  0.00000000000E+00 0. -1.
         11    1    3    3    0    0 -0.22203987401E+02 -0.20608567721E+02 -0.89944151666E+03  0.89995153870E+03  0.00000000000E+00 0. -1.
        -12    1    3    3    0    0  0.13895623558E+02  0.14050453980E+02 -0.15205740066E+03  0.15333609068E+03  0.00000000000E+00 0.  1.
          5    1    4    4  501    0  0.80813215375E+02  0.14688807355E+03 -0.35749123108E+03  0.39487255492E+03  0.41800000000E+01 0. -1.
         -5    1    4    4    0  501  0.55230593434E+02  0.29039410998E+02 -0.30708372685E+02  0.69671962763E+02  0.41800000000E+01 0. -1.
</event>
<event>
11    1  0.8037748E-009  0.1485319E+03  0.7561462E-02  0.1098388E+00
         22   -1    0    0    0    0  0.00000000000E+00  0.00000000000E+00  0.79520962187E+03  0.79520962187E+03  0.00000000000E+00 0.  1.
         22   -1    0    0    0    0 -0.00000000000E+00 -0.00000000000E+00 -0.34039326619E+03  0.34039326619E+03  0.00000000000E+00 0.  1.
         24    2    1    2    0    0 -0.43220301521E+02  0.67429302264E+02 -0.30937137743E+03  0.32971404230E+03  0.81154144990E+02 0.  0.
         25    2    1    2    0    0  0.65177682396E+02 -0.53447373384E+02  0.31944301592E+03  0.35326288334E+03  0.12508426090E+03 0.  0.
        -24    2    1    2    0    0 -0.21957380875E+02 -0.13981928879E+02  0.44474471719E+03  0.45262596242E+03  0.79967352550E+02 0.  0.
        -11    1    3    3    0    0 -0.18586111511E+02  0.62219704612E+02 -0.29197729922E+03  0.29911114731E+03  0.00000000000E+00 0.  1.
         12    1    3    3    0    0 -0.24634190011E+02  0.52095976516E+01 -0.17394078210E+02  0.30602894993E+02  0.00000000000E+00 0. -1.
         13    1    5    5    0    0 -0.73743544777E+01 -0.44187518839E+02  0.33165576729E+03  0.33466769474E+03  0.00000000000E+00 0. -1.
        -14    1    5    5    0    0 -0.14583026397E+02  0.30205589960E+02  0.11308894990E+03  0.11795826768E+03  0.00000000000E+00 0.  1.
          5    1    4    4  501    0  0.10481579687E+02  0.37206823151E+02  0.47356706822E+02  0.61272679742E+02  0.41800000000E+01 0. -1.
         -5    1    4    4    0  501  0.54696102710E+02 -0.90654196535E+02  0.27208630909E+03  0.29199020360E+03  0.41800000000E+01 0. -1.
</event>
<event>
11    1  0.8037748E-009  0.1635225E+03  0.7561462E-02  0.1083810E+00
         22   -1    0    0    0    0  0.00000000000E+00  0.00000000000E+00  0.47049729737E+03  0.47049729737E+03  0.00000000000E+00 0. -1.
         22   -1    0    0    0    0 -0.00000000000E+00 -0.00000000000E+00 -0.70299128782E+03  0.70299128782E+03  0.00000000000E+00 0.  1.
         24    2    1    2    0    0 -0.18804420099E+01 -0.26840418390E+02 -0.60356428286E+03  0.60954023326E+03  0.80780618331E+02 0.  0.
         25    2    1    2    0    0  0.37164667866E+02 -0.75867523343E+02 -0.15485935681E+02  0.15174123601E+03  0.12509394416E+03 0.  0.
        -24    2    1    2    0    0 -0.35284225856E+02  0.10270794173E+03  0.38655622810E+03  0.41220711592E+03  0.93247472081E+02 0.  0.
        -13    1    3    3    0    0 -0.15463673836E+02  0.11484994757E+02 -0.45796269447E+03  0.45836760339E+03  0.00000000000E+00 0.  1.
         14    1    3    3    0    0  0.13583231826E+02 -0.38325413148E+02 -0.14560158839E+03  0.15117262987E+03  0.00000000000E+00 0. -1.
         11    1    5    5    0    0 -0.50529125056E+02  0.82855861604E+02  0.36921547893E+03  0.38175693335E+03  0.00000000000E+00 0. -1.
        -12    1    5    5    0    0  0.15244899200E+02  0.19852080129E+02  0.17340749168E+02  0.30450182574E+02  0.00000000000E+00 0.  1.
          5    1    4    4  501    0  0.24630959846E+02  0.28667176303E+02 -0.25676909315E+02  0.45883191389E+02  0.41800000000E+01 0.  1.
         -5    1    4    4    0  501  0.12533708020E+02 -0.10453469965E+03  0.10190973633E+02  0.10585804462E+03  0.41800000000E+01 0.  1.
</event>
<event>
11    1  0.8037748E-009  0.1518043E+03  0.7561462E-02  0.1095049E+00
         22   -1    0    0    0    0  0.00000000000E+00  0.00000000000E+00  0.32963581977E+03  0.32963581977E+03  0.00000000000E+00 0. -1.
         22   -1    0    0    0    0 -0.00000000000E+00 -0.00000000000E+00 -0.13975596908E+04  0.13975596908E+04  0.00000000000E+00 0.  1.
        -24    2    1    2    0    0  0.34895307074E+02 -0.55004464587E+02 -0.12885144575E+04  0.12926671103E+04  0.80470971206E+02 0.  0.
         25    2    1    2    0    0  0.35822839119E+01  0.12697245461E+03 -0.79222368858E+01  0.17842949643E+03  0.12505793206E+03 0.  0.
         24    2    1    2    0    0 -0.38477590986E+02 -0.71967990025E+02  0.22851282333E+03  0.25609890389E+03  0.81906175285E+02 0.  0.
        -11    1    5    5    0    0  0.19517479093E+02  0.40346535914E+01  0.35721220479E+02  0.40904963174E+02  0.00000000000E+00 0.  1.
         12    1    5    5    0    0 -0.57995070079E+02 -0.76002643616E+02  0.19279160286E+03  0.21519394072E+03  0.00000000000E+00 0. -1.
         11    1    3    3    0    0  0.54806668067E+02 -0.12827968287E+02 -0.63457877628E+03  0.63707028728E+03  0.00000000000E+00 0. -1.
        -12    1    3    3    0    0 -0.19911360993E+02 -0.42176496300E+02 -0.65393568124E+03  0.65559682300E+03  0.00000000000E+00 0.  1.
          5    1    4    4  501    0 -0.33642237188E+02  0.30112155305E+02  0.43243769880E+02  0.62658104453E+02  0.41800000000E+01 0. -1.
         -5    1    4    4    0  501  0.37224521100E+02  0.96860299306E+02 -0.51166006766E+02  0.11577139198E+03  0.41800000000E+01 0. -1.
</event>
<event>
11    1  0.8037748E-009  0.1467249E+03  0.7561462E-02  0.1100273E+00
         22   -1    0    0    0    0  0.00000000000E+00  0.00000000000E+00  0.79552815777E+03  0.79552815777E+03  0.00000000000E+00 0. -1.
         22   -1    0    0    0    0 -0.00000000000E+00 -0.00000000000E+00 -0.41498897239E+03  0.41498897239E+03  0.00000000000E+00 0.  1.
        -24    2    1    2    0    0  0.46431123254E+02 -0.26101484528E+02 -0.33816841187E+03  0.35004429226E+03  0.73047895617E+02 0.  0.
         25    2    1    2    0    0 -0.72812697390E+02  0.95348408047E+02  0.46543758618E+02  0.17946289599E+03  0.12509037433E+03 0.  0.
         24    2    1    2    0    0  0.26381574136E+02 -0.69246923519E+02  0.67216383864E+03  0.68100994192E+03  0.80493422995E+02 0.  0.
        -13    1    5    5    0    0 -0.28211971535E+02 -0.13260267045E+02  0.18359712963E+03  0.18622474602E+03  0.00000000000E+00 0.  1.
         14    1    5    5    0    0  0.54593545671E+02 -0.55986656474E+02  0.48856670901E+03  0.49478519590E+03  0.00000000000E+00 0. -1.
         13    1    3    3    0    0  0.29559481763E+02  0.22649834721E+02 -0.17485871769E+03  0.17878016983E+03  0.00000000000E+00 0. -1.
        -14    1    3    3    0    0  0.16871641491E+02 -0.48751319249E+02 -0.16330969419E+03  0.17126412243E+03  0.00000000000E+00 0.  1.
          5    1    4    4  501    0 -0.81615489247E+02  0.84586393274E+02  0.80504774165E+02  0.14252872369E+03  0.41800000000E+01 0.  1.
         -5    1    4    4    0  501  0.88027918568E+01  0.10762014773E+02 -0.33961015548E+02  0.36934172300E+02  0.41800000000E+01 0.  1.
</event>
<event>
11    1  0.8037748E-009  0.1460815E+03  0.7561462E-02  0.1100951E+00
         22   -1    0    0    0    0  0.00000000000E+00  0.00000000000E+00  0.93538367865E+02  0.93538367865E+02  0.00000000000E+00 0.  1.
         22   -1    0    0    0    0 -0.00000000000E+00 -0.00000000000E+00 -0.38247210313E+03  0.38247210313E+03  0.00000000000E+00 0.  1.
        -24    2    1    2    0    0 -0.36194270859E+02  0.52445523779E+02 -0.11680924739E+03  0.15653068729E+03  0.82443299192E+02 0.  0.
         25    2    1    2    0    0  0.26723426179E+02  0.50678696185E+02 -0.70971665300E+02  0.15481372219E+03  0.12509132483E+03 0.  0.
         24    2    1    2    0    0  0.94708446798E+01 -0.10312421996E+03 -0.10115282258E+03  0.16466606152E+03  0.78477491411E+02 0.  0.
        -11    1    5    5    0    0  0.13604080330E+02 -0.11580269838E+03 -0.90642024746E+02  0.14768653494E+03  0.00000000000E+00 0.  1.
         12    1    5    5    0    0 -0.41332356502E+01  0.12678478411E+02 -0.10510797834E+02  0.16979526579E+02  0.00000000000E+00 0. -1.
         13    1    3    3    0    0 -0.22855304695E+01 -0.17188781320E+02 -0.54298753855E+02  0.57000285289E+02  0.00000000000E+00 0. -1.
        -14    1    3    3    0    0 -0.33908740390E+02  0.69634305099E+02 -0.62510493533E+02  0.99530402004E+02  0.00000000000E+00 0.  1.
          5    1    4    4  501    0 -0.49268999542E+02  0.27272010217E+02 -0.18364840837E+02  0.59379597811E+02  0.41800000000E+01 0. -1.
         -5    1    4    4    0  501  0.75992425721E+02  0.23406685968E+02 -0.52606824464E+02  0.95434124375E+02  0.41800000000E+01 0. -1.
</event>
<event>
11    1  0.8037748E-009  0.1842455E+03  0.7561462E-02  0.1066260E+00
         22   -1    0    0    0    0  0.00000000000E+00  0.00000000000E+00  0.26117706680E+03  0.26117706680E+03  0.00000000000E+00 0. -1.
         22   -1    0    0    0    0 -0.00000000000E+00 -0.00000000000E+00 -0.40996562807E+03  0.40996562807E+03  0.00000000000E+00 0. -1.
         24    2    1    2    0    0 -0.17035155219E+02  0.21496485468E+02 -0.19904852959E+03  0.21558077844E+03  0.78118240500E+02 0.  0.
         25    2    1    2    0    0  0.92480022139E+02  0.92253028850E+02 -0.12467632904E+03  0.21966969413E+03  0.12508961456E+03 0.  0.
        -24    2    1    2    0    0 -0.75444866920E+02 -0.11374951432E+03  0.17493629736E+03  0.23589222229E+03  0.80072170275E+02 0.  0.
        -11    1    3    3    0    0 -0.83720310301E+01 -0.86688497208E+01  0.18962766410E+01  0.12199824759E+02  0.00000000000E+00 0.  1.
         12    1    3    3    0    0 -0.86631241886E+01  0.30165335189E+02 -0.20094480623E+03  0.20338095368E+03  0.00000000000E+00 0. -1.
         11    1    5    5    0    0 -0.64635569042E+02 -0.76158510015E+02  0.64926555486E+02  0.11913577565E+03  0.00000000000E+00 0. -1.
        -12    1    5    5    0    0 -0.10809297878E+02 -0.37591004303E+02  0.11000974187E+03  0.11675644664E+03  0.00000000000E+00 0.  1.
          5    1    4    4  501    0 -0.23494466822E+02  0.24869918396E+02  0.27990685267E+01  0.34580485781E+02  0.41800000000E+01 0. -1.
         -5    1    4    4    0  501  0.11597448896E+03  0.67383110454E+02 -0.12747539756E+03  0.18508920835E+03  0.41800000000E+01 0. -1.
</event>
<event>
11    1  0.8037748E-009  0.1356849E+03  0.7561462E-02  0.1112475E+00
         22   -1    0    0    0    0  0.00000000000E+00  0.00000000000E+00  0.46472518659E+03  0.46472518659E+03  0.00000000000E+00 0.  1.
         22   -1    0    0    0    0 -0.00000000000E+00 -0.00000000000E+00 -0.14937772320E+03  0.14937772320E+03  0.00000000000E+00 0.  1.
        -24    2    1    2    0    0 -0.27117581435E+02  0.47450278367E+02 -0.10449828339E+03  0.14230077392E+03  0.79641238605E+02 0.  0.
         25    2    1    2    0    0  0.51999834553E+01 -0.29364648591E+02  0.20285135826E+03  0.24017682517E+03  0.12508761483E+03 0.  0.
         24    2    1    2    0    0  0.21917597980E+02 -0.18085629776E+02  0.21699438852E+03  0.23162531070E+03  0.75869946645E+02 0.  0.
        -11    1    5    5    0    0  0.41900477011E+02  0.11359805486E+02  0.93151511716E+02  0.10277110143E+03  0.00000000000E+00 0.  1.
         12    1    5    5    0    0 -0.19982879031E+02 -0.29445435263E+02  0.12384287680E+03  0.12885420927E+03  0.00000000000E+00 0. -1.
         11    1    3    3    0    0  0.98094420810E+01  0.21678368484E+02  0.46352842992E+01  0.24241754775E+02  0.00000000000E+00 0. -1.
        -12    1    3    3    0    0 -0.36927023516E+02  0.25771909883E+02 -0.10913356769E+03  0.11805901914E+03  0.00000000000E+00 0.  1.
          5    1    4    4  501    0 -0.38760860728E+02 -0.59909979204E+02  0.14233191483E+03  0.15927164315E+03  0.41800000000E+01 0. -1.
         -5    1    4    4    0  501  0.43960844183E+02  0.30545330614E+02  0.60519443431E+02  0.80905182014E+02  0.41800000000E+01 0. -1.
</event>
<event>
11    1  0.8037748E-009  0.1917253E+03  0.7561462E-02  0.1060534E+00
         22   -1    0    0    0    0  0.00000000000E+00  0.00000000000E+00  0.86401601481E+03  0.86401601481E+03  0.00000000000E+00 0.  1.
         22   -1    0    0    0    0 -0.00000000000E+00 -0.00000000000E+00 -0.90971204394E+02  0.90971204394E+02  0.00000000000E+00 0.  1.
        -24    2    1    2    0    0  0.49455507665E+02  0.16400635834E+02  0.20020887082E+02  0.98873154404E+02  0.81610272933E+02 0.  0.
         25    2    1    2    0    0 -0.54648216616E+02  0.13181843886E+03  0.19023060081E+03  0.26869445223E+03  0.12508596553E+03 0.  0.
         24    2    1    2    0    0  0.51927089511E+01 -0.14821907469E+03  0.56279332252E+03  0.58741961257E+03  0.79558902834E+02 0.  0.
        -11    1    5    5    0    0  0.12684912866E+02 -0.14906913415E+03  0.55956075795E+03  0.57921563827E+03  0.00000000000E+00 0.  1.
         12    1    5    5    0    0 -0.74922039148E+01  0.85005946014E+00  0.32325645700E+01  0.82039742983E+01  0.00000000000E+00 0. -1.
         11    1    3    3    0    0  0.17278662910E+02 -0.15605404704E+02  0.42323574210E+02  0.48304925026E+02  0.00000000000E+00 0. -1.
        -12    1    3    3    0    0  0.32176844755E+02  0.32006040538E+02 -0.22302687128E+02  0.50568229378E+02  0.00000000000E+00 0.  1.
          5    1    4    4  501    0 -0.25744589684E+01  0.13687104830E+03  0.13044260065E+03  0.18913766458E+03  0.41800000000E+01 0.  1.
         -5    1    4    4    0  501 -0.52073757648E+02 -0.50526094361E+01  0.59788000161E+02  0.79556787648E+02  0.41800000000E+01 0.  1.
</event>
<event>
11    1  0.8037748E-009  0.1487648E+03  0.7561462E-02  0.1098148E+00
         22   -1    0    0    0    0  0.00000000000E+00  0.00000000000E+00  0.10617231550E+04  0.10617231550E+04  0.00000000000E+00 0. -1.
         22   -1    0    0    0    0 -0.00000000000E+00 -0.00000000000E+00 -0.78074701998E+02  0.78074701998E+02  0.00000000000E+00 0. -1.
        -24    2    1    2    0    0 -0.93207064869E+01  0.80841073365E+02 -0.39641814681E+01  0.11526735189E+03  0.81539517812E+02 0.  0.
         25    2    1    2    0    0  0.27446531218E+02 -0.72325941964E+02  0.32368925510E+03  0.35553650399E+03  0.12508844008E+03 0.  0.
         24    2    1    2    0    0 -0.18125824731E+02 -0.85151314003E+01  0.66392337940E+03  0.66899400115E+03  0.79734979026E+02 0.  0.
        -13    1    5    5    0    0 -0.29060635211E+02 -0.18361195192E+01  0.83542480866E+02  0.88471678876E+02  0.00000000000E+00 0.  1.
         14    1    5    5    0    0  0.10934810480E+02 -0.66790118812E+01  0.58038089853E+03  0.58052232228E+03  0.00000000000E+00 0. -1.
         11    1    3    3    0    0  0.28588814161E+02  0.59468579113E+02 -0.19905029833E+02  0.68920551431E+02  0.00000000000E+00 0. -1.
        -12    1    3    3    0    0 -0.37909520648E+02  0.21372494251E+02  0.15940848364E+02  0.46346800460E+02  0.00000000000E+00 0.  1.
          5    1    4    4  501    0  0.31395726665E+02 -0.76367544048E+02  0.91801402120E+02  0.12354215179E+03  0.41800000000E+01 0.  1.
         -5    1    4    4    0  501 -0.39491954470E+01  0.40416020835E+01  0.23188785298E+03  0.23199435220E+03  0.41800000000E+01 0.  1.
</event>
<event>
11    1  0.8037748E-009  0.1474298E+03  0.7561462E-02  0.1099534E+00
         22   -1    0    0    0    0  0.00000000000E+00  0.00000000000E+00  0.76889887473E+02  0.76889887473E+02  0.00000000000E+00 0.  1.
         22   -1    0    0    0    0 -0.00000000000E+00 -0.00000000000E+00 -0.49838123903E+03  0.49838123903E+03  0.00000000000E+00 0.  1.
        -24    2    1    2    0    0  0.14159882146E+02 -0.15062444685E+02 -0.13602981974E+03  0.15966094471E+03  0.80994604187E+02 0.  0.
         25    2    1    2    0    0 -0.84670593249E+02 -0.14701248966E+02 -0.26190124585E+03  0.30269627605E+03  0.12509011503E+03 0.  0.
         24    2    1    2    0    0  0.70510711102E+02  0.29763693651E+02 -0.23560285973E+02  0.11291390573E+03  0.79604178237E+02 0.  0.
        -13    1    5    5    0    0  0.78016177738E+02  0.41913827448E+02 -0.39447102120E+01  0.88650175741E+02  0.00000000000E+00 0.  1.
         14    1    5    5    0    0 -0.75054666355E+01 -0.12150133797E+02 -0.19615575761E+02  0.24263729992E+02  0.00000000000E+00 0. -1.
         11    1    3    3    0    0 -0.98078754996E+00  0.24105867910E+02 -0.88006098042E+01  0.25680840034E+02  0.00000000000E+00 0. -1.
        -12    1    3    3    0    0  0.15140669696E+02 -0.39168312595E+02 -0.12722920993E+03  0.13398010468E+03  0.00000000000E+00 0.  1.
          5    1    4    4  501    0 -0.11721962451E+03 -0.12200160364E+02 -0.19002126336E+03  0.22363997231E+03  0.41800000000E+01 0. -1.
         -5    1    4    4    0  501  0.32549031263E+02 -0.25010886019E+01 -0.71879982484E+02  0.79056303748E+02  0.41800000000E+01 0. -1.
</event>
<event>
11    1  0.8037748E-009  0.1530362E+03  0.7561462E-02  0.1093816E+00
         22   -1    0    0    0    0  0.00000000000E+00  0.00000000000E+00  0.52491757999E+03  0.52491757999E+03  0.00000000000E+00 0. -1.
         22   -1    0    0    0    0 -0.00000000000E+00 -0.00000000000E+00 -0.14617132176E+03  0.14617132176E+03  0.00000000000E+00 0. -1.
         24    2    1    2    0    0 -0.48917440748E+02 -0.31054852257E+02 -0.36669649675E+02  0.10578404373E+03  0.80549865564E+02 0.  0.
         25    2    1    2    0    0  0.30546524000E+02  0.11455352531E+03  0.47099357905E+02  0.17866164535E+03  0.12508410656E+03 0.  0.
        -24    2    1    2    0    0  0.18370916748E+02 -0.83498673054E+02  0.36831655000E+03  0.38664321267E+03  0.80785975993E+02 0.  0.
        -11    1    3    3    0    0 -0.63386209278E+02 -0.28645071420E+02 -0.36510701916E+01  0.69654016085E+02  0.00000000000E+00 0.  1.
         12    1    3    3    0    0  0.14468768530E+02 -0.24097808376E+01 -0.33018579484E+02  0.36130027644E+02  0.00000000000E+00 0. -1.
         11    1    5    5    0    0 -0.10411928873E+02 -0.80740812859E+02  0.20123810846E+03  0.21708123691E+03  0.00000000000E+00 0. -1.
        -12    1    5    5    0    0  0.28782845622E+02 -0.27578601946E+01  0.16707844154E+03  0.16956197576E+03  0.00000000000E+00 0.  1.
          5    1    4    4  501    0  0.48932899610E+02 -0.51547800285E+01  0.22090998835E+01  0.49430283670E+02  0.41800000000E+01 0.  1.
         -5    1    4    4    0  501 -0.18386375611E+02  0.11970830534E+03  0.44890258021E+02  0.12923136168E+03  0.41800000000E+01 0.  1.
</event>
<event>
11    1  0.8128789E-009  0.1612682E+03  0.7561462E-02  0.1085891E+00
         22   -1    0    0    0    0  0.00000000000E+00  0.00000000000E+00  0.47422379629E+03  0.47422379629E+03  0.00000000000E+00 0. -1.
         22   -1    0    0    0    0 -0.00000000000E+00 -0.00000000000E+00 -0.19118122533E+03  0.19118122533E+03  0.00000000000E+00 0.  1.
        -24    2    1    2    0    0  0.18875834425E+02 -0.17261324969E+01 -0.91066805006E+02  0.12246288708E+03  0.79653744918E+02 0.  0.
         25    2    1    2    0    0  0.17430814737E+02 -0.94490849089E+02  0.11305614269E+02  0.15813765471E+03  0.12508935630E+03 0.  0.
         24    2    1    2    0    0 -0.36306649162E+02  0.96216981586E+02  0.36280376170E+03  0.38480447984E+03  0.76629223424E+02 0.  0.
        -13    1    5    5    0    0  0.63199256642E+01  0.36407911513E+01 -0.65832885157E+00  0.73232654933E+01  0.00000000000E+00 0.  1.
         14    1    5    5    0    0 -0.42626574826E+02  0.92576190435E+02  0.36346209055E+03  0.37748121435E+03  0.00000000000E+00 0. -1.
         11    1    3    3    0    0  0.17308205730E+02 -0.16946253339E+02  0.53773200803E+01  0.24812598797E+02  0.00000000000E+00 0. -1.
        -12    1    3    3    0    0  0.15676286952E+01  0.15220120843E+02 -0.96444125087E+02  0.97650288284E+02  0.00000000000E+00 0.  1.
          5    1    4    4  501    0  0.60456658847E+02 -0.95966284250E+02  0.16035970539E+02  0.11462617530E+03  0.41800000000E+01 0. -1.
         -5    1    4    4    0  501 -0.43025844110E+02  0.14754351611E+01 -0.47303562699E+01  0.43511479414E+02  0.41800000000E+01 0. -1.
</event>
<event>
11    1  0.8037748E-009  0.2354949E+03  0.7561462E-02  0.1031923E+00
         22   -1    0    0    0    0  0.00000000000E+00  0.00000000000E+00  0.10934559738E+04  0.10934559738E+04  0.00000000000E+00 0.  1.
         22   -1    0    0    0    0 -0.00000000000E+00 -0.00000000000E+00 -0.70298997427E+03  0.70298997427E+03  0.00000000000E+00 0.  1.
         24    2    1    2    0    0  0.18674197237E+03  0.66274271026E+02 -0.65151970579E+03  0.68589391283E+03  0.81900484593E+02 0.  0.
         25    2    1    2    0    0 -0.24543194036E+03 -0.66898995596E+02  0.64951786395E+03  0.70868439771E+03  0.12509119479E+03 0.  0.
        -24    2    1    2    0    0  0.58689967986E+02  0.62472456959E+00  0.39246784142E+03  0.40186763756E+03  0.63416787619E+02 0.  0.
        -11    1    3    3    0    0  0.12925057587E+03  0.32289275553E+02 -0.53741502206E+03  0.55368151009E+03  0.00000000000E+00 0.  1.
         12    1    3    3    0    0  0.57491396502E+02  0.33984995473E+02 -0.11410468373E+03  0.13221240274E+03  0.00000000000E+00 0. -1.
         13    1    5    5    0    0 -0.98173954309E+01 -0.79108164819E+01  0.25319607903E+02  0.28285063458E+02  0.00000000000E+00 0. -1.
        -14    1    5    5    0    0  0.68507363417E+02  0.85355410515E+01  0.36714823351E+03  0.37358257411E+03  0.00000000000E+00 0.  1.
          5    1    4    4  501    0 -0.16698748665E+03 -0.91346843949E+01  0.27682110514E+03  0.32344344144E+03  0.41800000000E+01 0.  1.
         -5    1    4    4    0  501 -0.78444453701E+02 -0.57764311201E+02  0.37269675881E+03  0.38524095628E+03  0.41800000000E+01 0.  1.
</event>
<event>
11    1  0.8037748E-009  0.1467752E+03  0.7561462E-02  0.1100220E+00
         22   -1    0    0    0    0  0.00000000000E+00  0.00000000000E+00  0.44438694686E+03  0.44438694686E+03  0.00000000000E+00 0. -1.
         22   -1    0    0    0    0 -0.00000000000E+00 -0.00000000000E+00 -0.58926140752E+03  0.58926140752E+03  0.00000000000E+00 0.  1.
        -24    2    1    2    0    0 -0.40524496399E+02  0.59807575451E+02 -0.50449070712E+03  0.51596236520E+03  0.80542583996E+02 0.  0.
         25    2    1    2    0    0 -0.68807919774E+01 -0.11672213422E+03  0.34762680328E+02  0.17472267003E+03  0.12509262794E+03 0.  0.
         24    2    1    2    0    0  0.47405288376E+02  0.56914558769E+02  0.32485356613E+03  0.34296331916E+03  0.81286348750E+02 0.  0.
        -13    1    5    5    0    0  0.67342128690E+01 -0.40169692585E+01 -0.19247074300E+01  0.80740425860E+01  0.00000000000E+00 0.  1.
         14    1    5    5    0    0  0.40671075507E+02  0.60931528028E+02  0.32677827356E+03  0.33488927657E+03  0.00000000000E+00 0. -1.
         13    1    3    3    0    0 -0.18326190869E+02  0.21194381389E+02 -0.37289111671E+02  0.46642565576E+02  0.00000000000E+00 0. -1.
        -14    1    3    3    0    0 -0.22198305529E+02  0.38613194062E+02 -0.46720159545E+03  0.46931979962E+03  0.00000000000E+00 0.  1.
          5    1    4    4  501    0 -0.58335698958E+02 -0.40428808874E+02  0.41559448680E+02  0.82354128824E+02  0.41800000000E+01 0.  1.
         -5    1    4    4    0  501  0.51454906980E+02 -0.76293325347E+02 -0.67967683521E+01  0.92368541208E+02  0.41800000000E+01 0.  1.
</event>
<event>
11    1  0.8037748E-009  0.1941678E+03  0.7561462E-02  0.1058726E+00
         22   -1    0    0    0    0  0.00000000000E+00  0.00000000000E+00  0.77530781946E+03  0.77530781946E+03  0.00000000000E+00 0. -1.
         22   -1    0    0    0    0 -0.00000000000E+00 -0.00000000000E+00 -0.35903183766E+03  0.35903183766E+03  0.00000000000E+00 0.  1.
         24    2    1    2    0    0  0.49692814064E+02 -0.14075110951E+03 -0.30804982982E+03  0.35177051106E+03  0.81040386210E+02 0.  0.
         25    2    1    2    0    0 -0.55404506195E+02  0.12532142464E+03  0.31557655489E+03  0.36607537720E+03  0.12508997170E+03 0.  0.
        -24    2    1    2    0    0  0.57116921313E+01  0.15429684873E+02  0.40874925673E+03  0.41649376886E+03  0.78233023805E+02 0.  0.
        -11    1    3    3    0    0  0.40766018227E+02 -0.13961059639E+03 -0.22294154367E+03  0.26618775095E+03  0.00000000000E+00 0.  1.
         12    1    3    3    0    0  0.89267958367E+01 -0.11405131216E+01 -0.85108286157E+02  0.85582760102E+02  0.00000000000E+00 0. -1.
         13    1    5    5    0    0  0.33473458195E+02 -0.16575942996E+02  0.20710880588E+03  0.21045021208E+03  0.00000000000E+00 0. -1.
        -14    1    5    5    0    0 -0.27761766064E+02  0.32005627869E+02  0.20164045085E+03  0.20604355678E+03  0.00000000000E+00 0.  1.
          5    1    4    4  501    0 -0.67958530394E+02  0.50155102923E+02  0.25493488234E+03  0.26859479302E+03  0.41800000000E+01 0.  1.
         -5    1    4    4    0  501  0.12554024199E+02  0.75166321715E+02  0.60641672553E+02  0.97480584189E+02  0.41800000000E+01 0.  1.
</event>
<event>
11    1  0.8037748E-009  0.1636624E+03  0.7561462E-02  0.1083682E+00
         22   -1    0    0    0    0  0.00000000000E+00  0.00000000000E+00  0.14371109053E+03  0.14371109053E+03  0.00000000000E+00 0.  1.
         22   -1    0    0    0    0 -0.00000000000E+00 -0.00000000000E+00 -0.10425259624E+04  0.10425259624E+04  0.00000000000E+00 0. -1.
         24    2    1    2    0    0 -0.56203938889E+02  0.10007959113E+03 -0.85564911115E+03  0.86714353122E+03  0.81410656742E+02 0.  0.
         25    2    1    2    0    0  0.40485253463E+02 -0.42303499884E+02 -0.12726270200E+03  0.18780547775E+03  0.12508581176E+03 0.  0.
        -24    2    1    2    0    0  0.15718685426E+02 -0.57776091246E+02  0.84096941301E+02  0.13128804394E+03  0.81111658553E+02 0.  0.
        -13    1    3    3    0    0 -0.15312274362E+02 -0.91635827513E+01 -0.49895461979E+02  0.52990509727E+02  0.00000000000E+00 0.  1.
         14    1    3    3    0    0 -0.40891664527E+02  0.10924317388E+03 -0.80575364917E+03  0.81415302150E+03  0.00000000000E+00 0. -1.
         13    1    5    5    0    0  0.45479199458E+02 -0.54329599433E+02  0.59763540433E+02  0.92691659404E+02  0.00000000000E+00 0. -1.
        -14    1    5    5    0    0 -0.29760514031E+02 -0.34464918129E+01  0.24333400867E+02  0.38596384533E+02  0.00000000000E+00 0.  1.
          5    1    4    4  501    0 -0.26156598529E+02 -0.12847691417E+02  0.11028918518E+02  0.31437879461E+02  0.41800000000E+01 0.  1.
         -5    1    4    4    0  501  0.66641851992E+02 -0.29455808467E+02 -0.13829162052E+03  0.15636759829E+03  0.41800000000E+01 0.  1.
</event>
<event>
11    1  0.8037748E-009  0.1336542E+03  0.7561462E-02  0.1114859E+00
         22   -1    0    0    0    0  0.00000000000E+00  0.00000000000E+00  0.13846293973E+03  0.13846293973E+03  0.00000000000E+00 0.  1.
         22   -1    0    0    0    0 -0.00000000000E+00 -0.00000000000E+00 -0.57200498280E+03  0.57200498280E+03  0.00000000000E+00 0. -1.
         24    2    1    2    0    0 -0.47141502563E+02 -0.34240831894E+02 -0.36346241651E+03  0.37688296582E+03  0.80876979913E+02 0.  0.
         25    2    1    2    0    0  0.57693399055E+01  0.10599597224E+02 -0.16108748420E+03  0.20431292374E+03  0.12509578928E+03 0.  0.
        -24    2    1    2    0    0  0.41372162658E+02  0.23641234670E+02  0.91007857648E+02  0.12927203297E+03  0.78474610768E+02 0.  0.
        -11    1    3    3    0    0 -0.70147365170E+02 -0.23833796243E+02 -0.25685127652E+03  0.26732242879E+03  0.00000000000E+00 0.  1.
         12    1    3    3    0    0  0.23005862607E+02 -0.10407035650E+02 -0.10661113999E+03  0.10956053703E+03  0.00000000000E+00 0. -1.
         13    1    5    5    0    0 -0.14005241849E+02 -0.86999347811E+01 -0.16678321885E+01  0.16571581960E+02  0.00000000000E+00 0. -1.
        -14    1    5    5    0    0  0.55377404507E+02  0.32341169451E+02  0.92675689837E+02  0.11270045101E+03  0.00000000000E+00 0.  1.
          5    1    4    4  501    0  0.58510189987E+02  0.26543781019E+02 -0.54920887107E+02  0.84627364863E+02  0.41800000000E+01 0.  1.
         -5    1    4    4    0  501 -0.52740850081E+02 -0.15944183795E+02 -0.10616659710E+03  0.11968555888E+03  0.41800000000E+01 0.  1.
</event>
<event>
11    1  0.8037748E-009  0.1398551E+03  0.7561462E-02  0.1107720E+00
         22   -1    0    0    0    0  0.00000000000E+00  0.00000000000E+00  0.33909873672E+03  0.33909873672E+03  0.00000000000E+00 0. -1.
         22   -1    0    0    0    0 -0.00000000000E+00 -0.00000000000E+00 -0.46041092584E+03  0.46041092584E+03  0.00000000000E+00 0.  1.
        -24    2    1    2    0    0  0.35255467838E+02  0.20763875723E+02 -0.31166427884E+03  0.32484458045E+03  0.81946886394E+02 0.  0.
         25    2    1    2    0    0  0.25556941302E+02  0.23574264529E+01 -0.10272446101E+03  0.16388427141E+03  0.12508806824E+03 0.  0.
         24    2    1    2    0    0 -0.60812409141E+02 -0.23121302176E+02  0.29307655074E+03  0.31078081070E+03  0.80362329399E+02 0.  0.
        -13    1    5    5    0    0  0.52956561261E+01 -0.35192946384E+02  0.86001484079E+02  0.93074393433E+02  0.00000000000E+00 0.  1.
         14    1    5    5    0    0 -0.66108065267E+02  0.12071644208E+02  0.20707506666E+03  0.21770641726E+03  0.00000000000E+00 0. -1.
         13    1    3    3    0    0  0.24727175980E+02  0.19837638384E+01 -0.18637224190E+02  0.31027643746E+02  0.00000000000E+00 0. -1.
        -14    1    3    3    0    0  0.10528291858E+02  0.18780111885E+02 -0.29302705465E+03  0.29381693670E+03  0.00000000000E+00 0.  1.
          5    1    4    4  501    0  0.37802651177E+02  0.31573249527E+02  0.67067185953E+01  0.49883494224E+02  0.41800000000E+01 0. -1.
         -5    1    4    4    0  501 -0.12245709874E+02 -0.29215823074E+02 -0.10943117961E+03  0.11400077718E+03  0.41800000000E+01 0. -1.
</event>
<event>
11    1  0.8037748E-009  0.1777698E+03  0.7561462E-02  0.1071461E+00
         22   -1    0    0    0    0  0.00000000000E+00  0.00000000000E+00  0.32352142161E+03  0.32352142161E+03  0.00000000000E+00 0.  1.
         22   -1    0    0    0    0 -0.00000000000E+00 -0.00000000000E+00 -0.21226482734E+04  0.21226482734E+04  0.00000000000E+00 0.  1.
        -24    2    1    2    0    0 -0.20083602040E+02 -0.57871388470E+01 -0.17699186223E+04  0.17718564181E+04  0.80164797913E+02 0.  0.
         25    2    1    2    0    0  0.14319238546E+03 -0.17679248385E+02 -0.30566836290E+03  0.36041011505E+03  0.12508272413E+03 0.  0.
         24    2    1    2    0    0 -0.12310878342E+03  0.23466387232E+02  0.27646013339E+03  0.31390316187E+03  0.79990910683E+02 0.  0.
        -13    1    5    5    0    0 -0.12940529374E+03  0.85580431268E+01  0.22216482256E+03  0.25724731006E+03  0.00000000000E+00 0.  1.
         14    1    5    5    0    0  0.62965103170E+01  0.14908344105E+02  0.54295310830E+02  0.56655851809E+02  0.00000000000E+00 0. -1.
         13    1    3    3    0    0 -0.16278828139E+02  0.17815714329E+02 -0.16459512157E+03  0.16635490365E+03  0.00000000000E+00 0. -1.
        -14    1    3    3    0    0 -0.38047739006E+01 -0.23602853176E+02 -0.16053235008E+04  0.16055015145E+04  0.00000000000E+00 0.  1.
          5    1    4    4  501    0  0.14842343999E+03 -0.42888077012E+02 -0.29333182775E+03  0.33155684016E+03  0.41800000000E+01 0. -1.
         -5    1    4    4    0  501 -0.52310545277E+01  0.25208828627E+02 -0.12336535152E+02  0.28853274888E+02  0.41800000000E+01 0. -1.
</event>
<event>
11    1  0.8037748E-009  0.2075336E+03  0.7561462E-02  0.1049321E+00
         22   -1    0    0    0    0  0.00000000000E+00  0.00000000000E+00  0.34817282071E+03  0.34817282071E+03  0.00000000000E+00 0.  1.
         22   -1    0    0    0    0 -0.00000000000E+00 -0.00000000000E+00 -0.13477626809E+04  0.13477626809E+04  0.00000000000E+00 0. -1.
         24    2    1    2    0    0 -0.18306613601E+01 -0.64680612137E+01 -0.11677355210E+04  0.11707817217E+04  0.84133262162E+02 0.  0.
         25    2    1    2    0    0 -0.65288705830E+02 -0.14617727108E+03 -0.77715178572E+02  0.21752570664E+03  0.12508946551E+03 0.  0.
        -24    2    1    2    0    0  0.67119367190E+02  0.15264533229E+03  0.24586083938E+03  0.30762807324E+03  0.79886620796E+02 0.  0.
        -11    1    3    3    0    0  0.28406507573E+01  0.38437917451E+02 -0.61411342340E+03  0.61532173666E+03  0.00000000000E+00 0.  1.
         12    1    3    3    0    0 -0.46713121175E+01 -0.44905978664E+02 -0.55362209760E+03  0.55545998509E+03  0.00000000000E+00 0. -1.
         13    1    5    5    0    0  0.22494859470E+01  0.81853951418E+01  0.71844565984E+02  0.72344333172E+02  0.00000000000E+00 0. -1.
        -14    1    5    5    0    0  0.64869881243E+02  0.14445993715E+03  0.17401627339E+03  0.23528374007E+03  0.00000000000E+00 0.  1.
          5    1    4    4  501    0  0.23053144455E+02 -0.24575049434E+02  0.18840713519E+02  0.38830727651E+02  0.41800000000E+01 0.  1.
         -5    1    4    4    0  501 -0.88341850285E+02 -0.12160222164E+03 -0.96555892091E+02  0.17869497899E+03  0.41800000000E+01 0.  1.
</event>
<event>
11    1  0.8037748E-009  0.1445732E+03  0.7561462E-02  0.1102557E+00
         22   -1    0    0    0    0  0.00000000000E+00  0.00000000000E+00  0.84550522362E+03  0.84550522362E+03  0.00000000000E+00 0. -1.
         22   -1    0    0    0    0 -0.00000000000E+00 -0.00000000000E+00 -0.20060688649E+04  0.20060688649E+04  0.00000000000E+00 0. -1.
        -24    2    1    2    0    0 -0.60956058095E+02 -0.30754697355E+02 -0.16267013462E+04  0.16299390674E+04  0.76698117679E+02 0.  0.
         25    2    1    2    0    0  0.11616147095E+03  0.53858213122E+02 -0.35332042917E+03  0.39607815055E+03  0.12509348994E+03 0.  0.
         24    2    1    2    0    0 -0.55205412854E+02 -0.23103515767E+02  0.81945813413E+03  0.82555687053E+03  0.80318757725E+02 0.  0.
        -13    1    5    5    0    0  0.69239207794E+01 -0.84097392301E+00  0.53819476277E+01  0.88098397469E+01  0.00000000000E+00 0.  1.
         14    1    5    5    0    0 -0.62129333633E+02 -0.22262541844E+02  0.81407618650E+03  0.81674703079E+03  0.00000000000E+00 0. -1.
         13    1    3    3    0    0 -0.35500024188E+02 -0.50132266063E+02 -0.13495561091E+04  0.13509534364E+04  0.00000000000E+00 0. -1.
        -14    1    3    3    0    0 -0.25456033907E+02  0.19377568709E+02 -0.27714523717E+03  0.27898563102E+03  0.00000000000E+00 0.  1.
          5    1    4    4  501    0  0.71137368195E+02  0.73488266059E+02 -0.32150528014E+03  0.33740801407E+03  0.41800000000E+01 0.  1.
         -5    1    4    4    0  501  0.45024102755E+02 -0.19630052937E+02 -0.31815149030E+02  0.58670136484E+02  0.41800000000E+01 0.  1.
</event>
<event>
11    1  0.8037748E-009  0.1599509E+03  0.7561462E-02  0.1087123E+00
         22   -1    0    0    0    0  0.00000000000E+00  0.00000000000E+00  0.44328814400E+03  0.44328814400E+03  0.00000000000E+00 0.  1.
         22   -1    0    0    0    0 -0.00000000000E+00 -0.00000000000E+00 -0.69434053447E+03  0.69434053447E+03  0.00000000000E+00 0.  1.
        -24    2    1    2    0    0  0.66801353284E+02  0.40610422353E+02 -0.46313537052E+03  0.47618488227E+03  0.78396705752E+02 0.  0.
         25    2    1    2    0    0 -0.53997672637E+02 -0.13798134764E+03 -0.17060705575E+03  0.25827402280E+03  0.12507638639E+03 0.  0.
         24    2    1    2    0    0 -0.12803680648E+02  0.97370925282E+02  0.38269003581E+03  0.40316977340E+03  0.80306732886E+02 0.  0.
        -13    1    5    5    0    0  0.31548507095E+02  0.51579008406E+02  0.22747080741E+03  0.23536922193E+03  0.00000000000E+00 0.  1.
         14    1    5    5    0    0 -0.44352187742E+02  0.45791916876E+02  0.15521922840E+03  0.16780055147E+03  0.00000000000E+00 0. -1.
         11    1    3    3    0    0  0.42479664091E+02 -0.15909715701E+02 -0.13756036725E+03  0.14484645509E+03  0.00000000000E+00 0. -1.
        -12    1    3    3    0    0  0.24321689193E+02  0.56520138054E+02 -0.32557500327E+03  0.33133842718E+03  0.00000000000E+00 0.  1.
          5    1    4    4  501    0 -0.47379257078E+02 -0.15258472359E+03 -0.17877445861E+03  0.23980131636E+03  0.41800000000E+01 0.  1.
         -5    1    4    4    0  501 -0.66184155584E+01  0.14603375954E+02  0.81674028584E+01  0.18472706440E+02  0.41800000000E+01 0.  1.
</event>
<event>
11    1  0.8037748E-009  0.2654695E+03  0.7561462E-02  0.1015967E+00
         22   -1    0    0    0    0  0.00000000000E+00  0.00000000000E+00  0.34621490036E+04  0.34621490036E+04  0.00000000000E+00 0.  1.
         22   -1    0    0    0    0 -0.00000000000E+00 -0.00000000000E+00 -0.22800030719E+04  0.22800030719E+04  0.00000000000E+00 0. -1.
         24    2    1    2    0    0 -0.23088468751E+02 -0.60512739068E+02 -0.21460480867E+04  0.21485573197E+04  0.81125190273E+02 0.  0.
         25    2    1    2    0    0  0.20856663417E+03  0.20027085709E+03  0.65642862184E+02  0.32181699607E+03  0.12509491001E+03 0.  0.
        -24    2    1    2    0    0 -0.18547816542E+03 -0.13975811803E+03  0.32625511562E+04  0.32717777599E+04  0.79719393147E+02 0.  0.
        -13    1    3    3    0    0 -0.41022722651E+02 -0.38415965415E+02 -0.70783685812E+03  0.71006455191E+03  0.00000000000E+00 0.  1.
         14    1    3    3    0    0  0.17934253900E+02 -0.22096773653E+02 -0.14382112286E+04  0.14384927677E+04  0.00000000000E+00 0. -1.
         11    1    5    5    0    0 -0.78024792233E+02 -0.31964611514E+02  0.16190049611E+04  0.16211991453E+04  0.00000000000E+00 0. -1.
        -12    1    5    5    0    0 -0.10745337319E+03 -0.10779350651E+03  0.16435461951E+04  0.16505786146E+04  0.00000000000E+00 0.  1.
          5    1    4    4  501    0  0.48340935582E+02  0.80632097080E+02  0.76846014168E+02  0.12149552842E+03  0.41800000000E+01 0. -1.
         -5    1    4    4    0  501  0.16022569859E+03  0.11963876001E+03 -0.11203151984E+02  0.20032146765E+03  0.41800000000E+01 0. -1.
</event>
<event>
11    1  0.8037748E-009  0.2844214E+03  0.7561462E-02  0.1007009E+00
         22   -1    0    0    0    0  0.00000000000E+00  0.00000000000E+00  0.18637309577E+04  0.18637309577E+04  0.00000000000E+00 0. -1.
         22   -1    0    0    0    0 -0.00000000000E+00 -0.00000000000E+00 -0.10145072807E+04  0.10145072807E+04  0.00000000000E+00 0.  1.
         24    2    1    2    0    0 -0.13409525947E+03 -0.82044970212E+02 -0.71052439738E+03  0.73217216593E+03  0.80735652214E+02 0.  0.
         25    2    1    2    0    0  0.20750212473E+03  0.32237957971E+03 -0.13920639695E+03  0.42663228560E+03  0.12510380083E+03 0.  0.
        -24    2    1    2    0    0 -0.73406865258E+02 -0.24033460950E+03  0.16989544713E+04  0.17194337869E+04  0.82806759079E+02 0.  0.
        -11    1    3    3    0    0 -0.83615623886E+02 -0.77780053983E+02 -0.59747766412E+03  0.60829340657E+03  0.00000000000E+00 0.  1.
         12    1    3    3    0    0 -0.50479635586E+02 -0.42649162293E+01 -0.11304673326E+03  0.12387875936E+03  0.00000000000E+00 0. -1.
         11    1    5    5    0    0 -0.40990519309E+02 -0.18876153542E+03  0.14649940187E+04  0.14776733789E+04  0.00000000000E+00 0. -1.
        -12    1    5    5    0    0 -0.32416345949E+02 -0.51573074076E+02  0.23396045265E+03  0.24176040797E+03  0.00000000000E+00 0.  1.
          5    1    4    4  501    0 -0.82370034430E+01  0.70828601880E+02 -0.17209541645E+02  0.73472306304E+02  0.41800000000E+01 0.  1.
         -5    1    4    4    0  501  0.21573912817E+03  0.25155097783E+03 -0.12199685531E+03  0.35315997930E+03  0.41800000000E+01 0.  1.
</event>
<event>
11    1  0.8037748E-009  0.4903747E+03  0.7561462E-02  0.9415290E-01
         22   -1    0    0    0    0  0.00000000000E+00  0.00000000000E+00  0.47885358344E+03  0.47885358344E+03  0.00000000000E+00 0. -1.
         22   -1    0    0    0    0 -0.00000000000E+00 -0.00000000000E+00 -0.14819672177E+04  0.14819672177E+04  0.00000000000E+00 0. -1.
         24    2    1    2    0    0  0.28423282634E+03  0.39642703248E+03 -0.12585415899E+04  0.13520331940E+04  0.78256837365E+02 0.  0.
         25    2    1    2    0    0 -0.26822083745E+03 -0.27215477976E+03  0.20715713152E+03  0.45229611829E+03  0.12508820765E+03 0.  0.
        -24    2    1    2    0    0 -0.16011988895E+02 -0.12427225272E+03  0.48270824078E+02  0.15649148887E+03  0.80371245163E+02 0.  0.
        -13    1    3    3    0    0  0.50778300845E+02  0.12181412048E+03 -0.38776233386E+03  0.40960559487E+03  0.00000000000E+00 0.  1.
         14    1    3    3    0    0  0.23345452550E+03  0.27461291200E+03 -0.87077925601E+03  0.94242759913E+03  0.00000000000E+00 0. -1.
         13    1    5    5    0    0 -0.11363531110E+02 -0.11546920719E+03  0.94461977964E+01  0.11641090285E+03  0.00000000000E+00 0. -1.
        -14    1    5    5    0    0 -0.46484577850E+01 -0.88030455242E+01  0.38824626282E+02  0.40080586026E+02  0.00000000000E+00 0.  1.
          5    1    4    4  501    0 -0.27805624781E+03 -0.27037297226E+03  0.18973426334E+03  0.43177932345E+03  0.41800000000E+01 0. -1.
         -5    1    4    4    0  501  0.98354103627E+01 -0.17818075071E+01  0.17422868177E+02  0.20516794840E+02  0.41800000000E+01 0. -1.
</event>
<event>
11    1  0.8037748E-009  0.2201542E+03  0.7561462E-02  0.1041121E+00
         22   -1    0    0    0    0  0.00000000000E+00  0.00000000000E+00  0.75341697502E+03  0.75341697502E+03  0.00000000000E+00 0. -1.
         22   -1    0    0    0    0 -0.00000000000E+00 -0.00000000000E+00 -0.22261130557E+03  0.22261130557E+03  0.00000000000E+00 0.  1.
        -24    2    1    2    0    0  0.23382561899E+02  0.64775019369E+02 -0.12117849160E+03  0.15961646798E+03  0.77785877187E+02 0.  0.
         25    2    1    2    0    0  0.14681287266E+03 -0.12512947372E+03  0.14413077517E+03  0.27135353289E+03  0.12509058592E+03 0.  0.
         24    2    1    2    0    0 -0.17019543456E+03  0.60354454352E+02  0.50785338587E+03  0.54505827972E+03  0.81020495225E+02 0.  0.
        -13    1    5    5    0    0 -0.78674243049E+02  0.57796692056E+02  0.18129353694E+03  0.20590638812E+03  0.00000000000E+00 0.  1.
         14    1    5    5    0    0 -0.91521191513E+02  0.25577622961E+01  0.32655984893E+03  0.33915189160E+03  0.00000000000E+00 0. -1.
         11    1    3    3    0    0  0.11405282457E+02  0.26496067882E+02  0.31126148496E+01  0.29013969951E+02  0.00000000000E+00 0. -1.
        -12    1    3    3    0    0  0.11977279442E+02  0.38278951487E+02 -0.12429110645E+03  0.13060249803E+03  0.00000000000E+00 0.  1.
          5    1    4    4  501    0  0.48541532716E+02  0.16631542929E+02  0.61024860877E+02  0.79839806260E+02  0.41800000000E+01 0.  1.
         -5    1    4    4    0  501  0.98271339948E+02 -0.14176101665E+03  0.83105914292E+02  0.19151372663E+03  0.41800000000E+01 0.  1.
</event>
<event>
11    1  0.8037748E-009  0.6945677E+03  0.7561462E-02  0.9040349E-01
         22   -1    0    0    0    0  0.00000000000E+00  0.00000000000E+00  0.58252397425E+03  0.58252397425E+03  0.00000000000E+00 0.  1.
         22   -1    0    0    0    0 -0.00000000000E+00 -0.00000000000E+00 -0.20704050929E+03  0.20704050929E+03  0.00000000000E+00 0.  1.
        -24    2    1    2    0    0 -0.31713867984E+02 -0.82754065341E+02  0.93755524716E+02  0.15190026727E+03  0.80184711933E+02 0.  0.
         25    2    1    2    0    0  0.20605470454E+03  0.21319442131E+03  0.83617914117E+02  0.33249035774E+03  0.12508988724E+03 0.  0.
         24    2    1    2    0    0 -0.17434083656E+03 -0.13044035597E+03  0.19811002613E+03  0.30517385853E+03  0.80461715853E+02 0.  0.
        -11    1    5    5    0    0 -0.16007206537E+03 -0.85080827617E+02  0.17626164296E+03  0.25284378600E+03  0.00000000000E+00 0.  1.
         12    1    5    5    0    0 -0.14268771189E+02 -0.45359528352E+02  0.21848383168E+02  0.52330072527E+02  0.00000000000E+00 0. -1.
         13    1    3    3    0    0 -0.29881891055E+02 -0.27407833212E+00  0.42683764850E+01  0.30186446790E+02  0.00000000000E+00 0. -1.
        -14    1    3    3    0    0 -0.18319769284E+01 -0.82479987009E+02  0.89487148231E+02  0.12171382048E+03  0.00000000000E+00 0.  1.
          5    1    4    4  501    0  0.49314062074E+01 -0.52764130691E+01 -0.16991918707E+02  0.18930319685E+02  0.41800000000E+01 0. -1.
         -5    1    4    4    0  501  0.20112329833E+03  0.21847083438E+03  0.10060983282E+03  0.31356003806E+03  0.41800000000E+01 0. -1.
</event>
<event>
11    1  0.8037748E-009  0.1438401E+03  0.7561462E-02  0.1103345E+00
         22   -1    0    0    0    0  0.00000000000E+00  0.00000000000E+00  0.25902214894E+03  0.25902214894E+03  0.00000000000E+00 0. -1.
         22   -1    0    0    0    0 -0.00000000000E+00 -0.00000000000E+00 -0.27392464714E+03  0.27392464714E+03  0.00000000000E+00 0.  1.
         24    2    1    2    0    0  0.82618502362E+01 -0.86624335567E+02 -0.13646606628E+03  0.18047140566E+03  0.79843016808E+02 0.  0.
         25    2    1    2    0    0  0.17036741270E+01  0.41002882515E+02 -0.62505922399E+02  0.14573535403E+03  0.12509062394E+03 0.  0.
        -24    2    1    2    0    0 -0.99655243632E+01  0.45621453052E+02  0.18406949047E+03  0.20674003640E+03  0.81726597096E+02 0.  0.
        -13    1    3    3    0    0  0.26224947112E+02 -0.79028923385E+02 -0.13771250096E+03  0.16092871559E+03  0.00000000000E+00 0.  1.
         14    1    3    3    0    0 -0.17963096876E+02 -0.75954121823E+01  0.12464346789E+01  0.19542690065E+02  0.00000000000E+00 0. -1.
         11    1    5    5    0    0 -0.43796943857E+02  0.24123308965E+02  0.13111366687E+03  0.14032426720E+03  0.00000000000E+00 0. -1.
        -12    1    5    5    0    0  0.33831419494E+02  0.21498144088E+02  0.52955823606E+02  0.66415769196E+02  0.00000000000E+00 0.  1.
          5    1    4    4  501    0 -0.78405758273E+01 -0.44297781896E+02 -0.15374082045E+02  0.47724238170E+02  0.41800000000E+01 0. -1.
         -5    1    4    4    0  501  0.95442499543E+01  0.85300664410E+02 -0.47131840354E+02  0.98011115855E+02  0.41800000000E+01 0. -1.
</event>
<event>
11    1  0.8037748E-009  0.4492839E+03  0.7561462E-02  0.9514584E-01
         22   -1    0    0    0    0  0.00000000000E+00  0.00000000000E+00  0.10476785155E+04  0.10476785155E+04  0.00000000000E+00 0. -1.
         22   -1    0    0    0    0 -0.00000000000E+00 -0.00000000000E+00 -0.34716287597E+03  0.34716287597E+03  0.00000000000E+00 0. -1.
         24    2    1    2    0    0  0.68584016170E+02 -0.29543204669E+02 -0.11252760823E+03  0.17000398830E+03  0.10325853575E+03 0.  0.
         25    2    1    2    0    0  0.33993229512E+03 -0.18144257516E+03  0.19336452259E+03  0.44890003729E+03  0.12508409786E+03 0.  0.
        -24    2    1    2    0    0 -0.40851631129E+03  0.21098577983E+03  0.61967872522E+03  0.77593736593E+03  0.81709837156E+02 0.  0.
        -11    1    3    3    0    0  0.70928190384E+02  0.22454761913E+02 -0.55677921244E+02  0.92924998993E+02  0.00000000000E+00 0.  1.
         12    1    3    3    0    0 -0.23441742139E+01 -0.51997966583E+02 -0.56849686988E+02  0.77078989304E+02  0.00000000000E+00 0. -1.
         13    1    5    5    0    0 -0.24839209750E+03  0.10531789572E+03  0.30326913230E+03  0.40590966959E+03  0.00000000000E+00 0. -1.
        -14    1    5    5    0    0 -0.16012421379E+03  0.10566788411E+03  0.31640959291E+03  0.37002769634E+03  0.00000000000E+00 0.  1.
          5    1    4    4  501    0  0.12921788598E+02  0.15794168817E+02  0.46635174972E-02  0.20830285906E+02  0.41800000000E+01 0. -1.
         -5    1    4    4    0  501  0.32701050652E+03 -0.19723674398E+03  0.19335985907E+03  0.42806975138E+03  0.41800000000E+01 0. -1.
</event>
<event>
11    1  0.8037748E-009  0.1292383E+03  0.7561462E-02  0.1120208E+00
         22   -1    0    0    0    0  0.00000000000E+00  0.00000000000E+00  0.12516404413E+04  0.12516404413E+04  0.00000000000E+00 0.  1.
         22   -1    0    0    0    0 -0.00000000000E+00 -0.00000000000E+00 -0.12705397027E+03  0.12705397027E+03  0.00000000000E+00 0.  1.
        -24    2    1    2    0    0 -0.23833073523E+02  0.93676130156E+01 -0.56652209669E+02  0.10273217701E+03  0.81784226871E+02 0.  0.
         25    2    1    2    0    0  0.34168275081E+02 -0.39521018298E+02  0.54919583724E+02  0.14626508440E+03  0.12509169569E+03 0.  0.
         24    2    1    2    0    0 -0.10335201558E+02  0.30153405283E+02  0.11263190970E+04  0.11296971502E+04  0.81270527459E+02 0.  0.
        -13    1    5    5    0    0  0.33572084357E+02  0.25630585433E+02  0.63282460078E+03  0.63423259701E+03  0.00000000000E+00 0.  1.
         14    1    5    5    0    0 -0.43907285916E+02  0.45228198492E+01  0.49349449621E+03  0.49546455316E+03  0.00000000000E+00 0. -1.
         11    1    3    3    0    0 -0.88946336092E+01 -0.36478336563E+01  0.20731623382E+02  0.22852164132E+02  0.00000000000E+00 0. -1.
        -12    1    3    3    0    0 -0.14938439914E+02  0.13015446672E+02 -0.77383833052E+02  0.79880012875E+02  0.00000000000E+00 0.  1.
          5    1    4    4  501    0  0.19910888274E+02  0.44408678056E+02  0.30555202039E+02  0.57616550835E+02  0.41800000000E+01 0. -1.
         -5    1    4    4    0  501  0.14257386807E+02 -0.83929696354E+02  0.24364381685E+02  0.88648533567E+02  0.41800000000E+01 0. -1.
</event>
<event>
11    1  0.8037748E-009  0.1568902E+03  0.7561462E-02  0.1090039E+00
         22   -1    0    0    0    0  0.00000000000E+00  0.00000000000E+00  0.33141637972E+03  0.33141637972E+03  0.00000000000E+00 0. -1.
         22   -1    0    0    0    0 -0.00000000000E+00 -0.00000000000E+00 -0.65050091797E+03  0.65050091797E+03  0.00000000000E+00 0.  1.
         24    2    1    2    0    0 -0.20016818095E+02 -0.23723535552E+02 -0.48503028230E+03  0.49117756492E+03  0.70975674573E+02 0.  0.
         25    2    1    2    0    0 -0.73781491558E+02 -0.31419188877E+00 -0.11313033387E+03  0.18409109484E+03  0.12508897452E+03 0.  0.
        -24    2    1    2    0    0  0.93798309653E+02  0.24037727440E+02  0.27907607793E+03  0.30664863792E+03  0.82304280786E+02 0.  0.
        -11    1    3    3    0    0 -0.75029601522E+01 -0.41466210131E+02 -0.42936474915E+03  0.43142766347E+03  0.00000000000E+00 0.  1.
         12    1    3    3    0    0 -0.12513857943E+02  0.17742674580E+02 -0.55665533157E+02  0.59749901452E+02  0.00000000000E+00 0. -1.
         11    1    5    5    0    0  0.71464245410E+02  0.53044455362E+02  0.21761305075E+03  0.23510910759E+03  0.00000000000E+00 0. -1.
        -12    1    5    5    0    0  0.22334064243E+02 -0.29006727921E+02  0.61463027181E+02  0.71539530335E+02  0.00000000000E+00 0.  1.
          5    1    4    4  501    0 -0.91080553902E+02 -0.38088554671E+02 -0.99341718382E+02  0.14011657542E+03  0.41800000000E+01 0. -1.
         -5    1    4    4    0  501  0.17299062344E+02  0.37774362783E+02 -0.13788615489E+02  0.43974519426E+02  0.41800000000E+01 0. -1.
</event>
<event>
11    1  0.8037748E-009  0.1344379E+03  0.7561462E-02  0.1113933E+00
         22   -1    0    0    0    0  0.00000000000E+00  0.00000000000E+00  0.93389209442E+02  0.93389209442E+02  0.00000000000E+00 0.  1.
         22   -1    0    0    0    0 -0.00000000000E+00 -0.00000000000E+00 -0.42770176968E+03  0.42770176968E+03  0.00000000000E+00 0.  1.
         24    2    1    2    0    0  0.21381850630E+02  0.32855194878E+02 -0.25218812937E+03  0.26747789373E+03  0.80055753512E+02 0.  0.
         25    2    1    2    0    0  0.32875481000E+02 -0.35008161141E+02 -0.78288799620E+02  0.15518262478E+03  0.12508454058E+03 0.  0.
        -24    2    1    2    0    0 -0.54257331630E+02  0.21529662635E+01 -0.38356312463E+01  0.98430460610E+02  0.82008232572E+02 0.  0.
        -13    1    3    3    0    0  0.27941478288E+02  0.39293645199E+02 -0.25363161897E+03  0.25817380755E+03  0.00000000000E+00 0.  1.
         14    1    3    3    0    0 -0.65596276579E+01 -0.64384503210E+01  0.14434895933E+01  0.93040861858E+01  0.00000000000E+00 0. -1.
         13    1    5    5    0    0 -0.10848371042E+02 -0.35813389116E+02  0.10771235287E+02  0.38939767640E+02  0.00000000000E+00 0. -1.
        -14    1    5    5    0    0 -0.43408960587E+02  0.37966355380E+02 -0.14606866534E+02  0.59490692970E+02  0.00000000000E+00 0.  1.
          5    1    4    4  501    0  0.20499558731E+02  0.44984115894E+02 -0.46882868701E+02  0.68258906881E+02  0.41800000000E+01 0.  1.
         -5    1    4    4    0  501  0.12375922269E+02 -0.79992277035E+02 -0.31405930919E+02  0.86923717904E+02  0.41800000000E+01 0.  1.
</event>
<event>
11    1  0.8037748E-009  0.1465150E+03  0.7561462E-02  0.1100494E+00
         22   -1    0    0    0    0  0.00000000000E+00  0.00000000000E+00  0.22679908449E+03  0.22679908449E+03  0.00000000000E+00 0.  1.
         22   -1    0    0    0    0 -0.00000000000E+00 -0.00000000000E+00 -0.19092255824E+04  0.19092255824E+04  0.00000000000E+00 0.  1.
        -24    2    1    2    0    0 -0.20395494786E+02  0.62831781804E+02 -0.17070974374E+04  0.17102259464E+04  0.79544438068E+02 0.  0.
         25    2    1    2    0    0 -0.25365343374E+02  0.45629189644E+01 -0.16203592153E+03  0.20631485962E+03  0.12508381414E+03 0.  0.
         24    2    1    2    0    0  0.45760838160E+02 -0.67394700768E+02  0.18670686108E+03  0.21948386089E+03  0.81716664252E+02 0.  0.
        -11    1    5    5    0    0  0.54766766967E+02 -0.42286453351E+02  0.17870881096E+03  0.19163606659E+03  0.00000000000E+00 0.  1.
         12    1    5    5    0    0 -0.90059288069E+01 -0.25108247417E+02  0.79980501199E+01  0.27847794307E+02  0.00000000000E+00 0. -1.
         13    1    3    3    0    0 -0.69102069338E+01  0.45940057246E+02 -0.36375256182E+03  0.36670719389E+03  0.00000000000E+00 0. -1.
        -14    1    3    3    0    0 -0.13485287852E+02  0.16891724557E+02 -0.13433448756E+04  0.13435187525E+04  0.00000000000E+00 0.  1.
          5    1    4    4  501    0 -0.53779714781E+02  0.34872062672E+01 -0.16841331310E+03  0.17687547812E+03  0.41800000000E+01 0. -1.
         -5    1    4    4    0  501  0.28414371407E+02  0.10757126972E+01  0.63773915689E+01  0.29439381507E+02  0.41800000000E+01 0. -1.
</event>
<event>
11    1  0.8037748E-009  0.1388081E+03  0.7561462E-02  0.1108897E+00
         22   -1    0    0    0    0  0.00000000000E+00  0.00000000000E+00  0.36177379526E+03  0.36177379526E+03  0.00000000000E+00 0.  1.
         22   -1    0    0    0    0 -0.00000000000E+00 -0.00000000000E+00 -0.53471377988E+03  0.53471377988E+03  0.00000000000E+00 0.  1.
        -24    2    1    2    0    0  0.62131010059E+01  0.79645256973E+01 -0.43633261722E+03  0.44313557587E+03  0.76687348781E+02 0.  0.
         25    2    1    2    0    0 -0.64799841449E+02 -0.18335993588E+02 -0.28292179766E+02  0.14485703108E+03  0.12509150213E+03 0.  0.
         24    2    1    2    0    0  0.58586740443E+02  0.10371467891E+02  0.29168481237E+03  0.30849496818E+03  0.80926770123E+02 0.  0.
        -13    1    5    5    0    0  0.65841366208E+02  0.33135140694E+02  0.24777342647E+03  0.25850472707E+03  0.00000000000E+00 0.  1.
         14    1    5    5    0    0 -0.72546257650E+01 -0.22763672803E+02  0.43911385897E+02  0.49990241106E+02  0.00000000000E+00 0. -1.
         13    1    3    3    0    0 -0.34872063836E+02 -0.19737517712E+01 -0.21130993511E+03  0.21417713512E+03  0.00000000000E+00 0. -1.
        -14    1    3    3    0    0  0.41085164842E+02  0.99382774685E+01 -0.22502268211E+03  0.22895844076E+03  0.00000000000E+00 0.  1.
          5    1    4    4  501    0 -0.84651683642E+02  0.13718765515E+02 -0.51756745302E+02  0.10025140974E+03  0.41800000000E+01 0. -1.
         -5    1    4    4    0  501  0.19851842194E+02 -0.32054759104E+02  0.23464565536E+02  0.44605621344E+02  0.41800000000E+01 0. -1.
</event>
<event>
11    1  0.8037748E-009  0.1319801E+03  0.7561462E-02  0.1116860E+00
         22   -1    0    0    0    0  0.00000000000E+00  0.00000000000E+00  0.16853372509E+04  0.16853372509E+04  0.00000000000E+00 0.  1.
         22   -1    0    0    0    0 -0.00000000000E+00 -0.00000000000E+00 -0.64623692413E+03  0.64623692413E+03  0.00000000000E+00 0.  1.
         24    2    1    2    0    0 -0.24791805150E+02 -0.34587681638E+02 -0.62179870225E+03  0.62859580206E+03  0.81780895843E+02 0.  0.
         25    2    1    2    0    0  0.18403380659E+02 -0.96087079087E+01  0.18551501350E+03  0.22470930156E+03  0.12508972095E+03 0.  0.
        -24    2    1    2    0    0  0.63884244910E+01  0.44196389547E+02  0.14753840156E+04  0.14782690715E+04  0.80791839877E+02 0.  0.
        -11    1    3    3    0    0 -0.30826733563E+02 -0.56856454949E+02 -0.53045858700E+03  0.53438680420E+03  0.00000000000E+00 0.  1.
         12    1    3    3    0    0  0.60349284133E+01  0.22268773311E+02 -0.91340115250E+02  0.94208997869E+02  0.00000000000E+00 0. -1.
         11    1    5    5    0    0  0.38903861686E+02  0.45259864994E+02  0.92209842514E+03  0.92402785211E+03  0.00000000000E+00 0. -1.
        -12    1    5    5    0    0 -0.32515437195E+02 -0.10634754468E+01  0.55328559044E+03  0.55424121934E+03  0.00000000000E+00 0.  1.
          5    1    4    4  501    0  0.77928865228E+01 -0.67231466177E+02  0.10641105866E+03  0.12618076292E+03  0.41800000000E+01 0. -1.
         -5    1    4    4    0  501  0.10610494136E+02  0.57622758268E+02  0.79103954831E+02  0.98528538638E+02  0.41800000000E+01 0. -1.
</event>
<event>
11    1  0.8037748E-009  0.1471337E+03  0.7561462E-02  0.1099844E+00
         22   -1    0    0    0    0  0.00000000000E+00  0.00000000000E+00  0.26768394509E+04  0.26768394509E+04  0.00000000000E+00 0.  1.
         22   -1    0    0    0    0 -0.00000000000E+00 -0.00000000000E+00 -0.40348660034E+02  0.40348660034E+02  0.00000000000E+00 0. -1.
        -24    2    1    2    0    0  0.24425916747E+02  0.22059787888E+02  0.49540675737E+02  0.10097329081E+03  0.81596980663E+02 0.  0.
         25    2    1    2    0    0  0.14397211053E+02  0.48658185096E+02  0.33412556361E+03  0.36036379809E+03  0.12508907248E+03 0.  0.
         24    2    1    2    0    0 -0.38823127799E+02 -0.70717972985E+02  0.22528245515E+04  0.22558510220E+04  0.84481398727E+02 0.  0.
        -13    1    5    5    0    0 -0.33918271905E+02 -0.66137644494E+02  0.22411714957E+04  0.22424036903E+04  0.00000000000E+00 0.  1.
         14    1    5    5    0    0 -0.49048558941E+01 -0.45803284908E+01  0.11653055794E+02  0.13447331696E+02  0.00000000000E+00 0. -1.
         11    1    3    3    0    0  0.20848430419E+02 -0.28586688986E+02  0.10440461346E+02  0.36889823410E+02  0.00000000000E+00 0. -1.
        -12    1    3    3    0    0  0.35774863270E+01  0.50646476874E+02  0.39100214391E+02  0.64083467397E+02  0.00000000000E+00 0.  1.
          5    1    4    4  501    0  0.19083452888E+02  0.13145869377E+02  0.32118818871E+03  0.32205017780E+03  0.41800000000E+01 0. -1.
         -5    1    4    4    0  501 -0.46862418358E+01  0.35512315720E+02  0.12937374897E+02  0.38313620288E+02  0.41800000000E+01 0. -1.
</event>
<event>
11    1  0.8037748E-009  0.1510191E+03  0.7561462E-02  0.1095842E+00
         22   -1    0    0    0    0  0.00000000000E+00  0.00000000000E+00  0.87010571720E+02  0.87010571720E+02  0.00000000000E+00 0.  1.
         22   -1    0    0    0    0 -0.00000000000E+00 -0.00000000000E+00 -0.12537497502E+04  0.12537497502E+04  0.00000000000E+00 0. -1.
         24    2    1    2    0    0  0.62350998310E+02 -0.54658031833E+02 -0.96040594584E+03  0.96729711979E+03  0.80056166009E+02 0.  0.
         25    2    1    2    0    0 -0.95170472872E+02  0.39046665175E+02 -0.21397047728E+03  0.26835048004E+03  0.12508618638E+03 0.  0.
        -24    2    1    2    0    0  0.32819474562E+02  0.15611366658E+02  0.76372446932E+01  0.10511272204E+03  0.98333738605E+02 0.  0.
        -11    1    3    3    0    0  0.10690297265E+02  0.17439140648E+02 -0.85766104494E+02  0.88171598387E+02  0.00000000000E+00 0.  1.
         12    1    3    3    0    0  0.51660701045E+02 -0.72097172481E+02 -0.87463984135E+03  0.87912552141E+03  0.00000000000E+00 0. -1.
         13    1    5    5    0    0  0.25146630961E+02  0.57131538964E+02  0.76633693241E+01  0.62889530309E+02  0.00000000000E+00 0. -1.
        -14    1    5    5    0    0  0.76728436010E+01 -0.41520172305E+02 -0.26124630821E-01  0.42223191728E+02  0.00000000000E+00 0.  1.
          5    1    4    4  501    0 -0.45660544761E+02  0.81325051333E+02 -0.15192601262E+03  0.17831891384E+03  0.41800000000E+01 0.  1.
         -5    1    4    4    0  501 -0.49509928111E+02 -0.42278386158E+02 -0.62044464659E+02  0.90031566201E+02  0.41800000000E+01 0.  1.
</event>
<event>
11    1  0.8037748E-009  0.1630459E+03  0.7561462E-02  0.1084247E+00
         22   -1    0    0    0    0  0.00000000000E+00  0.00000000000E+00  0.24015805635E+04  0.24015805635E+04  0.00000000000E+00 0.  1.
         22   -1    0    0    0    0 -0.00000000000E+00 -0.00000000000E+00 -0.46954408935E+03  0.46954408935E+03  0.00000000000E+00 0.  1.
         24    2    1    2    0    0 -0.42242616256E+01 -0.98987933372E+02 -0.25917267771E+03  0.28905670245E+03  0.81036072342E+02 0.  0.
         25    2    1    2    0    0 -0.42347759041E+02  0.11849154448E+03 -0.15391931845E+03  0.23488744541E+03  0.12508947442E+03 0.  0.
        -24    2    1    2    0    0  0.46572020667E+02 -0.19503611104E+02  0.23451284703E+04  0.23471805050E+04  0.84139388474E+02 0.  0.
        -13    1    3    3    0    0 -0.28507259245E+02 -0.97195213577E+02 -0.18397546917E+03  0.21001558663E+03  0.00000000000E+00 0.  1.
         14    1    3    3    0    0  0.24282997619E+02 -0.17927197955E+01 -0.75197208546E+02  0.79041115824E+02  0.00000000000E+00 0. -1.
         13    1    5    5    0    0  0.26536084494E+02 -0.27657762096E+02  0.37903509847E+03  0.38096813706E+03  0.00000000000E+00 0. -1.
        -14    1    5    5    0    0  0.20035936173E+02  0.81541509924E+01  0.19660933718E+04  0.19662123679E+04  0.00000000000E+00 0.  1.
          5    1    4    4  501    0 -0.99582009936E+01  0.79504890884E+02 -0.16442405311E+03  0.18295610152E+03  0.41800000000E+01 0. -1.
         -5    1    4    4    0  501 -0.32389558047E+02  0.38986653591E+02  0.10504734655E+02  0.51931343897E+02  0.41800000000E+01 0. -1.
</event>
<event>
11    1  0.8037748E-009  0.1470236E+03  0.7561462E-02  0.1099959E+00
         22   -1    0    0    0    0  0.00000000000E+00  0.00000000000E+00  0.22374444039E+03  0.22374444039E+03  0.00000000000E+00 0.  1.
         22   -1    0    0    0    0 -0.00000000000E+00 -0.00000000000E+00 -0.36768071108E+04  0.36768071108E+04  0.00000000000E+00 0. -1.
        -24    2    1    2    0    0 -0.24901700942E+02  0.70121406819E+02 -0.30540559710E+04  0.30559982836E+04  0.79564622476E+02 0.  0.
         25    2    1    2    0    0  0.30481136295E+02 -0.10656799948E+03 -0.60097809084E+03  0.62378524088E+03  0.12509005913E+03 0.  0.
         24    2    1    2    0    0 -0.55794353537E+01  0.36446592658E+02  0.20197139140E+03  0.22076802671E+03  0.81157836711E+02 0.  0.
        -13    1    5    5    0    0 -0.43594731254E+00  0.73950577023E+01  0.18796125453E+03  0.18810717725E+03  0.00000000000E+00 0.  1.
         14    1    5    5    0    0 -0.51434880411E+01  0.29051534956E+02  0.14010136869E+02  0.32660849463E+02  0.00000000000E+00 0. -1.
         13    1    3    3    0    0 -0.47446155876E+02  0.53952671727E+02 -0.26584617122E+04  0.26594324025E+04  0.00000000000E+00 0. -1.
        -14    1    3    3    0    0  0.22544454934E+02  0.16168735092E+02 -0.39559425880E+03  0.39656588109E+03  0.00000000000E+00 0.  1.
          5    1    4    4  501    0  0.54509531899E+02  0.28755672114E+01 -0.18116435579E+03  0.18925526192E+03  0.41800000000E+01 0. -1.
         -5    1    4    4    0  501 -0.24028395604E+02 -0.10944356669E+03 -0.41981373505E+03  0.43452997897E+03  0.41800000000E+01 0. -1.
</event>
<event>
11    1  0.8037748E-009  0.2463009E+03  0.7561462E-02  0.1025888E+00
         22   -1    0    0    0    0  0.00000000000E+00  0.00000000000E+00  0.64843226311E+03  0.64843226311E+03  0.00000000000E+00 0.  1.
         22   -1    0    0    0    0 -0.00000000000E+00 -0.00000000000E+00 -0.18500298185E+04  0.18500298185E+04  0.00000000000E+00 0. -1.
        -24    2    1    2    0    0  0.12492694160E+03 -0.16903321160E+03 -0.15781098609E+04  0.15940545045E+04  0.80000392752E+02 0.  0.
         25    2    1    2    0    0 -0.14046962008E+03  0.18015324078E+03 -0.19512840318E+03  0.32543753383E+03  0.12509032885E+03 0.  0.
         24    2    1    2    0    0  0.15542678475E+02 -0.11120029182E+02  0.57164070864E+03  0.57897004334E+03  0.89821942763E+02 0.  0.
        -13    1    5    5    0    0  0.28572896980E+02 -0.13171476224E+02  0.56137344728E+03  0.56225443132E+03  0.00000000000E+00 0.  1.
         14    1    5    5    0    0 -0.13030218505E+02  0.20514470415E+01  0.10267261363E+02  0.16715612018E+02  0.00000000000E+00 0. -1.
         13    1    3    3    0    0  0.20746406776E+02 -0.31191402136E+02 -0.57124737669E+03  0.57247435082E+03  0.00000000000E+00 0. -1.
        -14    1    3    3    0    0  0.10418053482E+03 -0.13784180946E+03 -0.10068624842E+04  0.10215801537E+04  0.00000000000E+00 0.  1.
          5    1    4    4  501    0 -0.98065435424E+01  0.52464708301E+02 -0.11309660974E+03  0.12512805220E+03  0.41800000000E+01 0. -1.
         -5    1    4    4    0  501 -0.13066307653E+03  0.12768853248E+03 -0.82031793438E+02  0.20030948163E+03  0.41800000000E+01 0. -1.
</event>
<event>
11    1  0.8037748E-009  0.1429885E+03  0.7561462E-02  0.1104266E+00
         22   -1    0    0    0    0  0.00000000000E+00  0.00000000000E+00  0.16586432360E+04  0.16586432360E+04  0.00000000000E+00 0.  1.
         22   -1    0    0    0    0 -0.00000000000E+00 -0.00000000000E+00 -0.43887458176E+03  0.43887458176E+03  0.00000000000E+00 0.  1.
         24    2    1    2    0    0 -0.59735016924E+02 -0.34211749713E+02 -0.31007131271E+03  0.32831729250E+03  0.83122256468E+02 0.  0.
         25    2    1    2    0    0  0.86826087378E+02 -0.14605248029E+02 -0.68669138239E+02  0.16767580164E+03  0.12509053198E+03 0.  0.
        -24    2    1    2    0    0 -0.27091070454E+02  0.48816997742E+02  0.15985091052E+04  0.16015247236E+04  0.80827319947E+02 0.  0.
        -13    1    3    3    0    0 -0.18770345001E+02  0.34744996210E+01 -0.23004795002E+03  0.23083859579E+03  0.00000000000E+00 0.  1.
         14    1    3    3    0    0 -0.40964671923E+02 -0.37686249334E+02 -0.80023362690E+02  0.97478696703E+02  0.00000000000E+00 0. -1.
         13    1    5    5    0    0  0.67633642146E+01  0.51523178318E+02  0.54587218038E+03  0.54834005718E+03  0.00000000000E+00 0. -1.
        -14    1    5    5    0    0 -0.33854434669E+02 -0.27061805757E+01  0.10526369248E+04  0.10531846664E+04  0.00000000000E+00 0.  1.
          5    1    4    4  501    0  0.10992499152E+03 -0.16516776678E+02 -0.19194479242E+02  0.11288138954E+03  0.41800000000E+01 0.  1.
         -5    1    4    4    0  501 -0.23098904141E+02  0.19115286492E+01 -0.49474658997E+02  0.54794412097E+02  0.41800000000E+01 0.  1.
</event>
<event>
11    1  0.8037748E-009  0.1711891E+03  0.7561462E-02  0.1077001E+00
         22   -1    0    0    0    0  0.00000000000E+00  0.00000000000E+00  0.41117261380E+03  0.41117261380E+03  0.00000000000E+00 0.  1.
         22   -1    0    0    0    0 -0.00000000000E+00 -0.00000000000E+00 -0.54148456110E+03  0.54148456110E+03  0.00000000000E+00 0.  1.
         24    2    1    2    0    0 -0.39581164496E+02  0.10919035812E+03 -0.45839141837E+03  0.48249126419E+03  0.95843229810E+02 0.  0.
         25    2    1    2    0    0  0.23801232111E+02 -0.12325939753E+03  0.55058491672E+02  0.18557381556E+03  0.12508727267E+03 0.  0.
        -24    2    1    2    0    0  0.15779932385E+02  0.14069039414E+02  0.27302097940E+03  0.28459209515E+03  0.77493620989E+02 0.  0.
        -13    1    3    3    0    0  0.88378192136E+01  0.10094256221E+02 -0.21336335046E+03  0.21378475245E+03  0.00000000000E+00 0.  1.
         14    1    3    3    0    0 -0.48418983710E+02  0.99096101896E+02 -0.24502806791E+03  0.26870651175E+03  0.00000000000E+00 0. -1.
         13    1    5    5    0    0  0.10987001057E+02  0.21025081176E+02  0.18901040149E+02  0.30331791068E+02  0.00000000000E+00 0. -1.
        -14    1    5    5    0    0  0.47929313281E+01 -0.69560417615E+01  0.25411993925E+03  0.25426030408E+03  0.00000000000E+00 0.  1.
          5    1    4    4  501    0  0.13626377322E+02 -0.42019171366E+00  0.60466001578E+02  0.62124588263E+02  0.41800000000E+01 0. -1.
         -5    1    4    4    0  501  0.10174854790E+02 -0.12283920582E+03 -0.54075099067E+01  0.12344922729E+03  0.41800000000E+01 0. -1.
</event>
<event>
11    1  0.8037748E-009  0.3398612E+03  0.7561462E-02  0.9846033E-01
         22   -1    0    0    0    0  0.00000000000E+00  0.00000000000E+00  0.99005121175E+03  0.99005121175E+03  0.00000000000E+00 0. -1.
         22   -1    0    0    0    0 -0.00000000000E+00 -0.00000000000E+00 -0.10755443337E+04  0.10755443337E+04  0.00000000000E+00 0. -1.
        -24    2    1    2    0    0 -0.27743295261E+03  0.12896737286E+03 -0.86499895783E+03  0.92066921468E+03  0.76203539042E+02 0.  0.
         25    2    1    2    0    0  0.37124423952E+03 -0.17404586112E+03  0.83624956730E+02  0.43675631571E+03  0.12509475916E+03 0.  0.
         24    2    1    2    0    0 -0.93811286911E+02  0.45078488259E+02  0.69588087913E+03  0.70817001509E+03  0.80137036874E+02 0.  0.
        -13    1    5    5    0    0 -0.80553852338E+02  0.24018500253E-01  0.51645868496E+03  0.52270306770E+03  0.00000000000E+00 0.  1.
         14    1    5    5    0    0 -0.13257434573E+02  0.45054469759E+02  0.17942219416E+03  0.18546694739E+03  0.00000000000E+00 0. -1.
         11    1    3    3    0    0 -0.13290238883E+02  0.17650956304E+02 -0.12796294507E+03  0.12985646699E+03  0.00000000000E+00 0. -1.
        -12    1    3    3    0    0 -0.26414271373E+03  0.11131641656E+03 -0.73703601276E+03  0.79081274769E+03  0.00000000000E+00 0.  1.
          5    1    4    4  501    0  0.28262759600E+03 -0.80237350277E+02  0.90533617978E+02  0.30745763738E+03  0.41800000000E+01 0. -1.
         -5    1    4    4    0  501  0.88616643517E+02 -0.93808510847E+02 -0.69086612479E+01  0.12929867832E+03  0.41800000000E+01 0. -1.
</event>
<event>
11    1  0.8037748E-009  0.1376164E+03  0.7561462E-02  0.1110250E+00
         22   -1    0    0    0    0  0.00000000000E+00  0.00000000000E+00  0.12543211091E+04  0.12543211091E+04  0.00000000000E+00 0. -1.
         22   -1    0    0    0    0 -0.00000000000E+00 -0.00000000000E+00 -0.23253287612E+03  0.23253287612E+03  0.00000000000E+00 0. -1.
        -24    2    1    2    0    0 -0.64247479918E+01  0.59856349691E+02 -0.16671668573E+03  0.19433964458E+03  0.79683023096E+02 0.  0.
         25    2    1    2    0    0 -0.13865504717E+02 -0.40795334219E+02  0.36061608300E+02  0.13713586300E+03  0.12509713751E+03 0.  0.
         24    2    1    2    0    0  0.20290252709E+02 -0.19061015472E+02  0.11524433104E+04  0.11553784776E+04  0.77452089894E+02 0.  0.
        -13    1    5    5    0    0 -0.24103065424E+02 -0.15966352354E+02  0.22243246127E+03  0.22430354879E+03  0.00000000000E+00 0.  1.
         14    1    5    5    0    0  0.44393318133E+02 -0.30946631173E+01  0.93001084913E+03  0.93107492885E+03  0.00000000000E+00 0. -1.
         13    1    3    3    0    0 -0.15817902334E+02  0.14402703928E+02 -0.13824141067E+03  0.13988685263E+03  0.00000000000E+00 0. -1.
        -14    1    3    3    0    0  0.93931543422E+01  0.45453645762E+02 -0.28475275062E+02  0.54452791953E+02  0.00000000000E+00 0.  1.
          5    1    4    4  501    0  0.40929942359E+02 -0.57173703620E+02  0.37451138164E+02  0.79775639872E+02  0.41800000000E+01 0. -1.
         -5    1    4    4    0  501 -0.54795447077E+02  0.16378369401E+02 -0.13895298638E+01  0.57360223133E+02  0.41800000000E+01 0. -1.
</event>
<event>
11    1  0.8037748E-009  0.1295903E+03  0.7561462E-02  0.1119773E+00
         22   -1    0    0    0    0  0.00000000000E+00  0.00000000000E+00  0.71451512189E+03  0.71451512189E+03  0.00000000000E+00 0.  1.
         22   -1    0    0    0    0 -0.00000000000E+00 -0.00000000000E+00 -0.10029598545E+04  0.10029598545E+04  0.00000000000E+00 0.  1.
        -24    2    1    2    0    0 -0.56951358155E+02 -0.38920530171E+01 -0.92020081583E+03  0.92526679724E+03  0.78041651431E+02 0.  0.
         25    2    1    2    0    0  0.58631237377E+02  0.37144765394E+02 -0.77715613241E+01  0.14326622684E+03  0.12508980372E+03 0.  0.
         24    2    1    2    0    0 -0.16798792221E+01 -0.33252712377E+02  0.63952764454E+03  0.64894195230E+03  0.10498325796E+03 0.  0.
        -11    1    5    5    0    0 -0.87833137079E+01 -0.55556518621E+02  0.60260745614E+03  0.60522675053E+03  0.00000000000E+00 0.  1.
         12    1    5    5    0    0  0.71034344858E+01  0.22303806243E+02  0.36920188397E+02  0.43715201769E+02  0.00000000000E+00 0. -1.
         11    1    3    3    0    0 -0.28741778991E+02  0.25295948078E+02 -0.18367433099E+03  0.18762258583E+03  0.00000000000E+00 0. -1.
        -12    1    3    3    0    0 -0.28209579164E+02 -0.29188001095E+02 -0.73652648484E+03  0.73764421141E+03  0.00000000000E+00 0.  1.
          5    1    4    4  501    0  0.79974606693E+02 -0.12474547883E+02  0.18381086777E+02  0.83107694058E+02  0.41800000000E+01 0.  1.
         -5    1    4    4    0  501 -0.21343369317E+02  0.49619313277E+02 -0.26152648101E+02  0.60158532783E+02  0.41800000000E+01 0.  1.
</event>
<event>
11    1  0.8037748E-009  0.1310165E+03  0.7561462E-02  0.1118026E+00
         22   -1    0    0    0    0  0.00000000000E+00  0.00000000000E+00  0.28298227935E+03  0.28298227935E+03  0.00000000000E+00 0. -1.
         22   -1    0    0    0    0 -0.00000000000E+00 -0.00000000000E+00 -0.90621568084E+03  0.90621568084E+03  0.00000000000E+00 0. -1.
        -24    2    1    2    0    0  0.24340672330E+01 -0.39390359444E+02 -0.59465826528E+03  0.60146923886E+03  0.81174304674E+02 0.  0.
         25    2    1    2    0    0  0.23056449823E+02  0.36721937642E+02 -0.28670472644E+03  0.31579624587E+03  0.12509024008E+03 0.  0.
         24    2    1    2    0    0 -0.25490517056E+02  0.26684218023E+01  0.25812959022E+03  0.27193247545E+03  0.81605753013E+02 0.  0.
        -13    1    5    5    0    0 -0.12883862346E+02  0.81066034871E+00 -0.56742979164E+00  0.12921805436E+02  0.00000000000E+00 0.  1.
         14    1    5    5    0    0 -0.12606654710E+02  0.18577614536E+01  0.25869702001E+03  0.25901067002E+03  0.00000000000E+00 0. -1.
         13    1    3    3    0    0  0.40820752942E+02 -0.25958167344E+02 -0.27336508253E+03  0.27761237124E+03  0.00000000000E+00 0. -1.
        -14    1    3    3    0    0 -0.38386685709E+02 -0.13432192100E+02 -0.32129318275E+03  0.32385686762E+03  0.00000000000E+00 0.  1.
          5    1    4    4  501    0  0.67361438736E+02 -0.65825073737E+01 -0.17985789662E+03  0.19221661793E+03  0.41800000000E+01 0.  1.
         -5    1    4    4    0  501 -0.44304988913E+02  0.43304445016E+02 -0.10684682982E+03  0.12357962795E+03  0.41800000000E+01 0.  1.
</event>
<event>
11    1  0.8037748E-009  0.1475410E+03  0.7561462E-02  0.1099418E+00
         22   -1    0    0    0    0  0.00000000000E+00  0.00000000000E+00  0.58538874745E+03  0.58538874745E+03  0.00000000000E+00 0. -1.
         22   -1    0    0    0    0 -0.00000000000E+00 -0.00000000000E+00 -0.50358937873E+03  0.50358937873E+03  0.00000000000E+00 0. -1.
         24    2    1    2    0    0 -0.20358472083E+02  0.74562743792E+02 -0.45146248849E+03  0.46517443912E+03  0.81208436460E+02 0.  0.
         25    2    1    2    0    0  0.14935849252E+02 -0.99273385718E+02  0.11586137826E+03  0.19786414476E+03  0.12509227036E+03 0.  0.
        -24    2    1    2    0    0  0.54226228307E+01  0.24710641926E+02  0.41740047895E+03  0.42593954230E+03  0.81001933345E+02 0.  0.
        -13    1    3    3    0    0 -0.45718986362E+02  0.16625378833E+02 -0.21078230786E+03  0.21632339273E+03  0.00000000000E+00 0.  1.
         14    1    3    3    0    0  0.25360514279E+02  0.57937364959E+02 -0.24068018063E+03  0.24885104640E+03  0.00000000000E+00 0. -1.
         13    1    5    5    0    0 -0.23854882746E+02 -0.15423131169E+02  0.24129466412E+03  0.24296099139E+03  0.00000000000E+00 0. -1.
        -14    1    5    5    0    0  0.29277505577E+02  0.40133773095E+02  0.17610581483E+03  0.18297855091E+03  0.00000000000E+00 0.  1.
          5    1    4    4  501    0 -0.20423839654E+01 -0.75566565763E+02  0.14040848568E+03  0.15951956759E+03  0.41800000000E+01 0.  1.
         -5    1    4    4    0  501  0.16978233218E+02 -0.23706819955E+02 -0.24547107419E+02  0.38344577169E+02  0.41800000000E+01 0.  1.
</event>
<event>
11    1  0.8037748E-009  0.1328465E+03  0.7561462E-02  0.1115820E+00
         22   -1    0    0    0    0  0.00000000000E+00  0.00000000000E+00  0.87222783625E+03  0.87222783625E+03  0.00000000000E+00 0. -1.
         22   -1    0    0    0    0 -0.00000000000E+00 -0.00000000000E+00 -0.36909567588E+03  0.36909567588E+03  0.00000000000E+00 0.  1.
         24    2    1    2    0    0 -0.51678447268E+01 -0.21389531907E+02 -0.34292954200E+03  0.35282103069E+03  0.79986187719E+02 0.  0.
         25    2    1    2    0    0  0.26189834310E+02 -0.21126704545E+02  0.21847157916E+03  0.25398654893E+03  0.12508833308E+03 0.  0.
        -24    2    1    2    0    0 -0.21021989583E+02  0.42516236452E+02  0.62759012321E+03  0.63451593251E+03  0.80570164795E+02 0.  0.
        -11    1    3    3    0    0 -0.37862319805E+02 -0.27386191492E+02 -0.24464600829E+03  0.24906872168E+03  0.00000000000E+00 0.  1.
         12    1    3    3    0    0  0.32694475078E+02  0.59966595845E+01 -0.98283533702E+02  0.10375230900E+03  0.00000000000E+00 0. -1.
         13    1    5    5    0    0 -0.40415688344E+02  0.82928951695E+01  0.48012674948E+03  0.48189614601E+03  0.00000000000E+00 0. -1.
        -14    1    5    5    0    0  0.19393698761E+02  0.34223341283E+02  0.14746337373E+03  0.15261978651E+03  0.00000000000E+00 0.  1.
          5    1    4    4  501    0  0.75555731664E+02 -0.25296122603E+02  0.13193109730E+03  0.15418122208E+03  0.41800000000E+01 0.  1.
         -5    1    4    4    0  501 -0.49365897354E+02  0.41694180575E+01  0.86540481858E+02  0.99805326856E+02  0.41800000000E+01 0.  1.
</event>
<event>
11    1  0.8037748E-009  0.2107034E+03  0.7561462E-02  0.1047203E+00
         22   -1    0    0    0    0  0.00000000000E+00  0.00000000000E+00  0.66917623345E+03  0.66917623345E+03  0.00000000000E+00 0. -1.
         22   -1    0    0    0    0 -0.00000000000E+00 -0.00000000000E+00 -0.33048471306E+03  0.33048471306E+03  0.00000000000E+00 0. -1.
        -24    2    1    2    0    0  0.36848251929E+02 -0.12956346302E+02 -0.25893298404E+03  0.27446406260E+03  0.82210527652E+02 0.  0.
         25    2    1    2    0    0 -0.13908284608E+03  0.13235232367E+03  0.28155162621E+03  0.36301580488E+03  0.12509188908E+03 0.  0.
         24    2    1    2    0    0  0.10223459415E+03 -0.11939597737E+03  0.31607287822E+03  0.36218107904E+03  0.81029365144E+02 0.  0.
        -11    1    5    5    0    0  0.42371097249E+02 -0.83286002438E+02  0.10871807415E+03  0.14335790084E+03  0.00000000000E+00 0.  1.
         12    1    5    5    0    0  0.59863496901E+02 -0.36109974933E+02  0.20735480406E+03  0.21882317820E+03  0.00000000000E+00 0. -1.
         13    1    3    3    0    0 -0.70424030203E+01 -0.83778517051E+01 -0.20264348511E+03  0.20293882304E+03  0.00000000000E+00 0. -1.
        -14    1    3    3    0    0  0.43890654949E+02 -0.45784945966E+01 -0.56289498928E+02  0.71525239561E+02  0.00000000000E+00 0.  1.
          5    1    4    4  501    0 -0.49765731404E+02 -0.14973513646E+02  0.37383989261E+02  0.64155040224E+02  0.41800000000E+01 0. -1.
         -5    1    4    4    0  501 -0.89317114675E+02  0.14732583732E+03  0.24416763695E+03  0.29886076465E+03  0.41800000000E+01 0. -1.
</event>
<event>
11    1  0.8037748E-009  0.2856118E+03  0.7561462E-02  0.1006471E+00
         22   -1    0    0    0    0  0.00000000000E+00  0.00000000000E+00  0.24499516578E+03  0.24499516578E+03  0.00000000000E+00 0.  1.
         22   -1    0    0    0    0 -0.00000000000E+00 -0.00000000000E+00 -0.11063259802E+04  0.11063259802E+04  0.00000000000E+00 0.  1.
        -24    2    1    2    0    0  0.19650422230E+03 -0.16532898231E+03 -0.86371248717E+03  0.90500956753E+03  0.84234642876E+02 0.  0.
         25    2    1    2    0    0 -0.25294949677E+03  0.95177360611E+02  0.72517404313E+02  0.30651054853E+03  0.12509102504E+03 0.  0.
         24    2    1    2    0    0  0.56445274462E+02  0.70151621699E+02 -0.70135731561E+02  0.13980102991E+03  0.80734057783E+02 0.  0.
        -11    1    5    5    0    0  0.73362562880E+02  0.43681231124E+02 -0.66405721254E+02  0.10816577740E+03  0.00000000000E+00 0.  1.
         12    1    5    5    0    0 -0.16917288418E+02  0.26470390575E+02 -0.37300103076E+01  0.31635252512E+02  0.00000000000E+00 0. -1.
         11    1    3    3    0    0  0.37320745114E+01 -0.38966847232E+01 -0.11653009779E+03  0.11665494513E+03  0.00000000000E+00 0. -1.
        -12    1    3    3    0    0  0.19277214779E+03 -0.16143229759E+03 -0.74718238937E+03  0.78835462240E+03  0.00000000000E+00 0.  1.
          5    1    4    4  501    0 -0.57619053197E+02  0.14176281117E+02  0.74076630269E+02  0.95003904076E+02  0.41800000000E+01 0.  1.
         -5    1    4    4    0  501 -0.19533044357E+03  0.81001079494E+02 -0.15592259560E+01  0.21150664446E+03  0.41800000000E+01 0.  1.
</event>
<event>
11    1  0.8037748E-009  0.1678068E+03  0.7561462E-02  0.1079956E+00
         22   -1    0    0    0    0  0.00000000000E+00  0.00000000000E+00  0.11188541222E+04  0.11188541222E+04  0.00000000000E+00 0.  1.
         22   -1    0    0    0    0 -0.00000000000E+00 -0.00000000000E+00 -0.13592416000E+04  0.13592416000E+04  0.00000000000E+00 0. -1.
        -24    2    1    2    0    0  0.46441212484E+02 -0.99778085153E+01 -0.12912662153E+04  0.12946590325E+04  0.80729354384E+02 0.  0.
         25    2    1    2    0    0 -0.77190361193E+02  0.11577653419E+03  0.80917682056E+02  0.20385825352E+03  0.12509180040E+03 0.  0.
         24    2    1    2    0    0  0.30749148710E+02 -0.10579872567E+03  0.96996105541E+03  0.97957843618E+03  0.81305492571E+02 0.  0.
        -11    1    5    5    0    0  0.33649227679E+02 -0.56559240895E+02  0.79725894302E+03  0.79997064976E+03  0.00000000000E+00 0.  1.
         12    1    5    5    0    0 -0.29000789694E+01 -0.49239484780E+02  0.17270211239E+03  0.17960778642E+03  0.00000000000E+00 0. -1.
         11    1    3    3    0    0  0.49153570880E+02 -0.35598552543E+02 -0.10989740673E+04  0.11006485956E+04  0.00000000000E+00 0. -1.
        -12    1    3    3    0    0 -0.27123583966E+01  0.25620744028E+02 -0.19229214804E+03  0.19401043686E+03  0.00000000000E+00 0.  1.
          5    1    4    4  501    0 -0.25548947330E+02 -0.23748429700E+02  0.15049230569E+01  0.35163529633E+02  0.41800000000E+01 0. -1.
         -5    1    4    4    0  501 -0.51641413863E+02  0.13952496389E+03  0.79412758999E+02  0.16869472388E+03  0.41800000000E+01 0. -1.
</event>
<event>
11    1  0.8037748E-009  0.4019541E+03  0.7561462E-02  0.9644010E-01
         22   -1    0    0    0    0  0.00000000000E+00  0.00000000000E+00  0.40434380655E+03  0.40434380655E+03  0.00000000000E+00 0. -1.
         22   -1    0    0    0    0 -0.00000000000E+00 -0.00000000000E+00 -0.11364538700E+04  0.11364538700E+04  0.00000000000E+00 0. -1.
        -24    2    1    2    0    0 -0.36421626862E+03  0.51824356997E+02 -0.28153343287E+03  0.47016830930E+03  0.80361128299E+02 0.  0.
         25    2    1    2    0    0  0.37883966959E+03 -0.97759746567E+02 -0.69592474152E+03  0.80810667450E+03  0.12509471700E+03 0.  0.
         24    2    1    2    0    0 -0.14623400963E+02  0.45935389570E+02  0.24534811094E+03  0.26252269274E+03  0.79991029425E+02 0.  0.
        -11    1    5    5    0    0 -0.31170941214E+02 -0.82850152994E+01  0.13075414205E+03  0.13467336306E+03  0.00000000000E+00 0.  1.
         12    1    5    5    0    0  0.16547540251E+02  0.54220404869E+02  0.11459396890E+03  0.12784932968E+03  0.00000000000E+00 0. -1.
         13    1    3    3    0    0 -0.21385875772E+03 -0.30348607624E+01 -0.18818102469E+03  0.28488046035E+03  0.00000000000E+00 0. -1.
        -14    1    3    3    0    0 -0.15035751090E+03  0.54859217759E+02 -0.93352408175E+02  0.18528784895E+03  0.00000000000E+00 0.  1.
          5    1    4    4  501    0  0.45402695404E+02 -0.92972863633E+01 -0.19091274742E+03  0.19650189264E+03  0.41800000000E+01 0.  1.
         -5    1    4    4    0  501  0.33343697418E+03 -0.88462460203E+02 -0.50501199410E+03  0.61160478187E+03  0.41800000000E+01 0.  1.
</event>
<event>
11    1  0.8037748E-009  0.1545522E+03  0.7561462E-02  0.1092316E+00
         22   -1    0    0    0    0  0.00000000000E+00  0.00000000000E+00  0.17853238574E+03  0.17853238574E+03  0.00000000000E+00 0.  1.
         22   -1    0    0    0    0 -0.00000000000E+00 -0.00000000000E+00 -0.87353664625E+03  0.87353664625E+03  0.00000000000E+00 0. -1.
        -24    2    1    2    0    0 -0.10401967909E+02 -0.31522872311E+00 -0.73520094006E+03  0.73958716817E+03  0.79752471738E+02 0.  0.
         25    2    1    2    0    0 -0.43173422822E+02 -0.74699770256E+02 -0.50198458141E+02  0.16003696452E+03  0.12509174513E+03 0.  0.
         24    2    1    2    0    0  0.53575390731E+02  0.75014998979E+02  0.90395137692E+02  0.15244489931E+03  0.81059199615E+02 0.  0.
        -13    1    5    5    0    0  0.10895349662E+02 -0.17477781102E+02  0.19280919158E+02  0.28212325677E+02  0.00000000000E+00 0.  1.
         14    1    5    5    0    0  0.42680041070E+02  0.92492780081E+02  0.71114218534E+02  0.12423257363E+03  0.00000000000E+00 0. -1.
         11    1    3    3    0    0  0.33512921936E+01  0.33279368029E+02 -0.54031167015E+03  0.54134595999E+03  0.00000000000E+00 0. -1.
        -12    1    3    3    0    0 -0.13753260103E+02 -0.33594596752E+02 -0.19488926991E+03  0.19824120818E+03  0.00000000000E+00 0.  1.
          5    1    4    4  501    0 -0.50526330968E+02 -0.82093949249E+02  0.11639476234E+02  0.97186812024E+02  0.41800000000E+01 0. -1.
         -5    1    4    4    0  501  0.73529081460E+01  0.73941789938E+01 -0.61837934374E+02  0.62850152497E+02  0.41800000000E+01 0. -1.
</event>
<event>
11    1  0.8037748E-009  0.1462623E+03  0.7561462E-02  0.1100760E+00
         22   -1    0    0    0    0  0.00000000000E+00  0.00000000000E+00  0.25266950914E+03  0.25266950914E+03  0.00000000000E+00 0.  1.
         22   -1    0    0    0    0 -0.00000000000E+00 -0.00000000000E+00 -0.84301043562E+03  0.84301043562E+03  0.00000000000E+00 0. -1.
        -24    2    1    2    0    0  0.40663301310E+01  0.79613605351E+02 -0.73424027025E+03  0.74281284191E+03  0.79418401254E+02 0.  0.
         25    2    1    2    0    0  0.26850419166E+02 -0.33091258886E+02 -0.43679563426E+02  0.13918109049E+03  0.12508994869E+03 0.  0.
         24    2    1    2    0    0 -0.30916749297E+02 -0.46522346464E+02  0.18757890720E+03  0.21368601236E+03  0.85765327175E+02 0.  0.
        -13    1    5    5    0    0 -0.95155460810E+01 -0.11292272584E+02  0.16693087442E+03  0.16758274933E+03  0.00000000000E+00 0.  1.
         14    1    5    5    0    0 -0.21401203216E+02 -0.35230073880E+02  0.20648032776E+02  0.46103263032E+02  0.00000000000E+00 0. -1.
         11    1    3    3    0    0  0.33175567407E+02  0.37668170110E+02 -0.20255045781E+03  0.20867725624E+03  0.00000000000E+00 0. -1.
        -12    1    3    3    0    0 -0.29109237276E+02  0.41945435241E+02 -0.53168981244E+03  0.53413558568E+03  0.00000000000E+00 0.  1.
          5    1    4    4  501    0 -0.44642094068E+02 -0.34320131271E+02 -0.24078356083E+01  0.56515998138E+02  0.41800000000E+01 0.  1.
         -5    1    4    4    0  501  0.71492513234E+02  0.12288723847E+01 -0.41271727818E+02  0.82665092348E+02  0.41800000000E+01 0.  1.
</event>
<event>
11    1  0.8037748E-009  0.1376110E+03  0.7561462E-02  0.1110256E+00
         22   -1    0    0    0    0  0.00000000000E+00  0.00000000000E+00  0.28220667843E+03  0.28220667843E+03  0.00000000000E+00 0.  1.
         22   -1    0    0    0    0 -0.00000000000E+00 -0.00000000000E+00 -0.31966534587E+03  0.31966534587E+03  0.00000000000E+00 0.  1.
        -24    2    1    2    0    0 -0.40077044868E+02 -0.10113009150E+01 -0.20905396089E+03  0.22682563205E+03  0.78352514572E+02 0.  0.
         25    2    1    2    0    0  0.80042882266E+01  0.51189133353E+02 -0.39456546192E+02  0.14103101349E+03  0.12509409149E+03 0.  0.
         24    2    1    2    0    0  0.32072756642E+02 -0.50177832438E+02  0.21105183964E+03  0.23401537875E+03  0.81693585375E+02 0.  0.
        -11    1    5    5    0    0  0.30670514791E+02 -0.36718284328E+02  0.21472743629E+03  0.21999269255E+03  0.00000000000E+00 0.  1.
         12    1    5    5    0    0  0.14022418508E+01 -0.13459548110E+02 -0.36755966504E+01  0.14022686200E+02  0.00000000000E+00 0. -1.
         13    1    3    3    0    0  0.59276012732E+01  0.31016584346E+02 -0.85691094171E+02  0.91324304441E+02  0.00000000000E+00 0. -1.
        -14    1    3    3    0    0 -0.46004646141E+02 -0.32027885261E+02 -0.12336286671E+03  0.13550132761E+03  0.00000000000E+00 0.  1.
          5    1    4    4  501    0  0.42207200555E+02  0.76416574275E+01  0.29699552973E+02  0.52339072916E+02  0.41800000000E+01 0.  1.
         -5    1    4    4    0  501 -0.34202912329E+02  0.43547475925E+02 -0.69156099165E+02  0.88691940575E+02  0.41800000000E+01 0.  1.
</event>
<event>
11    1  0.8037748E-009  0.2329103E+03  0.7561462E-02  0.1033419E+00
         22   -1    0    0    0    0  0.00000000000E+00  0.00000000000E+00  0.31747425673E+03  0.31747425673E+03  0.00000000000E+00 0. -1.
         22   -1    0    0    0    0 -0.00000000000E+00 -0.00000000000E+00 -0.14851931242E+04  0.14851931242E+04  0.00000000000E+00 0. -1.
        -24    2    1    2    0    0 -0.19453461320E+03 -0.18363214981E+02 -0.12810831468E+04  0.12983471272E+04  0.79688833175E+02 0.  0.
         25    2    1    2    0    0  0.23219121015E+03 -0.14820058904E+03  0.74500560832E+02  0.31156714469E+03  0.12509028509E+03 0.  0.
         24    2    1    2    0    0 -0.37656596949E+02  0.16656380402E+03  0.38863718488E+02  0.19275310911E+03  0.80509951892E+02 0.  0.
        -13    1    5    5    0    0 -0.53230912763E+02  0.57018337271E+02  0.12374236212E+02  0.78979380731E+02  0.00000000000E+00 0.  1.
         14    1    5    5    0    0  0.15574315814E+02  0.10954546675E+03  0.26489482276E+02  0.11377372838E+03  0.00000000000E+00 0. -1.
         13    1    3    3    0    0 -0.19823458658E+03 -0.28317411144E+02 -0.12046939200E+04  0.12212232671E+04  0.00000000000E+00 0. -1.
        -14    1    3    3    0    0  0.36999733776E+01  0.99541961631E+01 -0.76389226804E+02  0.77123860095E+02  0.00000000000E+00 0.  1.
          5    1    4    4  501    0  0.10374450385E+03 -0.53987903665E+02  0.95228296949E+02  0.15087583226E+03  0.41800000000E+01 0. -1.
         -5    1    4    4    0  501  0.12844670630E+03 -0.94212685374E+02 -0.20727736117E+02  0.16069131243E+03  0.41800000000E+01 0. -1.
</event>
<event>
11    1  0.8037748E-009  0.3583951E+03  0.7561462E-02  0.9781178E-01
         22   -1    0    0    0    0  0.00000000000E+00  0.00000000000E+00  0.34578587321E+03  0.34578587321E+03  0.00000000000E+00 0.  1.
         22   -1    0    0    0    0 -0.00000000000E+00 -0.00000000000E+00 -0.12227697006E+04  0.12227697006E+04  0.00000000000E+00 0.  1.
        -24    2    1    2    0    0 -0.15692907570E+03  0.29027548919E+03 -0.80583639152E+03  0.87440161225E+03  0.79493994644E+02 0.  0.
         25    2    1    2    0    0  0.30546654180E+03 -0.23008902964E+03 -0.22269780599E+03  0.45988579601E+03  0.12509941190E+03 0.  0.
         24    2    1    2    0    0 -0.14853746610E+03 -0.60186459549E+02  0.15155037009E+03  0.23426816557E+03  0.78919389102E+02 0.  0.
        -11    1    5    5    0    0 -0.63712942203E+02 -0.11597372455E+02  0.15240806232E+02  0.66529093084E+02  0.00000000000E+00 0.  1.
         12    1    5    5    0    0 -0.84824523899E+02 -0.48589087093E+02  0.13630956386E+03  0.16773907249E+03  0.00000000000E+00 0. -1.
         11    1    3    3    0    0  0.85881589544E+00  0.54693326773E+02 -0.10532970663E+03  0.11868632886E+03  0.00000000000E+00 0. -1.
        -12    1    3    3    0    0 -0.15778789160E+03  0.23558216242E+03 -0.70050668488E+03  0.75571528339E+03  0.00000000000E+00 0.  1.
          5    1    4    4  501    0  0.23657181852E+03 -0.12606037174E+03 -0.19631033959E+03  0.33228401176E+03  0.41800000000E+01 0. -1.
         -5    1    4    4    0  501  0.68894723284E+02 -0.10402865790E+03 -0.26387466399E+02  0.12760178425E+03  0.41800000000E+01 0. -1.
</event>
<event>
11    1  0.8037748E-009  0.1530000E+03  0.7561462E-02  0.1093852E+00
         22   -1    0    0    0    0  0.00000000000E+00  0.00000000000E+00  0.48478050801E+03  0.48478050801E+03  0.00000000000E+00 0.  1.
         22   -1    0    0    0    0 -0.00000000000E+00 -0.00000000000E+00 -0.16598536553E+04  0.16598536553E+04  0.00000000000E+00 0. -1.
         24    2    1    2    0    0 -0.51271539493E+02  0.50937246993E+02 -0.14394186030E+04  0.14434850355E+04  0.80621083651E+02 0.  0.
         25    2    1    2    0    0  0.11720153931E+03 -0.10519063081E+03 -0.16204082866E+03  0.25827514822E+03  0.12509017711E+03 0.  0.
        -24    2    1    2    0    0 -0.65929999815E+02  0.54253383814E+02  0.42638628435E+03  0.44287397962E+03  0.83916052156E+02 0.  0.
        -13    1    3    3    0    0 -0.42783071277E+02  0.55136515675E+02 -0.60487016585E+03  0.60888286565E+03  0.00000000000E+00 0.  1.
         14    1    3    3    0    0 -0.84884682157E+01 -0.41992686820E+01 -0.83454843716E+03  0.83460216985E+03  0.00000000000E+00 0. -1.
         11    1    5    5    0    0 -0.70200599140E+02  0.11213235105E+02  0.19673706421E+03  0.20918731604E+03  0.00000000000E+00 0. -1.
        -12    1    5    5    0    0  0.42705993253E+01  0.43040148709E+02  0.22964922014E+03  0.23368666357E+03  0.00000000000E+00 0.  1.
          5    1    4    4  501    0  0.54239214885E+02  0.17866896684E+02 -0.76896142658E+02  0.95872871993E+02  0.41800000000E+01 0. -1.
         -5    1    4    4    0  501  0.62962324422E+02 -0.12305752749E+03 -0.85144686000E+02  0.16240227622E+03  0.41800000000E+01 0. -1.
</event>
<event>
11    1  0.8037748E-009  0.2032583E+03  0.7561462E-02  0.1052243E+00
         22   -1    0    0    0    0  0.00000000000E+00  0.00000000000E+00  0.21691415772E+04  0.21691415772E+04  0.00000000000E+00 0.  1.
         22   -1    0    0    0    0 -0.00000000000E+00 -0.00000000000E+00 -0.55030519582E+02  0.55030519582E+02  0.00000000000E+00 0.  1.
        -24    2    1    2    0    0  0.11631745897E+03 -0.62418583143E+02  0.21972072356E+03  0.26520088095E+03  0.68032934024E+02 0.  0.
         25    2    1    2    0    0 -0.17710869304E+03  0.16007440497E+03  0.61122492487E+03  0.66800988155E+03  0.12509991523E+03 0.  0.
         24    2    1    2    0    0  0.60791234061E+02 -0.97655821823E+02  0.12831654092E+04  0.12909613343E+04  0.82676874646E+02 0.  0.
        -13    1    5    5    0    0  0.67707232638E+02 -0.98019704591E+02  0.91401010586E+03  0.92174107289E+03  0.00000000000E+00 0.  1.
         14    1    5    5    0    0 -0.69159985765E+01  0.36388276797E+00  0.36915530334E+03  0.36922026140E+03  0.00000000000E+00 0. -1.
         13    1    3    3    0    0  0.57723816807E+02  0.17638539002E+01  0.11826722282E+03  0.13161415654E+03  0.00000000000E+00 0. -1.
        -14    1    3    3    0    0  0.58593642168E+02 -0.64182437043E+02  0.10145350073E+03  0.13358672441E+03  0.00000000000E+00 0.  1.
          5    1    4    4  501    0 -0.20485304226E+01 -0.12776207562E+02  0.63535553054E+01  0.15008931393E+02  0.41800000000E+01 0.  1.
         -5    1    4    4    0  501 -0.17506016261E+03  0.17285061253E+03  0.60487136957E+03  0.65300095016E+03  0.41800000000E+01 0.  1.
</event>
<event>
11    1  0.8037748E-009  0.1321243E+03  0.7561462E-02  0.1116686E+00
         22   -1    0    0    0    0  0.00000000000E+00  0.00000000000E+00  0.37805798878E+03  0.37805798878E+03  0.00000000000E+00 0. -1.
         22   -1    0    0    0    0 -0.00000000000E+00 -0.00000000000E+00 -0.48830080128E+03  0.48830080128E+03  0.00000000000E+00 0. -1.
        -24    2    1    2    0    0 -0.15420354625E+02  0.39846997707E+02 -0.43603242670E+03  0.44547342611E+03  0.80602268397E+02 0.  0.
         25    2    1    2    0    0  0.27123953396E+02 -0.30329016777E+02  0.60821394697E+02  0.14492438648E+03  0.12509307590E+03 0.  0.
         24    2    1    2    0    0 -0.11703598771E+02 -0.95179809292E+01  0.26496821950E+03  0.27596097747E+03  0.75622335023E+02 0.  0.
        -11    1    5    5    0    0  0.24692114332E+02 -0.15824364501E+02  0.51028776570E+02  0.58856155670E+02  0.00000000000E+00 0.  1.
         12    1    5    5    0    0 -0.36395713104E+02  0.63063835721E+01  0.21393944293E+03  0.21710482180E+03  0.00000000000E+00 0. -1.
         11    1    3    3    0    0 -0.38504503335E+02  0.43774942791E+02 -0.38418814787E+03  0.38858638082E+03  0.00000000000E+00 0. -1.
        -12    1    3    3    0    0  0.23084148711E+02 -0.39279450848E+01 -0.51844278826E+02  0.56887045285E+02  0.00000000000E+00 0.  1.
          5    1    4    4  501    0  0.46644368146E+02 -0.38526437133E+02  0.90066364115E+02  0.10857903012E+03  0.41800000000E+01 0. -1.
         -5    1    4    4    0  501 -0.19520414750E+02  0.81974203554E+01 -0.29244969419E+02  0.36345356358E+02  0.41800000000E+01 0. -1.
</event>
<event>
11    1  0.8037748E-009  0.1346554E+03  0.7561462E-02  0.1113678E+00
         22   -1    0    0    0    0  0.00000000000E+00  0.00000000000E+00  0.29686223120E+03  0.29686223120E+03  0.00000000000E+00 0. -1.
         22   -1    0    0    0    0 -0.00000000000E+00 -0.00000000000E+00 -0.52340588441E+03  0.52340588441E+03  0.00000000000E+00 0.  1.
         24    2    1    2    0    0 -0.63707173992E+01  0.27524150816E+02 -0.45283766532E+03  0.46029988592E+03  0.77562032793E+02 0.  0.
         25    2    1    2    0    0  0.53764987700E+02 -0.11285378668E+02  0.26996296294E+02  0.13926581192E+03  0.12509249650E+03 0.  0.
        -24    2    1    2    0    0 -0.47394270301E+02 -0.16238772148E+02  0.19929771582E+03  0.22070241776E+03  0.80498839107E+02 0.  0.
        -11    1    3    3    0    0 -0.12176506675E+02  0.23488282714E+02 -0.45244539181E+03  0.45321826895E+03  0.00000000000E+00 0.  1.
         12    1    3    3    0    0  0.58057892756E+01  0.40358681021E+01 -0.39227350868E+00  0.70816169732E+01  0.00000000000E+00 0. -1.
         11    1    5    5    0    0 -0.30155890649E+02 -0.16187211098E+02  0.20052069835E+03  0.20342063319E+03  0.00000000000E+00 0. -1.
        -12    1    5    5    0    0 -0.17238379652E+02 -0.51561049703E-01 -0.12229825288E+01  0.17281784567E+02  0.00000000000E+00 0.  1.
          5    1    4    4  501    0  0.59986953937E+02  0.90993893920E+01  0.69001476248E+02  0.91977767174E+02  0.41800000000E+01 0.  1.
         -5    1    4    4    0  501 -0.62219662370E+01 -0.20384768060E+02 -0.42005179955E+02  0.47288044744E+02  0.41800000000E+01 0.  1.
</event>
<event>
11    1  0.8037748E-009  0.1407002E+03  0.7561462E-02  0.1106779E+00
         22   -1    0    0    0    0  0.00000000000E+00  0.00000000000E+00  0.58353136213E+02  0.58353136213E+02  0.00000000000E+00 0. -1.
         22   -1    0    0    0    0 -0.00000000000E+00 -0.00000000000E+00 -0.18063158435E+04  0.18063158435E+04  0.00000000000E+00 0.  1.
        -24    2    1    2    0    0 -0.54603256865E+01  0.29261650453E+02 -0.13629299154E+04  0.13656124278E+04  0.80207788635E+02 0.  0.
         25    2    1    2    0    0  0.60521232721E+02  0.69175133628E+01 -0.37081817210E+03  0.39605318641E+03  0.12506533535E+03 0.  0.
         24    2    1    2    0    0 -0.55060907035E+02 -0.36179163816E+02 -0.14214619858E+02  0.10300336556E+03  0.77890965594E+02 0.  0.
        -11    1    5    5    0    0 -0.21399965839E+02 -0.45746248782E+02 -0.35783459302E+02  0.61896153153E+02  0.00000000000E+00 0.  1.
         12    1    5    5    0    0 -0.33660941196E+02  0.95670849658E+01  0.21568839444E+02  0.41107212408E+02  0.00000000000E+00 0. -1.
         11    1    3    3    0    0  0.17654398789E+02  0.38780357893E+02 -0.38286591240E+03  0.38522967284E+03  0.00000000000E+00 0. -1.
        -12    1    3    3    0    0 -0.23114724476E+02 -0.95187074398E+01 -0.98006400296E+03  0.98038275494E+03  0.00000000000E+00 0.  1.
          5    1    4    4  501    0  0.52817570365E+02  0.51785334749E+02 -0.11943936546E+03  0.14055123997E+03  0.41800000000E+01 0. -1.
         -5    1    4    4    0  501  0.77036623561E+01 -0.44867821386E+02 -0.25137880664E+03  0.25550194645E+03  0.41800000000E+01 0. -1.
</event>
<event>
11    1  0.8037748E-009  0.2001850E+03  0.7561462E-02  0.1054393E+00
         22   -1    0    0    0    0  0.00000000000E+00  0.00000000000E+00  0.15141130315E+03  0.15141130315E+03  0.00000000000E+00 0. -1.
         22   -1    0    0    0    0 -0.00000000000E+00 -0.00000000000E+00 -0.33905484930E+04  0.33905484930E+04  0.00000000000E+00 0.  1.
         24    2    1    2    0    0  0.86204434712E+02  0.13591203628E+03 -0.28400938196E+04  0.28457710419E+04  0.79853819122E+02 0.  0.
         25    2    1    2    0    0 -0.11839674317E+03 -0.75410148147E+02 -0.50928104993E+03  0.54288043886E+03  0.12508998298E+03 0.  0.
        -24    2    1    2    0    0  0.32192308462E+02 -0.60501888132E+02  0.11023767970E+03  0.15330831541E+03  0.81573711188E+02 0.  0.
        -11    1    3    3    0    0  0.26017388175E+02  0.10972180125E+03 -0.19524479963E+04  0.19557016532E+04  0.00000000000E+00 0.  1.
         12    1    3    3    0    0  0.60187046537E+02  0.26190235028E+02 -0.88764582328E+03  0.89006938863E+03  0.00000000000E+00 0. -1.
         11    1    5    5    0    0  0.28014667696E+02 -0.51335192950E+02  0.12350411071E+03  0.13665060924E+03  0.00000000000E+00 0. -1.
        -12    1    5    5    0    0  0.41776407665E+01 -0.91666951820E+01 -0.13266431019E+02  0.16657706172E+02  0.00000000000E+00 0.  1.
          5    1    4    4  501    0  0.20631033916E+02  0.58544232367E+01 -0.29039602236E+02  0.36341226313E+02  0.41800000000E+01 0. -1.
         -5    1    4    4    0  501 -0.13902777709E+03 -0.81264571383E+02 -0.48024144770E+03  0.50653921255E+03  0.41800000000E+01 0. -1.
</event>
<event>
11    1  0.8037748E-009  0.1694688E+03  0.7561462E-02  0.1078495E+00
         22   -1    0    0    0    0  0.00000000000E+00  0.00000000000E+00  0.14169813607E+04  0.14169813607E+04  0.00000000000E+00 0.  1.
         22   -1    0    0    0    0 -0.00000000000E+00 -0.00000000000E+00 -0.26733524123E+03  0.26733524123E+03  0.00000000000E+00 0. -1.
         24    2    1    2    0    0  0.58080144948E+01 -0.24257846308E+02 -0.21358526641E+03  0.22329465300E+03  0.60163609364E+02 0.  0.
         25    2    1    2    0    0  0.67497978332E+02  0.11035656585E+03  0.13641840660E+03  0.22580295655E+03  0.12506975983E+03 0.  0.
        -24    2    1    2    0    0 -0.73305992827E+02 -0.86098719546E+02  0.12268129793E+04  0.12352189923E+04  0.88933204722E+02 0.  0.
        -13    1    3    3    0    0 -0.21010138031E+02 -0.18047999771E+01 -0.31675419440E+02  0.38052797528E+02  0.00000000000E+00 0.  1.
         14    1    3    3    0    0  0.26818152526E+02 -0.22453046331E+02 -0.18190984697E+03  0.18524185547E+03  0.00000000000E+00 0. -1.
         11    1    5    5    0    0 -0.32967880260E+02 -0.95400813455E+02  0.78287628553E+03  0.78935636741E+03  0.00000000000E+00 0. -1.
        -12    1    5    5    0    0 -0.40338112567E+02  0.93020939097E+01  0.44393669372E+03  0.44586262493E+03  0.00000000000E+00 0.  1.
          5    1    4    4  501    0  0.71956302330E+02  0.29723431841E+02  0.12028826633E+03  0.14334549614E+03  0.41800000000E+01 0. -1.
         -5    1    4    4    0  501 -0.44583239981E+01  0.80633134013E+02  0.16130140270E+02  0.82457460419E+02  0.41800000000E+01 0. -1.
</event>
<event>
11    1  0.8037748E-009  0.1386351E+03  0.7561462E-02  0.1109092E+00
         22   -1    0    0    0    0  0.00000000000E+00  0.00000000000E+00  0.64440015717E+03  0.64440015717E+03  0.00000000000E+00 0.  1.
         22   -1    0    0    0    0 -0.00000000000E+00 -0.00000000000E+00 -0.11538225629E+03  0.11538225629E+03  0.00000000000E+00 0. -1.
         24    2    1    2    0    0  0.39410462418E+02  0.34472340775E+02 -0.33746786779E+02  0.10124822276E+03  0.79817480340E+02 0.  0.
         25    2    1    2    0    0 -0.49414121831E+02 -0.88654038623E+02  0.10988223759E+03  0.19499186441E+03  0.12508567883E+03 0.  0.
        -24    2    1    2    0    0  0.10003659413E+02  0.54181697849E+02  0.45288245007E+03  0.46354232628E+03  0.82056353162E+02 0.  0.
        -11    1    3    3    0    0 -0.16571070405E+02  0.57433253129E+01  0.13853051776E+02  0.22349344588E+02  0.00000000000E+00 0.  1.
         12    1    3    3    0    0  0.55981532822E+02  0.28729015462E+02 -0.47599838554E+02  0.78898878173E+02  0.00000000000E+00 0. -1.
         11    1    5    5    0    0 -0.14081498726E+02 -0.35855338374E+01  0.13859476562E+02  0.20080581412E+02  0.00000000000E+00 0. -1.
        -12    1    5    5    0    0  0.24085158139E+02  0.57767231686E+02  0.43902297350E+03  0.44346174487E+03  0.00000000000E+00 0.  1.
          5    1    4    4  501    0 -0.17077898003E+02 -0.23088228174E+02  0.11781620706E+03  0.12133775969E+03  0.41800000000E+01 0. -1.
         -5    1    4    4    0  501 -0.32336223828E+02 -0.65565810449E+02 -0.79339694630E+01  0.73654104724E+02  0.41800000000E+01 0. -1.
</event>
<event>
11    1  0.8037748E-009  0.1782750E+03  0.7561462E-02  0.1071047E+00
         22   -1    0    0    0    0  0.00000000000E+00  0.00000000000E+00  0.11226858776E+04  0.11226858776E+04  0.00000000000E+00 0. -1.
         22   -1    0    0    0    0 -0.00000000000E+00 -0.00000000000E+00 -0.11366312544E+04  0.11366312544E+04  0.00000000000E+00 0.  1.
        -24    2    1    2    0    0 -0.62163229347E+02 -0.66067221704E+02 -0.10541359405E+04  0.10610732978E+04  0.80279620183E+02 0.  0.
         25    2    1    2    0    0  0.34012035281E+02  0.18584436467E+03  0.10297843543E+03  0.24889165941E+03  0.12509018162E+03 0.  0.
         24    2    1    2    0    0  0.28151194066E+02 -0.11977714296E+03  0.93721212830E+03  0.94935217481E+03  0.88113135640E+02 0.  0.
        -13    1    5    5    0    0  0.24872215881E+02 -0.42899186842E+02  0.14167886390E+03  0.15010618852E+03  0.00000000000E+00 0.  1.
         14    1    5    5    0    0  0.32789781855E+01 -0.76877956123E+02  0.79553326440E+03  0.79924598629E+03  0.00000000000E+00 0. -1.
         11    1    3    3    0    0 -0.69147524308E+02 -0.31121754509E+02 -0.49202521400E+03  0.49783406366E+03  0.00000000000E+00 0. -1.
        -12    1    3    3    0    0  0.69842949613E+01 -0.34945467195E+02 -0.56211072646E+03  0.56323923412E+03  0.00000000000E+00 0.  1.
          5    1    4    4  501    0 -0.80061361831E+01  0.16307144315E+03  0.37247335615E+02  0.16751486560E+03  0.41800000000E+01 0. -1.
         -5    1    4    4    0  501  0.42018171464E+02  0.22772921522E+02  0.65731099816E+02  0.81376793810E+02  0.41800000000E+01 0. -1.
</event>
<event>
11    1  0.8037748E-009  0.3140066E+03  0.7561462E-02  0.9944316E-01
         22   -1    0    0    0    0  0.00000000000E+00  0.00000000000E+00  0.28274354395E+03  0.28274354395E+03  0.00000000000E+00 0.  1.
         22   -1    0    0    0    0 -0.00000000000E+00 -0.00000000000E+00 -0.18461982438E+04  0.18461982438E+04  0.00000000000E+00 0.  1.
         24    2    1    2    0    0  0.86824482439E+02  0.63278662940E+02 -0.12172775167E+04  0.12247942041E+04  0.82544592430E+02 0.  0.
         25    2    1    2    0    0 -0.35379948782E+03 -0.11851363522E+03 -0.45397387361E+03  0.60079863602E+03  0.12508862381E+03 0.  0.
        -24    2    1    2    0    0  0.26697500538E+03  0.55234972281E+02  0.10779669043E+03  0.30334894769E+03  0.77935241929E+02 0.  0.
        -13    1    3    3    0    0  0.24810741535E+01  0.39116045097E+02 -0.60428561006E+03  0.60555538082E+03  0.00000000000E+00 0.  1.
         14    1    3    3    0    0  0.84343408285E+02  0.24162617843E+02 -0.61299190663E+03  0.61923882325E+03  0.00000000000E+00 0. -1.
         13    1    5    5    0    0  0.45588711735E+02  0.76844756909E+01 -0.11172545547E+02  0.47562670008E+02  0.00000000000E+00 0. -1.
        -14    1    5    5    0    0  0.22138629365E+03  0.47550496590E+02  0.11896923597E+03  0.25578627768E+03  0.00000000000E+00 0.  1.
          5    1    4    4  501    0 -0.11450780294E+03 -0.31447269906E+02 -0.24143188709E+03  0.26908696777E+03  0.41800000000E+01 0.  1.
         -5    1    4    4    0  501 -0.23929168487E+03 -0.87066365315E+02 -0.21254198653E+03  0.33171166825E+03  0.41800000000E+01 0.  1.
</event>
<event>
11    1  0.8037748E-009  0.1298083E+03  0.7561462E-02  0.1119505E+00
         22   -1    0    0    0    0  0.00000000000E+00  0.00000000000E+00  0.10807166459E+04  0.10807166459E+04  0.00000000000E+00 0. -1.
         22   -1    0    0    0    0 -0.00000000000E+00 -0.00000000000E+00 -0.19436086485E+04  0.19436086485E+04  0.00000000000E+00 0. -1.
         24    2    1    2    0    0  0.26814631155E+02 -0.21689031263E+02 -0.18948487763E+04  0.18968927257E+04  0.80998080860E+02 0.  0.
         25    2    1    2    0    0 -0.51373610578E+02  0.21900266082E+02  0.56065808115E+02  0.14801959767E+03  0.12509019520E+03 0.  0.
        -24    2    1    2    0    0  0.24558979422E+02 -0.21123481927E+00  0.97589096560E+03  0.97941297098E+03  0.79267918549E+02 0.  0.
        -11    1    3    3    0    0  0.11357205849E-02 -0.30211936840E+02 -0.25221986975E+03  0.25402288052E+03  0.00000000000E+00 0.  1.
         12    1    3    3    0    0  0.26813495435E+02  0.85229055766E+01 -0.16426289066E+04  0.16428698452E+04  0.00000000000E+00 0. -1.
         13    1    5    5    0    0  0.38102432146E+02 -0.30963696800E+02  0.53886544516E+03  0.54109750862E+03  0.00000000000E+00 0. -1.
        -14    1    5    5    0    0 -0.13543452724E+02  0.30752461981E+02  0.43702552044E+03  0.43831546236E+03  0.00000000000E+00 0.  1.
          5    1    4    4  501    0 -0.70276493977E+02 -0.46559980344E+01 -0.12807343100E+02  0.71707491663E+02  0.41800000000E+01 0. -1.
         -5    1    4    4    0  501  0.18902883399E+02  0.26556264117E+02  0.68873151215E+02  0.76312106006E+02  0.41800000000E+01 0. -1.
</event>
<event>
11    1  0.8037748E-009  0.1443436E+03  0.7561462E-02  0.1102803E+00
         22   -1    0    0    0    0  0.00000000000E+00  0.00000000000E+00  0.11034303068E+04  0.11034303068E+04  0.00000000000E+00 0.  1.
         22   -1    0    0    0    0 -0.00000000000E+00 -0.00000000000E+00 -0.48566619005E+03  0.48566619005E+03  0.00000000000E+00 0.  1.
         24    2    1    2    0    0 -0.20122036342E+02  0.49392698026E+02 -0.19980009798E+03  0.22176594530E+03  0.80096943607E+02 0.  0.
         25    2    1    2    0    0  0.76498506464E+02 -0.93475747689E+02 -0.24437546595E+03  0.29992743239E+03  0.12508940582E+03 0.  0.
        -24    2    1    2    0    0 -0.56376470122E+02  0.44083049663E+02  0.10619396807E+04  0.10674031192E+04  0.80696417263E+02 0.  0.
        -11    1    3    3    0    0  0.53871505600E+01  0.65672350296E+02 -0.14092675957E+03  0.15557066094E+03  0.00000000000E+00 0.  1.
         12    1    3    3    0    0 -0.25509186902E+02 -0.16279652271E+02 -0.58873338416E+02  0.66195284354E+02  0.00000000000E+00 0. -1.
         13    1    5    5    0    0 -0.31479286650E+02  0.70849880303E+01  0.11575378982E+03  0.12016689395E+03  0.00000000000E+00 0. -1.
        -14    1    5    5    0    0 -0.24897183471E+02  0.36998061632E+02  0.94618589086E+03  0.94723622522E+03  0.00000000000E+00 0.  1.
          5    1    4    4  501    0 -0.21082946986E+02 -0.12509816028E+02 -0.11896939088E+03  0.12154083478E+03  0.41800000000E+01 0. -1.
         -5    1    4    4    0  501  0.97581453450E+02 -0.80965931661E+02 -0.12540607506E+03  0.17838659762E+03  0.41800000000E+01 0. -1.
</event>
<event>
11    1  0.8037748E-009  0.1430048E+03  0.7561462E-02  0.1104249E+00
         22   -1    0    0    0    0  0.00000000000E+00  0.00000000000E+00  0.13113724493E+04  0.13113724493E+04  0.00000000000E+00 0. -1.
         22   -1    0    0    0    0 -0.00000000000E+00 -0.00000000000E+00 -0.14571630942E+04  0.14571630942E+04  0.00000000000E+00 0.  1.
        -24    2    1    2    0    0 -0.24289026587E+02 -0.64346530120E+02 -0.92897529592E+03  0.93511605249E+03  0.81954245984E+02 0.  0.
         25    2    1    2    0    0 -0.11048540774E+02  0.12376720862E+03 -0.50802454738E+03  0.53774981200E+03  0.12508208254E+03 0.  0.
         24    2    1    2    0    0  0.35337567361E+02 -0.59420678504E+02  0.12912091985E+04  0.12956696790E+04  0.82214124020E+02 0.  0.
        -11    1    5    5    0    0  0.27260971203E+02  0.15833297567E+02  0.34406963942E+03  0.34551088352E+03  0.00000000000E+00 0.  1.
         12    1    5    5    0    0  0.80765961573E+01 -0.75253976071E+02  0.94713955905E+03  0.95015879549E+03  0.00000000000E+00 0. -1.
         11    1    3    3    0    0  0.25432052375E+02 -0.42039688655E+01 -0.34307929474E+03  0.34404631247E+03  0.00000000000E+00 0. -1.
        -12    1    3    3    0    0 -0.49721078962E+02 -0.60142561255E+02 -0.58589600118E+03  0.59106974002E+03  0.00000000000E+00 0.  1.
          5    1    4    4  501    0  0.18850569849E+02  0.36879198858E+02 -0.36716145113E+03  0.36951376549E+03  0.41800000000E+01 0.  1.
         -5    1    4    4    0  501 -0.29899110623E+02  0.86888009766E+02 -0.14086309626E+03  0.16823604651E+03  0.41800000000E+01 0.  1.
</event>
<event>
11    1  0.8037748E-009  0.1438017E+03  0.7561462E-02  0.1103386E+00
         22   -1    0    0    0    0  0.00000000000E+00  0.00000000000E+00  0.37215909965E+03  0.37215909965E+03  0.00000000000E+00 0. -1.
         22   -1    0    0    0    0 -0.00000000000E+00 -0.00000000000E+00 -0.14800851486E+04  0.14800851486E+04  0.00000000000E+00 0.  1.
        -24    2    1    2    0    0  0.39964670988E+02 -0.17576916228E-02 -0.13614400456E+04  0.13643940263E+04  0.80342307274E+02 0.  0.
         25    2    1    2    0    0  0.32429158535E+02  0.15331079104E+02 -0.68792211560E+02  0.14719207156E+03  0.12508575158E+03 0.  0.
         24    2    1    2    0    0 -0.72393829523E+02 -0.15329321412E+02  0.32230620815E+03  0.34065815044E+03  0.81797487765E+02 0.  0.
        -11    1    5    5    0    0 -0.83184131873E+01  0.19129281111E+02  0.17315221923E+02  0.27109819328E+02  0.00000000000E+00 0.  1.
         12    1    5    5    0    0 -0.64075416336E+02 -0.34458602523E+02  0.30499098622E+03  0.31354833111E+03  0.00000000000E+00 0. -1.
         13    1    3    3    0    0 -0.50090650322E+01  0.18109727658E+02 -0.85816846239E+02  0.87849781256E+02  0.00000000000E+00 0. -1.
        -14    1    3    3    0    0  0.44973736020E+02 -0.18111485350E+02 -0.12756231993E+04  0.12765442450E+04  0.00000000000E+00 0.  1.
          5    1    4    4  501    0 -0.13018405719E+02  0.93451349071E+01  0.32197332965E+02  0.36207058482E+02  0.41800000000E+01 0. -1.
         -5    1    4    4    0  501  0.45447564254E+02  0.59859441966E+01 -0.10098954453E+03  0.11098501308E+03  0.41800000000E+01 0. -1.
</event>
<event>
11    1  0.8037748E-009  0.1373341E+03  0.7561462E-02  0.1110572E+00
         22   -1    0    0    0    0  0.00000000000E+00  0.00000000000E+00  0.12336793001E+04  0.12336793001E+04  0.00000000000E+00 0.  1.
         22   -1    0    0    0    0 -0.00000000000E+00 -0.00000000000E+00 -0.36396561388E+03  0.36396561388E+03  0.00000000000E+00 0.  1.
        -24    2    1    2    0    0  0.40044355429E+02 -0.33606266484E+02 -0.26195089365E+03  0.27812403652E+03  0.77471139504E+02 0.  0.
         25    2    1    2    0    0 -0.13380944354E+02 -0.17734903995E+02 -0.47916689991E+02  0.13574516490E+03  0.12504864702E+03 0.  0.
         24    2    1    2    0    0 -0.26663411075E+02  0.51341170479E+02  0.11795812698E+04  0.11837757125E+04  0.81031550370E+02 0.  0.
        -13    1    5    5    0    0 -0.28125428419E+02  0.18287946752E+02  0.10314113992E+04  0.10319568610E+04  0.00000000000E+00 0.  1.
         14    1    5    5    0    0  0.14620173448E+01  0.33053223727E+02  0.14816987066E+03  0.15181885148E+03  0.00000000000E+00 0. -1.
         11    1    3    3    0    0  0.58406586360E+02 -0.32946160910E+02 -0.14520974730E+03  0.15994577068E+03  0.00000000000E+00 0. -1.
        -12    1    3    3    0    0 -0.18362230931E+02 -0.66010557435E+00 -0.11674114635E+03  0.11817826584E+03  0.00000000000E+00 0.  1.
          5    1    4    4  501    0  0.22935295270E+01 -0.11745942254E+02  0.42159501678E+02  0.44024123147E+02  0.41800000000E+01 0. -1.
         -5    1    4    4    0  501 -0.15674473882E+02 -0.59889617406E+01 -0.90076191669E+02  0.91721041750E+02  0.41800000000E+01 0. -1.
</event>
<event>
11    1  0.8037748E-009  0.2030506E+03  0.7561462E-02  0.1052387E+00
         22   -1    0    0    0    0  0.00000000000E+00  0.00000000000E+00  0.15852914904E+04  0.15852914904E+04  0.00000000000E+00 0.  1.
         22   -1    0    0    0    0 -0.00000000000E+00 -0.00000000000E+00 -0.16091422019E+04  0.16091422019E+04  0.00000000000E+00 0.  1.
        -24    2    1    2    0    0 -0.83202425675E+02  0.81032865389E+02 -0.12366378927E+04  0.12446255046E+04  0.79563812691E+02 0.  0.
         25    2    1    2    0    0  0.19723608716E+03 -0.19086609050E+03 -0.30078731156E+03  0.42597285909E+03  0.12509169156E+03 0.  0.
         24    2    1    2    0    0 -0.11403366149E+03  0.10983322511E+03  0.15135744928E+04  0.15238353287E+04  0.78098338411E+02 0.  0.
        -13    1    5    5    0    0 -0.11318501341E+03  0.62685563917E+02  0.11081203746E+04  0.11156482832E+04  0.00000000000E+00 0.  1.
         14    1    5    5    0    0 -0.84864808083E+00  0.47147661195E+02  0.40545411812E+03  0.40818704544E+03  0.00000000000E+00 0. -1.
         11    1    3    3    0    0  0.39407147179E+01  0.46031789091E+02 -0.46689662920E+03  0.46917685066E+03  0.00000000000E+00 0. -1.
        -12    1    3    3    0    0 -0.87143140393E+02  0.35001076299E+02 -0.76974126348E+03  0.77544865398E+03  0.00000000000E+00 0.  1.
          5    1    4    4  501    0  0.21095681445E+03 -0.16406591999E+03 -0.24567961490E+03  0.36303766918E+03  0.41800000000E+01 0.  1.
         -5    1    4    4    0  501 -0.13720727290E+02 -0.26800170515E+02 -0.55107696667E+02  0.62935189910E+02  0.41800000000E+01 0.  1.
</event>
<event>
11    1  0.8037748E-009  0.1661526E+03  0.7561462E-02  0.1081429E+00
         22   -1    0    0    0    0  0.00000000000E+00  0.00000000000E+00  0.94740350441E+03  0.94740350441E+03  0.00000000000E+00 0. -1.
         22   -1    0    0    0    0 -0.00000000000E+00 -0.00000000000E+00 -0.39089134672E+03  0.39089134672E+03  0.00000000000E+00 0. -1.
        -24    2    1    2    0    0  0.87955037133E+02 -0.65198050578E+02 -0.33032570282E+03  0.36223976443E+03  0.10057684942E+03 0.  0.
         25    2    1    2    0    0 -0.36000099808E+02  0.12863554909E+03  0.16860533647E+03  0.24883401448E+03  0.12508995004E+03 0.  0.
         24    2    1    2    0    0 -0.51954937326E+02 -0.63437498511E+02  0.71823252403E+03  0.72722107222E+03  0.79176370059E+02 0.  0.
        -11    1    5    5    0    0 -0.34208537276E+02 -0.40003941884E+01  0.97644298590E+02  0.10354050523E+03  0.00000000000E+00 0.  1.
         12    1    5    5    0    0 -0.17746400049E+02 -0.59437104323E+02  0.62058822544E+03  0.62368056699E+03  0.00000000000E+00 0. -1.
         11    1    3    3    0    0  0.10033733896E+03 -0.34768972851E+02 -0.29713353872E+03  0.31553890869E+03  0.00000000000E+00 0. -1.
        -12    1    3    3    0    0 -0.12382301831E+02 -0.30429077726E+02 -0.33192164096E+02  0.46700855745E+02  0.00000000000E+00 0.  1.
          5    1    4    4  501    0  0.33010528763E+02 -0.16564986768E+01  0.17335464830E+02  0.37555688490E+02  0.41800000000E+01 0.  1.
         -5    1    4    4    0  501 -0.69010628571E+02  0.13029204777E+03  0.15126987164E+03  0.21127832599E+03  0.41800000000E+01 0.  1.
</event>
<event>
11    1  0.8037748E-009  0.1489296E+03  0.7561462E-02  0.1097978E+00
         22   -1    0    0    0    0  0.00000000000E+00  0.00000000000E+00  0.90778803039E+03  0.90778803039E+03  0.00000000000E+00 0. -1.
         22   -1    0    0    0    0 -0.00000000000E+00 -0.00000000000E+00 -0.18623090602E+04  0.18623090602E+04  0.00000000000E+00 0.  1.
        -24    2    1    2    0    0  0.45779551359E+02  0.66770760344E+02 -0.18166346181E+04  0.18201187318E+04  0.78209719058E+02 0.  0.
         25    2    1    2    0    0 -0.40374896045E+02 -0.58715445773E+02  0.82499041985E+02  0.16592571580E+03  0.12509042902E+03 0.  0.
         24    2    1    2    0    0 -0.54046553140E+01 -0.80553145710E+01  0.77961454630E+03  0.78405264306E+03  0.82738188898E+02 0.  0.
        -11    1    5    5    0    0 -0.13293005454E+02  0.79205657759E+01  0.26205891807E+02  0.30433338983E+02  0.00000000000E+00 0.  1.
         12    1    5    5    0    0  0.78883501399E+01 -0.15975880347E+02  0.75340865449E+03  0.75361930408E+03  0.00000000000E+00 0. -1.
         11    1    3    3    0    0 -0.12340990109E+02  0.70541047251E+00 -0.58903531860E+02  0.60186574137E+02  0.00000000000E+00 0. -1.
        -12    1    3    3    0    0  0.58120541468E+02  0.66065349871E+02 -0.17577310863E+04  0.17599321576E+04  0.00000000000E+00 0.  1.
          5    1    4    4  501    0 -0.45268052470E+02  0.89312636265E-01 -0.18336012114E+02  0.49019244093E+02  0.41800000000E+01 0. -1.
         -5    1    4    4    0  501  0.48931564251E+01 -0.58804758409E+02  0.10083505410E+03  0.11690647171E+03  0.41800000000E+01 0. -1.
</event>
<event>
11    1  0.8037748E-009  0.1365253E+03  0.7561462E-02  0.1111502E+00
         22   -1    0    0    0    0  0.00000000000E+00  0.00000000000E+00  0.13733191729E+04  0.13733191729E+04  0.00000000000E+00 0. -1.
         22   -1    0    0    0    0 -0.00000000000E+00 -0.00000000000E+00 -0.74273264980E+02  0.74273264980E+02  0.00000000000E+00 0. -1.
        -24    2    1    2    0    0  0.23643542994E+01  0.56073169040E+02 -0.95014242050E+00  0.98385805854E+02  0.80802682910E+02 0.  0.
         25    2    1    2    0    0  0.10983974889E+02 -0.49115931300E+02  0.17465906098E+03  0.22064921338E+03  0.12508902978E+03 0.  0.
         24    2    1    2    0    0 -0.13348329188E+02 -0.69572377407E+01  0.11253369894E+04  0.11285574187E+04  0.83856582956E+02 0.  0.
        -13    1    5    5    0    0 -0.26171401783E+02 -0.35099575854E+02  0.36899299961E+03  0.37158142615E+03  0.00000000000E+00 0.  1.
         14    1    5    5    0    0  0.12823072595E+02  0.28142338113E+02  0.75634398976E+03  0.75697599251E+03  0.00000000000E+00 0. -1.
         11    1    3    3    0    0  0.11025226653E+01  0.63089404310E+02 -0.29000071910E+02  0.69444169397E+02  0.00000000000E+00 0. -1.
        -12    1    3    3    0    0  0.12618316341E+01 -0.70162352696E+01  0.28049929490E+02  0.28941636457E+02  0.00000000000E+00 0.  1.
          5    1    4    4  501    0 -0.13235884900E+02 -0.61465425504E+02  0.18164966339E+03  0.19226871766E+03  0.41800000000E+01 0. -1.
         -5    1    4    4    0  501  0.24219859789E+02  0.12349494205E+02 -0.69906024100E+01  0.28380495721E+02  0.41800000000E+01 0. -1.
</event>
<event>
11    1  0.8037748E-009  0.1464027E+03  0.7561462E-02  0.1100612E+00
         22   -1    0    0    0    0  0.00000000000E+00  0.00000000000E+00  0.29353722954E+03  0.29353722954E+03  0.00000000000E+00 0. -1.
         22   -1    0    0    0    0 -0.00000000000E+00 -0.00000000000E+00 -0.10425310764E+04  0.10425310764E+04  0.00000000000E+00 0.  1.
        -24    2    1    2    0    0  0.11291096541E+02 -0.97039636068E+02 -0.86944047386E+03  0.87870068179E+03  0.81510556086E+02 0.  0.
         25    2    1    2    0    0 -0.83049421148E+02  0.65634736312E+02 -0.10762456886E+03  0.19604851093E+03  0.12508735289E+03 0.  0.
         24    2    1    2    0    0  0.71758324606E+02  0.31404899756E+02  0.22807119589E+03  0.26131911319E+03  0.10067613244E+03 0.  0.
        -13    1    5    5    0    0  0.60911174561E+01  0.49317725650E+02  0.14857048029E+03  0.15666054829E+03  0.00000000000E+00 0.  1.
         14    1    5    5    0    0  0.65667207150E+02 -0.17912825894E+02  0.79500715597E+02  0.10465856490E+03  0.00000000000E+00 0. -1.
         13    1    3    3    0    0 -0.30276273403E+02 -0.62394639179E+02 -0.59061976556E+03  0.59467760274E+03  0.00000000000E+00 0. -1.
        -14    1    3    3    0    0  0.41567369945E+02 -0.34644996890E+02 -0.27882070831E+03  0.28402307905E+03  0.00000000000E+00 0.  1.
          5    1    4    4  501    0 -0.76528008140E+02  0.10125495665E+03 -0.77603967659E+02  0.14882523467E+03  0.41800000000E+01 0. -1.
         -5    1    4    4    0  501 -0.65214130073E+01 -0.35620220342E+02 -0.30020601199E+02  0.47223276265E+02  0.41800000000E+01 0. -1.
</event>
<event>
11    1  0.8037748E-009  0.3089176E+03  0.7561462E-02  0.9964862E-01
         22   -1    0    0    0    0  0.00000000000E+00  0.00000000000E+00  0.31211741927E+04  0.31211741927E+04  0.00000000000E+00 0.  1.
         22   -1    0    0    0    0 -0.00000000000E+00 -0.00000000000E+00 -0.14979239441E+04  0.14979239441E+04  0.00000000000E+00 0.  1.
        -24    2    1    2    0    0 -0.84754041679E+02 -0.51543131379E+02 -0.12722767145E+04  0.12786784433E+04  0.80564142329E+02 0.  0.
         25    2    1    2    0    0  0.19119703834E+03 -0.21061164783E+03 -0.10339244037E+03  0.32749269231E+03  0.12509153898E+03 0.  0.
         24    2    1    2    0    0 -0.10644299666E+03  0.26215477920E+03  0.29989194035E+04  0.30129270012E+04  0.64469268086E+02 0.  0.
        -13    1    5    5    0    0 -0.80461127193E+02  0.14927200015E+03  0.20402119371E+04  0.20472471447E+04  0.00000000000E+00 0.  1.
         14    1    5    5    0    0 -0.25981869464E+02  0.11288277906E+03  0.95870746635E+03  0.96567985657E+03  0.00000000000E+00 0. -1.
         13    1    3    3    0    0  0.43303975065E+01 -0.13886574129E+02 -0.39153934661E+02  0.41768647130E+02  0.00000000000E+00 0. -1.
        -14    1    3    3    0    0 -0.89084439186E+02 -0.37656557250E+02 -0.12331227799E+04  0.12369097961E+04  0.00000000000E+00 0.  1.
          5    1    4    4  501    0  0.58869917397E+02  0.33716020962E+01 -0.19375000935E+02  0.62208503730E+02  0.41800000000E+01 0. -1.
         -5    1    4    4    0  501  0.13232712094E+03 -0.21398324992E+03 -0.84017439433E+02  0.26528418858E+03  0.41800000000E+01 0. -1.
</event>
<event>
11    1  0.8037748E-009  0.1260974E+03  0.7561462E-02  0.1124159E+00
         22   -1    0    0    0    0  0.00000000000E+00  0.00000000000E+00  0.13227643738E+03  0.13227643738E+03  0.00000000000E+00 0. -1.
         22   -1    0    0    0    0 -0.00000000000E+00 -0.00000000000E+00 -0.12992570224E+04  0.12992570224E+04  0.00000000000E+00 0.  1.
        -24    2    1    2    0    0  0.29836325790E+01  0.10627490475E+02 -0.97799572203E+03  0.98140704559E+03  0.81008093467E+02 0.  0.
         25    2    1    2    0    0 -0.31342283790E+01  0.57790572199E+01 -0.29234828167E+03  0.31805261026E+03  0.12508686664E+03 0.  0.
         24    2    1    2    0    0  0.15059580009E+00 -0.16406547695E+02  0.10336341873E+03  0.13207380389E+03  0.80562372465E+02 0.  0.
        -13    1    5    5    0    0 -0.12584214947E+02  0.30446704180E+02  0.50506999509E+02  0.60301917554E+02  0.00000000000E+00 0.  1.
         14    1    5    5    0    0  0.12734810747E+02 -0.46853251875E+02  0.52856419220E+02  0.71771886340E+02  0.00000000000E+00 0. -1.
         11    1    3    3    0    0 -0.25661994251E+02  0.84835041810E-01 -0.11318049542E+03  0.11605330538E+03  0.00000000000E+00 0. -1.
        -12    1    3    3    0    0  0.28645626830E+02  0.10542655433E+02 -0.86481522662E+03  0.86535374022E+03  0.00000000000E+00 0.  1.
          5    1    4    4  501    0  0.16969859435E+02  0.43455752259E+02 -0.38578499963E+02  0.60680734941E+02  0.41800000000E+01 0.  1.
         -5    1    4    4    0  501 -0.20104087814E+02 -0.37676695039E+02 -0.25376978171E+03  0.25737187532E+03  0.41800000000E+01 0.  1.
</event>
<event>
11    1  0.8037748E-009  0.2422033E+03  0.7561462E-02  0.1028137E+00
         22   -1    0    0    0    0  0.00000000000E+00  0.00000000000E+00  0.45030700724E+03  0.45030700724E+03  0.00000000000E+00 0. -1.
         22   -1    0    0    0    0 -0.00000000000E+00 -0.00000000000E+00 -0.80903183311E+03  0.80903183311E+03  0.00000000000E+00 0. -1.
        -24    2    1    2    0    0 -0.12181929376E+03 -0.33963738116E+01 -0.42782610550E+03  0.45511937221E+03  0.96161274565E+02 0.  0.
         25    2    1    2    0    0  0.18963976694E+03 -0.18883542285E+03 -0.26994299577E+03  0.40017409932E+03  0.12509208878E+03 0.  0.
         24    2    1    2    0    0 -0.67820473172E+02  0.19223179666E+03  0.33904427540E+03  0.40404536883E+03  0.82152049027E+02 0.  0.
        -13    1    5    5    0    0  0.27942612228E+00  0.27363752829E+02  0.88703060797E+01  0.28766914638E+02  0.00000000000E+00 0.  1.
         14    1    5    5    0    0 -0.68099899294E+02  0.16486804383E+03  0.33017396932E+03  0.37527845419E+03  0.00000000000E+00 0. -1.
         13    1    3    3    0    0 -0.82367651193E+02  0.44146824366E+02 -0.25918234158E+03  0.27551562252E+03  0.00000000000E+00 0. -1.
        -14    1    3    3    0    0 -0.39451642571E+02 -0.47543198178E+02 -0.16864376392E+03  0.17960374969E+03  0.00000000000E+00 0.  1.
          5    1    4    4  501    0  0.75821108833E+02 -0.16118755004E+03 -0.15989815093E+03  0.23940584350E+03  0.41800000000E+01 0.  1.
         -5    1    4    4    0  501  0.11381865810E+03 -0.27647872811E+02 -0.11004484484E+03  0.16076825582E+03  0.41800000000E+01 0.  1.
</event>
<event>
11    1  0.8037748E-009  0.1468453E+03  0.7561462E-02  0.1100147E+00
         22   -1    0    0    0    0  0.00000000000E+00  0.00000000000E+00  0.76337109810E+03  0.76337109810E+03  0.00000000000E+00 0.  1.
         22   -1    0    0    0    0 -0.00000000000E+00 -0.00000000000E+00 -0.17045628440E+03  0.17045628440E+03  0.00000000000E+00 0. -1.
         24    2    1    2    0    0 -0.48238299229E-01 -0.75074845530E+02 -0.12642666662E+03  0.16849856874E+03  0.82291134852E+02 0.  0.
         25    2    1    2    0    0 -0.24320536935E+02  0.10614016854E+03  0.31636036569E+03  0.35719594892E+03  0.12509133084E+03 0.  0.
        -24    2    1    2    0    0  0.24368775234E+02 -0.31065323009E+02  0.40298111464E+03  0.40813286485E+03  0.51183641101E+02 0.  0.
        -11    1    3    3    0    0 -0.63096714440E+01  0.20588172489E+01  0.97937033283E+01  0.11830777957E+02  0.00000000000E+00 0.  1.
         12    1    3    3    0    0  0.62614331448E+01 -0.77133662779E+02 -0.13622036995E+03  0.15666779078E+03  0.00000000000E+00 0. -1.
         11    1    5    5    0    0 -0.62217299501E+01 -0.10961228353E+02  0.21670816903E+02  0.25069558349E+02  0.00000000000E+00 0. -1.
        -12    1    5    5    0    0  0.30590505184E+02 -0.20104094656E+02  0.38131029774E+03  0.38306330650E+03  0.00000000000E+00 0.  1.
          5    1    4    4  501    0  0.40694720183E+02 -0.13700795699E+00  0.87404788082E+02  0.96504654818E+02  0.41800000000E+01 0. -1.
         -5    1    4    4    0  501 -0.65015257117E+02  0.10627717650E+03  0.22895557760E+03  0.26069129410E+03  0.41800000000E+01 0. -1.
</event>
<event>
11    1  0.8037748E-009  0.1469231E+03  0.7561462E-02  0.1100065E+00
         22   -1    0    0    0    0  0.00000000000E+00  0.00000000000E+00  0.81751507096E+03  0.81751507096E+03  0.00000000000E+00 0.  1.
         22   -1    0    0    0    0 -0.00000000000E+00 -0.00000000000E+00 -0.66339595683E+03  0.66339595683E+03  0.00000000000E+00 0.  1.
        -24    2    1    2    0    0 -0.50644796242E+02 -0.49000082597E+02 -0.35230901001E+03  0.36815075281E+03  0.80295920072E+02 0.  0.
         25    2    1    2    0    0  0.10107703670E+01  0.10786405032E+03 -0.27643968158E+03  0.32202796615E+03  0.12508972149E+03 0.  0.
         24    2    1    2    0    0  0.49634025875E+02 -0.58863967720E+02  0.78286780572E+03  0.79073230883E+03  0.80293709432E+02 0.  0.
        -11    1    5    5    0    0  0.37467034465E+02  0.83603086962E+01  0.39810786954E+03  0.39995443393E+03  0.00000000000E+00 0.  1.
         12    1    5    5    0    0  0.12166991410E+02 -0.67224276416E+02  0.38475993618E+03  0.39077787490E+03  0.00000000000E+00 0. -1.
         11    1    3    3    0    0 -0.43587072462E+02 -0.42790897126E+02 -0.11130404691E+03  0.12696253235E+03  0.00000000000E+00 0. -1.
        -12    1    3    3    0    0 -0.70577237798E+01 -0.62091854713E+01 -0.24100496310E+03  0.24118822046E+03  0.00000000000E+00 0.  1.
          5    1    4    4  501    0 -0.21286326676E+02  0.11722084788E+03 -0.14217808190E+03  0.18554221691E+03  0.41800000000E+01 0.  1.
         -5    1    4    4    0  501  0.22297097043E+02 -0.93567975672E+01 -0.13426159968E+03  0.13648574924E+03  0.41800000000E+01 0.  1.
</event>
<event>
11    1  0.8037748E-009  0.1409919E+03  0.7561462E-02  0.1106456E+00
         22   -1    0    0    0    0  0.00000000000E+00  0.00000000000E+00  0.22402456228E+03  0.22402456228E+03  0.00000000000E+00 0.  1.
         22   -1    0    0    0    0 -0.00000000000E+00 -0.00000000000E+00 -0.30323453158E+03  0.30323453158E+03  0.00000000000E+00 0.  1.
        -24    2    1    2    0    0  0.20101389449E+02 -0.11614847074E+02 -0.16979585670E+03  0.19067301192E+03  0.83585848047E+02 0.  0.
         25    2    1    2    0    0 -0.75298113637E+02 -0.19671789522E+02 -0.56240394350E+02  0.15770006465E+03  0.12509813433E+03 0.  0.
         24    2    1    2    0    0  0.55196724188E+02  0.31286636596E+02  0.14682628174E+03  0.17888601729E+03  0.80104420492E+02 0.  0.
        -11    1    5    5    0    0  0.65768292704E+02  0.70116366611E+01  0.13406814060E+03  0.14949547718E+03  0.00000000000E+00 0.  1.
         12    1    5    5    0    0 -0.10571568516E+02  0.24274999935E+02  0.12758141144E+02  0.29390540114E+02  0.00000000000E+00 0. -1.
         11    1    3    3    0    0 -0.84122060346E+01  0.29415243863E+02 -0.32818297725E+02  0.44867164469E+02  0.00000000000E+00 0. -1.
        -12    1    3    3    0    0  0.28513595483E+02 -0.41030090938E+02 -0.13697755897E+03  0.14580584745E+03  0.00000000000E+00 0.  1.
          5    1    4    4  501    0 -0.96660107406E+02 -0.18371790774E+01 -0.76226212532E+02  0.12318465598E+03  0.41800000000E+01 0. -1.
         -5    1    4    4    0  501  0.21361993769E+02 -0.17834610444E+02  0.19985818182E+02  0.34515408673E+02  0.41800000000E+01 0. -1.
</event>
<event>
11    1  0.8037748E-009  0.1494949E+03  0.7561462E-02  0.1097396E+00
         22   -1    0    0    0    0  0.00000000000E+00  0.00000000000E+00  0.13498806902E+03  0.13498806902E+03  0.00000000000E+00 0. -1.
         22   -1    0    0    0    0 -0.00000000000E+00 -0.00000000000E+00 -0.21721729622E+04  0.21721729622E+04  0.00000000000E+00 0.  1.
         24    2    1    2    0    0  0.79843801239E+02 -0.63850161047E+01 -0.15287604781E+04  0.15329222679E+04  0.79537908561E+02 0.  0.
         25    2    1    2    0    0 -0.83454704247E+02  0.60397292586E+02 -0.60554596992E+03  0.62685422527E+03  0.12509107658E+03 0.  0.
        -24    2    1    2    0    0  0.36109030073E+01 -0.54012276481E+02  0.97121554833E+02  0.14738453808E+03  0.96743170410E+02 0.  0.
        -13    1    3    3    0    0  0.96142849442E+02 -0.36604875987E+01 -0.12759762881E+04  0.12795985052E+04  0.00000000000E+00 0.  1.
         14    1    3    3    0    0 -0.16299048203E+02 -0.27245285061E+01 -0.25278418999E+03  0.25332376268E+03  0.00000000000E+00 0. -1.
         11    1    5    5    0    0 -0.89961529701E+01 -0.17588650833E+02  0.10600512474E+03  0.10783031985E+03  0.00000000000E+00 0. -1.
        -12    1    5    5    0    0  0.12607055977E+02 -0.36423625648E+02 -0.88835699106E+01  0.39554218234E+02  0.00000000000E+00 0.  1.
          5    1    4    4  501    0 -0.60027331977E+01 -0.30829278236E+02 -0.55340226330E+02  0.63769038355E+02  0.41800000000E+01 0. -1.
         -5    1    4    4    0  501 -0.77451971049E+02  0.91226570822E+02 -0.55020574359E+03  0.56308518692E+03  0.41800000000E+01 0. -1.
</event>
<event>
11    1  0.1461146E-008  0.1691909E+03  0.7561462E-02  0.1078738E+00
         22   -1    0    0    0    0  0.00000000000E+00  0.00000000000E+00  0.38793485838E+03  0.38793485838E+03  0.00000000000E+00 0. -1.
         22   -1    0    0    0    0 -0.00000000000E+00 -0.00000000000E+00 -0.13604474314E+04  0.13604474314E+04  0.00000000000E+00 0. -1.
        -24    2    1    2    0    0  0.34717163468E+01  0.79905660377E+02 -0.71872967015E+03  0.72778127770E+03  0.81830813529E+02 0.  0.
         25    2    1    2    0    0 -0.49254076916E+02 -0.18251317486E+03 -0.60321180399E+03  0.64439795084E+03  0.12508883040E+03 0.  0.
         24    2    1    2    0    0  0.45782360569E+02  0.10260751448E+03  0.34942890107E+03  0.37620306128E+03  0.82485512913E+02 0.  0.
        -13    1    5    5    0    0 -0.11714662747E+02  0.58958025811E+02  0.10135599107E+03  0.11784022682E+03  0.00000000000E+00 0.  1.
         14    1    5    5    0    0  0.57497023316E+02  0.43649488674E+02  0.24807291001E+03  0.25836283446E+03  0.00000000000E+00 0. -1.
         13    1    3    3    0    0 -0.24398904371E+02  0.82791718472E+02 -0.52959707737E+03  0.53658441977E+03  0.00000000000E+00 0. -1.
        -14    1    3    3    0    0  0.27870620717E+02 -0.28860580946E+01 -0.18913259278E+03  0.19119685793E+03  0.00000000000E+00 0.  1.
          5    1    4    4  501    0 -0.71050931980E+02 -0.44379508913E+02 -0.17823828009E+03  0.19698764590E+03  0.41800000000E+01 0. -1.
         -5    1    4    4    0  501  0.21796855064E+02 -0.13813366595E+03 -0.42497352389E+03  0.44741030494E+03  0.41800000000E+01 0. -1.
</event>
<event>
11    1  0.8037748E-009  0.1470244E+03  0.7561462E-02  0.1099959E+00
         22   -1    0    0    0    0  0.00000000000E+00  0.00000000000E+00  0.27793383678E+03  0.27793383678E+03  0.00000000000E+00 0.  1.
         22   -1    0    0    0    0 -0.00000000000E+00 -0.00000000000E+00 -0.32932592634E+04  0.32932592634E+04  0.00000000000E+00 0.  1.
        -24    2    1    2    0    0  0.17596525267E+02 -0.54018730380E+02 -0.26421756772E+04  0.26440667562E+04  0.82274182526E+02 0.  0.
         25    2    1    2    0    0 -0.70348397116E+02  0.10919673632E+03 -0.62578385014E+03  0.65124979173E+03  0.12509212576E+03 0.  0.
         24    2    1    2    0    0  0.52751871848E+02 -0.55178005938E+02  0.25263410067E+03  0.27587655231E+03  0.80352417340E+02 0.  0.
        -13    1    5    5    0    0  0.56407699962E+01 -0.29019131450E+01  0.15706664977E+03  0.15719469411E+03  0.00000000000E+00 0.  1.
         14    1    5    5    0    0  0.47111101852E+02 -0.52276092793E+02  0.95567450902E+02  0.11868185821E+03  0.00000000000E+00 0. -1.
         11    1    3    3    0    0  0.43355560038E+02 -0.49846072887E+02 -0.13378827432E+04  0.13395128108E+04  0.00000000000E+00 0. -1.
        -12    1    3    3    0    0 -0.25759034771E+02 -0.41726574932E+01 -0.13042929339E+04  0.13045539454E+04  0.00000000000E+00 0.  1.
          5    1    4    4  501    0  0.54932091993E+01  0.91464633907E+02 -0.44503841154E+03  0.45439257779E+03  0.41800000000E+01 0.  1.
         -5    1    4    4    0  501 -0.75841606315E+02  0.17732102411E+02 -0.18074543860E+03  0.19685721394E+03  0.41800000000E+01 0.  1.
</event>
<event>
11    1  0.8037748E-009  0.1254958E+03  0.7561462E-02  0.1124930E+00
         22   -1    0    0    0    0  0.00000000000E+00  0.00000000000E+00  0.84402220022E+03  0.84402220022E+03  0.00000000000E+00 0. -1.
         22   -1    0    0    0    0 -0.00000000000E+00 -0.00000000000E+00 -0.17668059884E+03  0.17668059884E+03  0.00000000000E+00 0.  1.
         24    2    1    2    0    0 -0.42712524036E+01 -0.86348604337E+01 -0.13583515556E+03  0.15871497570E+03  0.81525760422E+02 0.  0.
         25    2    1    2    0    0 -0.14601326458E+02  0.21852868997E+02  0.12468031127E+03  0.17856371809E+03  0.12509626206E+03 0.  0.
        -24    2    1    2    0    0  0.18872578861E+02 -0.13218008563E+02  0.67849644567E+03  0.68342410527E+03  0.78614190168E+02 0.  0.
        -13    1    3    3    0    0 -0.11563901185E+02 -0.16631438405E+02 -0.14383645482E+03  0.14525582360E+03  0.00000000000E+00 0.  1.
         14    1    3    3    0    0  0.72926487813E+01  0.79965779717E+01  0.80012992557E+01  0.13459152101E+02  0.00000000000E+00 0. -1.
         11    1    5    5    0    0  0.49027973291E+02 -0.15810398089E+02  0.40777471471E+03  0.41101572818E+03  0.00000000000E+00 0. -1.
        -12    1    5    5    0    0 -0.30155394430E+02  0.25923895262E+01  0.27072173095E+03  0.27240837709E+03  0.00000000000E+00 0.  1.
          5    1    4    4  501    0 -0.16682796388E+02 -0.32003833742E+02  0.11874637947E+03  0.12418025651E+03  0.41800000000E+01 0. -1.
         -5    1    4    4    0  501  0.20814699301E+01  0.53856702739E+02  0.59339318072E+01  0.54383461582E+02  0.41800000000E+01 0. -1.
</event>
<event>
11    1  0.8037748E-009  0.1258871E+03  0.7561462E-02  0.1124428E+00
         22   -1    0    0    0    0  0.00000000000E+00  0.00000000000E+00  0.13823736091E+03  0.13823736091E+03  0.00000000000E+00 0.  1.
         22   -1    0    0    0    0 -0.00000000000E+00 -0.00000000000E+00 -0.45916076325E+03  0.45916076325E+03  0.00000000000E+00 0. -1.
         24    2    1    2    0    0 -0.90331909899E+01  0.13289009395E+02 -0.34890540419E+03  0.35856584756E+03  0.81094325627E+02 0.  0.
         25    2    1    2    0    0 -0.39996838588E+00  0.38829666104E+01 -0.44848351727E+02  0.13294428898E+03  0.12509025508E+03 0.  0.
        -24    2    1    2    0    0  0.94331593758E+01 -0.17171976005E+02  0.72830353579E+02  0.10588798762E+03  0.74324587211E+02 0.  0.
        -11    1    3    3    0    0 -0.37110226885E+02 -0.22107481953E+01 -0.85730026066E+02  0.93443532233E+02  0.00000000000E+00 0.  1.
         12    1    3    3    0    0  0.28077035895E+02  0.15499757590E+02 -0.26317537813E+03  0.26512231532E+03  0.00000000000E+00 0. -1.
         13    1    5    5    0    0 -0.40827991778E+01 -0.40125367492E+02  0.16500036133E+02  0.43577121955E+02  0.00000000000E+00 0. -1.
        -14    1    5    5    0    0  0.13515958554E+02  0.22953391487E+02  0.56330317446E+02  0.62310865665E+02  0.00000000000E+00 0.  1.
          5    1    4    4  501    0  0.79160585371E+01 -0.43836850119E+02 -0.66152804471E+02  0.79862377566E+02  0.41800000000E+01 0. -1.
         -5    1    4    4    0  501 -0.83160269229E+01  0.47719816729E+02  0.21304452744E+02  0.53081911412E+02  0.41800000000E+01 0. -1.
</event>
<event>
11    1  0.8037748E-009  0.1327500E+03  0.7561462E-02  0.1115936E+00
         22   -1    0    0    0    0  0.00000000000E+00  0.00000000000E+00  0.39005770683E+03  0.39005770683E+03  0.00000000000E+00 0. -1.
         22   -1    0    0    0    0 -0.00000000000E+00 -0.00000000000E+00 -0.56478224681E+03  0.56478224681E+03  0.00000000000E+00 0. -1.
        -24    2    1    2    0    0 -0.41352337463E+02  0.14037251466E+02 -0.50665900850E+03  0.51711268611E+03  0.93782295763E+02 0.  0.
         25    2    1    2    0    0  0.68366275329E+02  0.12554316108E+02  0.68719177466E+02  0.15874902291E+03  0.12508944187E+03 0.  0.
         24    2    1    2    0    0 -0.27013937866E+02 -0.26591567574E+02  0.26321529106E+03  0.27897824462E+03  0.84319079813E+02 0.  0.
        -11    1    5    5    0    0  0.13584427979E+02 -0.20245239409E+02  0.17901691387E+02  0.30246933014E+02  0.00000000000E+00 0.  1.
         12    1    5    5    0    0 -0.40598365845E+02 -0.63463281649E+01  0.24531359967E+03  0.24873131161E+03  0.00000000000E+00 0. -1.
         13    1    3    3    0    0  0.38734424922E+01 -0.34085819259E+02 -0.23780955066E+03  0.24027115727E+03  0.00000000000E+00 0. -1.
        -14    1    3    3    0    0 -0.45225779955E+02  0.48123070725E+02 -0.26884945784E+03  0.27684152884E+03  0.00000000000E+00 0.  1.
          5    1    4    4  501    0  0.16831260855E+02  0.60495201762E+02  0.40310828510E+01  0.63060945182E+02  0.41800000000E+01 0. -1.
         -5    1    4    4    0  501  0.51535014474E+02 -0.47940885655E+02  0.64688094615E+02  0.95688077727E+02  0.41800000000E+01 0. -1.
</event>
<event>
11    1  0.8037748E-009  0.1326608E+03  0.7561462E-02  0.1116042E+00
         22   -1    0    0    0    0  0.00000000000E+00  0.00000000000E+00  0.14825481421E+04  0.14825481421E+04  0.00000000000E+00 0.  1.
         22   -1    0    0    0    0 -0.00000000000E+00 -0.00000000000E+00 -0.46241402929E+03  0.46241402929E+03  0.00000000000E+00 0.  1.
        -24    2    1    2    0    0  0.30174724115E+02  0.32810011999E+02 -0.44345892959E+03  0.45280785392E+03  0.79950731565E+02 0.  0.
         25    2    1    2    0    0 -0.14583535473E+01 -0.21384664151E+02  0.30567832385E+03  0.33097774310E+03  0.12509035974E+03 0.  0.
         24    2    1    2    0    0 -0.28716370568E+02 -0.11425347848E+02  0.11579147186E+04  0.11611765744E+04  0.81298050003E+02 0.  0.
        -13    1    5    5    0    0 -0.33943573964E+02 -0.21478119519E+02  0.11340239021E+04  0.11347350732E+04  0.00000000000E+00 0.  1.
         14    1    5    5    0    0  0.52272033959E+01  0.10052771671E+02  0.23890816477E+02  0.26441501197E+02  0.00000000000E+00 0. -1.
         13    1    3    3    0    0  0.37676896503E+02  0.19428287561E+02 -0.95204213678E+02  0.10421539805E+03  0.00000000000E+00 0. -1.
        -14    1    3    3    0    0 -0.75021723879E+01  0.13381724438E+02 -0.34825471591E+03  0.34859245588E+03  0.00000000000E+00 0.  1.
          5    1    4    4  501    0  0.10946264471E+02  0.36332846087E+02  0.28735630271E+02  0.47781850715E+02  0.41800000000E+01 0. -1.
         -5    1    4    4    0  501 -0.12404618018E+02 -0.57717510238E+02  0.27694269358E+03  0.28319589238E+03  0.41800000000E+01 0. -1.
</event>
<event>
11    1  0.1289788E-008  0.1591056E+03  0.7561462E-02  0.1087922E+00
         22   -1    0    0    0    0  0.00000000000E+00  0.00000000000E+00  0.15838370658E+04  0.15838370658E+04  0.00000000000E+00 0. -1.
         22   -1    0    0    0    0 -0.00000000000E+00 -0.00000000000E+00 -0.42536921583E+03  0.42536921583E+03  0.00000000000E+00 0. -1.
        -24    2    1    2    0    0 -0.39181891063E+02 -0.70505366282E+02 -0.24268686565E+03  0.26822224224E+03  0.80870447089E+02 0.  0.
         25    2    1    2    0    0  0.12297201044E+03  0.18976331357E+02 -0.12092997310E+03  0.21390122785E+03  0.12508980926E+03 0.  0.
         24    2    1    2    0    0 -0.83790119376E+02  0.51529034925E+02  0.15220846887E+04  0.15270828115E+04  0.74592815587E+02 0.  0.
        -11    1    5    5    0    0  0.12537105800E+02  0.62028752921E+01  0.93930906493E+02  0.94966677726E+02  0.00000000000E+00 0.  1.
         12    1    5    5    0    0 -0.96327225176E+02  0.45326159633E+02  0.14281537822E+04  0.14321161338E+04  0.00000000000E+00 0. -1.
         11    1    3    3    0    0 -0.37261662906E+02 -0.79211210298E+02 -0.24398485403E+03  0.25921314850E+03  0.00000000000E+00 0. -1.
        -12    1    3    3    0    0 -0.19202281571E+01  0.87058440165E+01  0.12979883794E+01  0.90090937418E+01  0.00000000000E+00 0.  1.
          5    1    4    4  501    0 -0.21061595444E+02  0.12207796456E+02 -0.43894959136E+02  0.50367260542E+02  0.41800000000E+01 0.  1.
         -5    1    4    4    0  501  0.14403360588E+03  0.67685349010E+01 -0.77035013960E+02  0.16353396731E+03  0.41800000000E+01 0.  1.
</event>
<event>
11    1  0.8037748E-009  0.1311540E+03  0.7561462E-02  0.1117859E+00
         22   -1    0    0    0    0  0.00000000000E+00  0.00000000000E+00  0.34705352596E+03  0.34705352596E+03  0.00000000000E+00 0. -1.
         22   -1    0    0    0    0 -0.00000000000E+00 -0.00000000000E+00 -0.12352113305E+04  0.12352113305E+04  0.00000000000E+00 0.  1.
        -24    2    1    2    0    0  0.31846909215E+02 -0.23619178928E+02 -0.11847929820E+04  0.11882910737E+04  0.82031544313E+02 0.  0.
         25    2    1    2    0    0 -0.43595409816E+02 -0.10376285342E+02  0.69275764878E+02  0.14983253876E+03  0.12506970463E+03 0.  0.
         24    2    1    2    0    0  0.11748500600E+02  0.33995464270E+02  0.22735941265E+03  0.24414124400E+03  0.81356779936E+02 0.  0.
        -11    1    5    5    0    0 -0.24454136019E+02  0.20139280812E+02  0.32206885842E+02  0.45176087654E+02  0.00000000000E+00 0.  1.
         12    1    5    5    0    0  0.36202636620E+02  0.13856183459E+02  0.19515252681E+03  0.19896515634E+03  0.00000000000E+00 0. -1.
         13    1    3    3    0    0  0.71039636199E+01  0.28986126880E+02 -0.26793937855E+03  0.26959631383E+03  0.00000000000E+00 0. -1.
        -14    1    3    3    0    0  0.24742945595E+02 -0.52605305807E+02 -0.91685360348E+03  0.91869475984E+03  0.00000000000E+00 0.  1.
          5    1    4    4  501    0 -0.43054812533E+02  0.95931359853E+01 -0.26686359743E+02  0.51724069219E+02  0.41800000000E+01 0.  1.
         -5    1    4    4    0  501 -0.54059728321E+00 -0.19969421328E+02  0.95962124621E+02  0.98108469539E+02  0.41800000000E+01 0.  1.
</event>
<event>
11    1  0.8037748E-009  0.1455204E+03  0.7561462E-02  0.1101546E+00
         22   -1    0    0    0    0  0.00000000000E+00  0.00000000000E+00  0.19340940699E+04  0.19340940699E+04  0.00000000000E+00 0.  1.
         22   -1    0    0    0    0 -0.00000000000E+00 -0.00000000000E+00 -0.62846695953E+03  0.62846695953E+03  0.00000000000E+00 0. -1.
         24    2    1    2    0    0 -0.88883519574E+01 -0.38081217265E+02 -0.29288674378E+03  0.30654124585E+03  0.81582527640E+02 0.  0.
         25    2    1    2    0    0 -0.36843676998E+02  0.96547564840E+02 -0.30702104309E+03  0.34725982014E+03  0.12509425635E+03 0.  0.
        -24    2    1    2    0    0  0.45732028955E+02 -0.58466347575E+02  0.19055348972E+04  0.19087599634E+04  0.82411293018E+02 0.  0.
        -11    1    3    3    0    0  0.72806968589E+01  0.20598645364E+02 -0.32678746186E+02  0.39309199812E+02  0.00000000000E+00 0.  1.
         12    1    3    3    0    0 -0.16169048816E+02 -0.58679862629E+02 -0.26020799759E+03  0.26723204604E+03  0.00000000000E+00 0. -1.
         11    1    5    5    0    0 -0.49548335103E+01 -0.33613228105E+01  0.10333528640E+04  0.10333702097E+04  0.00000000000E+00 0. -1.
        -12    1    5    5    0    0  0.50686862466E+02 -0.55105024765E+02  0.87218203326E+03  0.87538975373E+03  0.00000000000E+00 0.  1.
          5    1    4    4  501    0 -0.43295214757E+02  0.54747571259E+02 -0.29488263629E+03  0.30305942283E+03  0.41800000000E+01 0. -1.
         -5    1    4    4    0  501  0.64515377587E+01  0.41799993581E+02 -0.12138406799E+02  0.44200397311E+02  0.41800000000E+01 0. -1.
</event>
<event>
11    1  0.8037748E-009  0.1866526E+03  0.7561462E-02  0.1064385E+00
         22   -1    0    0    0    0  0.00000000000E+00  0.00000000000E+00  0.66427743612E+02  0.66427743612E+02  0.00000000000E+00 0. -1.
         22   -1    0    0    0    0 -0.00000000000E+00 -0.00000000000E+00 -0.28974864450E+04  0.28974864450E+04  0.00000000000E+00 0.  1.
        -24    2    1    2    0    0 -0.59903248102E+02 -0.53895271247E+02 -0.17700049222E+04  0.17737625953E+04  0.82602786417E+02 0.  0.
         25    2    1    2    0    0 -0.23693279194E+02  0.16319696497E+03 -0.99705401009E+03  0.10183118293E+04  0.12509061413E+03 0.  0.
         24    2    1    2    0    0  0.83596527295E+02 -0.10930169372E+03 -0.63999769092E+02  0.17183976408E+03  0.80608277786E+02 0.  0.
        -11    1    5    5    0    0  0.35636055262E+02 -0.51548069299E+01 -0.41589562166E+02  0.55010836663E+02  0.00000000000E+00 0.  1.
         12    1    5    5    0    0  0.47960472033E+02 -0.10414688679E+03 -0.22410206926E+02  0.11682892742E+03  0.00000000000E+00 0. -1.
         11    1    3    3    0    0 -0.66405496947E+02 -0.59872305569E+01 -0.10955659097E+04  0.10975929115E+04  0.00000000000E+00 0. -1.
        -12    1    3    3    0    0  0.65022488450E+01 -0.47908040690E+02 -0.67443901256E+03  0.67616968378E+03  0.00000000000E+00 0.  1.
          5    1    4    4  501    0  0.50258572780E+02  0.61993642156E+02 -0.32714792306E+03  0.33676753372E+03  0.41800000000E+01 0. -1.
         -5    1    4    4    0  501 -0.73951851973E+02  0.10120332281E+03 -0.66990608703E+03  0.68154429556E+03  0.41800000000E+01 0. -1.
</event>
<event>
11    1  0.8037748E-009  0.1599430E+03  0.7561462E-02  0.1087131E+00
         22   -1    0    0    0    0  0.00000000000E+00  0.00000000000E+00  0.10363553214E+04  0.10363553214E+04  0.00000000000E+00 0.  1.
         22   -1    0    0    0    0 -0.00000000000E+00 -0.00000000000E+00 -0.24247006111E+03  0.24247006111E+03  0.00000000000E+00 0.  1.
         24    2    1    2    0    0  0.90229263904E+01  0.18592555320E+02 -0.20003388535E+03  0.21647565831E+03  0.80131510889E+02 0.  0.
         25    2    1    2    0    0 -0.25763521465E+02 -0.11420768108E+03  0.21708568570E+03  0.27654983866E+03  0.12508583001E+03 0.  0.
        -24    2    1    2    0    0  0.16740595074E+02  0.95615125762E+02  0.77683345995E+03  0.78579988556E+03  0.67740208538E+02 0.  0.
        -13    1    3    3    0    0  0.15865776096E+02  0.45177781413E+02 -0.16590335851E+03  0.17267506812E+03  0.00000000000E+00 0.  1.
         14    1    3    3    0    0 -0.68428497056E+01 -0.26585226093E+02 -0.34130526835E+02  0.43800590185E+02  0.00000000000E+00 0. -1.
         13    1    5    5    0    0  0.42345332284E+02  0.72012125167E+02  0.54480989994E+03  0.55117755797E+03  0.00000000000E+00 0. -1.
        -14    1    5    5    0    0 -0.25604737210E+02  0.23603000594E+02  0.23202356001E+03  0.23462232759E+03  0.00000000000E+00 0.  1.
          5    1    4    4  501    0  0.18021301310E+02  0.20166009481E+02  0.55212129660E+02  0.61622129960E+02  0.41800000000E+01 0. -1.
         -5    1    4    4    0  501 -0.43784822774E+02 -0.13437369056E+03  0.16187355604E+03  0.21492770870E+03  0.41800000000E+01 0. -1.
</event>
<event>
11    1  0.8037748E-009  0.1700936E+03  0.7561462E-02  0.1077950E+00
         22   -1    0    0    0    0  0.00000000000E+00  0.00000000000E+00  0.11767521961E+04  0.11767521961E+04  0.00000000000E+00 0. -1.
         22   -1    0    0    0    0 -0.00000000000E+00 -0.00000000000E+00 -0.32934400496E+03  0.32934400496E+03  0.00000000000E+00 0.  1.
        -24    2    1    2    0    0  0.37624064071E+02 -0.24745743864E+02 -0.29175816489E+03  0.30595499494E+03  0.80359878739E+02 0.  0.
         25    2    1    2    0    0 -0.40210546100E+02  0.13530108827E+03  0.32852432346E+03  0.37881233701E+03  0.12508910051E+03 0.  0.
         24    2    1    2    0    0  0.25864820296E+01 -0.11055534440E+03  0.81064203258E+03  0.82132886911E+03  0.72190249945E+02 0.  0.
        -13    1    5    5    0    0 -0.31973563660E+02 -0.38692883759E+02  0.38765999751E+03  0.39089604973E+03  0.00000000000E+00 0.  1.
         14    1    5    5    0    0  0.34560045689E+02 -0.71862460646E+02  0.42298203506E+03  0.43043281938E+03  0.00000000000E+00 0. -1.
         11    1    3    3    0    0  0.71087800621E+01  0.55566872957E+01  0.18529691837E+01  0.92111357861E+01  0.00000000000E+00 0. -1.
        -12    1    3    3    0    0  0.30515284008E+02 -0.30302431159E+02 -0.29361113408E+03  0.29674385915E+03  0.00000000000E+00 0.  1.
          5    1    4    4  501    0 -0.60437508553E+01  0.14276193414E+03  0.20191750501E+03  0.24739775260E+03  0.41800000000E+01 0. -1.
         -5    1    4    4    0  501 -0.34166795245E+02 -0.74608458719E+01  0.12660681845E+03  0.13141458441E+03  0.41800000000E+01 0. -1.
</event>
<event>
11    1  0.8037748E-009  0.2562400E+03  0.7561462E-02  0.1020627E+00
         22   -1    0    0    0    0  0.00000000000E+00  0.00000000000E+00  0.17815834573E+03  0.17815834573E+03  0.00000000000E+00 0. -1.
         22   -1    0    0    0    0 -0.00000000000E+00 -0.00000000000E+00 -0.15210474679E+04  0.15210474679E+04  0.00000000000E+00 0. -1.
        -24    2    1    2    0    0  0.79799425807E+02  0.53418461288E+01 -0.10098369265E+04  0.10163317470E+04  0.82238179183E+02 0.  0.
         25    2    1    2    0    0 -0.91675187414E+02 -0.22601285152E+03 -0.35462497211E+03  0.44821172953E+03  0.12509490240E+03 0.  0.
         24    2    1    2    0    0  0.11875761608E+02  0.22067100539E+03  0.21572776438E+02  0.23466233712E+03  0.75922996819E+02 0.  0.
        -11    1    5    5    0    0 -0.50720646843E+01 -0.23395550745E+01 -0.72575974697E+01  0.91581700760E+01  0.00000000000E+00 0.  1.
         12    1    5    5    0    0  0.16947826292E+02  0.22301056046E+03  0.28830373908E+02  0.22550416704E+03  0.00000000000E+00 0. -1.
         13    1    3    3    0    0  0.74894593462E+02 -0.19835268892E+02 -0.90854750836E+03  0.91184495007E+03  0.00000000000E+00 0. -1.
        -14    1    3    3    0    0  0.49048323448E+01  0.25177115021E+02 -0.10128941815E+03  0.10448679692E+03  0.00000000000E+00 0.  1.
          5    1    4    4  501    0 -0.57996735924E+02 -0.55333506379E+02 -0.19967258894E+03  0.21520230826E+03  0.41800000000E+01 0. -1.
         -5    1    4    4    0  501 -0.33678451490E+02 -0.17067934514E+03 -0.15495238317E+03  0.23300942127E+03  0.41800000000E+01 0. -1.
</event>
<event>
11    1  0.8037748E-009  0.1762782E+03  0.7561462E-02  0.1072694E+00
         22   -1    0    0    0    0  0.00000000000E+00  0.00000000000E+00  0.16207348207E+04  0.16207348207E+04  0.00000000000E+00 0.  1.
         22   -1    0    0    0    0 -0.00000000000E+00 -0.00000000000E+00 -0.12032854733E+03  0.12032854733E+03  0.00000000000E+00 0. -1.
        -24    2    1    2    0    0  0.88245855669E+02 -0.83616454277E+02 -0.53032741886E+02  0.15503281615E+03  0.80272410592E+02 0.  0.
         25    2    1    2    0    0 -0.14629220355E+03  0.96804731753E+02  0.93289852553E+03  0.95745521903E+03  0.12509305578E+03 0.  0.
         24    2    1    2    0    0  0.58046347881E+02 -0.13188277475E+02  0.62054048974E+03  0.62857533287E+03  0.80580025608E+02 0.  0.
        -13    1    5    5    0    0  0.68837799786E+02 -0.21217577217E+01  0.59306401893E+03  0.59704947457E+03  0.00000000000E+00 0.  1.
         14    1    5    5    0    0 -0.10791451905E+02 -0.11066519754E+02  0.27476470812E+02  0.31525858306E+02  0.00000000000E+00 0. -1.
         13    1    3    3    0    0 -0.67644751990E+01 -0.13553973630E+02 -0.31613961576E+02  0.35055825371E+02  0.00000000000E+00 0. -1.
        -14    1    3    3    0    0  0.95010330868E+02 -0.70062480647E+02 -0.21418780310E+02  0.11997699078E+03  0.00000000000E+00 0.  1.
          5    1    4    4  501    0 -0.58159020728E+02 -0.70588699702E+01  0.12461242048E+03  0.13776076029E+03  0.41800000000E+01 0.  1.
         -5    1    4    4    0  501 -0.88133182821E+02  0.10386360172E+03  0.80828610505E+03  0.81969445874E+03  0.41800000000E+01 0.  1.
</event>
<event>
11    1  0.8037748E-009  0.1325469E+03  0.7561462E-02  0.1116179E+00
         22   -1    0    0    0    0  0.00000000000E+00  0.00000000000E+00  0.20990179396E+04  0.20990179396E+04  0.00000000000E+00 0. -1.
         22   -1    0    0    0    0 -0.00000000000E+00 -0.00000000000E+00 -0.22563432831E+03  0.22563432831E+03  0.00000000000E+00 0.  1.
        -24    2    1    2    0    0  0.28202691135E+02  0.35936845567E+02 -0.19150506754E+03  0.21237236777E+03  0.79630289704E+02 0.  0.
         25    2    1    2    0    0 -0.43491493622E+02  0.63594735498E+01  0.17239153383E+03  0.21748016708E+03  0.12508728638E+03 0.  0.
         24    2    1    2    0    0  0.15288802487E+02 -0.42296319117E+02  0.18924971450E+04  0.18947997331E+04  0.81840445119E+02 0.  0.
        -13    1    5    5    0    0 -0.64876404442E+01  0.22743177105E+02  0.62615988782E+03  0.62660637301E+03  0.00000000000E+00 0.  1.
         14    1    5    5    0    0  0.21776442931E+02 -0.65039496222E+02  0.12663372572E+04  0.12681933600E+04  0.00000000000E+00 0. -1.
         11    1    3    3    0    0  0.15542009572E+02  0.10266987366E+02  0.11408097802E+00  0.18627348324E+02  0.00000000000E+00 0. -1.
        -12    1    3    3    0    0  0.12660681563E+02  0.25669858201E+02 -0.19161914852E+03  0.19374501944E+03  0.00000000000E+00 0.  1.
          5    1    4    4  501    0 -0.53688464102E+02  0.45180275139E+02  0.16080086775E+03  0.17549387427E+03  0.41800000000E+01 0. -1.
         -5    1    4    4    0  501  0.10196970480E+02 -0.38820801590E+02  0.11590666083E+02  0.41986292802E+02  0.41800000000E+01 0. -1.
</event>
<event>
11    1  0.8037748E-009  0.1373822E+03  0.7561462E-02  0.1110517E+00
         22   -1    0    0    0    0  0.00000000000E+00  0.00000000000E+00  0.34165646050E+03  0.34165646050E+03  0.00000000000E+00 0. -1.
         22   -1    0    0    0    0 -0.00000000000E+00 -0.00000000000E+00 -0.14173657294E+04  0.14173657294E+04  0.00000000000E+00 0.  1.
        -24    2    1    2    0    0 -0.35372567454E+02  0.52325153459E+02 -0.11435019056E+04  0.11479254619E+04  0.78403556620E+02 0.  0.
         25    2    1    2    0    0  0.57772136027E+00 -0.15896094689E+02 -0.24995182793E+03  0.27996033458E+03  0.12509537587E+03 0.  0.
         24    2    1    2    0    0  0.34794846093E+02 -0.36429058770E+02  0.31774446465E+03  0.33113639343E+03  0.78434741011E+02 0.  0.
        -11    1    5    5    0    0 -0.24203390726E+02 -0.10173218724E+02  0.12917374125E+03  0.13181484715E+03  0.00000000000E+00 0.  1.
         12    1    5    5    0    0  0.58998236819E+02 -0.26255840046E+02  0.18857072341E+03  0.19932154628E+03  0.00000000000E+00 0. -1.
         13    1    3    3    0    0 -0.29345739026E+01  0.51004710540E+02 -0.34483598382E+03  0.34859998273E+03  0.00000000000E+00 0. -1.
        -14    1    3    3    0    0 -0.32437993551E+02  0.13204429187E+01 -0.79866592182E+03  0.79932547918E+03  0.00000000000E+00 0.  1.
          5    1    4    4  501    0  0.48878860094E+02 -0.42503302732E+02 -0.91889726168E+02  0.11250274611E+03  0.41800000000E+01 0.  1.
         -5    1    4    4    0  501 -0.48301138734E+02  0.26607208043E+02 -0.15806210176E+03  0.16745758847E+03  0.41800000000E+01 0.  1.
</event>
<event>
11    1  0.8037748E-009  0.2646559E+03  0.7561462E-02  0.1016369E+00
         22   -1    0    0    0    0  0.00000000000E+00  0.00000000000E+00  0.53570126230E+03  0.53570126230E+03  0.00000000000E+00 0. -1.
         22   -1    0    0    0    0 -0.00000000000E+00 -0.00000000000E+00 -0.45435854014E+03  0.45435854014E+03  0.00000000000E+00 0. -1.
        -24    2    1    2    0    0 -0.16532977704E+03  0.16331042255E+03 -0.34353984001E+03  0.42258156730E+03  0.80940286973E+02 0.  0.
         25    2    1    2    0    0  0.13791080448E+03 -0.20102997117E+03  0.25346582599E+03  0.37326160121E+03  0.12508740421E+03 0.  0.
         24    2    1    2    0    0  0.27418972566E+02  0.37719548620E+02  0.17141673617E+03  0.19421663393E+03  0.78497382457E+02 0.  0.
        -11    1    5    5    0    0  0.26646200715E+02  0.54717343926E+02  0.16527882035E+03  0.17612806759E+03  0.00000000000E+00 0.  1.
         12    1    5    5    0    0  0.77277185095E+00 -0.16997795306E+02  0.61379158232E+01  0.18088566340E+02  0.00000000000E+00 0. -1.
         13    1    3    3    0    0 -0.11551744809E+03  0.99192188937E+02 -0.15486769666E+03  0.21718051162E+03  0.00000000000E+00 0. -1.
        -14    1    3    3    0    0 -0.49812328954E+02  0.64118233615E+02 -0.18867214335E+03  0.20540105567E+03  0.00000000000E+00 0.  1.
          5    1    4    4  501    0  0.48858179598E+02  0.31268258194E+01  0.29210927229E+02  0.57163357345E+02  0.41800000000E+01 0. -1.
         -5    1    4    4    0  501  0.89052624878E+02 -0.20415679699E+03  0.22425489876E+03  0.31609824386E+03  0.41800000000E+01 0. -1.
</event>
<event>
11    1  0.8037748E-009  0.1533503E+03  0.7561462E-02  0.1093504E+00
         22   -1    0    0    0    0  0.00000000000E+00  0.00000000000E+00  0.22313724098E+03  0.22313724098E+03  0.00000000000E+00 0. -1.
         22   -1    0    0    0    0 -0.00000000000E+00 -0.00000000000E+00 -0.82126795948E+03  0.82126795948E+03  0.00000000000E+00 0.  1.
        -24    2    1    2    0    0  0.78823226122E+02  0.32481639116E+02 -0.67752326289E+03  0.68769273215E+03  0.81334889468E+02 0.  0.
         25    2    1    2    0    0 -0.15888478992E+03 -0.60624840463E+01 -0.22668856884E+02  0.20357461509E+03  0.12509043391E+03 0.  0.
         24    2    1    2    0    0  0.80061563801E+02 -0.26419155069E+02  0.10206140127E+03  0.15313785322E+03  0.76986016311E+02 0.  0.
        -13    1    5    5    0    0  0.38642534263E+02  0.37435730030E+01 -0.12671319666E+00  0.38823650644E+02  0.00000000000E+00 0.  1.
         14    1    5    5    0    0  0.41419029538E+02 -0.30162728073E+02  0.10218811447E+03  0.11431420258E+03  0.00000000000E+00 0. -1.
         13    1    3    3    0    0 -0.12048214434E+02 -0.76214759626E+01 -0.39708603137E+02  0.42190277671E+02  0.00000000000E+00 0. -1.
        -14    1    3    3    0    0  0.90871440556E+02  0.40103115078E+02 -0.63781465975E+03  0.64550245448E+03  0.00000000000E+00 0.  1.
          5    1    4    4  501    0 -0.60879452112E+02 -0.27191375899E+02  0.46766527271E+02  0.81549120693E+02  0.41800000000E+01 0.  1.
         -5    1    4    4    0  501 -0.98005337811E+02  0.21128891853E+02 -0.69435384155E+02  0.12202549440E+03  0.41800000000E+01 0.  1.
</event>
<event>
11    1  0.8037748E-009  0.4028066E+03  0.7561462E-02  0.9641513E-01
         22   -1    0    0    0    0  0.00000000000E+00  0.00000000000E+00  0.27564699294E+04  0.27564699294E+04  0.00000000000E+00 0. -1.
         22   -1    0    0    0    0 -0.00000000000E+00 -0.00000000000E+00 -0.17990158401E+04  0.17990158401E+04  0.00000000000E+00 0. -1.
        -24    2    1    2    0    0 -0.13589268750E+03  0.35716048194E+03 -0.15776779724E+04  0.16252525183E+04  0.79671396556E+02 0.  0.
         25    2    1    2    0    0  0.18787291533E+03 -0.34510528098E+03  0.19769828565E+02  0.41283529750E+03  0.12509296330E+03 0.  0.
         24    2    1    2    0    0 -0.51980227823E+02 -0.12055200960E+02  0.25153622331E+04  0.25173979536E+04  0.86011751182E+02 0.  0.
        -13    1    5    5    0    0 -0.63037860746E+01 -0.29000621949E+02  0.29246647350E+03  0.29396838591E+03  0.00000000000E+00 0.  1.
         14    1    5    5    0    0 -0.45676441748E+02  0.16945420989E+02  0.22228957596E+04  0.22234295677E+04  0.00000000000E+00 0. -1.
         11    1    3    3    0    0 -0.13365344219E+03  0.25833675876E+03 -0.11355866204E+04  0.11722448959E+04  0.00000000000E+00 0. -1.
        -12    1    3    3    0    0 -0.22392453134E+01  0.98823723182E+02 -0.44209135201E+03  0.45300762246E+03  0.00000000000E+00 0.  1.
          5    1    4    4  501    0  0.39811421433E+02 -0.10971886857E+03  0.60868330164E+02  0.13170271605E+03  0.41800000000E+01 0.  1.
         -5    1    4    4    0  501  0.14806149389E+03 -0.23538641241E+03 -0.41098501599E+02  0.28113258145E+03  0.41800000000E+01 0.  1.
</event>
<event>
11    1  0.8037748E-009  0.4502710E+03  0.7561462E-02  0.9512068E-01
         22   -1    0    0    0    0  0.00000000000E+00  0.00000000000E+00  0.14531476047E+04  0.14531476047E+04  0.00000000000E+00 0. -1.
         22   -1    0    0    0    0 -0.00000000000E+00 -0.00000000000E+00 -0.58443754200E+03  0.58443754200E+03  0.00000000000E+00 0. -1.
         24    2    1    2    0    0  0.32419258173E+02  0.18945118478E+03 -0.25037585234E+03  0.32682470733E+03  0.84755897533E+02 0.  0.
         25    2    1    2    0    0  0.55652155033E+02 -0.58769626759E+03  0.10196817152E+03  0.61198845816E+03  0.12509316375E+03 0.  0.
        -24    2    1    2    0    0 -0.88071413207E+02  0.39824508281E+03  0.10171177435E+04  0.10987719812E+04  0.80097707041E+02 0.  0.
        -11    1    3    3    0    0  0.34956277649E+02  0.67948296036E+02 -0.15328047320E+03  0.17127117605E+03  0.00000000000E+00 0.  1.
         12    1    3    3    0    0 -0.25370194761E+01  0.12150288874E+03 -0.97095379142E+02  0.15555353127E+03  0.00000000000E+00 0. -1.
         13    1    5    5    0    0 -0.15030020145E+02  0.19842436026E+03  0.56704896317E+03  0.60095145801E+03  0.00000000000E+00 0. -1.
        -14    1    5    5    0    0 -0.73041393061E+02  0.19982072256E+03  0.45006878032E+03  0.49782052316E+03  0.00000000000E+00 0.  1.
          5    1    4    4  501    0 -0.25860587302E+02 -0.35874244967E+03  0.74960466266E+02  0.36742544696E+03  0.41800000000E+01 0.  1.
         -5    1    4    4    0  501  0.81512742335E+02 -0.22895381792E+03  0.27007705251E+02  0.24456301120E+03  0.41800000000E+01 0.  1.
</event>
<event>
11    1  0.8037748E-009  0.1448887E+03  0.7561462E-02  0.1102219E+00
         22   -1    0    0    0    0  0.00000000000E+00  0.00000000000E+00  0.34657183713E+04  0.34657183713E+04  0.00000000000E+00 0.  1.
         22   -1    0    0    0    0 -0.00000000000E+00 -0.00000000000E+00 -0.77373657388E+02  0.77373657388E+02  0.00000000000E+00 0.  1.
        -24    2    1    2    0    0 -0.24934000216E+02 -0.66184704780E+02 -0.98128785366E+01  0.10825172082E+03  0.81363523527E+02 0.  0.
         25    2    1    2    0    0 -0.32830387958E+02  0.10776501214E+03  0.38977982812E+03  0.42458008542E+03  0.12509517301E+03 0.  0.
         24    2    1    2    0    0  0.57764388174E+02 -0.41580307363E+02  0.30083777643E+04  0.30102602224E+04  0.79146620068E+02 0.  0.
        -11    1    5    5    0    0  0.67126451921E+02 -0.25543400168E+02  0.14550944738E+04  0.14568659353E+04  0.00000000000E+00 0.  1.
         12    1    5    5    0    0 -0.93620637470E+01 -0.16036907195E+02  0.15532832905E+04  0.15533942871E+04  0.00000000000E+00 0. -1.
         13    1    3    3    0    0  0.42910947566E+01 -0.29867385978E+02  0.33171817402E+02  0.44842432016E+02  0.00000000000E+00 0. -1.
        -14    1    3    3    0    0 -0.29225094973E+02 -0.36317318801E+02 -0.42984695938E+02  0.63409288799E+02  0.00000000000E+00 0.  1.
          5    1    4    4  501    0 -0.12121335559E+01  0.86359979061E+02  0.99723303034E+02  0.13199138161E+03  0.41800000000E+01 0. -1.
         -5    1    4    4    0  501 -0.31618254402E+02  0.21405033081E+02  0.29005652509E+03  0.29258870381E+03  0.41800000000E+01 0. -1.
</event>
<event>
11    1  0.8037748E-009  0.1278150E+03  0.7561462E-02  0.1121983E+00
         22   -1    0    0    0    0  0.00000000000E+00  0.00000000000E+00  0.27420356912E+03  0.27420356912E+03  0.00000000000E+00 0. -1.
         22   -1    0    0    0    0 -0.00000000000E+00 -0.00000000000E+00 -0.11878041227E+04  0.11878041227E+04  0.00000000000E+00 0.  1.
         24    2    1    2    0    0 -0.39870203233E+01  0.11932013519E+01 -0.11069927282E+04  0.11089610207E+04  0.65911494633E+02 0.  0.
         25    2    1    2    0    0 -0.91308351518E+01 -0.24080617868E+02 -0.11342978811E+02  0.12821346039E+03  0.12508708946E+03 0.  0.
        -24    2    1    2    0    0  0.13117855475E+02  0.22887416516E+02  0.20473515340E+03  0.22483321074E+03  0.89093084165E+02 0.  0.
        -11    1    3    3    0    0 -0.90430973832E+01  0.25550962027E+01 -0.11008468512E+04  0.11008869587E+04  0.00000000000E+00 0.  1.
         12    1    3    3    0    0  0.50560770599E+01 -0.13618948508E+01 -0.61458770227E+01  0.80740620012E+01  0.00000000000E+00 0. -1.
         13    1    5    5    0    0  0.15520773995E+02  0.39113251426E+02  0.20412691497E+03  0.20841914086E+03  0.00000000000E+00 0. -1.
        -14    1    5    5    0    0 -0.24029185201E+01 -0.16225834910E+02  0.60823843115E+00  0.16414069877E+02  0.00000000000E+00 0.  1.
          5    1    4    4  501    0 -0.41113143777E+02  0.82327046815E+01 -0.52103358538E+02  0.67009703689E+02  0.41800000000E+01 0. -1.
         -5    1    4    4    0  501  0.31982308625E+02 -0.32313322550E+02  0.40760379726E+02  0.61203756703E+02  0.41800000000E+01 0. -1.
</event>
<event>
11    1  0.8037748E-009  0.1436249E+03  0.7561462E-02  0.1103577E+00
         22   -1    0    0    0    0  0.00000000000E+00  0.00000000000E+00  0.30681123134E+03  0.30681123134E+03  0.00000000000E+00 0.  1.
         22   -1    0    0    0    0 -0.00000000000E+00 -0.00000000000E+00 -0.18611188767E+04  0.18611188767E+04  0.00000000000E+00 0.  1.
        -24    2    1    2    0    0 -0.28475246478E+02 -0.19124613764E+02 -0.13010525749E+04  0.13039936529E+04  0.80529830474E+02 0.  0.
         25    2    1    2    0    0  0.98531713890E+02  0.18363288459E+02 -0.53667623023E+03  0.56010172727E+03  0.12508740862E+03 0.  0.
         24    2    1    2    0    0 -0.70056467413E+02  0.76132530531E+00  0.28342115974E+03  0.30383472792E+03  0.84139763821E+02 0.  0.
        -13    1    5    5    0    0 -0.88272829771E+02  0.71025527531E+01  0.25032481798E+03  0.26552787656E+03  0.00000000000E+00 0.  1.
         14    1    5    5    0    0  0.18216362358E+02 -0.63412274478E+01  0.33096341758E+02  0.38306851357E+02  0.00000000000E+00 0. -1.
         13    1    3    3    0    0 -0.14595929302E+02 -0.43985257264E+02 -0.43276006805E+03  0.43523444315E+03  0.00000000000E+00 0. -1.
        -14    1    3    3    0    0 -0.13879317176E+02  0.24860643500E+02 -0.86829250685E+03  0.86875920973E+03  0.00000000000E+00 0.  1.
          5    1    4    4  501    0  0.41412613484E+02  0.60408418689E+02 -0.39334801841E+03  0.40013037574E+03  0.41800000000E+01 0. -1.
         -5    1    4    4    0  501  0.57119100406E+02 -0.42045130230E+02 -0.14332821182E+03  0.15997135153E+03  0.41800000000E+01 0. -1.
</event>
<event>
11    1  0.8037748E-009  0.2285832E+03  0.7561462E-02  0.1035970E+00
         22   -1    0    0    0    0  0.00000000000E+00  0.00000000000E+00  0.65660212694E+03  0.65660212694E+03  0.00000000000E+00 0.  1.
         22   -1    0    0    0    0 -0.00000000000E+00 -0.00000000000E+00 -0.37565106402E+03  0.37565106402E+03  0.00000000000E+00 0. -1.
        -24    2    1    2    0    0  0.27399259143E+02 -0.45558729153E+02 -0.26056904114E+03  0.27810341322E+03  0.81357028206E+02 0.  0.
         25    2    1    2    0    0  0.13046677196E+03 -0.79884608536E+02  0.31742049949E+02  0.20014446314E+03  0.12508844521E+03 0.  0.
         24    2    1    2    0    0 -0.15786603110E+03  0.12544333769E+03  0.50977805411E+03  0.55400531461E+03  0.79940661806E+02 0.  0.
        -11    1    5    5    0    0 -0.14961932587E+02  0.55545159885E+02  0.14854225621E+03  0.15929195238E+03  0.00000000000E+00 0.  1.
         12    1    5    5    0    0 -0.14290409851E+03  0.69898177803E+02  0.36123579791E+03  0.39471336223E+03  0.00000000000E+00 0. -1.
         13    1    3    3    0    0 -0.65812421392E+01 -0.25113789653E+02 -0.21943712603E+03  0.22096757106E+03  0.00000000000E+00 0. -1.
        -14    1    3    3    0    0  0.33980501282E+02 -0.20444939500E+02 -0.41131915109E+02  0.57135842157E+02  0.00000000000E+00 0.  1.
          5    1    4    4  501    0  0.83517292785E+02 -0.87569331341E+02 -0.27383476810E+02  0.12414045750E+03  0.41800000000E+01 0.  1.
         -5    1    4    4    0  501  0.46949479170E+02  0.76847228050E+01  0.59125526759E+02  0.76004005641E+02  0.41800000000E+01 0.  1.
</event>
<event>
11    1  0.8037748E-009  0.2545315E+03  0.7561462E-02  0.1021513E+00
         22   -1    0    0    0    0  0.00000000000E+00  0.00000000000E+00  0.18811952962E+03  0.18811952962E+03  0.00000000000E+00 0.  1.
         22   -1    0    0    0    0 -0.00000000000E+00 -0.00000000000E+00 -0.11735081732E+04  0.11735081732E+04  0.00000000000E+00 0.  1.
         24    2    1    2    0    0 -0.91517995239E+02  0.26840053531E+03 -0.70957177716E+03  0.76835554013E+03  0.80397377481E+02 0.  0.
         25    2    1    2    0    0  0.13342873592E+03 -0.11037744744E+03 -0.33872215743E+03  0.40045671474E+03  0.12508585840E+03 0.  0.
        -24    2    1    2    0    0 -0.41910740680E+02 -0.15802308786E+03  0.62905291011E+02  0.19281544794E+03  0.80578625247E+02 0.  0.
        -11    1    3    3    0    0 -0.61583840806E+02  0.20576635730E+03 -0.43489569613E+03  0.48504291538E+03  0.00000000000E+00 0.  1.
         12    1    3    3    0    0 -0.29934154434E+02  0.62634178005E+02 -0.27467608103E+03  0.28331262475E+03  0.00000000000E+00 0. -1.
         11    1    5    5    0    0  0.19338792501E+02 -0.77183936280E+02  0.39002581116E+02  0.88614616452E+02  0.00000000000E+00 0. -1.
        -12    1    5    5    0    0 -0.61249533181E+02 -0.80839151581E+02  0.23902709895E+02  0.10420083149E+03  0.00000000000E+00 0.  1.
          5    1    4    4  501    0  0.85304289474E+01 -0.54098382721E+01 -0.15229139794E+03  0.15268325663E+03  0.41800000000E+01 0. -1.
         -5    1    4    4    0  501  0.12489830697E+03 -0.10496760917E+03 -0.18643075949E+03  0.24777345811E+03  0.41800000000E+01 0. -1.
</event>
<event>
11    1  0.8037748E-009  0.1313470E+03  0.7561462E-02  0.1117625E+00
         22   -1    0    0    0    0  0.00000000000E+00  0.00000000000E+00  0.66035682367E+03  0.66035682367E+03  0.00000000000E+00 0. -1.
         22   -1    0    0    0    0 -0.00000000000E+00 -0.00000000000E+00 -0.91368883401E+03  0.91368883401E+03  0.00000000000E+00 0. -1.
         24    2    1    2    0    0 -0.10469516875E+01  0.28225450629E+02 -0.79704715020E+03  0.80137940849E+03  0.78275312444E+02 0.  0.
         25    2    1    2    0    0  0.31096034095E+02 -0.53889505561E+02 -0.67322606708E+02  0.15508040047E+03  0.12508619064E+03 0.  0.
        -24    2    1    2    0    0 -0.30049082408E+02  0.25664054932E+02  0.61103774657E+03  0.61758584872E+03  0.80520567139E+02 0.  0.
        -11    1    3    3    0    0 -0.18358518151E+02  0.23962858958E+02 -0.10904275840E+03  0.11314405401E+03  0.00000000000E+00 0.  1.
         12    1    3    3    0    0  0.17311566464E+02  0.42625916713E+01 -0.68800439180E+03  0.68823535448E+03  0.00000000000E+00 0. -1.
         13    1    5    5    0    0 -0.23255100874E+02  0.44843566577E+02  0.56498052965E+03  0.56723429381E+03  0.00000000000E+00 0. -1.
        -14    1    5    5    0    0 -0.67939815334E+01 -0.19179511645E+02  0.46057216920E+02  0.50351554915E+02  0.00000000000E+00 0.  1.
          5    1    4    4  501    0 -0.41811500582E+02  0.20772831598E+01 -0.17679134689E+01  0.42108367390E+02  0.41800000000E+01 0.  1.
         -5    1    4    4    0  501  0.72907534677E+02 -0.55966788721E+02 -0.65554693239E+02  0.11297203308E+03  0.41800000000E+01 0.  1.
</event>
<event>
11    1  0.8037748E-009  0.1513960E+03  0.7561462E-02  0.1095461E+00
         22   -1    0    0    0    0  0.00000000000E+00  0.00000000000E+00  0.39266741817E+03  0.39266741817E+03  0.00000000000E+00 0. -1.
         22   -1    0    0    0    0 -0.00000000000E+00 -0.00000000000E+00 -0.20546084552E+04  0.20546084552E+04  0.00000000000E+00 0.  1.
        -24    2    1    2    0    0 -0.51868263945E+02  0.31034766500E+02 -0.17565860194E+04  0.17594144349E+04  0.79317315851E+02 0.  0.
         25    2    1    2    0    0  0.11614423487E+03 -0.84262642940E+02 -0.25606411042E+03  0.31907263798E+03  0.12509533713E+03 0.  0.
         24    2    1    2    0    0 -0.64275970922E+02  0.53227876440E+02  0.35070909277E+03  0.36878880053E+03  0.77741265612E+02 0.  0.
        -11    1    5    5    0    0  0.77639297028E+01 -0.12585247460E+02  0.71711097600E+02  0.73219864635E+02  0.00000000000E+00 0.  1.
         12    1    5    5    0    0 -0.72039900625E+02  0.65813123900E+02  0.27899799517E+03  0.29556893589E+03  0.00000000000E+00 0. -1.
         11    1    3    3    0    0 -0.30983991225E+02 -0.20478621061E+02 -0.40910303890E+03  0.41078544043E+03  0.00000000000E+00 0. -1.
        -12    1    3    3    0    0 -0.20884272720E+02  0.51513387561E+02 -0.13474829805E+04  0.13486289945E+04  0.00000000000E+00 0.  1.
          5    1    4    4  501    0  0.13224636805E+03 -0.33466083599E+02 -0.19343207779E+03  0.23673301783E+03  0.41800000000E+01 0. -1.
         -5    1    4    4    0  501 -0.16102133183E+02 -0.50796559340E+02 -0.62632032631E+02  0.82339620143E+02  0.41800000000E+01 0. -1.
</event>
<event>
11    1  0.8037748E-009  0.1994765E+03  0.7561462E-02  0.1054894E+00
         22   -1    0    0    0    0  0.00000000000E+00  0.00000000000E+00  0.16517852185E+03  0.16517852185E+03  0.00000000000E+00 0.  1.
         22   -1    0    0    0    0 -0.00000000000E+00 -0.00000000000E+00 -0.95022663605E+03  0.95022663605E+03  0.00000000000E+00 0. -1.
        -24    2    1    2    0    0  0.10392911400E+02  0.71038112759E+02 -0.53228607427E+03  0.54291820449E+03  0.79229324311E+02 0.  0.
         25    2    1    2    0    0  0.78113739104E+02 -0.18958719887E+03 -0.31269566773E+03  0.39429868971E+03  0.12509122224E+03 0.  0.
         24    2    1    2    0    0 -0.88506650504E+02  0.11854908611E+03  0.59933627798E+02  0.17818826369E+03  0.79194094312E+02 0.  0.
        -13    1    5    5    0    0 -0.69385276449E+02  0.94951668494E+02  0.79597172865E+02  0.14200649938E+03  0.00000000000E+00 0.  1.
         14    1    5    5    0    0 -0.19121374056E+02  0.23597417619E+02 -0.19663545067E+02  0.36181764311E+02  0.00000000000E+00 0. -1.
         13    1    3    3    0    0 -0.27509874796E+02  0.61825358615E+02 -0.35496086751E+03  0.36135354660E+03  0.00000000000E+00 0. -1.
        -14    1    3    3    0    0  0.37902786196E+02  0.92127541441E+01 -0.17732520676E+03  0.18156465789E+03  0.00000000000E+00 0.  1.
          5    1    4    4  501    0  0.69448779788E+02 -0.13239460526E+03 -0.29957868825E+03  0.33483776276E+03  0.41800000000E+01 0.  1.
         -5    1    4    4    0  501  0.86649593165E+01 -0.57192593609E+02 -0.13116979478E+02  0.59460926954E+02  0.41800000000E+01 0.  1.
</event>
<event>
11    1  0.8037748E-009  0.1355922E+03  0.7561462E-02  0.1112583E+00
         22   -1    0    0    0    0  0.00000000000E+00  0.00000000000E+00  0.11708173761E+03  0.11708173761E+03  0.00000000000E+00 0.  1.
         22   -1    0    0    0    0 -0.00000000000E+00 -0.00000000000E+00 -0.19856122028E+04  0.19856122028E+04  0.00000000000E+00 0.  1.
         24    2    1    2    0    0 -0.45927914598E+02 -0.46833868348E+02 -0.13738941580E+04  0.13779851095E+04  0.83396762777E+02 0.  0.
         25    2    1    2    0    0  0.24800951369E+02 -0.18426997750E+02 -0.57706420697E+03  0.59127432895E+03  0.12509033406E+03 0.  0.
        -24    2    1    2    0    0  0.21126963230E+02  0.65260866099E+02  0.82427899770E+02  0.13343450198E+03  0.79404524040E+02 0.  0.
        -11    1    3    3    0    0 -0.62923772812E+02 -0.57321056355E+02 -0.10297120703E+04  0.10332241056E+04  0.00000000000E+00 0.  1.
         12    1    3    3    0    0  0.16995858213E+02  0.10487188006E+02 -0.34418208769E+03  0.34476100388E+03  0.00000000000E+00 0. -1.
         11    1    5    5    0    0  0.23284587219E+02 -0.83623301097E+01  0.26935957359E+01  0.24886864503E+02  0.00000000000E+00 0. -1.
        -12    1    5    5    0    0 -0.21576239893E+01  0.73623196208E+02  0.79734304034E+02  0.10854763747E+03  0.00000000000E+00 0.  1.
          5    1    4    4  501    0  0.74801156404E+02  0.12537694270E+01 -0.32988899265E+03  0.33829130170E+03  0.41800000000E+01 0.  1.
         -5    1    4    4    0  501 -0.50000205036E+02 -0.19680767177E+02 -0.24717521433E+03  0.25298302725E+03  0.41800000000E+01 0.  1.
</event>
<event>
11    1  0.1249311E-008  0.1777318E+03  0.7561462E-02  0.1071492E+00
         22   -1    0    0    0    0  0.00000000000E+00  0.00000000000E+00  0.33524063218E+03  0.33524063218E+03  0.00000000000E+00 0. -1.
         22   -1    0    0    0    0 -0.00000000000E+00 -0.00000000000E+00 -0.11067912151E+04  0.11067912151E+04  0.00000000000E+00 0. -1.
         24    2    1    2    0    0  0.38348781929E+02  0.29012058763E+02 -0.68390089289E+03  0.69071881651E+03  0.84022161104E+02 0.  0.
         25    2    1    2    0    0  0.87230517831E+02 -0.35110011128E+01 -0.38674868354E+03  0.41574368158E+03  0.12508706642E+03 0.  0.
        -24    2    1    2    0    0 -0.12557929976E+03 -0.25501057650E+02  0.29909899352E+03  0.33556934917E+03  0.82012899651E+02 0.  0.
        -13    1    3    3    0    0  0.38605000222E+02 -0.20522951096E+02 -0.22963399313E+03  0.23375908189E+03  0.00000000000E+00 0.  1.
         14    1    3    3    0    0 -0.25621829298E+00  0.49535009859E+02 -0.45426689976E+03  0.45695973463E+03  0.00000000000E+00 0. -1.
         11    1    5    5    0    0 -0.13438840298E+03 -0.17847722485E+02  0.24289576840E+03  0.27816746460E+03  0.00000000000E+00 0. -1.
        -12    1    5    5    0    0  0.88091032234E+01 -0.76533351645E+01  0.56203225115E+02  0.57401884569E+02  0.00000000000E+00 0.  1.
          5    1    4    4  501    0  0.41754502227E+02  0.55695583971E+02 -0.25385163843E+03  0.26325569940E+03  0.41800000000E+01 0.  1.
         -5    1    4    4    0  501  0.45476015604E+02 -0.59206585084E+02 -0.13289704511E+03  0.15248798219E+03  0.41800000000E+01 0.  1.
</event>
<event>
11    1  0.8037748E-009  0.1510470E+03  0.7561462E-02  0.1095814E+00
         22   -1    0    0    0    0  0.00000000000E+00  0.00000000000E+00  0.14496546157E+04  0.14496546157E+04  0.00000000000E+00 0.  1.
         22   -1    0    0    0    0 -0.00000000000E+00 -0.00000000000E+00 -0.12081648328E+03  0.12081648328E+03  0.00000000000E+00 0.  1.
        -24    2    1    2    0    0 -0.49428988990E+02 -0.37262763456E+02  0.32092489997E+02  0.10538542354E+03  0.79021649484E+02 0.  0.
         25    2    1    2    0    0  0.12757015194E+03  0.73414550703E+01  0.16205203075E+02  0.17954963023E+03  0.12508964977E+03 0.  0.
         24    2    1    2    0    0 -0.78141162950E+02  0.29921308386E+02  0.12805404393E+04  0.12855360452E+04  0.76274377646E+02 0.  0.
        -13    1    5    5    0    0 -0.56243649483E+02  0.42156509484E+02  0.53801116253E+03  0.54258320136E+03  0.00000000000E+00 0.  1.
         14    1    5    5    0    0 -0.21897513467E+02 -0.12235201098E+02  0.74252927680E+03  0.74295284383E+03  0.00000000000E+00 0. -1.
         13    1    3    3    0    0  0.21606988042E+02 -0.47410786687E+01  0.93507014690E+01  0.24016148258E+02  0.00000000000E+00 0. -1.
        -14    1    3    3    0    0 -0.71035977032E+02 -0.32521684788E+02  0.22741788528E+02  0.81369275281E+02  0.00000000000E+00 0.  1.
          5    1    4    4  501    0  0.33218016533E+02  0.40446599306E+02  0.51386681810E+02  0.73467186453E+02  0.41800000000E+01 0. -1.
         -5    1    4    4    0  501  0.94352135407E+02 -0.33105144236E+02 -0.35181478736E+02  0.10608244377E+03  0.41800000000E+01 0. -1.
</event>
<event>
11    1  0.8037748E-009  0.1372133E+03  0.7561462E-02  0.1110711E+00
         22   -1    0    0    0    0  0.00000000000E+00  0.00000000000E+00  0.11384123025E+03  0.11384123025E+03  0.00000000000E+00 0.  1.
         22   -1    0    0    0    0 -0.00000000000E+00 -0.00000000000E+00 -0.22895284028E+04  0.22895284028E+04  0.00000000000E+00 0.  1.
        -24    2    1    2    0    0  0.21327452194E+02  0.10967688275E+02 -0.71331137738E+03  0.71833069168E+03  0.81306279635E+02 0.  0.
         25    2    1    2    0    0 -0.60406700692E+02 -0.51177700239E+02 -0.15483453798E+04  0.15554065495E+04  0.12509193646E+03 0.  0.
         24    2    1    2    0    0  0.39079248498E+02  0.40210011964E+02  0.85969584608E+02  0.12963239189E+03  0.79181783417E+02 0.  0.
        -13    1    5    5    0    0 -0.51508968289E+01 -0.68985781610E+01  0.58978407805E+02  0.59603478976E+02  0.00000000000E+00 0.  1.
         14    1    5    5    0    0  0.44230145327E+02  0.47108590125E+02  0.26991176802E+02  0.70028912918E+02  0.00000000000E+00 0. -1.
         13    1    3    3    0    0  0.22554095194E+01 -0.16324551414E+02 -0.30161966141E+02  0.34370365905E+02  0.00000000000E+00 0. -1.
        -14    1    3    3    0    0  0.19072042674E+02  0.27292239689E+02 -0.68314941124E+03  0.68396032578E+03  0.00000000000E+00 0.  1.
          5    1    4    4  501    0 -0.73930593850E+02  0.14554232511E+02 -0.60903141319E+03  0.61368908500E+03  0.41800000000E+01 0.  1.
         -5    1    4    4    0  501  0.13523893158E+02 -0.65731932750E+02 -0.93931396663E+03  0.94171746451E+03  0.41800000000E+01 0.  1.
</event>
<event>
11    1  0.8037748E-009  0.1543241E+03  0.7561462E-02  0.1092541E+00
         22   -1    0    0    0    0  0.00000000000E+00  0.00000000000E+00  0.69834203560E+03  0.69834203560E+03  0.00000000000E+00 0. -1.
         22   -1    0    0    0    0 -0.00000000000E+00 -0.00000000000E+00 -0.37059195883E+03  0.37059195883E+03  0.00000000000E+00 0.  1.
        -24    2    1    2    0    0  0.11291006032E+03 -0.67875148266E+02 -0.32407502588E+03  0.35927350478E+03  0.81835880666E+02 0.  0.
         25    2    1    2    0    0 -0.36358171350E+02 -0.13397198656E+02  0.20886956771E+03  0.24652587322E+03  0.12508840192E+03 0.  0.
         24    2    1    2    0    0 -0.76551888966E+02  0.81272346922E+02  0.44295553493E+03  0.46313461644E+03  0.76280278834E+02 0.  0.
        -11    1    5    5    0    0 -0.74998776308E+02  0.25212403187E+02  0.25593929351E+03  0.26789065621E+03  0.00000000000E+00 0.  1.
         12    1    5    5    0    0 -0.15531126580E+01  0.56059943735E+02  0.18701624142E+03  0.19524396022E+03  0.00000000000E+00 0. -1.
         13    1    3    3    0    0 -0.75503317652E+00 -0.26067153877E+02 -0.23071730054E+02  0.34819122821E+02  0.00000000000E+00 0. -1.
        -14    1    3    3    0    0  0.11366509349E+03 -0.41807994389E+02 -0.30100329582E+03  0.32445438196E+03  0.00000000000E+00 0.  1.
          5    1    4    4  501    0 -0.61260422059E+02 -0.50566077187E+02  0.16758699177E+03  0.18550644108E+03  0.41800000000E+01 0. -1.
         -5    1    4    4    0  501  0.24902250709E+02  0.37168878532E+02  0.41282575946E+02  0.61019432138E+02  0.41800000000E+01 0. -1.
</event>
<event>
11    1  0.8037748E-009  0.1304269E+03  0.7561462E-02  0.1118746E+00
         22   -1    0    0    0    0  0.00000000000E+00  0.00000000000E+00  0.41467718763E+03  0.41467718763E+03  0.00000000000E+00 0.  1.
         22   -1    0    0    0    0 -0.00000000000E+00 -0.00000000000E+00 -0.39424599339E+03  0.39424599339E+03  0.00000000000E+00 0.  1.
         24    2    1    2    0    0 -0.21188279168E+02  0.30607528115E+02 -0.35058247747E+03  0.36170090702E+03  0.80831359529E+02 0.  0.
         25    2    1    2    0    0  0.13591715075E+02 -0.29289560800E+02  0.96778368490E+02  0.16140201709E+03  0.12506776332E+03 0.  0.
        -24    2    1    2    0    0  0.75965640929E+01 -0.13179673147E+01  0.27423530322E+03  0.28582025691E+03  0.80179629010E+02 0.  0.
        -11    1    3    3    0    0 -0.28404850035E+02  0.54934104859E+02 -0.27846638975E+03  0.28525098002E+03  0.00000000000E+00 0.  1.
         12    1    3    3    0    0  0.72165708667E+01 -0.24326576744E+02 -0.72116087713E+02  0.76449926999E+02  0.00000000000E+00 0. -1.
         11    1    5    5    0    0 -0.40252660672E+01  0.17723761154E+02  0.10194920653E+02  0.20839167053E+02  0.00000000000E+00 0. -1.
        -12    1    5    5    0    0  0.11621830160E+02 -0.19041728469E+02  0.26404038256E+03  0.26498108986E+03  0.00000000000E+00 0.  1.
          5    1    4    4  501    0  0.36240229583E+02 -0.71852985405E+02  0.56187930589E+02  0.98238290374E+02  0.41800000000E+01 0.  1.
         -5    1    4    4    0  501 -0.22648514508E+02  0.42563424605E+02  0.40590437901E+02  0.63163726715E+02  0.41800000000E+01 0.  1.
</event>
<event>
11    1  0.8037748E-009  0.1676399E+03  0.7561462E-02  0.1080104E+00
         22   -1    0    0    0    0  0.00000000000E+00  0.00000000000E+00  0.15506142334E+03  0.15506142334E+03  0.00000000000E+00 0. -1.
         22   -1    0    0    0    0 -0.00000000000E+00 -0.00000000000E+00 -0.15248312881E+04  0.15248312881E+04  0.00000000000E+00 0. -1.
         24    2    1    2    0    0 -0.71469981024E+01  0.33373963360E+02 -0.12492393604E+04  0.12522847203E+04  0.80331438331E+02 0.  0.
         25    2    1    2    0    0  0.98764710788E+02 -0.90927842338E+02 -0.19966935032E+03  0.27117812143E+03  0.12508950188E+03 0.  0.
        -24    2    1    2    0    0 -0.91617712685E+02  0.57553878978E+02  0.79138845981E+02  0.15642986974E+03  0.80629355319E+02 0.  0.
        -11    1    3    3    0    0  0.22979012929E+02 -0.11312603961E+02 -0.19585623955E+03  0.19752386341E+03  0.00000000000E+00 0.  1.
         12    1    3    3    0    0 -0.30126011032E+02  0.44686567321E+02 -0.10533831209E+04  0.10547608569E+04  0.00000000000E+00 0. -1.
         11    1    5    5    0    0 -0.83245523418E+02  0.75836671885E+01  0.41583481488E+02  0.93362278838E+02  0.00000000000E+00 0. -1.
        -12    1    5    5    0    0 -0.83721892677E+01  0.49970211789E+02  0.37555364493E+02  0.63067590898E+02  0.00000000000E+00 0.  1.
          5    1    4    4  501    0  0.24557032848E+02  0.31261123816E+02 -0.35629313929E+02  0.53546485745E+02  0.41800000000E+01 0.  1.
         -5    1    4    4    0  501  0.74207677940E+02 -0.12218896615E+03 -0.16404003639E+03  0.21763163569E+03  0.41800000000E+01 0.  1.
</event>
<event>
11    1  0.8037748E-009  0.1275686E+03  0.7561462E-02  0.1122293E+00
         22   -1    0    0    0    0  0.00000000000E+00  0.00000000000E+00  0.72010958967E+02  0.72010958967E+02  0.00000000000E+00 0.  1.
         22   -1    0    0    0    0 -0.00000000000E+00 -0.00000000000E+00 -0.24715843647E+04  0.24715843647E+04  0.00000000000E+00 0.  1.
        -24    2    1    2    0    0 -0.10891243049E+02 -0.20943475041E+02 -0.17756645750E+04  0.17778120713E+04  0.84106062816E+02 0.  0.
         25    2    1    2    0    0 -0.77169637121E+01  0.39880111713E+02 -0.65968611556E+03  0.67266857010E+03  0.12508900548E+03 0.  0.
         24    2    1    2    0    0  0.18608206761E+02 -0.18936636672E+02  0.35777284788E+02  0.93114682262E+02  0.81764713530E+02 0.  0.
        -11    1    5    5    0    0  0.50286041983E+02 -0.48522141561E+01  0.15008590330E+02  0.52701876477E+02  0.00000000000E+00 0.  1.
         12    1    5    5    0    0 -0.31677835222E+02 -0.14084422516E+02  0.20768694457E+02  0.40412805785E+02  0.00000000000E+00 0. -1.
         13    1    3    3    0    0 -0.24533496865E+01 -0.18631236003E+02 -0.82033716906E+02  0.84158615656E+02  0.00000000000E+00 0. -1.
        -14    1    3    3    0    0 -0.84378933627E+01 -0.23122390387E+01 -0.16936308581E+04  0.16936534557E+04  0.00000000000E+00 0.  1.
          5    1    4    4  501    0 -0.32155936967E+02  0.57837691346E+02 -0.61462780579E+03  0.61819415629E+03  0.41800000000E+01 0. -1.
         -5    1    4    4    0  501  0.24438973255E+02 -0.17957579632E+02 -0.45058309778E+02  0.54474413811E+02  0.41800000000E+01 0. -1.
</event>
<event>
11    1  0.8037748E-009  0.1508964E+03  0.7561462E-02  0.1095966E+00
         22   -1    0    0    0    0  0.00000000000E+00  0.00000000000E+00  0.91603747141E+03  0.91603747141E+03  0.00000000000E+00 0.  1.
         22   -1    0    0    0    0 -0.00000000000E+00 -0.00000000000E+00 -0.95126885336E+03  0.95126885336E+03  0.00000000000E+00 0. -1.
         24    2    1    2    0    0 -0.16851766544E+02 -0.50168524796E+02 -0.83354029102E+03  0.83914615621E+03  0.81092489238E+02 0.  0.
         25    2    1    2    0    0  0.97986644064E+02  0.69473784688E+02 -0.43115809447E+02  0.17870209615E+03  0.12508987558E+03 0.  0.
        -24    2    1    2    0    0 -0.81134877519E+02 -0.19305259892E+02  0.84142471852E+03  0.84945807241E+03  0.81411905996E+02 0.  0.
        -13    1    3    3    0    0  0.27254941939E+02  0.31069705998E+01 -0.26415567902E+03  0.26557618095E+03  0.00000000000E+00 0.  1.
         14    1    3    3    0    0 -0.44106708483E+02 -0.53275495395E+02 -0.56938461200E+03  0.57356997526E+03  0.00000000000E+00 0. -1.
         11    1    5    5    0    0  0.86996348230E+01  0.81017262254E+01  0.27836014829E+03  0.27861387936E+03  0.00000000000E+00 0. -1.
        -12    1    5    5    0    0 -0.89834512342E+02 -0.27406986118E+02  0.56306457023E+03  0.57084419305E+03  0.00000000000E+00 0.  1.
          5    1    4    4  501    0  0.79122734982E+02 -0.17455754787E+02 -0.37761679465E+02  0.89490376031E+02  0.41800000000E+01 0.  1.
         -5    1    4    4    0  501  0.18863909082E+02  0.86929539475E+02 -0.53541299823E+01  0.89211720122E+02  0.41800000000E+01 0.  1.
</event>
<event>
11    1  0.8037748E-009  0.1600980E+03  0.7561462E-02  0.1086985E+00
         22   -1    0    0    0    0  0.00000000000E+00  0.00000000000E+00  0.77149674181E+03  0.77149674181E+03  0.00000000000E+00 0.  1.
         22   -1    0    0    0    0 -0.00000000000E+00 -0.00000000000E+00 -0.72704931689E+03  0.72704931689E+03  0.00000000000E+00 0. -1.
        -24    2    1    2    0    0 -0.17350090144E+02  0.98410861311E+02 -0.70046338645E+03  0.71207632519E+03  0.80112507714E+02 0.  0.
         25    2    1    2    0    0  0.81626984884E+01 -0.99756913982E+02  0.38557375030E+03  0.41753034939E+03  0.12508558753E+03 0.  0.
         24    2    1    2    0    0  0.91873916554E+01  0.13460526712E+01  0.35933706107E+03  0.36893938412E+03  0.83107915829E+02 0.  0.
        -13    1    5    5    0    0 -0.13944757162E+02  0.32194316796E+02  0.26042493324E+03  0.26277761727E+03  0.00000000000E+00 0.  1.
         14    1    5    5    0    0  0.23132148817E+02 -0.30848264125E+02  0.98912127830E+02  0.10616176685E+03  0.00000000000E+00 0. -1.
         13    1    3    3    0    0  0.31953663144E+02  0.34780039328E+02 -0.28491475706E+03  0.28880288522E+03  0.00000000000E+00 0. -1.
        -14    1    3    3    0    0 -0.49303753288E+02  0.63630821982E+02 -0.41554862939E+03  0.42327343997E+03  0.00000000000E+00 0.  1.
          5    1    4    4  501    0 -0.41634299228E+02 -0.76091386386E+01  0.48367850376E+02  0.64406794774E+02  0.41800000000E+01 0. -1.
         -5    1    4    4    0  501  0.49796997716E+02 -0.92147775343E+02  0.33720589992E+03  0.35312355462E+03  0.41800000000E+01 0. -1.
</event>
<event>
11    1  0.8037748E-009  0.2547915E+03  0.7561462E-02  0.1021377E+00
         22   -1    0    0    0    0  0.00000000000E+00  0.00000000000E+00  0.67983323739E+03  0.67983323739E+03  0.00000000000E+00 0. -1.
         22   -1    0    0    0    0 -0.00000000000E+00 -0.00000000000E+00 -0.18902083598E+04  0.18902083598E+04  0.00000000000E+00 0. -1.
        -24    2    1    2    0    0  0.57584619995E+02 -0.75820683879E+02 -0.17665932310E+04  0.17715207544E+04  0.91484288045E+02 0.  0.
         25    2    1    2    0    0  0.17679325488E+03  0.82153923703E+02  0.53216709825E+02  0.23765990020E+03  0.12508032541E+03 0.  0.
         24    2    1    2    0    0 -0.23437787487E+03 -0.63332398238E+01  0.50300139877E+03  0.56086094257E+03  0.81126392579E+02 0.  0.
        -11    1    5    5    0    0 -0.99036281804E+01  0.29287976658E+01  0.91009822801E+02  0.91593927491E+02  0.00000000000E+00 0.  1.
         12    1    5    5    0    0 -0.22447424669E+03 -0.92620374896E+01  0.41199157597E+03  0.46926701508E+03  0.00000000000E+00 0. -1.
         13    1    3    3    0    0 -0.17109749874E+02 -0.34712430157E+02 -0.87637265291E+03  0.87722672276E+03  0.00000000000E+00 0. -1.
        -14    1    3    3    0    0  0.74694369869E+02 -0.41108253722E+02 -0.89022057812E+03  0.89429403169E+03  0.00000000000E+00 0.  1.
          5    1    4    4  501    0  0.13713366139E+02  0.37414867549E+02  0.55543213496E+02  0.68486857790E+02  0.41800000000E+01 0. -1.
         -5    1    4    4    0  501  0.16307988874E+03  0.44739056154E+02 -0.23265036710E+01  0.16917304241E+03  0.41800000000E+01 0. -1.
</event>
<event>
11    1  0.8037748E-009  0.2287793E+03  0.7561462E-02  0.1035853E+00
         22   -1    0    0    0    0  0.00000000000E+00  0.00000000000E+00  0.35186160068E+03  0.35186160068E+03  0.00000000000E+00 0. -1.
         22   -1    0    0    0    0 -0.00000000000E+00 -0.00000000000E+00 -0.55128516604E+03  0.55128516604E+03  0.00000000000E+00 0.  1.
         24    2    1    2    0    0  0.13954443706E+03  0.10814020317E+03 -0.22625277791E+03  0.29810461246E+03  0.80678912975E+02 0.  0.
         25    2    1    2    0    0 -0.13935527206E+03 -0.16773865429E+03 -0.22307468200E+03  0.33610414021E+03  0.12509009283E+03 0.  0.
        -24    2    1    2    0    0 -0.18916500409E+00  0.59598451118E+02  0.24990389455E+03  0.26893801404E+03  0.79521617976E+02 0.  0.
        -13    1    3    3    0    0  0.89286078394E+02  0.11054516031E+03 -0.14887145527E+03  0.20580317407E+03  0.00000000000E+00 0.  1.
         14    1    3    3    0    0  0.50258358666E+02 -0.24049571360E+01 -0.77381322644E+02  0.92301438390E+02  0.00000000000E+00 0. -1.
         13    1    5    5    0    0  0.25944387144E+02  0.65456919234E+02  0.20378998100E+03  0.21561093631E+03  0.00000000000E+00 0. -1.
        -14    1    5    5    0    0 -0.26133552148E+02 -0.58584681164E+01  0.46113913556E+02  0.53327077737E+02  0.00000000000E+00 0.  1.
          5    1    4    4  501    0 -0.11078982005E+03 -0.16473819165E+03 -0.23234149524E+03  0.30563556538E+03  0.41800000000E+01 0.  1.
         -5    1    4    4    0  501 -0.28565452008E+02 -0.30004626447E+01  0.92668132444E+01  0.30468574831E+02  0.41800000000E+01 0.  1.
</event>
<event>
11    1  0.8037748E-009  0.1380357E+03  0.7561462E-02  0.1109772E+00
         22   -1    0    0    0    0  0.00000000000E+00  0.00000000000E+00  0.22904870718E+04  0.22904870718E+04  0.00000000000E+00 0.  1.
         22   -1    0    0    0    0 -0.00000000000E+00 -0.00000000000E+00 -0.38341596956E+03  0.38341596956E+03  0.00000000000E+00 0.  1.
         24    2    1    2    0    0  0.28268717092E+02 -0.53030914859E+02 -0.29728659011E+03  0.31374500631E+03  0.80282090319E+02 0.  0.
         25    2    1    2    0    0 -0.63823410727E+02  0.13907426687E+02 -0.12090171373E+02  0.14163725430E+03  0.12509234705E+03 0.  0.
        -24    2    1    2    0    0  0.35554693635E+02  0.39123488172E+02  0.22164478637E+04  0.22185207807E+04  0.79990864628E+02 0.  0.
        -11    1    3    3    0    0  0.50230646641E+02 -0.18007929444E+02 -0.21670755367E+03  0.22318057085E+03  0.00000000000E+00 0.  1.
         12    1    3    3    0    0 -0.21961929549E+02 -0.35022985415E+02 -0.80579036438E+02  0.90564435460E+02  0.00000000000E+00 0. -1.
         11    1    5    5    0    0 -0.89845915484E+01  0.47130262331E+02  0.87999467371E+03  0.88130165680E+03  0.00000000000E+00 0. -1.
        -12    1    5    5    0    0  0.44539285184E+02 -0.80067741591E+01  0.13364531900E+04  0.13372191239E+04  0.00000000000E+00 0.  1.
          5    1    4    4  501    0 -0.73980566012E+01  0.17325321379E+02  0.52362666288E+02  0.55805189930E+02  0.41800000000E+01 0. -1.
         -5    1    4    4    0  501 -0.56425354126E+02 -0.34178946917E+01 -0.64452837661E+02  0.85832064375E+02  0.41800000000E+01 0. -1.
</event>
<event>
11    1  0.8037748E-009  0.2269563E+03  0.7561462E-02  0.1036945E+00
         22   -1    0    0    0    0  0.00000000000E+00  0.00000000000E+00  0.98946080054E+02  0.98946080054E+02  0.00000000000E+00 0.  1.
         22   -1    0    0    0    0 -0.00000000000E+00 -0.00000000000E+00 -0.98468670152E+03  0.98468670152E+03  0.00000000000E+00 0.  1.
        -24    2    1    2    0    0  0.19109824669E+02  0.43961801578E+02 -0.35623434623E+03  0.36854544053E+03  0.81394145410E+02 0.  0.
         25    2    1    2    0    0 -0.18280847032E+03  0.53592800423E+02 -0.42778418680E+03  0.48470724660E+03  0.12510267521E+03 0.  0.
         24    2    1    2    0    0  0.16369864565E+03 -0.97554602001E+02 -0.10172208843E+03  0.23038009445E+03  0.80084066341E+02 0.  0.
        -13    1    5    5    0    0  0.15891854764E+03 -0.72325691912E+02 -0.66601951079E+02  0.18687410303E+03  0.00000000000E+00 0.  1.
         14    1    5    5    0    0  0.47800980082E+01 -0.25228910089E+02 -0.35120137355E+02  0.43505991416E+02  0.00000000000E+00 0. -1.
         11    1    3    3    0    0 -0.63672363704E+01 -0.17058466509E+02 -0.25912791406E+02  0.31670265820E+02  0.00000000000E+00 0. -1.
        -12    1    3    3    0    0  0.25477061039E+02  0.61020268088E+02 -0.33032155482E+03  0.33687517471E+03  0.00000000000E+00 0.  1.
          5    1    4    4  501    0 -0.43599458247E+02  0.65766231436E+02 -0.22442122683E+03  0.23792534419E+03  0.41800000000E+01 0.  1.
         -5    1    4    4    0  501 -0.13920901207E+03 -0.12173431013E+02 -0.20336295997E+03  0.24678190240E+03  0.41800000000E+01 0.  1.
</event>
<event>
11    1  0.8037748E-009  0.1476686E+03  0.7561462E-02  0.1099285E+00
         22   -1    0    0    0    0  0.00000000000E+00  0.00000000000E+00  0.73343272547E+03  0.73343272547E+03  0.00000000000E+00 0.  1.
         22   -1    0    0    0    0 -0.00000000000E+00 -0.00000000000E+00 -0.23013431615E+04  0.23013431615E+04  0.00000000000E+00 0.  1.
        -24    2    1    2    0    0 -0.46385184540E+02  0.69537954318E+01 -0.21417971048E+04  0.21437890300E+04  0.79602929072E+02 0.  0.
         25    2    1    2    0    0  0.66509880234E+02  0.68728040816E+02 -0.11376312056E+03  0.19426091002E+03  0.12509254894E+03 0.  0.
         24    2    1    2    0    0 -0.20124695694E+02 -0.75681836248E+02  0.68764978936E+03  0.69672594693E+03  0.80200178367E+02 0.  0.
        -13    1    5    5    0    0 -0.49267068008E+02 -0.63780522328E+02  0.48835346925E+03  0.49495889723E+03  0.00000000000E+00 0.  1.
         14    1    5    5    0    0  0.29142372313E+02 -0.11901313920E+02  0.19929632011E+03  0.20176704971E+03  0.00000000000E+00 0. -1.
         13    1    3    3    0    0 -0.38864479499E+02 -0.76027388761E+00 -0.38470333279E+03  0.38666222991E+03  0.00000000000E+00 0. -1.
        -14    1    3    3    0    0 -0.75207050411E+01  0.77140693194E+01 -0.17570937721E+04  0.17571268001E+04  0.00000000000E+00 0.  1.
          5    1    4    4  501    0 -0.80568736676E+01  0.76935782635E+02 -0.33751224083E+02  0.84502339554E+02  0.41800000000E+01 0.  1.
         -5    1    4    4    0  501  0.74566753902E+02 -0.82077418185E+01 -0.80011896476E+02  0.10975857047E+03  0.41800000000E+01 0.  1.
</event>
<event>
11    1  0.8037748E-009  0.2277189E+03  0.7561462E-02  0.1036487E+00
         22   -1    0    0    0    0  0.00000000000E+00  0.00000000000E+00  0.27911465086E+04  0.27911465086E+04  0.00000000000E+00 0. -1.
         22   -1    0    0    0    0 -0.00000000000E+00 -0.00000000000E+00 -0.17650275054E+04  0.17650275054E+04  0.00000000000E+00 0.  1.
        -24    2    1    2    0    0 -0.31676126320E+02 -0.49048218975E+02 -0.17203849127E+04  0.17230310312E+04  0.75515440314E+02 0.  0.
         25    2    1    2    0    0  0.29655164018E+02  0.23441156583E+03  0.41948255906E+03  0.49743491762E+03  0.12509064301E+03 0.  0.
         24    2    1    2    0    0  0.20209623016E+01 -0.18536334685E+03  0.23270213569E+04  0.23357080651E+04  0.78358889489E+02 0.  0.
        -13    1    5    5    0    0  0.37858148130E+02 -0.60981953635E+02  0.85152497088E+03  0.85454479934E+03  0.00000000000E+00 0.  1.
         14    1    5    5    0    0 -0.35837185829E+02 -0.12438139322E+03  0.14754963860E+04  0.14811632658E+04  0.00000000000E+00 0. -1.
         13    1    3    3    0    0 -0.13460940547E+02  0.14762063325E+02 -0.16099200256E+03  0.16222681752E+03  0.00000000000E+00 0. -1.
        -14    1    3    3    0    0 -0.18215185773E+02 -0.63810282301E+02 -0.15593929102E+04  0.15608042137E+04  0.00000000000E+00 0.  1.
          5    1    4    4  501    0 -0.43958518449E+02  0.45846836469E+02  0.12169581786E+03  0.13733764321E+03  0.41800000000E+01 0. -1.
         -5    1    4    4    0  501  0.73613682468E+02  0.18856472936E+03  0.29778674120E+03  0.36009727441E+03  0.41800000000E+01 0. -1.
</event>
<event>
11    1  0.8037748E-009  0.1932955E+03  0.7561462E-02  0.1059369E+00
         22   -1    0    0    0    0  0.00000000000E+00  0.00000000000E+00  0.90733265343E+03  0.90733265343E+03  0.00000000000E+00 0.  1.
         22   -1    0    0    0    0 -0.00000000000E+00 -0.00000000000E+00 -0.54212810209E+03  0.54212810209E+03  0.00000000000E+00 0.  1.
         24    2    1    2    0    0 -0.14328120939E+03  0.34793195854E+02 -0.50132513839E+03  0.52866518478E+03  0.80124351947E+02 0.  0.
         25    2    1    2    0    0  0.14844639234E+03 -0.17213122351E+01  0.38259809580E+03  0.42903290489E+03  0.12509450928E+03 0.  0.
        -24    2    1    2    0    0 -0.51651829502E+01 -0.33071883619E+02  0.48393159393E+03  0.49176266584E+03  0.80748395090E+02 0.  0.
        -13    1    3    3    0    0 -0.15218615587E+03  0.36694327509E+02 -0.44790193337E+03  0.47447153932E+03  0.00000000000E+00 0.  1.
         14    1    3    3    0    0  0.89049464816E+01 -0.19011316548E+01 -0.53423205020E+02  0.54193645458E+02  0.00000000000E+00 0. -1.
         11    1    5    5    0    0  0.33129750019E+02 -0.31399333301E+02  0.32942317291E+03  0.33257048173E+03  0.00000000000E+00 0. -1.
        -12    1    5    5    0    0 -0.38294932969E+02 -0.16725503180E+01  0.15450842102E+03  0.15919218411E+03  0.00000000000E+00 0.  1.
          5    1    4    4  501    0  0.39354571362E+01  0.42542150786E+02  0.82781926002E+02  0.93250426750E+02  0.41800000000E+01 0. -1.
         -5    1    4    4    0  501  0.14451093520E+03 -0.44263463021E+02  0.29981616980E+03  0.33578247814E+03  0.41800000000E+01 0. -1.
</event>
<event>
11    1  0.8037748E-009  0.1352507E+03  0.7561462E-02  0.1112981E+00
         22   -1    0    0    0    0  0.00000000000E+00  0.00000000000E+00  0.72313745240E+03  0.72313745240E+03  0.00000000000E+00 0. -1.
         22   -1    0    0    0    0 -0.00000000000E+00 -0.00000000000E+00 -0.21551815055E+04  0.21551815055E+04  0.00000000000E+00 0.  1.
         24    2    1    2    0    0  0.12936256374E+02 -0.45629656412E+02 -0.14222779935E+04  0.14253604972E+04  0.80798787610E+02 0.  0.
         25    2    1    2    0    0  0.87926616371E+01  0.74135790840E+02 -0.72133045718E+03  0.73589329379E+03  0.12509150656E+03 0.  0.
        -24    2    1    2    0    0 -0.21728918011E+02 -0.28506134428E+02  0.71156439754E+03  0.71706516690E+03  0.81079073488E+02 0.  0.
        -11    1    3    3    0    0  0.81291356989E+00 -0.48439150679E+02 -0.13887936569E+04  0.13896383823E+04  0.00000000000E+00 0.  1.
         12    1    3    3    0    0  0.12123342804E+02  0.28094942664E+01 -0.33484336592E+02  0.35722114940E+02  0.00000000000E+00 0. -1.
         11    1    5    5    0    0  0.11785191062E+02 -0.48008949349E+02  0.43370724114E+03  0.43651543038E+03  0.00000000000E+00 0. -1.
        -12    1    5    5    0    0 -0.33514109074E+02  0.19502814921E+02  0.27785715640E+03  0.28054973651E+03  0.00000000000E+00 0.  1.
          5    1    4    4  501    0 -0.37009229838E+02  0.56065206729E+02 -0.17768025733E+03  0.19000193879E+03  0.41800000000E+01 0.  1.
         -5    1    4    4    0  501  0.45801891475E+02  0.18070584112E+02 -0.54365019984E+03  0.54589135500E+03  0.41800000000E+01 0.  1.
</event>
<event>
11    1  0.8037748E-009  0.2586644E+03  0.7561462E-02  0.1019382E+00
         22   -1    0    0    0    0  0.00000000000E+00  0.00000000000E+00  0.74623760154E+03  0.74623760154E+03  0.00000000000E+00 0. -1.
         22   -1    0    0    0    0 -0.00000000000E+00 -0.00000000000E+00 -0.19376016050E+03  0.19376016050E+03  0.00000000000E+00 0. -1.
        -24    2    1    2    0    0  0.69309480481E+01  0.20424960739E+03  0.88358349454E+01  0.21952890357E+03  0.79680156645E+02 0.  0.
         25    2    1    2    0    0  0.40451580523E+02 -0.29989850378E+03  0.30888740473E+03  0.45014889213E+03  0.12508858198E+03 0.  0.
         24    2    1    2    0    0 -0.47382528571E+02  0.95648896392E+02  0.23475420136E+03  0.27031996635E+03  0.81052660385E+02 0.  0.
        -11    1    5    5    0    0  0.14371518157E+02 -0.20777126148E+01  0.52694831945E+02  0.54658967586E+02  0.00000000000E+00 0.  1.
         12    1    5    5    0    0 -0.61754046729E+02  0.97726609007E+02  0.18205936942E+03  0.21566099877E+03  0.00000000000E+00 0. -1.
         13    1    3    3    0    0  0.27476617943E+02  0.18364844948E+03  0.23102468216E+02  0.18712413411E+03  0.00000000000E+00 0. -1.
        -14    1    3    3    0    0 -0.20545669895E+02  0.20601157915E+02 -0.14266633271E+02  0.32404769459E+02  0.00000000000E+00 0.  1.
          5    1    4    4  501    0  0.80652696696E+02 -0.13436447823E+03  0.15738295472E+03  0.22213855436E+03  0.41800000000E+01 0.  1.
         -5    1    4    4    0  501 -0.40201116173E+02 -0.16553402555E+03  0.15150445001E+03  0.22801033777E+03  0.41800000000E+01 0.  1.
</event>
<event>
11    1  0.8037748E-009  0.1611294E+03  0.7561462E-02  0.1086020E+00
         22   -1    0    0    0    0  0.00000000000E+00  0.00000000000E+00  0.25453567043E+03  0.25453567043E+03  0.00000000000E+00 0.  1.
         22   -1    0    0    0    0 -0.00000000000E+00 -0.00000000000E+00 -0.73498394028E+03  0.73498394028E+03  0.00000000000E+00 0.  1.
         24    2    1    2    0    0  0.97558424938E+02  0.13733135173E+02 -0.53927587699E+03  0.55397823185E+03  0.79794514734E+02 0.  0.
         25    2    1    2    0    0 -0.12053596513E+03  0.40989864793E+01 -0.13565997893E+03  0.22044761631E+03  0.12509117104E+03 0.  0.
        -24    2    1    2    0    0  0.22977540191E+02 -0.17832121653E+02  0.19448758606E+03  0.21509376255E+03  0.87143293708E+02 0.  0.
        -11    1    3    3    0    0  0.36622039905E+02 -0.12727993361E+02 -0.37166423643E+03  0.37368098729E+03  0.00000000000E+00 0.  1.
         12    1    3    3    0    0  0.60936385033E+02  0.26461128534E+02 -0.16761164056E+03  0.18029724456E+03  0.00000000000E+00 0. -1.
         13    1    5    5    0    0 -0.26523889877E+02 -0.11367181830E+02  0.24269014289E+02  0.37705631032E+02  0.00000000000E+00 0. -1.
        -14    1    5    5    0    0  0.49501430068E+02 -0.64649398222E+01  0.17021857178E+03  0.17738813152E+03  0.00000000000E+00 0.  1.
          5    1    4    4  501    0 -0.12587065316E+03  0.38725112129E+02 -0.78785322902E+02  0.15351760531E+03  0.41800000000E+01 0.  1.
         -5    1    4    4    0  501  0.53346880278E+01 -0.34626125650E+02 -0.56874656026E+02  0.66930010996E+02  0.41800000000E+01 0.  1.
</event>
<event>
11    1  0.8037748E-009  0.1482423E+03  0.7561462E-02  0.1098688E+00
         22   -1    0    0    0    0  0.00000000000E+00  0.00000000000E+00  0.38336075788E+03  0.38336075788E+03  0.00000000000E+00 0.  1.
         22   -1    0    0    0    0 -0.00000000000E+00 -0.00000000000E+00 -0.18287543918E+03  0.18287543918E+03  0.00000000000E+00 0. -1.
         24    2    1    2    0    0 -0.51260771110E+01  0.99308218926E+01 -0.10901840824E+03  0.13412325054E+03  0.77324867340E+02 0.  0.
         25    2    1    2    0    0  0.36803315253E+02  0.64331641920E+02  0.52871944610E+02  0.15471628470E+03  0.12509453249E+03 0.  0.
        -24    2    1    2    0    0 -0.31677238142E+02 -0.74262463813E+02  0.25663178233E+03  0.27739666181E+03  0.67606769871E+02 0.  0.
        -11    1    3    3    0    0  0.60687415490E+01 -0.16177581242E+02  0.38775564222E+01  0.17708167681E+02  0.00000000000E+00 0.  1.
         12    1    3    3    0    0 -0.11194818660E+02  0.26108403134E+02 -0.11289596466E+03  0.11641508286E+03  0.00000000000E+00 0. -1.
         11    1    5    5    0    0 -0.11606015362E+02  0.12020778196E+02  0.39467053058E+02  0.42858452820E+02  0.00000000000E+00 0. -1.
        -12    1    5    5    0    0 -0.20071222780E+02 -0.86283242009E+02  0.21716472928E+03  0.23453820899E+03  0.00000000000E+00 0.  1.
          5    1    4    4  501    0  0.79082146597E+02  0.62287844072E+02  0.48911883901E+02  0.11199824202E+03  0.41800000000E+01 0.  1.
         -5    1    4    4    0  501 -0.42278831344E+02  0.20437978486E+01  0.39600607092E+01  0.42718042679E+02  0.41800000000E+01 0.  1.
</event>
<event>
11    1  0.8037748E-009  0.1491244E+03  0.7561462E-02  0.1097777E+00
         22   -1    0    0    0    0  0.00000000000E+00  0.00000000000E+00  0.32982524440E+03  0.32982524440E+03  0.00000000000E+00 0.  1.
         22   -1    0    0    0    0 -0.00000000000E+00 -0.00000000000E+00 -0.53503209317E+03  0.53503209317E+03  0.00000000000E+00 0.  1.
         24    2    1    2    0    0 -0.71463106190E+01 -0.55420272123E+02 -0.44564351215E+03  0.45630117795E+03  0.80561459517E+02 0.  0.
         25    2    1    2    0    0  0.17653655395E+02 -0.33505676147E+02 -0.10837441127E+02  0.13116449678E+03  0.12510952482E+03 0.  0.
        -24    2    1    2    0    0 -0.10507344776E+02  0.88925948270E+02  0.25127410451E+03  0.27739166284E+03  0.76086992595E+02 0.  0.
        -11    1    3    3    0    0 -0.28069657628E+02 -0.31500123873E+02 -0.38956988117E+03  0.39184800089E+03  0.00000000000E+00 0.  1.
         12    1    3    3    0    0  0.20923347009E+02 -0.23920148250E+02 -0.56073630979E+02  0.64453177063E+02  0.00000000000E+00 0. -1.
         11    1    5    5    0    0  0.12269627932E+02 -0.10661242688E+01  0.35071009251E+01  0.12805473339E+02  0.00000000000E+00 0. -1.
        -12    1    5    5    0    0 -0.22776972707E+02  0.89992072538E+02  0.24776700359E+03  0.26458618950E+03  0.00000000000E+00 0.  1.
          5    1    4    4  501    0  0.11958071268E+02  0.44275107652E+02 -0.24050642608E+02  0.51953695113E+02  0.41800000000E+01 0.  1.
         -5    1    4    4    0  501  0.56955841269E+01 -0.77780783798E+02  0.13213201481E+02  0.79210801664E+02  0.41800000000E+01 0.  1.
</event>
<event>
11    1  0.8037748E-009  0.2122253E+03  0.7561462E-02  0.1046200E+00
         22   -1    0    0    0    0  0.00000000000E+00  0.00000000000E+00  0.15696130847E+03  0.15696130847E+03  0.00000000000E+00 0. -1.
         22   -1    0    0    0    0 -0.00000000000E+00 -0.00000000000E+00 -0.52588480073E+03  0.52588480073E+03  0.00000000000E+00 0. -1.
        -24    2    1    2    0    0 -0.54947748719E+02 -0.64653048573E+02 -0.53907631999E+02  0.12794345949E+03  0.79146852486E+02 0.  0.
         25    2    1    2    0    0  0.36083252893E+02  0.18969567159E+03 -0.33211953085E+03  0.40402640573E+03  0.12508998678E+03 0.  0.
         24    2    1    2    0    0  0.18864495826E+02 -0.12504262302E+03  0.17103670584E+02  0.15087624398E+03  0.80495830177E+02 0.  0.
        -13    1    5    5    0    0  0.19702127192E+02 -0.10263519160E+03  0.46096881516E+02  0.11422381038E+03  0.00000000000E+00 0.  1.
         14    1    5    5    0    0 -0.83763136615E+00 -0.22407431416E+02 -0.28993210932E+02  0.36652433604E+02  0.00000000000E+00 0. -1.
         13    1    3    3    0    0 -0.12937391091E+02 -0.22529702660E+02  0.20201348394E+02  0.32909847571E+02  0.00000000000E+00 0. -1.
        -14    1    3    3    0    0 -0.42010357628E+02 -0.42123345913E+02 -0.74108980393E+02  0.95033611916E+02  0.00000000000E+00 0.  1.
          5    1    4    4  501    0  0.82870196135E+02  0.11736669826E+03 -0.20192777570E+03  0.24786026359E+03  0.41800000000E+01 0. -1.
         -5    1    4    4    0  501 -0.46786943242E+02  0.72328973333E+02 -0.13019175516E+03  0.15616614214E+03  0.41800000000E+01 0. -1.
</event>
<event>
11    1  0.8037748E-009  0.2254395E+03  0.7561462E-02  0.1037863E+00
         22   -1    0    0    0    0  0.00000000000E+00  0.00000000000E+00  0.52621786302E+03  0.52621786302E+03  0.00000000000E+00 0. -1.
         22   -1    0    0    0    0 -0.00000000000E+00 -0.00000000000E+00 -0.21589390780E+04  0.21589390780E+04  0.00000000000E+00 0.  1.
         24    2    1    2    0    0  0.25308254440E+02 -0.48894436192E+02 -0.19440675903E+04  0.19465314809E+04  0.80961948155E+02 0.  0.
         25    2    1    2    0    0 -0.17464086260E+03  0.15293788507E+03 -0.97627405667E+02  0.28119030079E+03  0.12508975713E+03 0.  0.
        -24    2    1    2    0    0  0.14933260816E+03 -0.10404344888E+03  0.40897378102E+03  0.45743515923E+03  0.94138749842E+02 0.  0.
        -11    1    3    3    0    0  0.43365531343E+02 -0.58945519144E+02 -0.12375601723E+04  0.12397218735E+04  0.00000000000E+00 0.  1.
         12    1    3    3    0    0 -0.18057276903E+02  0.10051082951E+02 -0.70650741799E+03  0.70680960746E+03  0.00000000000E+00 0. -1.
         13    1    5    5    0    0  0.15293922358E+03 -0.96403426159E+02  0.41077341450E+03  0.44879708638E+03  0.00000000000E+00 0. -1.
        -14    1    5    5    0    0 -0.36066154105E+01 -0.76400227230E+01 -0.17996334791E+01  0.86380728514E+01  0.00000000000E+00 0.  1.
          5    1    4    4  501    0 -0.78780226932E+02  0.14720586299E+01 -0.57014380244E+02  0.97347845721E+02  0.41800000000E+01 0. -1.
         -5    1    4    4    0  501 -0.95860635672E+02  0.15146582644E+03 -0.40613025424E+02  0.18384245507E+03  0.41800000000E+01 0. -1.
</event>
<event>
11    1  0.8037748E-009  0.1767051E+03  0.7561462E-02  0.1072340E+00
         22   -1    0    0    0    0  0.00000000000E+00  0.00000000000E+00  0.43864498679E+04  0.43864498679E+04  0.00000000000E+00 0. -1.
         22   -1    0    0    0    0 -0.00000000000E+00 -0.00000000000E+00 -0.47492011452E+02  0.47492011452E+02  0.00000000000E+00 0. -1.
         24    2    1    2    0    0  0.50934980455E+02 -0.25244254807E+01  0.19361245671E+03  0.21590770032E+03  0.80805981860E+02 0.  0.
         25    2    1    2    0    0 -0.17279932206E+03 -0.12785665118E+02  0.29186267054E+03  0.36175703004E+03  0.12514492154E+03 0.  0.
        -24    2    1    2    0    0  0.12186434161E+03  0.15310090598E+02  0.38534827292E+04  0.38562771490E+04  0.80367835956E+02 0.  0.
        -11    1    3    3    0    0 -0.14116772437E+02  0.81838638889E+01  0.10051476822E+03  0.10183063155E+03  0.00000000000E+00 0.  1.
         12    1    3    3    0    0  0.65051752892E+02 -0.10708289370E+02  0.93097688499E+02  0.11407706877E+03  0.00000000000E+00 0. -1.
         11    1    5    5    0    0  0.30485613584E+02 -0.26513455587E+02  0.67650862185E+03  0.67771398938E+03  0.00000000000E+00 0. -1.
        -12    1    5    5    0    0  0.91378728022E+02  0.41823546185E+02  0.31769741073E+04  0.31785631596E+04  0.00000000000E+00 0.  1.
          5    1    4    4  501    0 -0.13385244354E+03 -0.21696380284E+02  0.10756651703E+03  0.17313358295E+03  0.41800000000E+01 0.  1.
         -5    1    4    4    0  501 -0.38946878517E+02  0.89107151660E+01  0.18429615351E+03  0.18862344708E+03  0.41800000000E+01 0.  1.
</event>
<event>
11    1  0.8037748E-009  0.1390689E+03  0.7561462E-02  0.1108603E+00
         22   -1    0    0    0    0  0.00000000000E+00  0.00000000000E+00  0.13761552113E+04  0.13761552113E+04  0.00000000000E+00 0. -1.
         22   -1    0    0    0    0 -0.00000000000E+00 -0.00000000000E+00 -0.37412775630E+03  0.37412775630E+03  0.00000000000E+00 0. -1.
         24    2    1    2    0    0 -0.32517901360E+02  0.50451912750E+02 -0.21429079429E+03  0.23667452677E+03  0.80569707060E+02 0.  0.
         25    2    1    2    0    0  0.74885308704E+02 -0.20765837391E+02 -0.10996642585E+03  0.18379329340E+03  0.12509328688E+03 0.  0.
        -24    2    1    2    0    0 -0.42367407344E+02 -0.29686075359E+02  0.13262846752E+04  0.13298151475E+04  0.81859798254E+02 0.  0.
        -11    1    3    3    0    0 -0.48250768177E+01 -0.18690025771E+02 -0.16743758509E+02  0.25552923094E+02  0.00000000000E+00 0.  1.
         12    1    3    3    0    0 -0.27692824542E+02  0.69141938520E+02 -0.19754703578E+03  0.21112160368E+03  0.00000000000E+00 0. -1.
         11    1    5    5    0    0 -0.49192341735E+02 -0.47538101910E+01  0.11943463486E+04  0.11953684309E+04  0.00000000000E+00 0. -1.
        -12    1    5    5    0    0  0.68249343906E+01 -0.24932265168E+02  0.13193832657E+03  0.13444671656E+03  0.00000000000E+00 0.  1.
          5    1    4    4  501    0  0.68620550390E+02 -0.68241761135E+02 -0.57551890748E+02  0.11267391192E+03  0.41800000000E+01 0. -1.
         -5    1    4    4    0  501  0.62647583136E+01  0.47475923744E+02 -0.52414535102E+02  0.71119381479E+02  0.41800000000E+01 0. -1.
</event>
<event>
11    1  0.8037748E-009  0.1792563E+03  0.7561462E-02  0.1070246E+00
         22   -1    0    0    0    0  0.00000000000E+00  0.00000000000E+00  0.50679581706E+03  0.50679581706E+03  0.00000000000E+00 0.  1.
         22   -1    0    0    0    0 -0.00000000000E+00 -0.00000000000E+00 -0.32396175480E+03  0.32396175480E+03  0.00000000000E+00 0.  1.
         24    2    1    2    0    0  0.83624267464E+02  0.88087110309E+02 -0.22220138617E+03  0.26455136502E+03  0.76561162504E+02 0.  0.
         25    2    1    2    0    0 -0.17116756149E+03 -0.10850650751E+03  0.14377152675E+03  0.27819405335E+03  0.12509869358E+03 0.  0.
        -24    2    1    2    0    0  0.87543294027E+02  0.20419397202E+02  0.26126392169E+03  0.28801215349E+03  0.81310415511E+02 0.  0.
        -11    1    3    3    0    0  0.78067599207E+02  0.98875985037E+02 -0.17383011897E+03  0.21468097429E+03  0.00000000000E+00 0.  1.
         12    1    3    3    0    0  0.55566682573E+01 -0.10788874727E+02 -0.48371267208E+02  0.49870390727E+02  0.00000000000E+00 0. -1.
         11    1    5    5    0    0  0.19221070205E+02 -0.10678452545E+02  0.72718619141E+01  0.23159422797E+02  0.00000000000E+00 0. -1.
        -12    1    5    5    0    0  0.68322223822E+02  0.31097849747E+02  0.25399205978E+03  0.26485273069E+03  0.00000000000E+00 0.  1.
          5    1    4    4  501    0 -0.62930481524E+02 -0.34328483540E+02  0.12693295859E+03  0.14583599920E+03  0.41800000000E+01 0. -1.
         -5    1    4    4    0  501 -0.10823707997E+03 -0.74178023971E+02  0.16838568162E+02  0.13235805415E+03  0.41800000000E+01 0. -1.
</event>
<event>
11    1  0.8037748E-009  0.1513210E+03  0.7561462E-02  0.1095537E+00
         22   -1    0    0    0    0  0.00000000000E+00  0.00000000000E+00  0.38422933496E+04  0.38422933496E+04  0.00000000000E+00 0.  1.
         22   -1    0    0    0    0 -0.00000000000E+00 -0.00000000000E+00 -0.26633252598E+03  0.26633252598E+03  0.00000000000E+00 0. -1.
         24    2    1    2    0    0 -0.23339414529E+02 -0.29260745751E+02 -0.24331070280E+03  0.25944565690E+03  0.81920884215E+02 0.  0.
         25    2    1    2    0    0  0.30305705395E+02  0.11202148050E+03  0.50760125324E+03  0.53551407772E+03  0.12509615211E+03 0.  0.
        -24    2    1    2    0    0 -0.69662908657E+01 -0.82760734748E+02  0.33116702732E+04  0.33136661410E+04  0.79532553295E+02 0.  0.
        -13    1    3    3    0    0 -0.41363481863E+02  0.21490907028E+01 -0.62058245428E+02  0.74610870845E+02  0.00000000000E+00 0.  1.
         14    1    3    3    0    0  0.18024067334E+02 -0.31409836454E+02 -0.18125245738E+03  0.18483478605E+03  0.00000000000E+00 0. -1.
         11    1    5    5    0    0  0.24085757333E+02 -0.58704478484E+02  0.12390692164E+04  0.12406928961E+04  0.00000000000E+00 0. -1.
        -12    1    5    5    0    0 -0.31052048198E+02 -0.24056256264E+02  0.20726010568E+04  0.20729732449E+04  0.00000000000E+00 0.  1.
          5    1    4    4  501    0  0.27526073758E+02  0.89465490534E+02  0.14796834928E+03  0.17513955442E+03  0.41800000000E+01 0. -1.
         -5    1    4    4    0  501  0.27796316371E+01  0.22555989965E+02  0.35963290396E+03  0.36037452330E+03  0.41800000000E+01 0. -1.
</event>
<event>
11    1  0.8037748E-009  0.2156800E+03  0.7561462E-02  0.1043958E+00
         22   -1    0    0    0    0  0.00000000000E+00  0.00000000000E+00  0.89174577013E+02  0.89174577013E+02  0.00000000000E+00 0. -1.
         22   -1    0    0    0    0 -0.00000000000E+00 -0.00000000000E+00 -0.30496297308E+04  0.30496297308E+04  0.00000000000E+00 0.  1.
         24    2    1    2    0    0 -0.97751565903E+02  0.24356949576E+02 -0.22980378543E+04  0.23016974566E+04  0.81759235501E+02 0.  0.
         25    2    1    2    0    0  0.25419238917E+03 -0.84707536867E+01 -0.57156617482E+03  0.63798187331E+03  0.12508978413E+03 0.  0.
        -24    2    1    2    0    0 -0.15644082326E+03 -0.15886195889E+02 -0.90851124657E+02  0.19912497783E+03  0.81674521988E+02 0.  0.
        -11    1    3    3    0    0 -0.49346903465E+02 -0.20199821565E+02 -0.59349889827E+03  0.59588932859E+03  0.00000000000E+00 0.  1.
         12    1    3    3    0    0 -0.48404662438E+02  0.44556771141E+02 -0.17045389560E+04  0.17058081280E+04  0.00000000000E+00 0. -1.
         11    1    5    5    0    0 -0.99769896928E+02 -0.22936749854E+02 -0.13920478484E+02  0.10331459988E+03  0.00000000000E+00 0. -1.
        -12    1    5    5    0    0 -0.56670926336E+02  0.70505539648E+01 -0.76930646173E+02  0.95810377954E+02  0.00000000000E+00 0.  1.
          5    1    4    4  501    0  0.93375349311E+02 -0.53843810463E+02 -0.30323163610E+03  0.32184625105E+03  0.41800000000E+01 0.  1.
         -5    1    4    4    0  501  0.16081703986E+03  0.45373056777E+02 -0.26833453872E+03  0.31613562226E+03  0.41800000000E+01 0.  1.
</event>
<event>
11    1  0.8037748E-009  0.1394395E+03  0.7561462E-02  0.1108186E+00
         22   -1    0    0    0    0  0.00000000000E+00  0.00000000000E+00  0.23257776439E+03  0.23257776439E+03  0.00000000000E+00 0.  1.
         22   -1    0    0    0    0 -0.00000000000E+00 -0.00000000000E+00 -0.10684276916E+04  0.10684276916E+04  0.00000000000E+00 0. -1.
         24    2    1    2    0    0 -0.47129265905E+02  0.48024415789E+02 -0.84051447458E+03  0.84688007665E+03  0.78827469983E+02 0.  0.
         25    2    1    2    0    0 -0.14130990467E+02 -0.45091376880E+02 -0.19288023134E+03  0.23470385732E+03  0.12510075875E+03 0.  0.
        -24    2    1    2    0    0  0.61260256372E+02 -0.29330389085E+01  0.19754477866E+03  0.21942152206E+03  0.73215046541E+02 0.  0.
        -11    1    3    3    0    0 -0.56882252909E+01 -0.11606364860E+02 -0.25043536006E+02  0.28182304872E+02  0.00000000000E+00 0.  1.
         12    1    3    3    0    0 -0.41441040614E+02  0.59630780649E+02 -0.81547093857E+03  0.81869777177E+03  0.00000000000E+00 0. -1.
         11    1    5    5    0    0  0.10809515669E+02 -0.96718946363E+01 -0.91984157953E+00  0.14534004382E+02  0.00000000000E+00 0. -1.
        -12    1    5    5    0    0  0.50450740703E+02  0.67388557278E+01  0.19846462024E+03  0.20488751768E+03  0.00000000000E+00 0.  1.
          5    1    4    4  501    0 -0.56797349927E+00  0.22823516703E+02 -0.15285000742E+03  0.15460217553E+03  0.41800000000E+01 0.  1.
         -5    1    4    4    0  501 -0.13563016968E+02 -0.67914893583E+02 -0.40030223914E+02  0.80101681794E+02  0.41800000000E+01 0.  1.
</event>
<event>
11    1  0.8037748E-009  0.1927924E+03  0.7561462E-02  0.1059741E+00
         22   -1    0    0    0    0  0.00000000000E+00  0.00000000000E+00  0.37538161646E+03  0.37538161646E+03  0.00000000000E+00 0.  1.
         22   -1    0    0    0    0 -0.00000000000E+00 -0.00000000000E+00 -0.30636169074E+03  0.30636169074E+03  0.00000000000E+00 0. -1.
         24    2    1    2    0    0  0.41780916724E+02  0.13214120984E+03 -0.18771683191E+03  0.24650257514E+03  0.79491925545E+02 0.  0.
         25    2    1    2    0    0 -0.66256829624E+02 -0.19718971447E+03  0.15577837621E+03  0.28842400940E+03  0.12509098984E+03 0.  0.
        -24    2    1    2    0    0  0.24475912900E+02  0.65048504623E+02  0.10095838142E+03  0.14681672266E+03  0.80821884457E+02 0.  0.
        -11    1    3    3    0    0  0.37978480901E+01  0.11929918885E+03 -0.13363260477E+03  0.17917698839E+03  0.00000000000E+00 0.  1.
         12    1    3    3    0    0  0.37983068634E+02  0.12842020994E+02 -0.54084227140E+02  0.67325586751E+02  0.00000000000E+00 0. -1.
         11    1    5    5    0    0  0.36617523515E+02  0.12507105103E+00  0.18077424034E+02  0.40836894236E+02  0.00000000000E+00 0. -1.
        -12    1    5    5    0    0 -0.12141610615E+02  0.64923433572E+02  0.82880957390E+02  0.10597982842E+03  0.00000000000E+00 0.  1.
          5    1    4    4  501    0 -0.57336857848E+02 -0.75003634686E+02  0.57384366687E+01  0.94675564637E+02  0.41800000000E+01 0. -1.
         -5    1    4    4    0  501 -0.89199717766E+01 -0.12218607978E+03  0.15003993954E+03  0.19374844476E+03  0.41800000000E+01 0. -1.
</event>
<event>
11    1  0.8037748E-009  0.1491237E+03  0.7561462E-02  0.1097778E+00
         22   -1    0    0    0    0  0.00000000000E+00  0.00000000000E+00  0.21932316010E+04  0.21932316010E+04  0.00000000000E+00 0.  1.
         22   -1    0    0    0    0 -0.00000000000E+00 -0.00000000000E+00 -0.27478125918E+03  0.27478125918E+03  0.00000000000E+00 0. -1.
        -24    2    1    2    0    0  0.24141668498E+02 -0.76593244506E+02 -0.24840844598E+03  0.27288978643E+03  0.79452717007E+02 0.  0.
         25    2    1    2    0    0 -0.87076594786E+02  0.11299444464E+03  0.73105021993E+03  0.75526952197E+03  0.12509016301E+03 0.  0.
         24    2    1    2    0    0  0.62934926288E+02 -0.36401200133E+02  0.14358085679E+04  0.14398535518E+04  0.79662755902E+02 0.  0.
        -11    1    5    5    0    0  0.69977271522E+02 -0.52705886362E+02  0.12892004697E+04  0.12921735874E+04  0.00000000000E+00 0.  1.
         12    1    5    5    0    0 -0.70423452343E+01  0.16304686229E+02  0.14660809820E+03  0.14767996438E+03  0.00000000000E+00 0. -1.
         11    1    3    3    0    0  0.35491212248E+02 -0.84513054359E+02 -0.23947244210E+03  0.25641593755E+03  0.00000000000E+00 0. -1.
        -12    1    3    3    0    0 -0.11349543750E+02  0.79198098532E+01 -0.89360038768E+01  0.16473848874E+02  0.00000000000E+00 0.  1.
          5    1    4    4  501    0  0.23663963824E+02  0.61812925124E+02  0.21600835659E+03  0.22595995975E+03  0.41800000000E+01 0. -1.
         -5    1    4    4    0  501 -0.11074055861E+03  0.51181519516E+02  0.51504186334E+03  0.52930956221E+03  0.41800000000E+01 0. -1.
</event>
<event>
11    1  0.8037748E-009  0.1340098E+03  0.7561462E-02  0.1114438E+00
         22   -1    0    0    0    0  0.00000000000E+00  0.00000000000E+00  0.14183115828E+04  0.14183115828E+04  0.00000000000E+00 0.  1.
         22   -1    0    0    0    0 -0.00000000000E+00 -0.00000000000E+00 -0.34858572981E+03  0.34858572981E+03  0.00000000000E+00 0.  1.
         24    2    1    2    0    0  0.12249771830E+02 -0.46555672539E+02 -0.33132797300E+03  0.34431124445E+03  0.80340026190E+02 0.  0.
         25    2    1    2    0    0  0.62154564143E+00  0.44135141146E+02  0.49483575574E+03  0.51230723707E+03  0.12509189820E+03 0.  0.
        -24    2    1    2    0    0 -0.12871317472E+02  0.24205313928E+01  0.90621807029E+03  0.91027883112E+03  0.84881268036E+02 0.  0.
        -13    1    3    3    0    0 -0.25228942491E+02 -0.47686019381E+02 -0.23071470383E+03  0.23693824206E+03  0.00000000000E+00 0.  1.
         14    1    3    3    0    0  0.37478714321E+02  0.11303468418E+01 -0.10061326917E+03  0.10737300240E+03  0.00000000000E+00 0. -1.
         11    1    5    5    0    0  0.26219941643E+01  0.24564691350E+02  0.82545023106E+02  0.86162519428E+02  0.00000000000E+00 0. -1.
        -12    1    5    5    0    0 -0.15493311636E+02 -0.22144159958E+02  0.82367304719E+03  0.82411631169E+03  0.00000000000E+00 0.  1.
          5    1    4    4  501    0  0.94611054159E+01 -0.12708507836E+02  0.40636535983E+03  0.40669558242E+03  0.41800000000E+01 0.  1.
         -5    1    4    4    0  501 -0.88395597744E+01  0.56843648982E+02  0.88470395904E+02  0.10561165465E+03  0.41800000000E+01 0.  1.
</event>
<event>
11    1  0.8037748E-009  0.2053718E+03  0.7561462E-02  0.1050789E+00
         22   -1    0    0    0    0  0.00000000000E+00  0.00000000000E+00  0.11688918878E+03  0.11688918878E+03  0.00000000000E+00 0.  1.
         22   -1    0    0    0    0 -0.00000000000E+00 -0.00000000000E+00 -0.22897451777E+04  0.22897451777E+04  0.00000000000E+00 0.  1.
         24    2    1    2    0    0  0.49983090238E+02 -0.15219296029E+03 -0.18729821771E+04  0.18815856149E+04  0.81493458583E+02 0.  0.
         25    2    1    2    0    0 -0.46965613956E+02  0.17656840446E+03 -0.36078624415E+03  0.42331514178E+03  0.12508726930E+03 0.  0.
        -24    2    1    2    0    0 -0.30174762826E+01 -0.24375444170E+02  0.60912432348E+02  0.10173360983E+03  0.77692570519E+02 0.  0.
        -13    1    3    3    0    0  0.43161904378E+02 -0.16173955016E+03 -0.17066763484E+04  0.17148664060E+04  0.00000000000E+00 0.  1.
         14    1    3    3    0    0  0.68211858609E+01  0.95465898713E+01 -0.16630582874E+03  0.16671920893E+03  0.00000000000E+00 0. -1.
         11    1    5    5    0    0  0.32592888254E+01  0.24095653026E+02  0.89376571991E+00  0.24331507877E+02  0.00000000000E+00 0. -1.
        -12    1    5    5    0    0 -0.62767651079E+01 -0.48471097196E+02  0.60018666628E+02  0.77402101958E+02  0.00000000000E+00 0.  1.
          5    1    4    4  501    0  0.33955872736E+02  0.40898917655E+02 -0.43349555004E+02  0.68719568375E+02  0.41800000000E+01 0. -1.
         -5    1    4    4    0  501 -0.80921486692E+02  0.13566948681E+03 -0.31743668915E+03  0.35459557340E+03  0.41800000000E+01 0. -1.
</event>
<event>
11    1  0.8037748E-009  0.1335400E+03  0.7561462E-02  0.1114994E+00
         22   -1    0    0    0    0  0.00000000000E+00  0.00000000000E+00  0.65174716845E+02  0.65174716845E+02  0.00000000000E+00 0.  1.
         22   -1    0    0    0    0 -0.00000000000E+00 -0.00000000000E+00 -0.90465921730E+03  0.90465921730E+03  0.00000000000E+00 0.  1.
         24    2    1    2    0    0  0.47953302932E+02 -0.56123974985E+02 -0.55680770259E+03  0.56742267578E+03  0.80524875014E+02 0.  0.
         25    2    1    2    0    0  0.57486192054E+01  0.63487552526E+02 -0.23480842902E+03  0.27358036745E+03  0.12508998029E+03 0.  0.
        -24    2    1    2    0    0 -0.53701922137E+02 -0.73635775415E+01 -0.47868368847E+02  0.12883089091E+03  0.10662034985E+03 0.  0.
        -13    1    3    3    0    0  0.22523079604E+02 -0.63816625820E+02 -0.50171160422E+03  0.50625525642E+03  0.00000000000E+00 0.  1.
         14    1    3    3    0    0  0.25430223327E+02  0.76926508353E+01 -0.55096098369E+02  0.61167419358E+02  0.00000000000E+00 0. -1.
         11    1    5    5    0    0  0.17457215644E+02  0.53689226293E+01 -0.53295503867E+02  0.56338179245E+02  0.00000000000E+00 0. -1.
        -12    1    5    5    0    0 -0.71159137781E+02 -0.12732500171E+02  0.54271350202E+01  0.72492711667E+02  0.00000000000E+00 0.  1.
          5    1    4    4  501    0  0.18605822972E+02  0.53589689661E+02 -0.24661058149E+03  0.25308552466E+03  0.41800000000E+01 0.  1.
         -5    1    4    4    0  501 -0.12857203767E+02  0.98978628650E+01  0.11802152477E+02  0.20494842793E+02  0.41800000000E+01 0.  1.
</event>
<event>
11    1  0.8037748E-009  0.1294226E+03  0.7561462E-02  0.1119980E+00
         22   -1    0    0    0    0  0.00000000000E+00  0.00000000000E+00  0.11508991098E+04  0.11508991098E+04  0.00000000000E+00 0.  1.
         22   -1    0    0    0    0 -0.00000000000E+00 -0.00000000000E+00 -0.99872844018E+03  0.99872844018E+03  0.00000000000E+00 0.  1.
        -24    2    1    2    0    0  0.77534689430E+01 -0.35044222063E+02 -0.91245904053E+03  0.91624889164E+03  0.75115357970E+02 0.  0.
         25    2    1    2    0    0  0.22431203684E+02  0.20150450844E+02 -0.32518934389E+02  0.13272091256E+03  0.12509260557E+03 0.  0.
         24    2    1    2    0    0 -0.30184672627E+02  0.14893771220E+02  0.10971486445E+04  0.11006577458E+04  0.81113416069E+02 0.  0.
        -11    1    5    5    0    0  0.17872062910E+02  0.20820160169E+02  0.70459472502E+03  0.70512879407E+03  0.00000000000E+00 0.  1.
         12    1    5    5    0    0 -0.48056735537E+02 -0.59263889489E+01  0.39255391950E+03  0.39552895170E+03  0.00000000000E+00 0. -1.
         11    1    3    3    0    0 -0.92353287620E+00  0.80841271441E+01 -0.65554823955E+03  0.65559873428E+03  0.00000000000E+00 0. -1.
        -12    1    3    3    0    0  0.86770018192E+01 -0.43128349207E+02 -0.25691080098E+03  0.26065015735E+03  0.00000000000E+00 0.  1.
          5    1    4    4  501    0  0.36116029150E+02  0.50825020870E+02  0.23918810458E+02  0.66911375728E+02  0.41800000000E+01 0.  1.
         -5    1    4    4    0  501 -0.13684825466E+02 -0.30674570027E+02 -0.56437744847E+02  0.65809536830E+02  0.41800000000E+01 0.  1.
</event>
<event>
11    1  0.8037748E-009  0.1419681E+03  0.7561462E-02  0.1105380E+00
         22   -1    0    0    0    0  0.00000000000E+00  0.00000000000E+00  0.22836185818E+04  0.22836185818E+04  0.00000000000E+00 0.  1.
         22   -1    0    0    0    0 -0.00000000000E+00 -0.00000000000E+00 -0.50818106563E+03  0.50818106563E+03  0.00000000000E+00 0.  1.
        -24    2    1    2    0    0  0.65692844716E+02 -0.90924466744E+01 -0.30564711162E+03  0.32291512809E+03  0.80347997343E+02 0.  0.
         25    2    1    2    0    0 -0.57938256461E+02  0.59112224017E+02 -0.16373302926E+03  0.22205307562E+03  0.12509183400E+03 0.  0.
         24    2    1    2    0    0 -0.77545882549E+01 -0.50019777343E+02  0.22448176571E+04  0.22468314438E+04  0.80517770423E+02 0.  0.
        -11    1    5    5    0    0 -0.40760616878E+01 -0.47913561190E+01  0.17316403463E+04  0.17316517722E+04  0.00000000000E+00 0.  1.
         12    1    5    5    0    0 -0.36785265671E+01 -0.45228421224E+02  0.51317731082E+03  0.51517967155E+03  0.00000000000E+00 0. -1.
         13    1    3    3    0    0 -0.56798071130E+01 -0.14968463405E+02 -0.10363370560E+02  0.19071301867E+02  0.00000000000E+00 0. -1.
        -14    1    3    3    0    0  0.71372651829E+02  0.58760167309E+01 -0.29528374106E+03  0.30384382623E+03  0.00000000000E+00 0.  1.
          5    1    4    4  501    0  0.79785551939E+01  0.54438384376E+02 -0.11952557449E+02  0.56458224077E+02  0.41800000000E+01 0.  1.
         -5    1    4    4    0  501 -0.65916811655E+02  0.46738396417E+01 -0.15178047181E+03  0.16559485154E+03  0.41800000000E+01 0.  1.
</event>
<event>
11    1  0.8037748E-009  0.2380283E+03  0.7561462E-02  0.1030477E+00
         22   -1    0    0    0    0  0.00000000000E+00  0.00000000000E+00  0.62914064782E+03  0.62914064782E+03  0.00000000000E+00 0.  1.
         22   -1    0    0    0    0 -0.00000000000E+00 -0.00000000000E+00 -0.26827737991E+04  0.26827737991E+04  0.00000000000E+00 0.  1.
        -24    2    1    2    0    0  0.68849311099E+02 -0.24398664163E+02 -0.24250412308E+04  0.24275111984E+04  0.81548300092E+02 0.  0.
         25    2    1    2    0    0  0.73296272051E+02  0.17196957409E+03 -0.18187382713E+03  0.28926270785E+03  0.12509575232E+03 0.  0.
         24    2    1    2    0    0 -0.14214558315E+03 -0.14757090993E+03  0.55328190658E+03  0.59514054065E+03  0.78031113779E+02 0.  0.
        -13    1    5    5    0    0 -0.40046717270E+02 -0.59933741034E+02  0.29771952025E+03  0.30632124578E+03  0.00000000000E+00 0.  1.
         14    1    5    5    0    0 -0.10209886588E+03 -0.87637168898E+02  0.25556238633E+03  0.28881929487E+03  0.00000000000E+00 0. -1.
         11    1    3    3    0    0  0.23903428368E+02 -0.19733024903E+02 -0.23882754879E+03  0.24083057161E+03  0.00000000000E+00 0. -1.
        -12    1    3    3    0    0  0.44945882731E+02 -0.46656392597E+01 -0.21862136820E+04  0.21866806268E+04  0.00000000000E+00 0.  1.
          5    1    4    4  501    0  0.95221849155E+02  0.16242801485E+03 -0.12131453815E+03  0.22401953069E+03  0.41800000000E+01 0. -1.
         -5    1    4    4    0  501 -0.21925577105E+02  0.95415592414E+01 -0.60559288981E+02  0.65243177161E+02  0.41800000000E+01 0. -1.
</event>
<event>
11    1  0.8037748E-009  0.1279128E+03  0.7561462E-02  0.1121860E+00
         22   -1    0    0    0    0  0.00000000000E+00  0.00000000000E+00  0.12757655609E+03  0.12757655609E+03  0.00000000000E+00 0. -1.
         22   -1    0    0    0    0 -0.00000000000E+00 -0.00000000000E+00 -0.22553787050E+04  0.22553787050E+04  0.00000000000E+00 0. -1.
        -24    2    1    2    0    0 -0.87961629586E+01 -0.21061255654E+02 -0.15463641414E+04  0.15486410796E+04  0.80784817723E+02 0.  0.
         25    2    1    2    0    0  0.21165369922E+02  0.43960276748E+02 -0.68691219110E+03  0.69991309856E+03  0.12509799535E+03 0.  0.
         24    2    1    2    0    0 -0.12369206964E+02 -0.22899021094E+02  0.10547418354E+03  0.13440108294E+03  0.79129547292E+02 0.  0.
        -13    1    5    5    0    0  0.13859024887E+02 -0.43873549268E+02  0.40655521953E+02  0.61398960589E+02  0.00000000000E+00 0.  1.
         14    1    5    5    0    0 -0.26228231850E+02  0.20974528174E+02  0.64818661586E+02  0.73002122352E+02  0.00000000000E+00 0. -1.
         11    1    3    3    0    0  0.11828215257E+02 -0.33098428141E+01 -0.13808747034E+04  0.13809293278E+04  0.00000000000E+00 0. -1.
        -12    1    3    3    0    0 -0.20624378215E+02 -0.17751412840E+02 -0.16548943792E+03  0.16771175182E+03  0.00000000000E+00 0.  1.
          5    1    4    4  501    0 -0.28292607357E+02  0.64714267983E+02 -0.51339032888E+03  0.51824271369E+03  0.41800000000E+01 0. -1.
         -5    1    4    4    0  501  0.49457977279E+02 -0.20753991235E+02 -0.17352186222E+03  0.18167038487E+03  0.41800000000E+01 0. -1.
</event>
<event>
11    1  0.8037748E-009  0.5397999E+03  0.7561462E-02  0.9308736E-01
         22   -1    0    0    0    0  0.00000000000E+00  0.00000000000E+00  0.69447461002E+03  0.69447461002E+03  0.00000000000E+00 0.  1.
         22   -1    0    0    0    0 -0.00000000000E+00 -0.00000000000E+00 -0.69751584141E+03  0.69751584141E+03  0.00000000000E+00 0.  1.
        -24    2    1    2    0    0 -0.19714831666E+02 -0.56220228343E+02 -0.11823107665E+03  0.15557313051E+03  0.81700812656E+02 0.  0.
         25    2    1    2    0    0  0.39471512877E+03  0.40411547350E+03 -0.21573418894E+03  0.61749354073E+03  0.12509070215E+03 0.  0.
         24    2    1    2    0    0 -0.37500029710E+03 -0.34789524516E+03  0.33092403419E+03  0.61892378020E+03  0.10908531000E+03 0.  0.
        -13    1    5    5    0    0 -0.36410970005E+03 -0.30382136898E+03  0.28004534392E+03  0.55073468438E+03  0.00000000000E+00 0.  1.
         14    1    5    5    0    0 -0.10890597050E+02 -0.44073876172E+02  0.50878690271E+02  0.68189095819E+02  0.00000000000E+00 0. -1.
         11    1    3    3    0    0 -0.35045351435E+02  0.39738725993E+01 -0.23817709757E+02  0.42558801894E+02  0.00000000000E+00 0. -1.
        -12    1    3    3    0    0  0.15330519769E+02 -0.60194100943E+02 -0.94413366889E+02  0.11301432861E+03  0.00000000000E+00 0.  1.
          5    1    4    4  501    0  0.14353602442E+03  0.13764035118E+03 -0.14037931639E+02  0.19940409350E+03  0.41800000000E+01 0.  1.
         -5    1    4    4    0  501  0.25117910434E+03  0.26647512232E+03 -0.20169625730E+03  0.41808944722E+03  0.41800000000E+01 0.  1.
</event>
<event>
11    1  0.8037748E-009  0.2188511E+03  0.7561462E-02  0.1041940E+00
         22   -1    0    0    0    0  0.00000000000E+00  0.00000000000E+00  0.54406931839E+02  0.54406931839E+02  0.00000000000E+00 0. -1.
         22   -1    0    0    0    0 -0.00000000000E+00 -0.00000000000E+00 -0.37517155221E+04  0.37517155221E+04  0.00000000000E+00 0.  1.
         24    2    1    2    0    0 -0.56229093381E+02  0.12722026533E+03 -0.24933991130E+04  0.24986112251E+04  0.81683599131E+02 0.  0.
         25    2    1    2    0    0  0.11698867334E+03 -0.26362964803E+03 -0.95740516974E+03  0.10076984219E+04  0.12507801359E+03 0.  0.
        -24    2    1    2    0    0 -0.60759579957E+02  0.13640938270E+03 -0.24650430747E+03  0.29981280692E+03  0.82608107031E+02 0.  0.
        -11    1    3    3    0    0 -0.65927008457E+02  0.12311718575E+03 -0.19028024526E+04  0.19079206969E+04  0.00000000000E+00 0.  1.
         12    1    3    3    0    0  0.96979150755E+01  0.41030795831E+01 -0.59059666037E+03  0.59069052816E+03  0.00000000000E+00 0. -1.
         11    1    5    5    0    0 -0.72898313742E+02  0.96036235066E+02 -0.13714393311E+03  0.18260772432E+03  0.00000000000E+00 0. -1.
        -12    1    5    5    0    0  0.12138733784E+02  0.40373147634E+02 -0.10936037435E+03  0.11720508260E+03  0.00000000000E+00 0.  1.
          5    1    4    4  501    0 -0.21126767505E+02 -0.17755926400E+02 -0.14674937708E+03  0.14938027079E+03  0.41800000000E+01 0. -1.
         -5    1    4    4    0  501  0.13811544084E+03 -0.24587372163E+03 -0.81065579265E+03  0.85831815112E+03  0.41800000000E+01 0. -1.
</event>
<event>
11    1  0.8037748E-009  0.1772184E+03  0.7561462E-02  0.1071915E+00
         22   -1    0    0    0    0  0.00000000000E+00  0.00000000000E+00  0.37817474191E+04  0.37817474191E+04  0.00000000000E+00 0.  1.
         22   -1    0    0    0    0 -0.00000000000E+00 -0.00000000000E+00 -0.55015287500E+02  0.55015287500E+02  0.00000000000E+00 0. -1.
         24    2    1    2    0    0 -0.61863779713E+02 -0.53045394480E+02  0.25387199222E+02  0.11733932955E+03  0.80517496605E+02 0.  0.
         25    2    1    2    0    0  0.17101371297E+03  0.32880545437E+02  0.17172074908E+04  0.17305416578E+04  0.12508414201E+03 0.  0.
        -24    2    1    2    0    0 -0.10914993326E+03  0.20164849043E+02  0.19841374416E+04  0.19888817193E+04  0.80800848222E+02 0.  0.
        -11    1    3    3    0    0 -0.48354379407E+02 -0.27148403900E+02  0.53315757770E+02  0.76926925512E+02  0.00000000000E+00 0.  1.
         12    1    3    3    0    0 -0.13509400306E+02 -0.25896990580E+02 -0.27928558548E+02  0.40412404040E+02  0.00000000000E+00 0. -1.
         13    1    5    5    0    0 -0.37784926464E+02  0.24369890946E+02  0.31267661694E+03  0.31589279674E+03  0.00000000000E+00 0. -1.
        -14    1    5    5    0    0 -0.71365006791E+02 -0.42050419037E+01  0.16714608246E+04  0.16729889225E+04  0.00000000000E+00 0.  1.
          5    1    4    4  501    0  0.75018427244E+02  0.22552306752E+02  0.30145667832E+03  0.31149634391E+03  0.41800000000E+01 0. -1.
         -5    1    4    4    0  501  0.95995285725E+02  0.10328238685E+02  0.14157508125E+04  0.14190453138E+04  0.41800000000E+01 0. -1.
</event>
<event>
11    1  0.8037748E-009  0.2217613E+03  0.7561462E-02  0.1040120E+00
         22   -1    0    0    0    0  0.00000000000E+00  0.00000000000E+00  0.40296944608E+03  0.40296944608E+03  0.00000000000E+00 0. -1.
         22   -1    0    0    0    0 -0.00000000000E+00 -0.00000000000E+00 -0.44118548197E+03  0.44118548197E+03  0.00000000000E+00 0.  1.
        -24    2    1    2    0    0 -0.77466631277E+01 -0.49572165185E+02 -0.30703502246E+03  0.32164030990E+03  0.81636839607E+02 0.  0.
         25    2    1    2    0    0 -0.17512354533E+03  0.23553988167E+01  0.47616339933E+02  0.22042726767E+03  0.12508821077E+03 0.  0.
         24    2    1    2    0    0  0.18287020846E+03  0.47216766368E+02  0.22120264664E+03  0.30208735048E+03  0.81579533422E+02 0.  0.
        -13    1    5    5    0    0 -0.83605814150E+01  0.46041326358E+01  0.72746615617E+01  0.12000752466E+02  0.00000000000E+00 0.  1.
         14    1    5    5    0    0  0.19123078987E+03  0.42612633733E+02  0.21392798508E+03  0.29008659802E+03  0.00000000000E+00 0. -1.
         11    1    3    3    0    0 -0.18028455345E+02  0.18909586166E+02 -0.70900165625E+02  0.75560777767E+02  0.00000000000E+00 0. -1.
        -12    1    3    3    0    0  0.10281792218E+02 -0.68481751351E+02 -0.23613485684E+03  0.24607953213E+03  0.00000000000E+00 0.  1.
          5    1    4    4  501    0  0.36102847464E+01  0.26391595913E+02 -0.13251527279E+02  0.30043732557E+02  0.41800000000E+01 0. -1.
         -5    1    4    4    0  501 -0.17873383008E+03 -0.24036197096E+02  0.60867867211E+02  0.19038353512E+03  0.41800000000E+01 0. -1.
</event>
<event>
11    1  0.8037748E-009  0.1544193E+03  0.7561462E-02  0.1092447E+00
         22   -1    0    0    0    0  0.00000000000E+00  0.00000000000E+00  0.29939830745E+03  0.29939830745E+03  0.00000000000E+00 0.  1.
         22   -1    0    0    0    0 -0.00000000000E+00 -0.00000000000E+00 -0.10490103326E+04  0.10490103326E+04  0.00000000000E+00 0. -1.
         24    2    1    2    0    0 -0.43047657461E+02  0.72817346632E+02 -0.85434038379E+03  0.86232476471E+03  0.80938505482E+02 0.  0.
         25    2    1    2    0    0 -0.43532007641E+02 -0.10272724411E+03 -0.13623723856E+03  0.21600464194E+03  0.12509795280E+03 0.  0.
        -24    2    1    2    0    0  0.86579665103E+02  0.29909897477E+02  0.24096559724E+03  0.27007923337E+03  0.80546464022E+02 0.  0.
        -13    1    3    3    0    0 -0.66734143361E+02  0.61295801961E+02 -0.64496640598E+03  0.65130045760E+03  0.00000000000E+00 0.  1.
         14    1    3    3    0    0  0.23686485899E+02  0.11521544670E+02 -0.20937397782E+03  0.21102430711E+03  0.00000000000E+00 0. -1.
         13    1    5    5    0    0  0.92017410827E-02  0.35174093459E+02  0.73806510830E+02  0.81759513063E+02  0.00000000000E+00 0. -1.
        -14    1    5    5    0    0  0.86570463362E+02 -0.52641959826E+01  0.16715908641E+03  0.18831972030E+03  0.00000000000E+00 0.  1.
          5    1    4    4  501    0 -0.45155747662E+01 -0.10805089342E+03 -0.13916830866E+03  0.17629712567E+03  0.41800000000E+01 0. -1.
         -5    1    4    4    0  501 -0.39016432875E+02  0.53236493137E+01  0.29310700919E+01  0.39707516268E+02  0.41800000000E+01 0. -1.
</event>
<event>
11    1  0.8037748E-009  0.1339963E+03  0.7561462E-02  0.1114454E+00
         22   -1    0    0    0    0  0.00000000000E+00  0.00000000000E+00  0.81686984706E+02  0.81686984706E+02  0.00000000000E+00 0.  1.
         22   -1    0    0    0    0 -0.00000000000E+00 -0.00000000000E+00 -0.63598090595E+03  0.63598090595E+03  0.00000000000E+00 0.  1.
        -24    2    1    2    0    0  0.24127165590E+02  0.14484173262E+02 -0.46298425705E+03  0.46863049390E+03  0.66844641807E+02 0.  0.
         25    2    1    2    0    0 -0.38349241331E+02 -0.50467051429E+02 -0.54775193963E+02  0.15055058730E+03  0.12509024691E+03 0.  0.
         24    2    1    2    0    0  0.14222075741E+02  0.35982878167E+02 -0.36534470227E+02  0.98486809455E+02  0.82872487366E+02 0.  0.
        -11    1    5    5    0    0  0.24712532445E+02  0.13885801652E+02  0.21454287958E+02  0.35550122632E+02  0.00000000000E+00 0.  1.
         12    1    5    5    0    0 -0.10490456704E+02  0.22097076515E+02 -0.57988758185E+02  0.62936686823E+02  0.00000000000E+00 0. -1.
         13    1    3    3    0    0  0.11882642014E+02  0.31049939654E+02 -0.10689051150E+03  0.11194140156E+03  0.00000000000E+00 0. -1.
        -14    1    3    3    0    0  0.12244523576E+02 -0.16565766392E+02 -0.35609374555E+03  0.35668909234E+03  0.00000000000E+00 0.  1.
          5    1    4    4  501    0 -0.72285650019E+02 -0.46506605696E+02 -0.23405630892E+00  0.86055835098E+02  0.41800000000E+01 0.  1.
         -5    1    4    4    0  501  0.33936408688E+02 -0.39604457331E+01 -0.54541137654E+02  0.64494752202E+02  0.41800000000E+01 0.  1.
</event>
<event>
11    1  0.8037748E-009  0.1967328E+03  0.7561462E-02  0.1056858E+00
         22   -1    0    0    0    0  0.00000000000E+00  0.00000000000E+00  0.10820914499E+04  0.10820914499E+04  0.00000000000E+00 0. -1.
         22   -1    0    0    0    0 -0.00000000000E+00 -0.00000000000E+00 -0.64025568956E+03  0.64025568956E+03  0.00000000000E+00 0.  1.
        -24    2    1    2    0    0  0.15074183241E+03 -0.19999871679E+02 -0.60751090209E+03  0.63145204623E+03  0.80864674768E+02 0.  0.
         25    2    1    2    0    0 -0.13951816102E+03  0.31395068350E+02  0.49014606259E+03  0.52568251749E+03  0.12509188205E+03 0.  0.
         24    2    1    2    0    0 -0.11223671390E+02 -0.11395196670E+02  0.55920059986E+03  0.56521257575E+03  0.80648146854E+02 0.  0.
        -11    1    5    5    0    0 -0.34922779618E+02  0.16798625811E+02  0.17442000797E+03  0.17867325918E+03  0.00000000000E+00 0.  1.
         12    1    5    5    0    0  0.23699108228E+02 -0.28193822482E+02  0.38478059189E+03  0.38653931657E+03  0.00000000000E+00 0. -1.
         13    1    3    3    0    0  0.69179636277E+01  0.18067399248E+02 -0.12612195521E+03  0.12759716581E+03  0.00000000000E+00 0. -1.
        -14    1    3    3    0    0  0.14382386878E+03 -0.38067270927E+02 -0.48138894688E+03  0.50385488042E+03  0.00000000000E+00 0.  1.
          5    1    4    4  501    0 -0.10730528488E+03  0.56427479323E+02  0.20975123658E+03  0.24230463931E+03  0.41800000000E+01 0. -1.
         -5    1    4    4    0  501 -0.32212876137E+02 -0.25032410974E+02  0.28039482601E+03  0.28337787818E+03  0.41800000000E+01 0. -1.
</event>
<event>
11    1  0.8037748E-009  0.1784876E+03  0.7561462E-02  0.1070873E+00
         22   -1    0    0    0    0  0.00000000000E+00  0.00000000000E+00  0.75221631983E+03  0.75221631983E+03  0.00000000000E+00 0.  1.
         22   -1    0    0    0    0 -0.00000000000E+00 -0.00000000000E+00 -0.42828726033E+03  0.42828726033E+03  0.00000000000E+00 0. -1.
        -24    2    1    2    0    0  0.84710562417E+02  0.90129837606E+02 -0.30858954567E+03  0.34178821150E+03  0.79324692318E+02 0.  0.
         25    2    1    2    0    0 -0.62873549746E+02 -0.14408087839E+03  0.26473690215E+01  0.20091402446E+03  0.12508818444E+03 0.  0.
         24    2    1    2    0    0 -0.21837012671E+02  0.53951040781E+02  0.62987123615E+03  0.63780134421E+03  0.81640741169E+02 0.  0.
        -11    1    5    5    0    0 -0.43696314056E+02  0.54379169768E+01  0.36432793853E+03  0.36697927134E+03  0.00000000000E+00 0.  1.
         12    1    5    5    0    0  0.21859301384E+02  0.48513123804E+02  0.26554329762E+03  0.27082207286E+03  0.00000000000E+00 0. -1.
         11    1    3    3    0    0  0.94073527863E+02  0.96836676949E+02 -0.27663650528E+03  0.30782288203E+03  0.00000000000E+00 0. -1.
        -12    1    3    3    0    0 -0.93629654459E+01 -0.67068393426E+01 -0.31953040382E+02  0.33965329463E+02  0.00000000000E+00 0.  1.
          5    1    4    4  501    0 -0.45661287119E+02 -0.15361734443E+03 -0.29485699081E+02  0.16300343709E+03  0.41800000000E+01 0.  1.
         -5    1    4    4    0  501 -0.17212262627E+02  0.95364660446E+01  0.32133068102E+02  0.37910587374E+02  0.41800000000E+01 0.  1.
</event>
<event>
11    1  0.8037748E-009  0.1682562E+03  0.7561462E-02  0.1079559E+00
         22   -1    0    0    0    0  0.00000000000E+00  0.00000000000E+00  0.19584108644E+04  0.19584108644E+04  0.00000000000E+00 0. -1.
         22   -1    0    0    0    0 -0.00000000000E+00 -0.00000000000E+00 -0.20170840818E+03  0.20170840818E+03  0.00000000000E+00 0. -1.
         24    2    1    2    0    0 -0.10552594769E+03 -0.54231043657E+01 -0.93532473772E+02  0.16219320712E+03  0.79957345432E+02 0.  0.
         25    2    1    2    0    0  0.13861339462E+03 -0.66848418708E+02  0.64697876417E+02  0.20859956375E+03  0.12508228703E+03 0.  0.
        -24    2    1    2    0    0 -0.33087446936E+02  0.72271523073E+02  0.17855370536E+04  0.17893265018E+04  0.85022396447E+02 0.  0.
        -11    1    3    3    0    0  0.19968772855E+01 -0.19022991982E+02 -0.32766920347E+02  0.37941175678E+02  0.00000000000E+00 0.  1.
         12    1    3    3    0    0 -0.10752282497E+03  0.13599887617E+02 -0.60765553425E+02  0.12425203144E+03  0.00000000000E+00 0. -1.
         11    1    5    5    0    0 -0.27721142490E+02  0.33414650768E+02  0.15451699610E+04  0.15457798061E+04  0.00000000000E+00 0. -1.
        -12    1    5    5    0    0 -0.53663044461E+01  0.38856872306E+02  0.24036709265E+03  0.24354669568E+03  0.00000000000E+00 0.  1.
          5    1    4    4  501    0  0.12600420491E+03  0.40079276956E+01  0.44095016491E+02  0.13362247573E+03  0.41800000000E+01 0. -1.
         -5    1    4    4    0  501  0.12609189711E+02 -0.70856346403E+02  0.20602859926E+02  0.74977088020E+02  0.41800000000E+01 0. -1.
</event>
<event>
11    1  0.8037748E-009  0.1426739E+03  0.7561462E-02  0.1104609E+00
         22   -1    0    0    0    0  0.00000000000E+00  0.00000000000E+00  0.58253738745E+03  0.58253738745E+03  0.00000000000E+00 0. -1.
         22   -1    0    0    0    0 -0.00000000000E+00 -0.00000000000E+00 -0.38316420775E+03  0.38316420775E+03  0.00000000000E+00 0.  1.
         24    2    1    2    0    0  0.15243317201E+02  0.12162337246E+01 -0.32820821251E+03  0.33886308916E+03  0.82907927787E+02 0.  0.
         25    2    1    2    0    0 -0.62114242774E+02  0.47371451177E+02  0.79599784359E+02  0.16758489167E+03  0.12508531770E+03 0.  0.
        -24    2    1    2    0    0  0.46870925573E+02 -0.48587684902E+02  0.44798160786E+03  0.45925361437E+03  0.75290866283E+02 0.  0.
        -11    1    3    3    0    0  0.42471502484E+02 -0.91058159024E+01 -0.27311852957E+03  0.27655103616E+03  0.00000000000E+00 0.  1.
         12    1    3    3    0    0 -0.27228185283E+02  0.10322049627E+02 -0.55089682946E+02  0.62312053003E+02  0.00000000000E+00 0. -1.
         13    1    5    5    0    0  0.41514101651E+02 -0.42589707849E+02  0.44724042671E+03  0.45117768465E+03  0.00000000000E+00 0. -1.
        -14    1    5    5    0    0  0.53568239220E+01 -0.59979770523E+01  0.74118115020E+00  0.80759297142E+01  0.00000000000E+00 0.  1.
          5    1    4    4  501    0 -0.67456011620E+02  0.48990598329E+02 -0.41198427457E+01  0.83575341654E+02  0.41800000000E+01 0.  1.
         -5    1    4    4    0  501  0.53417688464E+01 -0.16191471519E+01  0.83719627105E+02  0.84009550019E+02  0.41800000000E+01 0.  1.
</event>
<event>
11    1  0.8037748E-009  0.1453185E+03  0.7561462E-02  0.1101761E+00
         22   -1    0    0    0    0  0.00000000000E+00  0.00000000000E+00  0.61150939726E+03  0.61150939726E+03  0.00000000000E+00 0.  1.
         22   -1    0    0    0    0 -0.00000000000E+00 -0.00000000000E+00 -0.44072553614E+03  0.44072553614E+03  0.00000000000E+00 0.  1.
         24    2    1    2    0    0  0.65273998389E+02  0.32116462878E+02 -0.38759668655E+03  0.40264903656E+03  0.81258188328E+02 0.  0.
         25    2    1    2    0    0 -0.10276979183E+03 -0.14074590131E+02  0.11818150950E+03  0.20094797454E+03  0.12511392842E+03 0.  0.
        -24    2    1    2    0    0  0.37495793442E+02 -0.18041872747E+02  0.44019903818E+03  0.44863792230E+03  0.75956226964E+02 0.  0.
        -11    1    3    3    0    0  0.72028220969E+02 -0.22457556517E+01 -0.22249466850E+03  0.23387386674E+03  0.00000000000E+00 0.  1.
         12    1    3    3    0    0 -0.67542225801E+01  0.34362218530E+02 -0.16510201805E+03  0.16877516982E+03  0.00000000000E+00 0. -1.
         13    1    5    5    0    0  0.34548112490E+02 -0.31116943288E+02  0.12853943638E+03  0.13669024450E+03  0.00000000000E+00 0. -1.
        -14    1    5    5    0    0  0.29476809519E+01  0.13075070542E+02  0.31165960179E+03  0.31194767780E+03  0.00000000000E+00 0.  1.
          5    1    4    4  501    0 -0.38413039603E+02  0.51290042412E+02  0.77134191873E+02  0.10036625936E+03  0.41800000000E+01 0. -1.
         -5    1    4    4    0  501 -0.64356752229E+02 -0.65364632543E+02  0.41047317623E+02  0.10058171518E+03  0.41800000000E+01 0. -1.
</event>
<event>
11    1  0.8037748E-009  0.1404502E+03  0.7561462E-02  0.1107057E+00
         22   -1    0    0    0    0  0.00000000000E+00  0.00000000000E+00  0.15370415726E+03  0.15370415726E+03  0.00000000000E+00 0.  1.
         22   -1    0    0    0    0 -0.00000000000E+00 -0.00000000000E+00 -0.33278459194E+03  0.33278459194E+03  0.00000000000E+00 0. -1.
        -24    2    1    2    0    0  0.15617756406E+01 -0.61647347562E+02 -0.17126040576E+03  0.19999165575E+03  0.82847457325E+02 0.  0.
         25    2    1    2    0    0 -0.37622629440E+02  0.66867455344E+02 -0.84797262323E+02  0.16948137039E+03  0.12508653157E+03 0.  0.
         24    2    1    2    0    0  0.36060853799E+02 -0.52201077815E+01  0.76977233404E+02  0.11701572306E+03  0.80246808533E+02 0.  0.
        -13    1    5    5    0    0  0.31372674034E+02  0.29248327963E+02  0.69130951914E+02  0.81355994722E+02  0.00000000000E+00 0.  1.
         14    1    5    5    0    0  0.46881797647E+01 -0.34468435744E+02  0.78462814895E+01  0.35659728342E+02  0.00000000000E+00 0. -1.
         11    1    3    3    0    0  0.19300496494E+02 -0.49457790150E+02 -0.17036970803E+03  0.17845004788E+03  0.00000000000E+00 0. -1.
        -12    1    3    3    0    0 -0.17738720854E+02 -0.12189557413E+02 -0.89069772501E+00  0.21541607876E+02  0.00000000000E+00 0.  1.
          5    1    4    4  501    0 -0.55026956231E+01 -0.32575579335E+02  0.22980677514E+01  0.33379657631E+02  0.41800000000E+01 0.  1.
         -5    1    4    4    0  501 -0.32119933817E+02  0.99443034679E+02 -0.87095330075E+02  0.13610171276E+03  0.41800000000E+01 0.  1.
</event>
<event>
11    1  0.8037748E-009  0.1471999E+03  0.7561462E-02  0.1099775E+00
         22   -1    0    0    0    0  0.00000000000E+00  0.00000000000E+00  0.64653968459E+02  0.64653968459E+02  0.00000000000E+00 0. -1.
         22   -1    0    0    0    0 -0.00000000000E+00 -0.00000000000E+00 -0.33335834370E+04  0.33335834370E+04  0.00000000000E+00 0. -1.
         24    2    1    2    0    0 -0.28078556615E+02 -0.57609331184E+01 -0.24282595478E+04  0.24298222638E+04  0.82281275924E+02 0.  0.
         25    2    1    2    0    0 -0.21887507469E+02  0.66156146611E+02 -0.84424368949E+03  0.85630038886E+03  0.12508896835E+03 0.  0.
        -24    2    1    2    0    0  0.49966064083E+02 -0.60395213493E+02  0.35737687531E+01  0.11211475282E+03  0.80079689082E+02 0.  0.
        -13    1    3    3    0    0 -0.54997127830E+02 -0.53001372351E+01 -0.12044572781E+04  0.12057238947E+04  0.00000000000E+00 0.  1.
         14    1    3    3    0    0  0.26918571216E+02 -0.46079588329E+00 -0.12238022697E+04  0.12240983691E+04  0.00000000000E+00 0. -1.
         11    1    5    5    0    0  0.88575287108E+01 -0.67372911284E+02  0.13434868150E+02  0.69268034994E+02  0.00000000000E+00 0. -1.
        -12    1    5    5    0    0  0.41108535373E+02  0.69776977909E+01 -0.98610993971E+01  0.42846717824E+02  0.00000000000E+00 0.  1.
          5    1    4    4  501    0  0.11389324060E+02  0.87568212325E+02 -0.37102570235E+03  0.38141244436E+03  0.41800000000E+01 0.  1.
         -5    1    4    4    0  501 -0.33276831529E+02 -0.21412065714E+02 -0.47321798714E+03  0.47488794450E+03  0.41800000000E+01 0.  1.
</event>
<event>
11    1  0.8037748E-009  0.1912588E+03  0.7561462E-02  0.1060883E+00
         22   -1    0    0    0    0  0.00000000000E+00  0.00000000000E+00  0.20654184766E+03  0.20654184766E+03  0.00000000000E+00 0.  1.
         22   -1    0    0    0    0 -0.00000000000E+00 -0.00000000000E+00 -0.12478200083E+04  0.12478200083E+04  0.00000000000E+00 0. -1.
        -24    2    1    2    0    0 -0.93528470660E+02 -0.11059288452E+03 -0.11365424971E+04  0.11482921137E+04  0.76600062747E+02 0.  0.
         25    2    1    2    0    0  0.73245510271E+02  0.12371470894E+03  0.18398519728E+02  0.19145742869E+03  0.12508879842E+03 0.  0.
         24    2    1    2    0    0  0.20282960388E+02 -0.13121824424E+02  0.76865816768E+02  0.11461231359E+03  0.81511029198E+02 0.  0.
        -11    1    5    5    0    0  0.14782308559E+02 -0.29603748795E+02  0.87972890249E+02  0.93990042067E+02  0.00000000000E+00 0.  1.
         12    1    5    5    0    0  0.55006518287E+01  0.16481924371E+02 -0.11107073481E+02  0.20622271524E+02  0.00000000000E+00 0. -1.
         13    1    3    3    0    0 -0.14828228348E+02  0.95852065896E+01 -0.20237286618E+03  0.20314164887E+03  0.00000000000E+00 0. -1.
        -14    1    3    3    0    0 -0.78700242311E+02 -0.12017809111E+03 -0.93416963096E+03  0.94515046481E+03  0.00000000000E+00 0.  1.
          5    1    4    4  501    0 -0.31675446895E+02  0.91417049206E+01  0.13782926680E+02  0.35977022844E+02  0.41800000000E+01 0.  1.
         -5    1    4    4    0  501  0.10492095717E+03  0.11457300402E+03  0.46155930479E+01  0.15548040585E+03  0.41800000000E+01 0.  1.
</event>
<event>
11    1  0.8037748E-009  0.1395640E+03  0.7561462E-02  0.1108046E+00
         22   -1    0    0    0    0  0.00000000000E+00  0.00000000000E+00  0.30483995817E+03  0.30483995817E+03  0.00000000000E+00 0.  1.
         22   -1    0    0    0    0 -0.00000000000E+00 -0.00000000000E+00 -0.40787468236E+03  0.40787468236E+03  0.00000000000E+00 0. -1.
         24    2    1    2    0    0 -0.11052526285E+02 -0.15361206415E+02 -0.29391345571E+03  0.30514847818E+03  0.79826996010E+02 0.  0.
         25    2    1    2    0    0  0.64690216110E+02 -0.15071358588E+02 -0.46759429778E+02  0.14915114204E+03  0.12509056315E+03 0.  0.
        -24    2    1    2    0    0 -0.53637689826E+02  0.30432565003E+02  0.23763816129E+03  0.25841502031E+03  0.80642942875E+02 0.  0.
        -11    1    3    3    0    0 -0.41455534106E+02 -0.10957694823E+02 -0.99836579534E+02  0.10865530358E+03  0.00000000000E+00 0.  1.
         12    1    3    3    0    0  0.30403007822E+02 -0.44035115920E+01 -0.19407687617E+03  0.19649317460E+03  0.00000000000E+00 0. -1.
         13    1    5    5    0    0 -0.59771897705E+01 -0.57364768802E+01 -0.41981166496E+01  0.92875264712E+01  0.00000000000E+00 0. -1.
        -14    1    5    5    0    0 -0.47660500055E+02  0.36169041883E+02  0.24183627794E+03  0.24912749384E+03  0.00000000000E+00 0.  1.
          5    1    4    4  501    0  0.88065425970E+02  0.27190952411E+02 -0.38514090674E+02  0.99978371285E+02  0.41800000000E+01 0.  1.
         -5    1    4    4    0  501 -0.23375209860E+02 -0.42262310999E+02 -0.82453391039E+01  0.49172770757E+02  0.41800000000E+01 0.  1.
</event>
<event>
11    1  0.8037748E-009  0.1552413E+03  0.7561462E-02  0.1091640E+00
         22   -1    0    0    0    0  0.00000000000E+00  0.00000000000E+00  0.93083759784E+03  0.93083759784E+03  0.00000000000E+00 0. -1.
         22   -1    0    0    0    0 -0.00000000000E+00 -0.00000000000E+00 -0.78560925377E+03  0.78560925377E+03  0.00000000000E+00 0.  1.
        -24    2    1    2    0    0  0.95134525498E+01  0.71413658476E+02 -0.67878899188E+03  0.68756013990E+03  0.82425930838E+02 0.  0.
         25    2    1    2    0    0 -0.42089864585E+02 -0.15378915688E+03  0.77687655898E+01  0.20280396458E+03  0.12508570204E+03 0.  0.
         24    2    1    2    0    0  0.32576412035E+02  0.82375498406E+02  0.81624857036E+03  0.82608274714E+03  0.91126456881E+02 0.  0.
        -13    1    5    5    0    0  0.63904404746E+01  0.40184700290E+02  0.97889122753E+02  0.10600909499E+03  0.00000000000E+00 0.  1.
         14    1    5    5    0    0  0.26185971561E+02  0.42190798116E+02  0.71835944761E+03  0.72007365215E+03  0.00000000000E+00 0. -1.
         13    1    3    3    0    0 -0.52756803504E+01 -0.13463459629E+02 -0.32733021773E+02  0.35784749024E+02  0.00000000000E+00 0. -1.
        -14    1    3    3    0    0  0.14789132900E+02  0.84877118105E+02 -0.64605597011E+03  0.65177539087E+03  0.00000000000E+00 0.  1.
          5    1    4    4  501    0  0.23702746267E+02 -0.71989280293E+02  0.48553261132E+02  0.90106427209E+02  0.41800000000E+01 0.  1.
         -5    1    4    4    0  501 -0.65792610852E+02 -0.81799876589E+02 -0.40784495542E+02  0.11269753737E+03  0.41800000000E+01 0.  1.
</event>
<event>
11    1  0.8037748E-009  0.1499319E+03  0.7561462E-02  0.1096948E+00
         22   -1    0    0    0    0  0.00000000000E+00  0.00000000000E+00  0.20517636008E+04  0.20517636008E+04  0.00000000000E+00 0. -1.
         22   -1    0    0    0    0 -0.00000000000E+00 -0.00000000000E+00 -0.20533431857E+03  0.20533431857E+03  0.00000000000E+00 0. -1.
         24    2    1    2    0    0  0.12486385787E+02  0.26589724593E+02 -0.15828355003E+03  0.17932867994E+03  0.79007404429E+02 0.  0.
         25    2    1    2    0    0 -0.66271779218E+02  0.36950166436E+02  0.11893721052E+03  0.18853927639E+03  0.12507491825E+03 0.  0.
        -24    2    1    2    0    0  0.53785393431E+02 -0.63539891029E+02  0.18857756218E+04  0.18892299631E+04  0.78166305984E+02 0.  0.
        -11    1    3    3    0    0  0.29201745480E+02 -0.13132825588E+02 -0.29541983934E+02  0.43565374574E+02  0.00000000000E+00 0.  1.
         12    1    3    3    0    0 -0.16715359693E+02  0.39722550181E+02 -0.12874156610E+03  0.13576330537E+03  0.00000000000E+00 0. -1.
         11    1    5    5    0    0  0.67268621374E+02 -0.31468630124E+02  0.99128081604E+03  0.99405885055E+03  0.00000000000E+00 0. -1.
        -12    1    5    5    0    0 -0.13483227942E+02 -0.32071260904E+02  0.89449480575E+03  0.89517111254E+03  0.00000000000E+00 0.  1.
          5    1    4    4  501    0 -0.91458472433E+02 -0.55978319570E+01  0.99281914462E+02  0.13516789131E+03  0.41800000000E+01 0. -1.
         -5    1    4    4    0  501  0.25186693214E+02  0.42547998393E+02  0.19655296055E+02  0.53371385079E+02  0.41800000000E+01 0. -1.
</event>
<event>
11    1  0.8037748E-009  0.1322890E+03  0.7561462E-02  0.1116488E+00
         22   -1    0    0    0    0  0.00000000000E+00  0.00000000000E+00  0.47667683293E+03  0.47667683293E+03  0.00000000000E+00 0.  1.
         22   -1    0    0    0    0 -0.00000000000E+00 -0.00000000000E+00 -0.50019003473E+03  0.50019003473E+03  0.00000000000E+00 0. -1.
        -24    2    1    2    0    0  0.19269500187E+01 -0.45980161241E+02 -0.46290879289E+03  0.47213771564E+03  0.80694384121E+02 0.  0.
         25    2    1    2    0    0  0.26131966667E+02  0.20114832585E+01  0.13916029783E+03  0.18894546818E+03  0.12509146936E+03 0.  0.
         24    2    1    2    0    0 -0.28058916686E+02  0.43968677982E+02  0.30023529326E+03  0.31578368384E+03  0.82810362954E+02 0.  0.
        -13    1    5    5    0    0 -0.57689685567E+02  0.27291826561E+02  0.19118809715E+03  0.20155850791E+03  0.00000000000E+00 0.  1.
         14    1    5    5    0    0  0.29630768882E+02  0.16676851421E+02  0.10904719611E+03  0.11422517593E+03  0.00000000000E+00 0. -1.
         11    1    3    3    0    0 -0.93543568233E+01 -0.24938861432E+02 -0.43322939931E+03  0.43404742048E+03  0.00000000000E+00 0. -1.
        -12    1    3    3    0    0  0.11281306842E+02 -0.21041299809E+02 -0.29679393579E+02  0.38090295154E+02  0.00000000000E+00 0.  1.
          5    1    4    4  501    0  0.81832652964E+01 -0.38235759148E+02 -0.35913689885E+01  0.39488092379E+02  0.41800000000E+01 0.  1.
         -5    1    4    4    0  501  0.17948701371E+02  0.40247242407E+02  0.14275166682E+03  0.14945737580E+03  0.41800000000E+01 0.  1.
</event>
<event>
11    1  0.8037748E-009  0.1492424E+03  0.7561462E-02  0.1097655E+00
         22   -1    0    0    0    0  0.00000000000E+00  0.00000000000E+00  0.77432950557E+03  0.77432950557E+03  0.00000000000E+00 0. -1.
         22   -1    0    0    0    0 -0.00000000000E+00 -0.00000000000E+00 -0.96153173848E+03  0.96153173848E+03  0.00000000000E+00 0. -1.
         24    2    1    2    0    0 -0.31452519563E+02 -0.17138770704E+02 -0.86326497891E+03  0.86766108403E+03  0.79538257929E+02 0.  0.
         25    2    1    2    0    0  0.73824173279E+02 -0.52246184343E+02 -0.26400703598E+02  0.15660074217E+03  0.12508846054E+03 0.  0.
        -24    2    1    2    0    0 -0.42371653716E+02  0.69384955048E+02  0.70246344960E+03  0.71159941785E+03  0.79430500660E+02 0.  0.
        -13    1    3    3    0    0 -0.33318985515E+02 -0.14438266555E+02 -0.14803891791E+03  0.15242748949E+03  0.00000000000E+00 0.  1.
         14    1    3    3    0    0  0.18664659526E+01 -0.27005041498E+01 -0.71522606100E+03  0.71523359454E+03  0.00000000000E+00 0. -1.
         11    1    5    5    0    0 -0.33195353544E+02  0.61369893298E+01  0.44663243545E+03  0.44790638144E+03  0.00000000000E+00 0. -1.
        -12    1    5    5    0    0 -0.91763001721E+01  0.63247965718E+02  0.25583101415E+03  0.26369303641E+03  0.00000000000E+00 0.  1.
          5    1    4    4  501    0  0.46405987972E+02 -0.91365976053E+02 -0.33997171208E+02  0.10804877301E+03  0.41800000000E+01 0. -1.
         -5    1    4    4    0  501  0.27418185307E+02  0.39119791709E+02  0.75964676099E+01  0.48551969157E+02  0.41800000000E+01 0. -1.
</event>
<event>
11    1  0.1175551E-008  0.1637263E+03  0.7561462E-02  0.1083624E+00
         22   -1    0    0    0    0  0.00000000000E+00  0.00000000000E+00  0.69938217351E+03  0.69938217351E+03  0.00000000000E+00 0. -1.
         22   -1    0    0    0    0 -0.00000000000E+00 -0.00000000000E+00 -0.73369011847E+03  0.73369011847E+03  0.00000000000E+00 0.  1.
        -24    2    1    2    0    0  0.67359284760E+02  0.64346338078E+02 -0.60287817970E+03  0.61521426195E+03  0.79679132080E+02 0.  0.
         25    2    1    2    0    0 -0.16805246973E+03 -0.45492316062E+02 -0.19750994983E+02  0.21528551811E+03  0.12508624666E+03 0.  0.
         24    2    1    2    0    0  0.10069318497E+03 -0.18854022016E+02  0.58832122971E+03  0.60257251192E+03  0.80480874388E+02 0.  0.
        -11    1    5    5    0    0  0.25344779667E+02 -0.31918776047E+01  0.31962806199E+02  0.40916584891E+02  0.00000000000E+00 0.  1.
         12    1    5    5    0    0  0.75348405298E+02 -0.15662144411E+02  0.55635842352E+03  0.56165592703E+03  0.00000000000E+00 0. -1.
         13    1    3    3    0    0 -0.32522119639E+01  0.20412708555E+02 -0.30613415221E+02  0.36938282914E+02  0.00000000000E+00 0. -1.
        -14    1    3    3    0    0  0.70611496724E+02  0.43933629523E+02 -0.57226476447E+03  0.57827597904E+03  0.00000000000E+00 0.  1.
          5    1    4    4  501    0 -0.13743694976E+03 -0.60577482669E+02  0.31547054823E+02  0.15352926638E+03  0.41800000000E+01 0.  1.
         -5    1    4    4    0  501 -0.30615519961E+02  0.15085166606E+02 -0.51298049806E+02  0.61756251731E+02  0.41800000000E+01 0.  1.
</event>
<event>
11    1  0.8037748E-009  0.1922095E+03  0.7561462E-02  0.1060174E+00
         22   -1    0    0    0    0  0.00000000000E+00  0.00000000000E+00  0.17876103421E+04  0.17876103421E+04  0.00000000000E+00 0.  1.
         22   -1    0    0    0    0 -0.00000000000E+00 -0.00000000000E+00 -0.48176412256E+03  0.48176412256E+03  0.00000000000E+00 0. -1.
         24    2    1    2    0    0 -0.23428264663E+02 -0.34872626866E+02 -0.41204528241E+03  0.42193806236E+03  0.80532167605E+02 0.  0.
         25    2    1    2    0    0  0.16736925959E+03  0.21190835770E+02  0.12185616673E+03  0.24281061026E+03  0.12508615634E+03 0.  0.
        -24    2    1    2    0    0 -0.14394099493E+03  0.13681791095E+02  0.15960353352E+04  0.16046257920E+04  0.81172284687E+02 0.  0.
        -13    1    3    3    0    0  0.22268909482E+02 -0.27836953297E+02 -0.93689102523E+02  0.10024194845E+03  0.00000000000E+00 0.  1.
         14    1    3    3    0    0 -0.45697174145E+02 -0.70356735691E+01 -0.31835617989E+03  0.32169611390E+03  0.00000000000E+00 0. -1.
         11    1    5    5    0    0 -0.24544330094E+02  0.34591295127E+02  0.53810091982E+03  0.53976993410E+03  0.00000000000E+00 0. -1.
        -12    1    5    5    0    0 -0.11939666484E+03 -0.20909504032E+02  0.10579344154E+04  0.10648558579E+04  0.00000000000E+00 0.  1.
          5    1    4    4  501    0  0.25217636788E+02  0.48036164367E+02  0.70907638807E+02  0.89379907885E+02  0.41800000000E+01 0.  1.
         -5    1    4    4    0  501  0.14215162280E+03 -0.26845328597E+02  0.50948527918E+02  0.15343070237E+03  0.41800000000E+01 0.  1.
</event>
<event>
11    1  0.8037748E-009  0.1370729E+03  0.7561462E-02  0.1110872E+00
         22   -1    0    0    0    0  0.00000000000E+00  0.00000000000E+00  0.31408933834E+03  0.31408933834E+03  0.00000000000E+00 0.  1.
         22   -1    0    0    0    0 -0.00000000000E+00 -0.00000000000E+00 -0.26395823681E+03  0.26395823681E+03  0.00000000000E+00 0.  1.
        -24    2    1    2    0    0  0.20802363243E+02 -0.54949099257E+02 -0.19548505878E+03  0.21927648989E+03  0.80097621598E+02 0.  0.
         25    2    1    2    0    0  0.33319068855E+02  0.44784854123E+02  0.61609503234E+02  0.15019210315E+03  0.12508434534E+03 0.  0.
         24    2    1    2    0    0 -0.54121432098E+02  0.10164245133E+02  0.18400665708E+03  0.20857898211E+03  0.81328350740E+02 0.  0.
        -13    1    5    5    0    0 -0.16104595801E+02  0.42637234563E+02  0.11197935258E+03  0.12089940935E+03  0.00000000000E+00 0.  1.
         14    1    5    5    0    0 -0.38016836297E+02 -0.32472989430E+02  0.72027304501E+02  0.87679572753E+02  0.00000000000E+00 0. -1.
         13    1    3    3    0    0 -0.12337571435E+02 -0.15225524810E+02 -0.28340552961E+01  0.19800609690E+02  0.00000000000E+00 0. -1.
        -14    1    3    3    0    0  0.33139934678E+02 -0.39723574446E+02 -0.19265100349E+03  0.19947588020E+03  0.00000000000E+00 0.  1.
          5    1    4    4  501    0 -0.13535014765E+02  0.34189202308E+02  0.87827836709E+02  0.95306345434E+02  0.41800000000E+01 0.  1.
         -5    1    4    4    0  501  0.46854083620E+02  0.10595651815E+02 -0.26218333475E+02  0.54885757711E+02  0.41800000000E+01 0.  1.
</event>
<event>
11    1  0.8037748E-009  0.1305144E+03  0.7561462E-02  0.1118639E+00
         22   -1    0    0    0    0  0.00000000000E+00  0.00000000000E+00  0.76247142593E+03  0.76247142593E+03  0.00000000000E+00 0.  1.
         22   -1    0    0    0    0 -0.00000000000E+00 -0.00000000000E+00 -0.19794922978E+03  0.19794922978E+03  0.00000000000E+00 0. -1.
         24    2    1    2    0    0  0.10920713578E+02 -0.22473322225E+02 -0.15623259382E+03  0.17725481902E+03  0.79914549978E+02 0.  0.
         25    2    1    2    0    0 -0.25694668690E+02  0.53652076706E+02  0.14418639263E+03  0.19995370734E+03  0.12511198155E+03 0.  0.
        -24    2    1    2    0    0  0.14773955112E+02 -0.31178754481E+02  0.57656839734E+03  0.58321212935E+03  0.80714847017E+02 0.  0.
        -11    1    3    3    0    0  0.24849800787E+02 -0.39743732332E+02 -0.49227737231E+02  0.67973869772E+02  0.00000000000E+00 0.  1.
         12    1    3    3    0    0 -0.13929087208E+02  0.17270410107E+02 -0.10700485659E+03  0.10928094925E+03  0.00000000000E+00 0. -1.
         13    1    5    5    0    0 -0.15438767791E+02  0.15627663298E+02  0.64842036736E+02  0.68462173053E+02  0.00000000000E+00 0. -1.
        -14    1    5    5    0    0  0.30212722903E+02 -0.46806417779E+02  0.51172636061E+03  0.51474995630E+03  0.00000000000E+00 0.  1.
          5    1    4    4  501    0 -0.73622436359E+02  0.24041451787E+02  0.57773164411E+02  0.96713315864E+02  0.41800000000E+01 0.  1.
         -5    1    4    4    0  501  0.47927767668E+02  0.29610624919E+02  0.86413228214E+02  0.10324039148E+03  0.41800000000E+01 0.  1.
</event>
<event>
11    1  0.8037748E-009  0.1722432E+03  0.7561462E-02  0.1076096E+00
         22   -1    0    0    0    0  0.00000000000E+00  0.00000000000E+00  0.20877365801E+04  0.20877365801E+04  0.00000000000E+00 0. -1.
         22   -1    0    0    0    0 -0.00000000000E+00 -0.00000000000E+00 -0.29474696083E+03  0.29474696083E+03  0.00000000000E+00 0.  1.
        -24    2    1    2    0    0 -0.55466674331E+02 -0.25927808550E+02 -0.25916736391E+03  0.27810691679E+03  0.80168144721E+02 0.  0.
         25    2    1    2    0    0  0.15349032252E+02  0.13645321486E+03  0.34978458940E+03  0.39604516837E+03  0.12508974287E+03 0.  0.
         24    2    1    2    0    0  0.40117642079E+02 -0.11052540631E+03  0.17023723938E+04  0.17083314558E+04  0.80618267094E+02 0.  0.
        -13    1    5    5    0    0 -0.26513827052E+01 -0.38489301498E+02  0.10353631841E+04  0.10360817435E+04  0.00000000000E+00 0.  1.
         14    1    5    5    0    0  0.42769024784E+02 -0.72036104813E+02  0.66700920970E+03  0.67224971231E+03  0.00000000000E+00 0. -1.
         13    1    3    3    0    0 -0.19158207919E+02 -0.34308740759E+02 -0.41038167786E+02  0.56817759885E+02  0.00000000000E+00 0. -1.
        -14    1    3    3    0    0 -0.36308466412E+02  0.83809322095E+01 -0.21812919613E+03  0.22128915690E+03  0.00000000000E+00 0.  1.
          5    1    4    4  501    0 -0.10868383356E+02  0.59989299235E+02  0.33749165942E+02  0.69809142534E+02  0.41800000000E+01 0. -1.
         -5    1    4    4    0  501  0.26217415608E+02  0.76463915626E+02  0.31603542345E+03  0.32623602583E+03  0.41800000000E+01 0. -1.
</event>
<event>
11    1  0.8037748E-009  0.1894200E+03  0.7561462E-02  0.1062268E+00
         22   -1    0    0    0    0  0.00000000000E+00  0.00000000000E+00  0.77380323486E+03  0.77380323486E+03  0.00000000000E+00 0.  1.
         22   -1    0    0    0    0 -0.00000000000E+00 -0.00000000000E+00 -0.21914390145E+04  0.21914390145E+04  0.00000000000E+00 0.  1.
        -24    2    1    2    0    0 -0.14953527397E+03 -0.28498451551E+02 -0.16368994755E+04  0.16459395089E+04  0.80647469457E+02 0.  0.
         25    2    1    2    0    0  0.10701854786E+03  0.41088823765E+02 -0.53405190133E+03  0.56035678111E+03  0.12508808015E+03 0.  0.
         24    2    1    2    0    0  0.42516726112E+02 -0.12590372215E+02  0.75331559715E+03  0.75894595934E+03  0.80922128132E+02 0.  0.
        -13    1    5    5    0    0  0.22117494111E+02 -0.46968919707E+02  0.45946272866E+03  0.46238648553E+03  0.00000000000E+00 0.  1.
         14    1    5    5    0    0  0.20399232000E+02  0.34378547493E+02  0.29385286848E+03  0.29655947382E+03  0.00000000000E+00 0. -1.
         13    1    3    3    0    0  0.46542035358E+01 -0.63475880303E+01 -0.19104531393E+02  0.20662444292E+02  0.00000000000E+00 0. -1.
        -14    1    3    3    0    0 -0.15418947750E+03 -0.22150863520E+02 -0.16177949441E+04  0.16252770646E+04  0.00000000000E+00 0.  1.
          5    1    4    4  501    0  0.95354780381E+01  0.48963308044E+02 -0.33298807325E+03  0.33672965447E+03  0.41800000000E+01 0. -1.
         -5    1    4    4    0  501  0.97483069818E+02 -0.78744842789E+01 -0.20106382808E+03  0.22362712663E+03  0.41800000000E+01 0. -1.
</event>
<event>
11    1  0.8037748E-009  0.1482587E+03  0.7561462E-02  0.1098671E+00
         22   -1    0    0    0    0  0.00000000000E+00  0.00000000000E+00  0.70753947861E+03  0.70753947861E+03  0.00000000000E+00 0. -1.
         22   -1    0    0    0    0 -0.00000000000E+00 -0.00000000000E+00 -0.10377806430E+04  0.10377806430E+04  0.00000000000E+00 0. -1.
        -24    2    1    2    0    0  0.73662017213E+01  0.36631530956E+02 -0.96739829545E+03  0.97151447635E+03  0.81146692641E+02 0.  0.
         25    2    1    2    0    0 -0.46236365793E+02  0.35323598036E+02  0.12451525762E+02  0.13852152484E+03  0.12509042429E+03 0.  0.
         24    2    1    2    0    0  0.38870164072E+02 -0.71955128992E+02  0.62470560527E+03  0.63528412045E+03  0.81488589356E+02 0.  0.
        -13    1    5    5    0    0 -0.49372624169E+01 -0.55116819099E+02  0.18549988047E+03  0.19357801002E+03  0.00000000000E+00 0.  1.
         14    1    5    5    0    0  0.43807426488E+02 -0.16838309893E+02  0.43920572480E+03  0.44170611043E+03  0.00000000000E+00 0. -1.
         13    1    3    3    0    0 -0.83891777292E+01  0.60738124691E-02 -0.77417917276E+03  0.77422462494E+03  0.00000000000E+00 0. -1.
        -14    1    3    3    0    0  0.15755379450E+02  0.36625457144E+02 -0.19321912269E+03  0.19728985141E+03  0.00000000000E+00 0.  1.
          5    1    4    4  501    0  0.11160053126E+01 -0.38746530311E+02  0.29478924488E+02  0.48877586560E+02  0.41800000000E+01 0.  1.
         -5    1    4    4    0  501 -0.47352371105E+02  0.74070128347E+02 -0.17027398725E+02  0.89643938278E+02  0.41800000000E+01 0.  1.
</event>
<event>
11    1  0.8037748E-009  0.1425881E+03  0.7561462E-02  0.1104702E+00
         22   -1    0    0    0    0  0.00000000000E+00  0.00000000000E+00  0.15370951595E+04  0.15370951595E+04  0.00000000000E+00 0. -1.
         22   -1    0    0    0    0 -0.00000000000E+00 -0.00000000000E+00 -0.59084730669E+03  0.59084730669E+03  0.00000000000E+00 0. -1.
         24    2    1    2    0    0 -0.51407372553E+02  0.44721568035E+02 -0.56916819576E+03  0.57879160627E+03  0.80028443824E+02 0.  0.
         25    2    1    2    0    0  0.48590100777E+02 -0.90155998759E+02  0.42375994717E+03  0.45355156527E+03  0.12508967793E+03 0.  0.
        -24    2    1    2    0    0  0.28172717758E+01  0.45434430725E+02  0.10916561014E+04  0.10955992946E+04  0.80947799279E+02 0.  0.
        -13    1    3    3    0    0  0.12509394606E+02 -0.13513052777E+01 -0.17661173458E+02  0.21684741808E+02  0.00000000000E+00 0.  1.
         14    1    3    3    0    0 -0.63916767159E+02  0.46072873312E+02 -0.55150702230E+03  0.55710686446E+03  0.00000000000E+00 0. -1.
         13    1    5    5    0    0  0.73062960226E+01  0.31947894317E+02  0.10639973565E+04  0.10645019608E+04  0.00000000000E+00 0. -1.
        -14    1    5    5    0    0 -0.44890242468E+01  0.13486536408E+02  0.27658744855E+02  0.31097333807E+02  0.00000000000E+00 0.  1.
          5    1    4    4  501    0  0.65928484000E+02 -0.11353080463E+03  0.36342989191E+03  0.38643830987E+03  0.41800000000E+01 0. -1.
         -5    1    4    4    0  501 -0.17338383223E+02  0.23374805868E+02  0.60330055267E+02  0.67113255402E+02  0.41800000000E+01 0. -1.
</event>
<event>
11    1  0.8037748E-009  0.1329963E+03  0.7561462E-02  0.1115641E+00
         22   -1    0    0    0    0  0.00000000000E+00  0.00000000000E+00  0.91791335623E+03  0.91791335623E+03  0.00000000000E+00 0. -1.
         22   -1    0    0    0    0 -0.00000000000E+00 -0.00000000000E+00 -0.31997534905E+03  0.31997534905E+03  0.00000000000E+00 0. -1.
        -24    2    1    2    0    0 -0.37342422172E+01 -0.14282791957E+02 -0.29818954871E+03  0.30942747888E+03  0.81304458759E+02 0.  0.
         25    2    1    2    0    0 -0.16271158304E+02 -0.29947474476E+02  0.32586953750E+03  0.35071303230E+03  0.12508826377E+03 0.  0.
         24    2    1    2    0    0  0.20005400522E+02  0.44230266433E+02  0.57025801838E+03  0.57774819411E+03  0.79007820780E+02 0.  0.
        -13    1    5    5    0    0  0.75753943437E+01 -0.20165242482E+02  0.70853484258E+02  0.74055653635E+02  0.00000000000E+00 0.  1.
         14    1    5    5    0    0  0.12430006178E+02  0.64395508915E+02  0.49940453413E+03  0.50369254047E+03  0.00000000000E+00 0. -1.
         13    1    3    3    0    0 -0.21151978641E+02 -0.27085451500E+02 -0.27711467591E+03  0.27923748224E+03  0.00000000000E+00 0. -1.
        -14    1    3    3    0    0  0.17417736424E+02  0.12802659542E+02 -0.21074872802E+02  0.30189996640E+02  0.00000000000E+00 0.  1.
          5    1    4    4  501    0 -0.24938502465E+02 -0.76282002901E+02  0.23321289116E+03  0.24667103169E+03  0.41800000000E+01 0. -1.
         -5    1    4    4    0  501  0.86673441609E+01  0.46334528425E+02  0.92656646339E+02  0.10404200061E+03  0.41800000000E+01 0. -1.
</event>
<event>
11    1  0.8037748E-009  0.1311783E+03  0.7561462E-02  0.1117830E+00
         22   -1    0    0    0    0  0.00000000000E+00  0.00000000000E+00  0.30846661535E+03  0.30846661535E+03  0.00000000000E+00 0. -1.
         22   -1    0    0    0    0 -0.00000000000E+00 -0.00000000000E+00 -0.27569868297E+03  0.27569868297E+03  0.00000000000E+00 0.  1.
        -24    2    1    2    0    0 -0.25241614647E+02 -0.24658850736E+02 -0.21435590333E+03  0.23150424544E+03  0.80003527019E+02 0.  0.
         25    2    1    2    0    0  0.25238243049E+02 -0.19509027633E+02  0.56973081448E+02  0.14110650868E+03  0.12509014234E+03 0.  0.
         24    2    1    2    0    0  0.33715983163E-02  0.44167878368E+02  0.19015075426E+03  0.21155454420E+03  0.81530450354E+02 0.  0.
        -13    1    5    5    0    0  0.40030881810E+02  0.29678847732E+02  0.93695476076E+02  0.10612326671E+03  0.00000000000E+00 0.  1.
         14    1    5    5    0    0 -0.40027510211E+02  0.14489030636E+02  0.96455278186E+02  0.10543127749E+03  0.00000000000E+00 0. -1.
         13    1    3    3    0    0  0.25460959362E+02 -0.51502360331E+01 -0.31935422227E+02  0.41166206720E+02  0.00000000000E+00 0. -1.
        -14    1    3    3    0    0 -0.50702574009E+02 -0.19508614703E+02 -0.18242048110E+03  0.19033803872E+03  0.00000000000E+00 0.  1.
          5    1    4    4  501    0  0.22022654384E+02  0.44142260147E+02 -0.78252911157E+01  0.50122290631E+02  0.41800000000E+01 0. -1.
         -5    1    4    4    0  501  0.32155886648E+01 -0.63651287780E+02  0.64798372564E+02  0.90984218046E+02  0.41800000000E+01 0. -1.
</event>
<event>
11    1  0.8037748E-009  0.2459404E+03  0.7561462E-02  0.1026084E+00
         22   -1    0    0    0    0  0.00000000000E+00  0.00000000000E+00  0.10804200488E+04  0.10804200488E+04  0.00000000000E+00 0.  1.
         22   -1    0    0    0    0 -0.00000000000E+00 -0.00000000000E+00 -0.26763145201E+03  0.26763145201E+03  0.00000000000E+00 0.  1.
        -24    2    1    2    0    0  0.11862805158E+02 -0.86369756271E+02 -0.12244591831E+03  0.17091882981E+03  0.81362045983E+02 0.  0.
         25    2    1    2    0    0 -0.22044489618E+03  0.10339719946E+03  0.69131632812E+02  0.28233576936E+03  0.12508945158E+03 0.  0.
         24    2    1    2    0    0  0.20858209102E+03 -0.17027443185E+02  0.86610288231E+03  0.89479690167E+03  0.82041879372E+02 0.  0.
        -13    1    5    5    0    0  0.19802515502E+03 -0.11359547355E+02  0.68077904247E+03  0.70908610620E+03  0.00000000000E+00 0.  1.
         14    1    5    5    0    0  0.10556936004E+02 -0.56678958300E+01  0.18532383984E+03  0.18571079547E+03  0.00000000000E+00 0. -1.
         11    1    3    3    0    0 -0.11166852991E+02 -0.14083151137E+01  0.78156423534E+01  0.13702781564E+02  0.00000000000E+00 0. -1.
        -12    1    3    3    0    0  0.23029658149E+02 -0.84961441158E+02 -0.13026156067E+03  0.15721604824E+03  0.00000000000E+00 0.  1.
          5    1    4    4  501    0 -0.49914455564E+02 -0.20461121146E+02 -0.13742447220E+02  0.55825062547E+02  0.41800000000E+01 0.  1.
         -5    1    4    4    0  501 -0.17053044062E+03  0.12385832060E+03  0.82874080032E+02  0.22651070681E+03  0.41800000000E+01 0.  1.
</event>
<event>
11    1  0.8037748E-009  0.1402409E+03  0.7561462E-02  0.1107290E+00
         22   -1    0    0    0    0  0.00000000000E+00  0.00000000000E+00  0.55086806320E+03  0.55086806320E+03  0.00000000000E+00 0. -1.
         22   -1    0    0    0    0 -0.00000000000E+00 -0.00000000000E+00 -0.37050720226E+03  0.37050720226E+03  0.00000000000E+00 0. -1.
        -24    2    1    2    0    0  0.28784593562E+02  0.57979893559E+02 -0.30501795860E+03  0.32151449634E+03  0.78392572399E+02 0.  0.
         25    2    1    2    0    0 -0.20301831972E+02 -0.45565379206E+02  0.31080095173E+02  0.13820645916E+03  0.12508670942E+03 0.  0.
         24    2    1    2    0    0 -0.84827615908E+01 -0.12414514353E+02  0.45429872438E+03  0.46165430996E+03  0.80692586548E+02 0.  0.
        -11    1    5    5    0    0  0.14187962588E+02  0.30315211343E+02  0.20334663144E+03  0.20608290283E+03  0.00000000000E+00 0.  1.
         12    1    5    5    0    0 -0.22670724178E+02 -0.42729725696E+02  0.25095209293E+03  0.25557140713E+03  0.00000000000E+00 0. -1.
         13    1    3    3    0    0 -0.16410143110E+02  0.45756284489E+01 -0.15558740095E+03  0.15651731057E+03  0.00000000000E+00 0. -1.
        -14    1    3    3    0    0  0.45194736672E+02  0.53404265110E+02 -0.14943055765E+03  0.16499718577E+03  0.00000000000E+00 0.  1.
          5    1    4    4  501    0  0.35244572842E+02 -0.43031671726E+02  0.54261939152E+02  0.77818603989E+02  0.41800000000E+01 0. -1.
         -5    1    4    4    0  501 -0.55546404814E+02 -0.25337074807E+01 -0.23181843979E+02  0.60387855166E+02  0.41800000000E+01 0. -1.
</event>
<event>
11    1  0.8037748E-009  0.1727998E+03  0.7561462E-02  0.1075621E+00
         22   -1    0    0    0    0  0.00000000000E+00  0.00000000000E+00  0.62652579927E+03  0.62652579927E+03  0.00000000000E+00 0.  1.
         22   -1    0    0    0    0 -0.00000000000E+00 -0.00000000000E+00 -0.33639883369E+03  0.33639883369E+03  0.00000000000E+00 0.  1.
        -24    2    1    2    0    0 -0.98087022066E+02 -0.39627506801E+02 -0.16673896348E+03  0.21273750012E+03  0.79145175598E+02 0.  0.
         25    2    1    2    0    0  0.12332361629E+03  0.13804313676E+03 -0.48445609495E+02  0.22860343291E+03  0.12509168844E+03 0.  0.
         24    2    1    2    0    0 -0.25236594221E+02 -0.98415629959E+02  0.50531153856E+03  0.52158369993E+03  0.79920479969E+02 0.  0.
        -13    1    5    5    0    0 -0.19962769974E+02 -0.47100038369E+02  0.41025184539E+03  0.41342895695E+03  0.00000000000E+00 0.  1.
         14    1    5    5    0    0 -0.52738242468E+01 -0.51315591590E+02  0.95059693167E+02  0.10815474297E+03  0.00000000000E+00 0. -1.
         11    1    3    3    0    0 -0.83354473616E+02 -0.98841570638E+00 -0.14168186333E+03  0.16438581336E+03  0.00000000000E+00 0. -1.
        -12    1    3    3    0    0 -0.14732548450E+02 -0.38639091094E+02 -0.25057100157E+02  0.48351686762E+02  0.00000000000E+00 0.  1.
          5    1    4    4  501    0 -0.24626781613E+02  0.28033064741E+02 -0.18194529773E+02  0.41723427533E+02  0.41800000000E+01 0. -1.
         -5    1    4    4    0  501  0.14795039790E+03  0.11001007202E+03 -0.30251079722E+02  0.18688000537E+03  0.41800000000E+01 0. -1.
</event>
<event>
11    1  0.8037748E-009  0.1413189E+03  0.7561462E-02  0.1106095E+00
         22   -1    0    0    0    0  0.00000000000E+00  0.00000000000E+00  0.58118330764E+03  0.58118330764E+03  0.00000000000E+00 0.  1.
         22   -1    0    0    0    0 -0.00000000000E+00 -0.00000000000E+00 -0.19728483639E+04  0.19728483639E+04  0.00000000000E+00 0.  1.
        -24    2    1    2    0    0 -0.58158959449E+02 -0.18806446143E+02 -0.19007029502E+04  0.19033710461E+04  0.80084250189E+02 0.  0.
         25    2    1    2    0    0 -0.84649381243E+01  0.39027353166E+02  0.68987293362E+00  0.13129951356E+03  0.12507716364E+03 0.  0.
         24    2    1    2    0    0  0.66623897573E+02 -0.20220907023E+02  0.50834802101E+03  0.51936111192E+03  0.80440197053E+02 0.  0.
        -13    1    5    5    0    0  0.49700582387E+02 -0.82345811039E+01  0.48699929456E+03  0.48959806895E+03  0.00000000000E+00 0.  1.
         14    1    5    5    0    0  0.16923315186E+02 -0.11986325919E+02  0.21348726449E+02  0.29763042971E+02  0.00000000000E+00 0. -1.
         11    1    3    3    0    0  0.11893192533E+02 -0.15878963903E+00 -0.56235402479E+02  0.57479507085E+02  0.00000000000E+00 0. -1.
        -12    1    3    3    0    0 -0.70052151982E+02 -0.18647656504E+02 -0.18444675477E+04  0.18458915390E+04  0.00000000000E+00 0.  1.
          5    1    4    4  501    0 -0.43350077281E+02  0.30594571867E+02 -0.47316364101E+02  0.71214940424E+02  0.41800000000E+01 0. -1.
         -5    1    4    4    0  501  0.34885139156E+02  0.84327812996E+01  0.48006237034E+02  0.60084573133E+02  0.41800000000E+01 0. -1.
</event>
<event>
11    1  0.8037748E-009  0.1505258E+03  0.7561462E-02  0.1096343E+00
         22   -1    0    0    0    0  0.00000000000E+00  0.00000000000E+00  0.35709753451E+03  0.35709753451E+03  0.00000000000E+00 0.  1.
         22   -1    0    0    0    0 -0.00000000000E+00 -0.00000000000E+00 -0.39145323917E+03  0.39145323917E+03  0.00000000000E+00 0.  1.
        -24    2    1    2    0    0 -0.79733046755E+02 -0.21265529769E+02 -0.33187826320E+03  0.35156979382E+03  0.81538683101E+02 0.  0.
         25    2    1    2    0    0  0.10454743369E+03  0.11935843843E+02  0.12778503690E+03  0.20748591946E+03  0.12509500734E+03 0.  0.
         24    2    1    2    0    0 -0.24814386936E+02  0.93296859266E+01  0.16973752164E+03  0.18949506040E+03  0.79967210928E+02 0.  0.
        -11    1    5    5    0    0  0.25759811193E+02 -0.58081125633E+01  0.90565632386E+02  0.94336821092E+02  0.00000000000E+00 0.  1.
         12    1    5    5    0    0 -0.50574198129E+02  0.15137798490E+02  0.79171889258E+02  0.95158239308E+02  0.00000000000E+00 0. -1.
         11    1    3    3    0    0 -0.54170294425E+02  0.81412669373E+01 -0.81631069290E+02  0.98307336953E+02  0.00000000000E+00 0. -1.
        -12    1    3    3    0    0 -0.25562752331E+02 -0.29406796707E+02 -0.25024719391E+03  0.25326245686E+03  0.00000000000E+00 0.  1.
          5    1    4    4  501    0  0.11979205133E+03 -0.55511572992E+01  0.13705097374E+03  0.18215760405E+03  0.41800000000E+01 0. -1.
         -5    1    4    4    0  501 -0.15244617638E+02  0.17487001142E+02 -0.92659368491E+01  0.25328315411E+02  0.41800000000E+01 0. -1.
</event>
<event>
11    1  0.8037748E-009  0.1326438E+03  0.7561462E-02  0.1116063E+00
         22   -1    0    0    0    0  0.00000000000E+00  0.00000000000E+00  0.27865789231E+04  0.27865789231E+04  0.00000000000E+00 0.  1.
         22   -1    0    0    0    0 -0.00000000000E+00 -0.00000000000E+00 -0.12331290070E+02  0.12331290070E+02  0.00000000000E+00 0.  1.
        -24    2    1    2    0    0 -0.20994195595E+02  0.41510260093E+02  0.27998091249E+03  0.29350363316E+03  0.74774416574E+02 0.  0.
         25    2    1    2    0    0 -0.92428510781E+01  0.87573747049E+01  0.10305400551E+04  0.10381828343E+04  0.12509464618E+03 0.  0.
         24    2    1    2    0    0  0.30237046673E+02 -0.50267634798E+02  0.14637266655E+04  0.14672237457E+04  0.82514571899E+02 0.  0.
        -11    1    5    5    0    0  0.35455739791E+02 -0.65449165339E+02  0.13778698514E+04  0.13798789911E+04  0.00000000000E+00 0.  1.
         12    1    5    5    0    0 -0.52186931177E+01  0.15181530541E+02  0.85856814131E+02  0.87344754623E+02  0.00000000000E+00 0. -1.
         11    1    3    3    0    0 -0.15979383705E+02  0.16162385931E+02  0.25960256488E+03  0.26059557769E+03  0.00000000000E+00 0. -1.
        -12    1    3    3    0    0 -0.50148118901E+01  0.25347874162E+02  0.20378347616E+02  0.32908055463E+02  0.00000000000E+00 0.  1.
          5    1    4    4  501    0  0.20403651877E+02 -0.17761679935E+02  0.51468001504E+02  0.58294200936E+02  0.41800000000E+01 0.  1.
         -5    1    4    4    0  501 -0.29646502955E+02  0.26519054640E+02  0.97907205356E+03  0.97988863339E+03  0.41800000000E+01 0.  1.
</event>
<event>
11    1  0.8037748E-009  0.3287777E+03  0.7561462E-02  0.9886975E-01
         22   -1    0    0    0    0  0.00000000000E+00  0.00000000000E+00  0.23450465256E+04  0.23450465256E+04  0.00000000000E+00 0.  1.
         22   -1    0    0    0    0 -0.00000000000E+00 -0.00000000000E+00 -0.12803423317E+03  0.12803423317E+03  0.00000000000E+00 0.  1.
        -24    2    1    2    0    0  0.28315944759E+03 -0.19749775990E+03  0.56477057327E+03  0.66682152419E+03  0.80625720262E+02 0.  0.
         25    2    1    2    0    0  0.24953561121E+02  0.35207635709E+03  0.79346657937E+03  0.87739206221E+03  0.12508867581E+03 0.  0.
         24    2    1    2    0    0 -0.30811300871E+03 -0.15457859719E+03  0.85877513982E+03  0.92886717239E+03  0.80444479746E+02 0.  0.
        -13    1    5    5    0    0 -0.21823397005E+03 -0.66685507212E+02  0.54485126863E+03  0.59070798833E+03  0.00000000000E+00 0.  1.
         14    1    5    5    0    0 -0.89879038662E+02 -0.87893089974E+02  0.31392387119E+03  0.33815918406E+03  0.00000000000E+00 0. -1.
         11    1    3    3    0    0  0.78159465557E+02 -0.76064048137E+02  0.24377734514E+03  0.26706185702E+03  0.00000000000E+00 0. -1.
        -12    1    3    3    0    0  0.20499998203E+03 -0.12143371177E+03  0.32099322813E+03  0.39975966717E+03  0.00000000000E+00 0.  1.
          5    1    4    4  501    0  0.34436670729E+02  0.22467588310E+03  0.36267291637E+03  0.42803534130E+03  0.41800000000E+01 0.  1.
         -5    1    4    4    0  501 -0.94831096071E+01  0.12740047399E+03  0.43079366300E+03  0.44935672091E+03  0.41800000000E+01 0.  1.
</event>
<event>
11    1  0.8037748E-009  0.1683475E+03  0.7561462E-02  0.1079479E+00
         22   -1    0    0    0    0  0.00000000000E+00  0.00000000000E+00  0.65001520567E+03  0.65001520567E+03  0.00000000000E+00 0.  1.
         22   -1    0    0    0    0 -0.00000000000E+00 -0.00000000000E+00 -0.22776488811E+03  0.22776488811E+03  0.00000000000E+00 0.  1.
        -24    2    1    2    0    0  0.10912455414E+03 -0.25602988795E+02 -0.16421259738E+03  0.21558326768E+03  0.83346786466E+02 0.  0.
         25    2    1    2    0    0 -0.11864403253E+03  0.76092394334E+01  0.18768389520E+03  0.25497456572E+03  0.12510986239E+03 0.  0.
         24    2    1    2    0    0  0.95194783841E+01  0.17993749361E+02  0.39877901973E+03  0.40722226037E+03  0.79942900127E+02 0.  0.
        -11    1    5    5    0    0  0.44215994531E+02  0.16350748619E+02  0.25371230530E+03  0.25805490698E+03  0.00000000000E+00 0.  1.
         12    1    5    5    0    0 -0.34696516147E+02  0.16430007425E+01  0.14506671443E+03  0.14916735339E+03  0.00000000000E+00 0. -1.
         13    1    3    3    0    0  0.12122942718E+03 -0.13287972762E+02 -0.13768177405E+03  0.18392774435E+03  0.00000000000E+00 0. -1.
        -14    1    3    3    0    0 -0.12104873038E+02 -0.12315016032E+02 -0.26530823321E+02  0.31655523329E+02  0.00000000000E+00 0.  1.
          5    1    4    4  501    0 -0.32172306331E+02 -0.11169845247E+02 -0.12139044626E+02  0.36395762692E+02  0.41800000000E+01 0. -1.
         -5    1    4    4    0  501 -0.86471726197E+02  0.18779084680E+02  0.19982293983E+03  0.21857880303E+03  0.41800000000E+01 0. -1.
</event>
<event>
11    1  0.8037748E-009  0.1667736E+03  0.7561462E-02  0.1080874E+00
         22   -1    0    0    0    0  0.00000000000E+00  0.00000000000E+00  0.54380657762E+03  0.54380657762E+03  0.00000000000E+00 0.  1.
         22   -1    0    0    0    0 -0.00000000000E+00 -0.00000000000E+00 -0.66732728712E+03  0.66732728712E+03  0.00000000000E+00 0. -1.
        -24    2    1    2    0    0  0.99937977400E+02  0.50630042011E+02 -0.61509768320E+03  0.63033364043E+03  0.80151967490E+02 0.  0.
         25    2    1    2    0    0 -0.48061514157E+02 -0.71464826929E+02  0.11299157005E+03  0.18930332944E+03  0.12510605502E+03 0.  0.
         24    2    1    2    0    0 -0.51876463243E+02  0.20834784918E+02  0.37858540366E+03  0.39149689487E+03  0.82569093065E+02 0.  0.
        -11    1    5    5    0    0 -0.30569553859E+02  0.46305907427E+02  0.31410015812E+03  0.31896338977E+03  0.00000000000E+00 0.  1.
         12    1    5    5    0    0 -0.21306909384E+02 -0.25471122510E+02  0.64485245537E+02  0.72533505095E+02  0.00000000000E+00 0. -1.
         11    1    3    3    0    0  0.81917637943E+02  0.56876053596E+02 -0.59217797194E+03  0.60051655708E+03  0.00000000000E+00 0. -1.
        -12    1    3    3    0    0  0.18020339457E+02 -0.62460115849E+01 -0.22919711262E+02  0.29817083345E+02  0.00000000000E+00 0.  1.
          5    1    4    4  501    0  0.17188300876E+02 -0.11332981735E+02 -0.20241124780E+02  0.29172756030E+02  0.41800000000E+01 0. -1.
         -5    1    4    4    0  501 -0.65249815033E+02 -0.60131845194E+02  0.13323269483E+03  0.16013057341E+03  0.41800000000E+01 0. -1.
</event>
<event>
11    1  0.8037748E-009  0.1262050E+03  0.7561462E-02  0.1124022E+00
         22   -1    0    0    0    0  0.00000000000E+00  0.00000000000E+00  0.45593727873E+03  0.45593727873E+03  0.00000000000E+00 0. -1.
         22   -1    0    0    0    0 -0.00000000000E+00 -0.00000000000E+00 -0.24304980690E+03  0.24304980690E+03  0.00000000000E+00 0.  1.
         24    2    1    2    0    0  0.95139212876E+01 -0.13362433933E+02 -0.20893970368E+03  0.22445118503E+03  0.80333463430E+02 0.  0.
         25    2    1    2    0    0 -0.11391888371E+02  0.22818675629E+02  0.18944830320E+03  0.22844979294E+03  0.12509269056E+03 0.  0.
        -24    2    1    2    0    0  0.18779670830E+01 -0.94562416961E+01  0.23237887232E+03  0.24608610767E+03  0.80408238504E+02 0.  0.
        -11    1    3    3    0    0  0.18546379713E+02  0.54089315122E+01 -0.20135842879E+03  0.20228307291E+03  0.00000000000E+00 0.  1.
         12    1    3    3    0    0 -0.90324584251E+01 -0.18771365446E+02 -0.75812748910E+01  0.22168112118E+02  0.00000000000E+00 0. -1.
         13    1    5    5    0    0 -0.21955335101E+02  0.24792855937E+02  0.15151133537E+03  0.15508838509E+03  0.00000000000E+00 0. -1.
        -14    1    5    5    0    0  0.23833302184E+02 -0.34249097633E+02  0.80867536944E+02  0.90997722571E+02  0.00000000000E+00 0.  1.
          5    1    4    4  501    0 -0.44167539225E+02 -0.18316938033E+02  0.16202831491E+03  0.16898795511E+03  0.41800000000E+01 0. -1.
         -5    1    4    4    0  501  0.32775650855E+02  0.41135613662E+02  0.27419988285E+02  0.59461837828E+02  0.41800000000E+01 0. -1.
</event>
<event>
11    1  0.8037748E-009  0.1412867E+03  0.7561462E-02  0.1106130E+00
         22   -1    0    0    0    0  0.00000000000E+00  0.00000000000E+00  0.13054821481E+03  0.13054821481E+03  0.00000000000E+00 0.  1.
         22   -1    0    0    0    0 -0.00000000000E+00 -0.00000000000E+00 -0.11960130270E+04  0.11960130270E+04  0.00000000000E+00 0.  1.
         24    2    1    2    0    0  0.24401900930E+02  0.27332961334E+01 -0.10067278105E+04  0.10103201038E+04  0.81504012100E+02 0.  0.
         25    2    1    2    0    0 -0.20564933886E+02 -0.67944927154E+02 -0.12181956159E+03  0.18848601514E+03  0.12509013825E+03 0.  0.
        -24    2    1    2    0    0 -0.38369670442E+01  0.65211631020E+02  0.63082559927E+02  0.12775512286E+03  0.89859239442E+02 0.  0.
        -11    1    3    3    0    0  0.25201701220E+02 -0.15602862617E+02 -0.95452085774E+03  0.95498096469E+03  0.00000000000E+00 0.  1.
         12    1    3    3    0    0 -0.79980028971E+00  0.18336158750E+02 -0.52206952761E+02  0.55339139086E+02  0.00000000000E+00 0. -1.
         11    1    5    5    0    0 -0.42111661603E+02  0.58305782139E+02  0.36580568661E+02  0.80691351936E+02  0.00000000000E+00 0. -1.
        -12    1    5    5    0    0  0.38274694559E+02  0.69058488816E+01  0.26501991267E+02  0.47063770922E+02  0.00000000000E+00 0.  1.
          5    1    4    4  501    0 -0.71312658568E+02 -0.52192168323E+02 -0.90996744275E+02  0.12691492259E+03  0.41800000000E+01 0.  1.
         -5    1    4    4    0  501  0.50747724682E+02 -0.15752758831E+02 -0.30822817312E+02  0.61571092553E+02  0.41800000000E+01 0.  1.
</event>
<event>
11    1  0.8037748E-009  0.2172977E+03  0.7561462E-02  0.1042924E+00
         22   -1    0    0    0    0  0.00000000000E+00  0.00000000000E+00  0.50439709483E+03  0.50439709483E+03  0.00000000000E+00 0.  1.
         22   -1    0    0    0    0 -0.00000000000E+00 -0.00000000000E+00 -0.37086239175E+03  0.37086239175E+03  0.00000000000E+00 0. -1.
         24    2    1    2    0    0  0.49498065109E+02  0.10372827818E+02 -0.14021503772E+03  0.16804406688E+03  0.77594443137E+02 0.  0.
         25    2    1    2    0    0 -0.21631600868E+03 -0.54337263577E+02 -0.11053218786E+03  0.27858577327E+03  0.12509002635E+03 0.  0.
        -24    2    1    2    0    0  0.16681794357E+03  0.43964435759E+02  0.38428192866E+03  0.42862964643E+03  0.79307472494E+02 0.  0.
        -11    1    3    3    0    0  0.97167597542E+01 -0.32558388771E+02 -0.47526626355E+02  0.58422977604E+02  0.00000000000E+00 0.  1.
         12    1    3    3    0    0  0.39781305355E+02  0.42931216589E+02 -0.92688411362E+02  0.10962108928E+03  0.00000000000E+00 0. -1.
         11    1    5    5    0    0  0.92879661081E+02 -0.15097618349E+02  0.16815712804E+03  0.19269506801E+03  0.00000000000E+00 0. -1.
        -12    1    5    5    0    0  0.73938282485E+02  0.59062054108E+02  0.21612480062E+03  0.23593457842E+03  0.00000000000E+00 0.  1.
          5    1    4    4  501    0 -0.33797290283E+02 -0.60914315094E+02 -0.51031713171E+02  0.86455299219E+02  0.41800000000E+01 0.  1.
         -5    1    4    4    0  501 -0.18251871839E+03  0.65770515169E+01 -0.59500474688E+02  0.19213047405E+03  0.41800000000E+01 0.  1.
</event>
<event>
11    1  0.8037748E-009  0.1345923E+03  0.7561462E-02  0.1113752E+00
         22   -1    0    0    0    0  0.00000000000E+00  0.00000000000E+00  0.13597111790E+04  0.13597111790E+04  0.00000000000E+00 0.  1.
         22   -1    0    0    0    0 -0.00000000000E+00 -0.00000000000E+00 -0.61306298615E+03  0.61306298615E+03  0.00000000000E+00 0. -1.
        -24    2    1    2    0    0  0.50192831241E+01  0.13719001084E+02 -0.49159970142E+03  0.50047562916E+03  0.92694038355E+02 0.  0.
         25    2    1    2    0    0  0.44496568426E+02 -0.18073096359E+02 -0.76377711381E+02  0.15423990467E+03  0.12509920856E+03 0.  0.
         24    2    1    2    0    0 -0.49515851550E+02  0.43540952750E+01  0.13146256057E+04  0.13180586313E+04  0.81038847955E+02 0.  0.
        -13    1    5    5    0    0 -0.66288748997E+02  0.41311193454E+01  0.12296955557E+04  0.12314878903E+04  0.00000000000E+00 0.  1.
         14    1    5    5    0    0  0.16772897448E+02  0.22297592951E+00  0.84930049992E+02  0.86570741008E+02  0.00000000000E+00 0. -1.
         13    1    3    3    0    0  0.32831522492E+01  0.24734645727E+02 -0.48817179794E+03  0.48880904870E+03  0.00000000000E+00 0. -1.
        -14    1    3    3    0    0  0.17361308749E+01 -0.11015644643E+02 -0.34279034872E+01  0.11666580460E+02  0.00000000000E+00 0.  1.
          5    1    4    4  501    0  0.33742963012E+02 -0.16813201763E+02 -0.11122280904E+03  0.11751279486E+03  0.41800000000E+01 0.  1.
         -5    1    4    4    0  501  0.10753605414E+02 -0.12598945964E+01  0.34845097659E+02  0.36727109805E+02  0.41800000000E+01 0.  1.
</event>
<event>
11    1  0.8037748E-009  0.1381647E+03  0.7561462E-02  0.1109625E+00
         22   -1    0    0    0    0  0.00000000000E+00  0.00000000000E+00  0.21993300492E+04  0.21993300492E+04  0.00000000000E+00 0. -1.
         22   -1    0    0    0    0 -0.00000000000E+00 -0.00000000000E+00 -0.29731028554E+03  0.29731028554E+03  0.00000000000E+00 0. -1.
         24    2    1    2    0    0 -0.90919004294E+01 -0.12903107385E+02 -0.22064794196E+03  0.23531697996E+03  0.80245958957E+02 0.  0.
         25    2    1    2    0    0  0.19959774116E+02 -0.44921516299E+02 -0.19564477374E+01  0.13442119365E+03  0.12509554111E+03 0.  0.
        -24    2    1    2    0    0 -0.10867873687E+02  0.57824623684E+02  0.21246241533E+04  0.21269021611E+04  0.78887338413E+02 0.  0.
        -13    1    3    3    0    0 -0.27865834442E+02 -0.19632055270E+02 -0.35934044046E+02  0.49529565360E+02  0.00000000000E+00 0.  1.
         14    1    3    3    0    0  0.18773934013E+02  0.67289478844E+01 -0.18471389792E+03  0.18578741460E+03  0.00000000000E+00 0. -1.
         13    1    5    5    0    0  0.16295756300E+02  0.53501288592E+02  0.18623623818E+04  0.18632019699E+04  0.00000000000E+00 0. -1.
        -14    1    5    5    0    0 -0.27163629987E+02  0.43233350923E+01  0.26226177156E+03  0.26370019120E+03  0.00000000000E+00 0.  1.
          5    1    4    4  501    0 -0.23038456737E+02  0.71919090818E+01 -0.47078500419E+02  0.53069309839E+02  0.41800000000E+01 0.  1.
         -5    1    4    4    0  501  0.42998230853E+02 -0.52113425381E+02  0.45122052682E+02  0.81351883811E+02  0.41800000000E+01 0.  1.
</event>
<event>
11    1  0.8037748E-009  0.1727154E+04  0.7561462E-02  0.8189065E-01
         22   -1    0    0    0    0  0.00000000000E+00  0.00000000000E+00  0.26730149822E+04  0.26730149822E+04  0.00000000000E+00 0. -1.
         22   -1    0    0    0    0 -0.00000000000E+00 -0.00000000000E+00 -0.14194134303E+04  0.14194134303E+04  0.00000000000E+00 0. -1.
         24    2    1    2    0    0 -0.15852831059E+04 -0.58643383887E+03  0.33194301138E+03  0.17241688061E+04  0.74462984719E+02 0.  0.
         25    2    1    2    0    0  0.16411940533E+04  0.62627596722E+03  0.36121904071E+03  0.17977389475E+04  0.12508645168E+03 0.  0.
        -24    2    1    2    0    0 -0.55910947390E+02 -0.39842128355E+02  0.56043949986E+03  0.57052065890E+03  0.81779948633E+02 0.  0.
        -11    1    3    3    0    0 -0.10213252911E+04 -0.34030836932E+03  0.21810468822E+03  0.10984010158E+04  0.00000000000E+00 0.  1.
         12    1    3    3    0    0 -0.56395781474E+03 -0.24612546955E+03  0.11383832316E+03  0.62576779031E+03  0.00000000000E+00 0. -1.
         11    1    5    5    0    0 -0.72643796987E+02 -0.31425612790E+02  0.33157528149E+03  0.34089126958E+03  0.00000000000E+00 0. -1.
        -12    1    5    5    0    0  0.16732849597E+02 -0.84165155642E+01  0.22886421837E+03  0.22962938932E+03  0.00000000000E+00 0.  1.
          5    1    4    4  501    0  0.10709771475E+04  0.37901596705E+03  0.17933892760E+03  0.11501413292E+04  0.41800000000E+01 0.  1.
         -5    1    4    4    0  501  0.57021690580E+03  0.24726000017E+03  0.18188011310E+03  0.64759761834E+03  0.41800000000E+01 0.  1.
</event>
<event>
11    1  0.8037748E-009  0.4827956E+03  0.7561462E-02  0.9432809E-01
         22   -1    0    0    0    0  0.00000000000E+00  0.00000000000E+00  0.15722941968E+04  0.15722941968E+04  0.00000000000E+00 0. -1.
         22   -1    0    0    0    0 -0.00000000000E+00 -0.00000000000E+00 -0.11858736514E+04  0.11858736514E+04  0.00000000000E+00 0.  1.
         24    2    1    2    0    0  0.20011896603E+01 -0.47416275051E+02 -0.92965347023E+03  0.93441115602E+03  0.81340800876E+02 0.  0.
         25    2    1    2    0    0  0.30129983800E+03 -0.31517012315E+03  0.33950515882E+02  0.45487918896E+03  0.12509452470E+03 0.  0.
        -24    2    1    2    0    0 -0.30330102767E+03  0.36258639821E+03  0.12821234998E+04  0.13688775032E+04  0.80774627951E+02 0.  0.
        -11    1    3    3    0    0  0.47676994561E+01 -0.35517316903E+02 -0.91327853770E+03  0.91398134455E+03  0.00000000000E+00 0.  1.
         12    1    3    3    0    0 -0.27665097957E+01 -0.11898958148E+02 -0.16374932525E+02  0.20429811469E+02  0.00000000000E+00 0. -1.
         13    1    5    5    0    0 -0.21612675504E+03  0.24566672050E+03  0.98434200361E+03  0.10373003865E+04  0.00000000000E+00 0. -1.
        -14    1    5    5    0    0 -0.87174272622E+02  0.11691967770E+03  0.29778149621E+03  0.33157711671E+03  0.00000000000E+00 0.  1.
          5    1    4    4  501    0  0.12156427193E+03 -0.21608301544E+03  0.27622313377E+02  0.24949991256E+03  0.41800000000E+01 0.  1.
         -5    1    4    4    0  501  0.17973556607E+03 -0.99087107713E+02  0.63282025042E+01  0.20537927640E+03  0.41800000000E+01 0.  1.
</event>
<event>
11    1  0.8037748E-009  0.5102807E+03  0.7561462E-02  0.9370838E-01
         22   -1    0    0    0    0  0.00000000000E+00  0.00000000000E+00  0.34605495642E+04  0.34605495642E+04  0.00000000000E+00 0. -1.
         22   -1    0    0    0    0 -0.00000000000E+00 -0.00000000000E+00 -0.30544326834E+03  0.30544326834E+03  0.00000000000E+00 0. -1.
         24    2    1    2    0    0 -0.48003549045E+03 -0.21498915949E+02  0.49252544828E+01  0.48729917454E+03  0.80869969094E+02 0.  0.
         25    2    1    2    0    0  0.65696238508E+03  0.35782030053E+02  0.27898778031E+04  0.28691366125E+04  0.12508723254E+03 0.  0.
        -24    2    1    2    0    0 -0.17692689464E+03 -0.14283114105E+02  0.36030323830E+03  0.40955704554E+03  0.80071322143E+02 0.  0.
        -11    1    3    3    0    0 -0.13843826659E+03  0.21409614415E+02 -0.22698964083E+02  0.14191112788E+03  0.00000000000E+00 0.  1.
         12    1    3    3    0    0 -0.34159722386E+03 -0.42908530364E+02  0.27624218566E+02  0.34538804666E+03  0.00000000000E+00 0. -1.
         11    1    5    5    0    0 -0.12759611889E+03 -0.42512537948E+02  0.28566983198E+03  0.31574568618E+03  0.00000000000E+00 0. -1.
        -12    1    5    5    0    0 -0.49330775749E+02  0.28229423843E+02  0.74633406323E+02  0.93811359365E+02  0.00000000000E+00 0.  1.
          5    1    4    4  501    0  0.95879506822E+01 -0.45822328991E+01  0.12127790519E+02  0.16657771745E+02  0.41800000000E+01 0. -1.
         -5    1    4    4    0  501  0.64737443440E+03  0.40364262952E+02  0.27777500126E+04  0.28524788407E+04  0.41800000000E+01 0. -1.
</event>
<event>
11    1  0.8037748E-009  0.1386224E+03  0.7561462E-02  0.1109106E+00
         22   -1    0    0    0    0  0.00000000000E+00  0.00000000000E+00  0.73729721339E+03  0.73729721339E+03  0.00000000000E+00 0. -1.
         22   -1    0    0    0    0 -0.00000000000E+00 -0.00000000000E+00 -0.10844323769E+04  0.10844323769E+04  0.00000000000E+00 0.  1.
         24    2    1    2    0    0 -0.56849087066E+02 -0.12233258722E+02 -0.87854103374E+03  0.88421136217E+03  0.81325971922E+02 0.  0.
         25    2    1    2    0    0  0.64790378597E+02  0.53006266148E+02 -0.17189864854E+03  0.22848170817E+03  0.12508912099E+03 0.  0.
        -24    2    1    2    0    0 -0.79412915305E+01 -0.40773007426E+02  0.70330451880E+03  0.70903651992E+03  0.79812518924E+02 0.  0.
        -13    1    3    3    0    0 -0.77131513945E+02 -0.12700372304E+02 -0.62712730171E+03  0.63198039720E+03  0.00000000000E+00 0.  1.
         14    1    3    3    0    0  0.20282426879E+02  0.46711358179E+00 -0.25141373203E+03  0.25223096497E+03  0.00000000000E+00 0. -1.
         13    1    5    5    0    0  0.16208182476E+01 -0.68910861805E+01  0.59723845885E+03  0.59728041224E+03  0.00000000000E+00 0. -1.
        -14    1    5    5    0    0 -0.95621097781E+01 -0.33881921246E+02  0.10606605995E+03  0.11175610768E+03  0.00000000000E+00 0.  1.
          5    1    4    4  501    0 -0.14230205344E+02  0.67551577083E+02 -0.67114778954E+02  0.96372092768E+02  0.41800000000E+01 0.  1.
         -5    1    4    4    0  501  0.79020583941E+02 -0.14545310935E+02 -0.10478386958E+03  0.13210961540E+03  0.41800000000E+01 0.  1.
</event>
<event>
11    1  0.8037748E-009  0.1543139E+03  0.7561462E-02  0.1092551E+00
         22   -1    0    0    0    0  0.00000000000E+00  0.00000000000E+00  0.14269177360E+04  0.14269177360E+04  0.00000000000E+00 0. -1.
         22   -1    0    0    0    0 -0.00000000000E+00 -0.00000000000E+00 -0.38962085718E+03  0.38962085718E+03  0.00000000000E+00 0.  1.
        -24    2    1    2    0    0 -0.61820577312E+02  0.67644184417E+02 -0.35014239782E+03  0.37148131638E+03  0.83672876151E+02 0.  0.
         25    2    1    2    0    0  0.91794763514E+02  0.18091538974E+00  0.20310980121E+03  0.25559234453E+03  0.12509014309E+03 0.  0.
         24    2    1    2    0    0 -0.29974186202E+02 -0.67825099807E+02  0.11843294754E+04  0.11894649322E+04  0.81803561755E+02 0.  0.
        -13    1    5    5    0    0  0.56693716268E+01  0.56631500848E+01  0.52960575807E+03  0.52966637804E+03  0.00000000000E+00 0.  1.
         14    1    5    5    0    0 -0.35643557829E+02 -0.73488249891E+02  0.65472371734E+03  0.65979855421E+03  0.00000000000E+00 0. -1.
         11    1    3    3    0    0 -0.30270446098E+02 -0.12827318940E+02 -0.56364631844E+02  0.65251909865E+02  0.00000000000E+00 0. -1.
        -12    1    3    3    0    0 -0.31550131214E+02  0.80471503357E+02 -0.29377776598E+03  0.30622940651E+03  0.00000000000E+00 0.  1.
          5    1    4    4  501    0  0.12138960257E+03 -0.95478822633E+01  0.14384813940E+03  0.18851089432E+03  0.41800000000E+01 0. -1.
         -5    1    4    4    0  501 -0.29594839060E+02  0.97287976531E+01  0.59261661803E+02  0.67081450210E+02  0.41800000000E+01 0. -1.
</event>
<event>
11    1  0.8037748E-009  0.2448582E+03  0.7561462E-02  0.1026674E+00
         22   -1    0    0    0    0  0.00000000000E+00  0.00000000000E+00  0.50771573779E+03  0.50771573779E+03  0.00000000000E+00 0.  1.
         22   -1    0    0    0    0 -0.00000000000E+00 -0.00000000000E+00 -0.64890473705E+03  0.64890473705E+03  0.00000000000E+00 0.  1.
        -24    2    1    2    0    0 -0.16191821107E+03 -0.12453146418E+03 -0.45786316686E+03  0.50764086880E+03  0.79592584233E+02 0.  0.
         25    2    1    2    0    0  0.24376434678E+03  0.77135901353E+02 -0.24890762111E+02  0.28571822489E+03  0.12507737587E+03 0.  0.
         24    2    1    2    0    0 -0.81846135708E+02  0.47395562832E+02  0.34156492971E+03  0.36326138115E+03  0.79668692219E+02 0.  0.
        -13    1    5    5    0    0 -0.65583152474E+02 -0.72849290179E+01  0.16483767338E+03  0.17755472014E+03  0.00000000000E+00 0.  1.
         14    1    5    5    0    0 -0.16262983235E+02  0.54680491850E+02  0.17672725633E+03  0.18570666101E+03  0.00000000000E+00 0. -1.
         13    1    3    3    0    0 -0.84732826363E+02 -0.45743173948E+02 -0.13038455135E+03  0.16208707862E+03  0.00000000000E+00 0. -1.
        -14    1    3    3    0    0 -0.77185384708E+02 -0.78788290237E+02 -0.32747861551E+03  0.34555379018E+03  0.00000000000E+00 0.  1.
          5    1    4    4  501    0  0.57775177555E+02 -0.26550706369E+02  0.22414106980E+02  0.67548321533E+02  0.41800000000E+01 0. -1.
         -5    1    4    4    0  501  0.18598916922E+03  0.10368660772E+03 -0.47304869092E+02  0.21816990335E+03  0.41800000000E+01 0. -1.
</event>
<event>
11    1  0.8037748E-009  0.1352900E+03  0.7561462E-02  0.1112935E+00
         22   -1    0    0    0    0  0.00000000000E+00  0.00000000000E+00  0.38077294123E+03  0.38077294123E+03  0.00000000000E+00 0. -1.
         22   -1    0    0    0    0 -0.00000000000E+00 -0.00000000000E+00 -0.12963930721E+04  0.12963930721E+04  0.00000000000E+00 0.  1.
         24    2    1    2    0    0  0.13925351192E+02  0.30904279550E+02 -0.12489936326E+04  0.12519673185E+04  0.79297429912E+02 0.  0.
         25    2    1    2    0    0  0.36467853390E+02 -0.44463179656E+02  0.92291453032E+02  0.16574619828E+03  0.12508881351E+03 0.  0.
        -24    2    1    2    0    0 -0.50393204582E+02  0.13558900106E+02  0.24108204873E+03  0.25945249653E+03  0.80447031615E+02 0.  0.
        -11    1    3    3    0    0  0.65949930541E+00  0.19113870070E+02 -0.11945652759E+04  0.11947183657E+04  0.00000000000E+00 0.  1.
         12    1    3    3    0    0  0.13265851887E+02  0.11790409479E+02 -0.54428356729E+02  0.57248952813E+02  0.00000000000E+00 0. -1.
         11    1    5    5    0    0 -0.35494678807E+01  0.39241585823E+02  0.13567601994E+03  0.14128157406E+03  0.00000000000E+00 0. -1.
        -12    1    5    5    0    0 -0.46843736701E+02 -0.25682685716E+02  0.10540602879E+03  0.11817092247E+03  0.00000000000E+00 0.  1.
          5    1    4    4  501    0 -0.38440391487E+02 -0.13166983968E+01 -0.72136592979E+00  0.38696125919E+02  0.41800000000E+01 0. -1.
         -5    1    4    4    0  501  0.74908244877E+02 -0.43146481259E+02  0.93012818962E+02  0.12705007236E+03  0.41800000000E+01 0. -1.
</event>
<event>
11    1  0.8559185E-009  0.1612435E+03  0.7561462E-02  0.1085913E+00
         22   -1    0    0    0    0  0.00000000000E+00  0.00000000000E+00  0.16035463246E+04  0.16035463246E+04  0.00000000000E+00 0.  1.
         22   -1    0    0    0    0 -0.00000000000E+00 -0.00000000000E+00 -0.10708485624E+04  0.10708485624E+04  0.00000000000E+00 0.  1.
         24    2    1    2    0    0  0.92658902785E+02 -0.55397963179E+02 -0.83433924786E+03  0.84519360841E+03  0.81090372968E+02 0.  0.
         25    2    1    2    0    0 -0.71324321992E+02  0.26637193334E+02 -0.20654154065E+03  0.25318607151E+03  0.12508828809E+03 0.  0.
        -24    2    1    2    0    0 -0.21334580793E+02  0.28760769845E+02  0.15735785508E+04  0.15760152071E+04  0.79950806383E+02 0.  0.
        -11    1    3    3    0    0  0.16848160114E+02 -0.35225305797E+02 -0.51037001477E+03  0.51186153854E+03  0.00000000000E+00 0.  1.
         12    1    3    3    0    0  0.75810742671E+02 -0.20172657382E+02 -0.32396923309E+03  0.33333206986E+03  0.00000000000E+00 0. -1.
         13    1    5    5    0    0 -0.25587216433E+02  0.42199075487E+02  0.51867370051E+03  0.52101619477E+03  0.00000000000E+00 0. -1.
        -14    1    5    5    0    0  0.42526356403E+01 -0.13438305641E+02  0.10549048502E+04  0.10549990123E+04  0.00000000000E+00 0.  1.
          5    1    4    4  501    0  0.10844889437E+02 -0.26400313054E+02 -0.52010400634E+01  0.29310601734E+02  0.41800000000E+01 0.  1.
         -5    1    4    4    0  501 -0.82169211430E+02  0.53037506388E+02 -0.20134050059E+03  0.22387546978E+03  0.41800000000E+01 0.  1.
</event>
<event>
11    1  0.8037748E-009  0.1898393E+03  0.7561462E-02  0.1061951E+00
         22   -1    0    0    0    0  0.00000000000E+00  0.00000000000E+00  0.15634449664E+04  0.15634449664E+04  0.00000000000E+00 0. -1.
         22   -1    0    0    0    0 -0.00000000000E+00 -0.00000000000E+00 -0.68462341148E+03  0.68462341148E+03  0.00000000000E+00 0.  1.
        -24    2    1    2    0    0  0.13355591580E+03 -0.32135405929E+02 -0.55236025778E+03  0.57497881638E+03  0.81418167221E+02 0.  0.
         25    2    1    2    0    0 -0.20109292780E+03  0.16651045984E+02 -0.60011222809E+00  0.23740785063E+03  0.12508598827E+03 0.  0.
         24    2    1    2    0    0  0.67537012001E+02  0.15484359945E+02  0.14317819249E+04  0.14356817109E+04  0.79884172565E+02 0.  0.
        -11    1    5    5    0    0 -0.10114903608E+02 -0.38644202040E+01  0.59116460745E+03  0.59126376358E+03  0.00000000000E+00 0.  1.
         12    1    5    5    0    0  0.77651915608E+02  0.19348780149E+02  0.84061731746E+03  0.84441794729E+03  0.00000000000E+00 0. -1.
         11    1    3    3    0    0  0.59848218263E+01 -0.31527429945E+02 -0.11474337540E+03  0.11914629298E+03  0.00000000000E+00 0. -1.
        -12    1    3    3    0    0  0.12757109397E+03 -0.60797598400E+00 -0.43761688237E+03  0.45583252340E+03  0.00000000000E+00 0.  1.
          5    1    4    4  501    0 -0.17387758907E+03  0.13388515652E+02 -0.49381426669E+02  0.18129717602E+03  0.41800000000E+01 0. -1.
         -5    1    4    4    0  501 -0.27215338728E+02  0.32625303324E+01  0.48781314441E+02  0.56110674607E+02  0.41800000000E+01 0. -1.
</event>
<event>
11    1  0.8037748E-009  0.1305118E+03  0.7561462E-02  0.1118642E+00
         22   -1    0    0    0    0  0.00000000000E+00  0.00000000000E+00  0.95484947854E+03  0.95484947854E+03  0.00000000000E+00 0.  1.
         22   -1    0    0    0    0 -0.00000000000E+00 -0.00000000000E+00 -0.14891010084E+04  0.14891010084E+04  0.00000000000E+00 0. -1.
         24    2    1    2    0    0 -0.22034099646E+02  0.36830791593E+01 -0.14714813396E+04  0.14737778334E+04  0.79149876610E+02 0.  0.
         25    2    1    2    0    0 -0.10589977151E+02 -0.26905129267E+02  0.29345610572E+03  0.32031121823E+03  0.12508699749E+03 0.  0.
        -24    2    1    2    0    0  0.32624076796E+02  0.23222050108E+02  0.64377370403E+03  0.64986143526E+03  0.79194122482E+02 0.  0.
        -13    1    3    3    0    0 -0.29864627569E+02 -0.17775465787E+02 -0.28991368461E+03  0.29198939653E+03  0.00000000000E+00 0.  1.
         14    1    3    3    0    0  0.78305279229E+01  0.21458544946E+02 -0.11815676550E+04  0.11817884369E+04  0.00000000000E+00 0. -1.
         13    1    5    5    0    0  0.14622340556E+02  0.49797690681E+01  0.18666632086E+02  0.24229199259E+02  0.00000000000E+00 0. -1.
        -14    1    5    5    0    0  0.18001736240E+02  0.18242281040E+02  0.62510707194E+03  0.62563223600E+03  0.00000000000E+00 0.  1.
          5    1    4    4  501    0 -0.43483626193E+02 -0.49052120514E+02  0.26028015154E+03  0.26844024653E+03  0.41800000000E+01 0.  1.
         -5    1    4    4    0  501  0.32893649043E+02  0.22146991247E+02  0.33175954178E+02  0.51870971692E+02  0.41800000000E+01 0.  1.
</event>
<event>
11    1  0.8037748E-009  0.2906755E+03  0.7561462E-02  0.1004217E+00
         22   -1    0    0    0    0  0.00000000000E+00  0.00000000000E+00  0.12985319978E+04  0.12985319978E+04  0.00000000000E+00 0. -1.
         22   -1    0    0    0    0 -0.00000000000E+00 -0.00000000000E+00 -0.11120893105E+03  0.11120893105E+03  0.00000000000E+00 0. -1.
         24    2    1    2    0    0 -0.15401808568E+03 -0.18016053133E+03  0.23122088543E+03  0.34091327848E+03  0.81113364009E+02 0.  0.
         25    2    1    2    0    0  0.20336149097E+03  0.23844130615E+03  0.52576190961E+03  0.62472592184E+03  0.12508692712E+03 0.  0.
        -24    2    1    2    0    0 -0.49343405288E+02 -0.58280774822E+02  0.43034027170E+03  0.44410172852E+03  0.78753891752E+02 0.  0.
        -13    1    3    3    0    0 -0.16783666667E+02  0.89060719851E+00  0.67668539069E-01  0.16807415834E+02  0.00000000000E+00 0.  1.
         14    1    3    3    0    0 -0.13723441901E+03 -0.18105113853E+03  0.23115321689E+03  0.32410586265E+03  0.00000000000E+00 0. -1.
         13    1    5    5    0    0 -0.36303159467E+02 -0.60515925653E+02  0.42324682975E+03  0.42908970570E+03  0.00000000000E+00 0. -1.
        -14    1    5    5    0    0 -0.13040245820E+02  0.22351508308E+01  0.70934419464E+01  0.15012022813E+02  0.00000000000E+00 0.  1.
          5    1    4    4  501    0  0.15877178818E+03  0.14988730956E+03  0.25160770381E+03  0.33316451687E+03  0.41800000000E+01 0. -1.
         -5    1    4    4    0  501  0.44589702786E+02  0.88553996595E+02  0.27415420580E+03  0.29156140497E+03  0.41800000000E+01 0. -1.
</event>
<event>
11    1  0.8037748E-009  0.1405179E+03  0.7561462E-02  0.1106981E+00
         22   -1    0    0    0    0  0.00000000000E+00  0.00000000000E+00  0.11257906394E+03  0.11257906394E+03  0.00000000000E+00 0.  1.
         22   -1    0    0    0    0 -0.00000000000E+00 -0.00000000000E+00 -0.12354337008E+04  0.12354337008E+04  0.00000000000E+00 0.  1.
         24    2    1    2    0    0  0.64013035457E+02 -0.87823042679E+00 -0.10621023420E+04  0.10677338774E+04  0.88858359207E+02 0.  0.
         25    2    1    2    0    0 -0.60574339189E+02  0.73623177763E+02 -0.66513235956E+02  0.17077046603E+03  0.12509563797E+03 0.  0.
        -24    2    1    2    0    0 -0.34386962680E+01 -0.72744947336E+02  0.57609411644E+01  0.10950842129E+03  0.81579739485E+02 0.  0.
        -11    1    3    3    0    0  0.45156260280E+02  0.25909797305E+02 -0.93596975237E+03  0.93741654711E+03  0.00000000000E+00 0.  1.
         12    1    3    3    0    0  0.18856775177E+02 -0.26788027732E+02 -0.12613258966E+03  0.13031733029E+03  0.00000000000E+00 0. -1.
         13    1    5    5    0    0  0.43874364903E+01  0.16148351795E+02 -0.90910528513E+01  0.19043794438E+02  0.00000000000E+00 0. -1.
        -14    1    5    5    0    0 -0.78261327583E+01 -0.88893299131E+02  0.14851994016E+02  0.90464626847E+02  0.00000000000E+00 0.  1.
          5    1    4    4  501    0  0.59647442169E+01  0.87403113939E+02 -0.49036886654E+02  0.10048368600E+03  0.41800000000E+01 0.  1.
         -5    1    4    4    0  501 -0.66539083405E+02 -0.13779936177E+02 -0.17476349302E+02  0.70286780026E+02  0.41800000000E+01 0.  1.
</event>
<event>
11    1  0.8037748E-009  0.1869631E+03  0.7561462E-02  0.1064146E+00
         22   -1    0    0    0    0  0.00000000000E+00  0.00000000000E+00  0.92845499464E+02  0.92845499464E+02  0.00000000000E+00 0. -1.
         22   -1    0    0    0    0 -0.00000000000E+00 -0.00000000000E+00 -0.20640234258E+04  0.20640234258E+04  0.00000000000E+00 0.  1.
         24    2    1    2    0    0 -0.25360360052E+02  0.12725746224E+03 -0.15155408228E+04  0.15232123709E+04  0.80463232531E+02 0.  0.
         25    2    1    2    0    0  0.45919395032E+02 -0.21138327725E+03 -0.45153918077E+03  0.51606802416E+03  0.12508834099E+03 0.  0.
        -24    2    1    2    0    0 -0.20559034980E+02  0.84125815013E+02 -0.40979227009E+01  0.11758853012E+03  0.79438295387E+02 0.  0.
        -13    1    3    3    0    0 -0.31818532815E+02  0.62221454811E+02 -0.11310114112E+04  0.11331684520E+04  0.00000000000E+00 0.  1.
         14    1    3    3    0    0  0.64581727627E+01  0.65036007424E+02 -0.38452941166E+03  0.39004391893E+03  0.00000000000E+00 0. -1.
         11    1    5    5    0    0 -0.45279840742E+02  0.79849899514E+02 -0.82289090776E+01  0.92162819915E+02  0.00000000000E+00 0. -1.
        -12    1    5    5    0    0  0.24720805763E+02  0.42759154991E+01  0.41309863767E+01  0.25425710204E+02  0.00000000000E+00 0.  1.
          5    1    4    4  501    0  0.34355405037E+02 -0.72207415227E+02 -0.29757155513E+03  0.30815662818E+03  0.41800000000E+01 0.  1.
         -5    1    4    4    0  501  0.11563989995E+02 -0.13917586202E+03 -0.15396762564E+03  0.20791139598E+03  0.41800000000E+01 0.  1.
</event>
<event>
11    1  0.8037748E-009  0.1306730E+03  0.7561462E-02  0.1118445E+00
         22   -1    0    0    0    0  0.00000000000E+00  0.00000000000E+00  0.79083988125E+03  0.79083988125E+03  0.00000000000E+00 0.  1.
         22   -1    0    0    0    0 -0.00000000000E+00 -0.00000000000E+00 -0.54365683292E+02  0.54365683292E+02  0.00000000000E+00 0. -1.
        -24    2    1    2    0    0 -0.34080395849E+02 -0.17090695583E+02  0.16789318322E+02  0.92887325559E+02  0.83021736811E+02 0.  0.
         25    2    1    2    0    0  0.31155142932E+02  0.17579918402E+02  0.33745487186E+03  0.36166553886E+03  0.12508587049E+03 0.  0.
         24    2    1    2    0    0  0.29252529167E+01 -0.48922281934E+00  0.38223000777E+03  0.39065270012E+03  0.80628511236E+02 0.  0.
        -11    1    5    5    0    0 -0.59330787914E+01 -0.36513027963E+02  0.26822647952E+03  0.27076529865E+03  0.00000000000E+00 0.  1.
         12    1    5    5    0    0  0.88583317081E+01  0.36023805144E+02  0.11400352825E+03  0.11988740147E+03  0.00000000000E+00 0. -1.
         11    1    3    3    0    0  0.24950321548E+02  0.23494627064E+01  0.17784627095E+02  0.30729976917E+02  0.00000000000E+00 0. -1.
        -12    1    3    3    0    0 -0.59030717397E+02 -0.19440158289E+02 -0.99530877344E+00  0.62157348643E+02  0.00000000000E+00 0.  1.
          5    1    4    4  501    0  0.69383210458E+02 -0.21078096165E+02  0.22952104362E+03  0.24073989676E+03  0.41800000000E+01 0.  1.
         -5    1    4    4    0  501 -0.38228067526E+02  0.38658014568E+02  0.10793382825E+03  0.12092564210E+03  0.41800000000E+01 0.  1.
</event>
<event>
11    1  0.8037748E-009  0.1526410E+03  0.7561462E-02  0.1094210E+00
         22   -1    0    0    0    0  0.00000000000E+00  0.00000000000E+00  0.79471589672E+03  0.79471589672E+03  0.00000000000E+00 0.  1.
         22   -1    0    0    0    0 -0.00000000000E+00 -0.00000000000E+00 -0.21565451751E+03  0.21565451751E+03  0.00000000000E+00 0. -1.
         24    2    1    2    0    0 -0.70633578486E+02  0.24761901692E+01 -0.17110644617E+03  0.20194898901E+03  0.80689183357E+02 0.  0.
         25    2    1    2    0    0 -0.28165896243E+02  0.32838570850E+02  0.18215059480E+03  0.22516059213E+03  0.12508702418E+03 0.  0.
        -24    2    1    2    0    0  0.98799474730E+02 -0.35314761020E+02  0.56801723059E+03  0.58326083308E+03  0.80877417217E+02 0.  0.
        -13    1    3    3    0    0 -0.63683701820E+02 -0.31506569734E+02 -0.98164256354E+02  0.12117961479E+03  0.00000000000E+00 0.  1.
         14    1    3    3    0    0 -0.69498766661E+01  0.33982759903E+02 -0.72942189819E+02  0.80769374221E+02  0.00000000000E+00 0. -1.
         11    1    5    5    0    0  0.54019194950E+02  0.18113712530E+02  0.17303588545E+03  0.18217463506E+03  0.00000000000E+00 0. -1.
        -12    1    5    5    0    0  0.44780279779E+02 -0.53428473550E+02  0.39498134514E+03  0.40108619803E+03  0.00000000000E+00 0.  1.
          5    1    4    4  501    0  0.10163773340E+02  0.74501555800E+02  0.96520653490E+02  0.12242341710E+03  0.41800000000E+01 0.  1.
         -5    1    4    4    0  501 -0.38329669584E+02 -0.41662984949E+02  0.85629941306E+02  0.10273717503E+03  0.41800000000E+01 0.  1.
</event>
<event>
11    1  0.8037748E-009  0.2749991E+03  0.7561462E-02  0.1011365E+00
         22   -1    0    0    0    0  0.00000000000E+00  0.00000000000E+00  0.58499568838E+03  0.58499568838E+03  0.00000000000E+00 0. -1.
         22   -1    0    0    0    0 -0.00000000000E+00 -0.00000000000E+00 -0.33156376392E+03  0.33156376392E+03  0.00000000000E+00 0. -1.
        -24    2    1    2    0    0  0.90664536478E+02  0.23382113016E+03 -0.21561283191E+03  0.34087093479E+03  0.82533155856E+02 0.  0.
         25    2    1    2    0    0 -0.63077073631E+02 -0.19928083961E+03  0.34744880822E+03  0.42433503158E+03  0.12509186403E+03 0.  0.
         24    2    1    2    0    0 -0.27587462847E+02 -0.34540290553E+02  0.12159594815E+03  0.15135348592E+03  0.78537910053E+02 0.  0.
        -13    1    5    5    0    0  0.24096354611E+02 -0.14222944895E+01  0.58692326050E+02  0.63462164825E+02  0.00000000000E+00 0.  1.
         14    1    5    5    0    0 -0.51683817458E+02 -0.33117996064E+02  0.62903622104E+02  0.87891321097E+02  0.00000000000E+00 0. -1.
         13    1    3    3    0    0  0.10577879221E+03  0.21512080457E+03 -0.19151556646E+03  0.30682947322E+03  0.00000000000E+00 0. -1.
        -14    1    3    3    0    0 -0.15114255732E+02  0.18700325588E+02 -0.24097265457E+02  0.34041461572E+02  0.00000000000E+00 0.  1.
          5    1    4    4  501    0 -0.68776536219E+02 -0.12718321236E+03  0.12769653932E+03  0.19294988986E+03  0.41800000000E+01 0.  1.
         -5    1    4    4    0  501  0.56994625880E+01 -0.72097627243E+02  0.21975226889E+03  0.23138514173E+03  0.41800000000E+01 0.  1.
</event>
<event>
11    1  0.8037748E-009  0.1558879E+03  0.7561462E-02  0.1091010E+00
         22   -1    0    0    0    0  0.00000000000E+00  0.00000000000E+00  0.29696269843E+04  0.29696269843E+04  0.00000000000E+00 0. -1.
         22   -1    0    0    0    0 -0.00000000000E+00 -0.00000000000E+00 -0.81480206218E+02  0.81480206218E+02  0.00000000000E+00 0. -1.
         24    2    1    2    0    0 -0.18053740125E+01  0.92098813773E+01 -0.49781651372E+02  0.93806181021E+02  0.78951285576E+02 0.  0.
         25    2    1    2    0    0  0.44324783665E+02  0.75401861062E+02  0.76962823902E+03  0.78461781900E+03  0.12508944203E+03 0.  0.
        -24    2    1    2    0    0 -0.42519409653E+02 -0.84611742439E+02  0.21683001904E+04  0.21726831905E+04  0.10029697527E+03 0.  0.
        -13    1    3    3    0    0 -0.88020408435E+01 -0.41466884014E+01  0.20092107122E+02  0.22324061375E+02  0.00000000000E+00 0.  1.
         14    1    3    3    0    0  0.69966668310E+01  0.13356569779E+02 -0.69873758493E+02  0.71482119645E+02  0.00000000000E+00 0. -1.
         11    1    5    5    0    0 -0.48566689693E+02 -0.12262226622E+02  0.14165369226E+04  0.14174222866E+04  0.00000000000E+00 0. -1.
        -12    1    5    5    0    0  0.60472800404E+01 -0.72349515816E+02  0.75176326789E+03  0.75526090392E+03  0.00000000000E+00 0.  1.
          5    1    4    4  501    0  0.46211329823E+01 -0.14622116053E+01 -0.30571963317E+01  0.70930798831E+01  0.41800000000E+01 0. -1.
         -5    1    4    4    0  501  0.39703650683E+02  0.76864072667E+02  0.77268543535E+03  0.77752473912E+03  0.41800000000E+01 0. -1.
</event>
<event>
11    1  0.8037748E-009  0.1302251E+03  0.7561462E-02  0.1118993E+00
         22   -1    0    0    0    0  0.00000000000E+00  0.00000000000E+00  0.11908121512E+04  0.11908121512E+04  0.00000000000E+00 0. -1.
         22   -1    0    0    0    0 -0.00000000000E+00 -0.00000000000E+00 -0.23555489253E+03  0.23555489253E+03  0.00000000000E+00 0.  1.
         24    2    1    2    0    0 -0.31434626193E+00  0.36184301445E+02 -0.21627574298E+03  0.23289927832E+03  0.78469575983E+02 0.  0.
         25    2    1    2    0    0 -0.17876432061E+02 -0.37613881994E+02  0.51029968296E+03  0.52705576401E+03  0.12509053125E+03 0.  0.
        -24    2    1    2    0    0  0.18190778323E+02  0.14295805487E+01  0.66123331870E+03  0.66641200140E+03  0.80885757306E+02 0.  0.
        -13    1    3    3    0    0  0.34654749609E+02  0.23861368732E+00 -0.11109678670E+03  0.11637656389E+03  0.00000000000E+00 0.  1.
         14    1    3    3    0    0 -0.34969095871E+02  0.35945687758E+02 -0.10517895628E+03  0.11652271443E+03  0.00000000000E+00 0. -1.
         11    1    5    5    0    0  0.33910946772E+00  0.21762910243E+02  0.58696284059E+03  0.58736625328E+03  0.00000000000E+00 0. -1.
        -12    1    5    5    0    0  0.17851668855E+02 -0.20333329695E+02  0.74270478108E+02  0.79045748120E+02  0.00000000000E+00 0.  1.
          5    1    4    4  501    0 -0.48628811034E+02  0.16536317946E+02  0.36905957497E+03  0.37264011237E+03  0.41800000000E+01 0. -1.
         -5    1    4    4    0  501  0.30752378973E+02 -0.54150199940E+02  0.14124010799E+03  0.15441565164E+03  0.41800000000E+01 0. -1.
</event>
<event>
11    1  0.8037748E-009  0.1958395E+03  0.7561462E-02  0.1057505E+00
         22   -1    0    0    0    0  0.00000000000E+00  0.00000000000E+00  0.37956775765E+04  0.37956775765E+04  0.00000000000E+00 0. -1.
         22   -1    0    0    0    0 -0.00000000000E+00 -0.00000000000E+00 -0.46802358118E+03  0.46802358118E+03  0.00000000000E+00 0.  1.
        -24    2    1    2    0    0 -0.49658531922E+02 -0.95911400476E+02 -0.44772343759E+03  0.46760624086E+03  0.80835347373E+02 0.  0.
         25    2    1    2    0    0  0.16513945226E+03  0.13662252911E+03  0.22211148929E+04  0.22349357240E+04  0.12509823709E+03 0.  0.
         24    2    1    2    0    0 -0.11548092034E+03 -0.40711128638E+02  0.15542625400E+04  0.15611591928E+04  0.80577559149E+02 0.  0.
        -13    1    5    5    0    0  0.11831170897E+02 -0.44931179961E+01  0.21482008779E+03  0.21519255292E+03  0.00000000000E+00 0.  1.
         14    1    5    5    0    0 -0.12731209123E+03 -0.36218010641E+02  0.13394424522E+04  0.13459666399E+04  0.00000000000E+00 0. -1.
         13    1    3    3    0    0 -0.33680753669E+02 -0.45415758911E+02 -0.92178457784E+02  0.10813811726E+03  0.00000000000E+00 0. -1.
        -14    1    3    3    0    0 -0.15977778252E+02 -0.50495641565E+02 -0.35554497981E+03  0.35946812360E+03  0.00000000000E+00 0.  1.
          5    1    4    4  501    0  0.10645706541E+03  0.13654639964E+03  0.12371948630E+04  0.12492584310E+04  0.41800000000E+01 0.  1.
         -5    1    4    4    0  501  0.58682386845E+02  0.76129472881E-01  0.98392002990E+03  0.98567729301E+03  0.41800000000E+01 0.  1.
</event>
<event>
11    1  0.8037748E-009  0.1605772E+03  0.7561462E-02  0.1086536E+00
         22   -1    0    0    0    0  0.00000000000E+00  0.00000000000E+00  0.35984108839E+03  0.35984108839E+03  0.00000000000E+00 0.  1.
         22   -1    0    0    0    0 -0.00000000000E+00 -0.00000000000E+00 -0.39305368551E+03  0.39305368551E+03  0.00000000000E+00 0. -1.
         24    2    1    2    0    0  0.84917999913E+02 -0.48938452177E+02 -0.31773915011E+03  0.34228854335E+03  0.81223399238E+02 0.  0.
         25    2    1    2    0    0 -0.10938744722E+03  0.95422435338E+02  0.14463321948E+03  0.24007642830E+03  0.12508744330E+03 0.  0.
        -24    2    1    2    0    0  0.24469447309E+02 -0.46483983160E+02  0.13989333351E+03  0.17052980225E+03  0.82162973116E+02 0.  0.
        -13    1    3    3    0    0  0.90756218432E+01 -0.48693811376E+02 -0.97575887912E+02  0.10942809548E+03  0.00000000000E+00 0.  1.
         14    1    3    3    0    0  0.75842378070E+02 -0.24464080144E+00 -0.22016326220E+03  0.23286044787E+03  0.00000000000E+00 0. -1.
         11    1    5    5    0    0  0.46939804414E+01  0.61959662251E+01 -0.86835941172E+01  0.11654538028E+02  0.00000000000E+00 0. -1.
        -12    1    5    5    0    0  0.19775466868E+02 -0.52679949386E+02  0.14857692763E+03  0.15887526422E+03  0.00000000000E+00 0.  1.
          5    1    4    4  501    0 -0.36577931646E+02  0.29106805353E+02  0.13273624774E+03  0.14078897353E+03  0.41800000000E+01 0.  1.
         -5    1    4    4    0  501 -0.72809515576E+02  0.66315629984E+02  0.11896971737E+02  0.99287454772E+02  0.41800000000E+01 0.  1.
</event>
<event>
11    1  0.8037748E-009  0.1852960E+03  0.7561462E-02  0.1065438E+00
         22   -1    0    0    0    0  0.00000000000E+00  0.00000000000E+00  0.91720376495E+03  0.91720376495E+03  0.00000000000E+00 0.  1.
         22   -1    0    0    0    0 -0.00000000000E+00 -0.00000000000E+00 -0.44397876503E+03  0.44397876503E+03  0.00000000000E+00 0.  1.
        -24    2    1    2    0    0 -0.14813356970E+03  0.46856466586E+01 -0.31607439257E+03  0.35824209289E+03  0.80429259149E+02 0.  0.
         25    2    1    2    0    0  0.94301086722E+02 -0.59719813493E+02 -0.32194086104E+02  0.17071486455E+03  0.12509178517E+03 0.  0.
         24    2    1    2    0    0  0.53832482977E+02  0.55034166835E+02  0.82149347860E+03  0.83222557254E+03  0.10872521541E+03 0.  0.
        -13    1    5    5    0    0  0.54270176389E+02  0.18444885996E+02  0.74734269019E+03  0.74953756574E+03  0.00000000000E+00 0.  1.
         14    1    5    5    0    0 -0.43769341141E+00  0.36589280839E+02  0.74150788404E+02  0.82688006801E+02  0.00000000000E+00 0. -1.
         11    1    3    3    0    0 -0.63055046101E+01  0.24559575019E+02 -0.44340694526E+02  0.51078658015E+02  0.00000000000E+00 0. -1.
        -12    1    3    3    0    0 -0.14182806509E+03 -0.19873928360E+02 -0.27173369804E+03  0.30716343488E+03  0.00000000000E+00 0.  1.
          5    1    4    4  501    0  0.85736423788E+02 -0.26809559860E+01  0.24933518164E+02  0.89426364216E+02  0.41800000000E+01 0.  1.
         -5    1    4    4    0  501  0.85646629349E+01 -0.57038857507E+02 -0.57127604268E+02  0.81288500333E+02  0.41800000000E+01 0.  1.
</event>
<event>
11    1  0.8037748E-009  0.1475491E+03  0.7561462E-02  0.1099410E+00
         22   -1    0    0    0    0  0.00000000000E+00  0.00000000000E+00  0.71824891441E+03  0.71824891441E+03  0.00000000000E+00 0. -1.
         22   -1    0    0    0    0 -0.00000000000E+00 -0.00000000000E+00 -0.75825678889E+03  0.75825678889E+03  0.00000000000E+00 0.  1.
         24    2    1    2    0    0  0.76739929869E+02  0.14014533769E+02 -0.72837101046E+03  0.73639259632E+03  0.75261564150E+02 0.  0.
         25    2    1    2    0    0 -0.89265504014E+02 -0.42160871212E+02  0.28984242275E+03  0.33076433615E+03  0.12510214538E+03 0.  0.
        -24    2    1    2    0    0  0.12525574145E+02  0.28146337443E+02  0.39852071324E+03  0.40934877083E+03  0.88309404804E+02 0.  0.
        -11    1    3    3    0    0  0.71479799646E+02  0.39915757342E+02 -0.53692777140E+03  0.54313355737E+03  0.00000000000E+00 0.  1.
         12    1    3    3    0    0  0.52601302231E+01 -0.25901223572E+02 -0.19144323906E+03  0.19325903895E+03  0.00000000000E+00 0. -1.
         13    1    5    5    0    0  0.24988414382E+02  0.52643803221E+02  0.33652986206E+03  0.34153790263E+03  0.00000000000E+00 0. -1.
        -14    1    5    5    0    0 -0.12462840237E+02 -0.24497465778E+02  0.61990851179E+02  0.67810868201E+02  0.00000000000E+00 0.  1.
          5    1    4    4  501    0  0.25804338502E+01 -0.20703146160E+02 -0.44156826413E+01  0.21731303527E+02  0.41800000000E+01 0. -1.
         -5    1    4    4    0  501 -0.91845937864E+02 -0.21457725052E+02  0.29425810539E+03  0.30903303263E+03  0.41800000000E+01 0. -1.
</event>
<event>
11    1  0.8037748E-009  0.1578001E+03  0.7561462E-02  0.1089165E+00
         22   -1    0    0    0    0  0.00000000000E+00  0.00000000000E+00  0.24553887684E+04  0.24553887684E+04  0.00000000000E+00 0. -1.
         22   -1    0    0    0    0 -0.00000000000E+00 -0.00000000000E+00 -0.34713839914E+02  0.34713839914E+02  0.00000000000E+00 0. -1.
        -24    2    1    2    0    0 -0.46924390385E+02 -0.68384494932E+02  0.16571251497E+03  0.20211449802E+03  0.80692596511E+02 0.  0.
         25    2    1    2    0    0  0.36290791166E+02  0.14478013147E+03  0.63483572251E+03  0.66403447408E+03  0.12508828962E+03 0.  0.
         24    2    1    2    0    0  0.10633599219E+02 -0.76395636539E+02  0.16201266910E+04  0.16239536362E+04  0.80408649730E+02 0.  0.
        -11    1    5    5    0    0 -0.92375582917E+00  0.16506551805E+02  0.34434963681E+03  0.34474627184E+03  0.00000000000E+00 0.  1.
         12    1    5    5    0    0  0.11557355048E+02 -0.92902188344E+02  0.12757770542E+04  0.12792073643E+04  0.00000000000E+00 0. -1.
         13    1    3    3    0    0 -0.55183897106E+02 -0.65818670912E+02  0.84658174198E+02  0.12060002653E+03  0.00000000000E+00 0. -1.
        -14    1    3    3    0    0  0.82595067206E+01 -0.25658240199E+01  0.81054340774E+02  0.81514471491E+02  0.00000000000E+00 0.  1.
          5    1    4    4  501    0  0.66797591832E+02  0.14843166772E+03  0.55490622528E+03  0.57830119273E+03  0.41800000000E+01 0.  1.
         -5    1    4    4    0  501 -0.30506800666E+02 -0.36515362518E+01  0.79929497230E+02  0.85733281352E+02  0.41800000000E+01 0.  1.
</event>
<event>
11    1  0.8037748E-009  0.2276795E+03  0.7561462E-02  0.1036511E+00
         22   -1    0    0    0    0  0.00000000000E+00  0.00000000000E+00  0.13244281067E+03  0.13244281067E+03  0.00000000000E+00 0.  1.
         22   -1    0    0    0    0 -0.00000000000E+00 -0.00000000000E+00 -0.16311028613E+04  0.16311028613E+04  0.00000000000E+00 0.  1.
         24    2    1    2    0    0 -0.12825815838E+02 -0.15831545769E+02 -0.12329309766E+04  0.12357296518E+04  0.80584363982E+02 0.  0.
         25    2    1    2    0    0 -0.11231728903E+03  0.15749054833E+03 -0.21732158523E+03  0.31669467749E+03  0.12509356943E+03 0.  0.
        -24    2    1    2    0    0  0.12514310487E+03 -0.14165900256E+03 -0.48407488732E+02  0.21112134269E+03  0.80627952161E+02 0.  0.
        -11    1    3    3    0    0 -0.24324732578E+02 -0.21625035812E+02 -0.11989394902E+04  0.11993811887E+04  0.00000000000E+00 0.  1.
         12    1    3    3    0    0  0.11498916740E+02  0.57934900434E+01 -0.33991486448E+02  0.36348463021E+02  0.00000000000E+00 0. -1.
         11    1    5    5    0    0  0.14442769321E+02 -0.17920390789E+02 -0.38426489260E+02  0.44792064794E+02  0.00000000000E+00 0. -1.
        -12    1    5    5    0    0  0.11070033555E+03 -0.12373861177E+03 -0.99809994719E+01  0.16632927789E+03  0.00000000000E+00 0.  1.
          5    1    4    4  501    0 -0.10914020595E+02 -0.95457199613E+01  0.90695156636E+01  0.17605826578E+02  0.41800000000E+01 0.  1.
         -5    1    4    4    0  501 -0.10140326843E+03  0.16703626829E+03 -0.22639110089E+03  0.29908885091E+03  0.41800000000E+01 0.  1.
</event>
<event>
11    1  0.8037748E-009  0.1596596E+03  0.7561462E-02  0.1087398E+00
         22   -1    0    0    0    0  0.00000000000E+00  0.00000000000E+00  0.69506418908E+03  0.69506418908E+03  0.00000000000E+00 0.  1.
         22   -1    0    0    0    0 -0.00000000000E+00 -0.00000000000E+00 -0.31229933754E+03  0.31229933754E+03  0.00000000000E+00 0.  1.
        -24    2    1    2    0    0  0.30226050293E+02  0.27698593642E+02 -0.25832959715E+03  0.27357098985E+03  0.80162831289E+02 0.  0.
         25    2    1    2    0    0 -0.60374146860E+01  0.74381724508E+02  0.99427314905E+02  0.17635897480E+03  0.12509039022E+03 0.  0.
         24    2    1    2    0    0 -0.24188635607E+02 -0.10208031815E+03  0.54166713379E+03  0.55743356197E+03  0.79519876355E+02 0.  0.
        -13    1    5    5    0    0 -0.46065381861E+02 -0.50430182309E+02  0.20377792072E+03  0.21492013323E+03  0.00000000000E+00 0.  1.
         14    1    5    5    0    0  0.21876746255E+02 -0.51650135841E+02  0.33788921307E+03  0.34251342874E+03  0.00000000000E+00 0. -1.
         13    1    3    3    0    0  0.13385414140E+01 -0.19461854854E+02 -0.16658733764E+02  0.25652853606E+02  0.00000000000E+00 0. -1.
        -14    1    3    3    0    0  0.28887508879E+02  0.47160448496E+02 -0.24167086339E+03  0.24791813625E+03  0.00000000000E+00 0.  1.
          5    1    4    4  501    0  0.23598875521E+02  0.41466254821E+02  0.11860739036E+03  0.12791224595E+03  0.41800000000E+01 0. -1.
         -5    1    4    4    0  501 -0.29636290207E+02  0.32915469687E+02 -0.19180075456E+02  0.48446728852E+02  0.41800000000E+01 0. -1.
</event>
<event>
11    1  0.8037748E-009  0.1494993E+03  0.7561462E-02  0.1097391E+00
         22   -1    0    0    0    0  0.00000000000E+00  0.00000000000E+00  0.48912394205E+02  0.48912394205E+02  0.00000000000E+00 0.  1.
         22   -1    0    0    0    0 -0.00000000000E+00 -0.00000000000E+00 -0.21065083146E+04  0.21065083146E+04  0.00000000000E+00 0.  1.
         24    2    1    2    0    0 -0.81281422866E+02  0.17194825787E+01 -0.16551749440E+04  0.16591414865E+04  0.80850174060E+02 0.  0.
         25    2    1    2    0    0  0.85545944147E+02 -0.16552244953E+02 -0.38272393776E+03  0.41196823591E+03  0.12509248376E+03 0.  0.
        -24    2    1    2    0    0 -0.42645212813E+01  0.14832762374E+02 -0.19697038608E+02  0.84310986371E+02  0.80511937696E+02 0.  0.
        -11    1    3    3    0    0 -0.29838392348E+02  0.38077578705E+01 -0.12904532184E+04  0.12908037564E+04  0.00000000000E+00 0.  1.
         12    1    3    3    0    0 -0.51443030517E+02 -0.20882752917E+01 -0.36472172563E+03  0.36833773012E+03  0.00000000000E+00 0. -1.
         11    1    5    5    0    0  0.15070955523E+02  0.32929673235E+02  0.16224052474E+02  0.39682703517E+02  0.00000000000E+00 0. -1.
        -12    1    5    5    0    0 -0.19335476805E+02 -0.18096910861E+02 -0.35921091082E+02  0.44628282854E+02  0.00000000000E+00 0.  1.
          5    1    4    4  501    0  0.16712912286E+01  0.45383564821E+02 -0.15306819991E+03  0.15971789941E+03  0.41800000000E+01 0. -1.
         -5    1    4    4    0  501  0.83874652918E+02 -0.61935809774E+02 -0.22965573786E+03  0.25225033650E+03  0.41800000000E+01 0. -1.
</event>
<event>
11    1  0.8037748E-009  0.1361582E+03  0.7561462E-02  0.1111926E+00
         22   -1    0    0    0    0  0.00000000000E+00  0.00000000000E+00  0.35985677071E+03  0.35985677071E+03  0.00000000000E+00 0.  1.
         22   -1    0    0    0    0 -0.00000000000E+00 -0.00000000000E+00 -0.98533887835E+03  0.98533887835E+03  0.00000000000E+00 0.  1.
        -24    2    1    2    0    0  0.59370668387E+01  0.13824010162E+02 -0.93739157297E+03  0.94101112106E+03  0.81071677389E+02 0.  0.
         25    2    1    2    0    0  0.36426791482E+02  0.23768209998E+02  0.84302265253E+02  0.15699373956E+03  0.12509325877E+03 0.  0.
         24    2    1    2    0    0 -0.42363858321E+02 -0.37592220160E+02  0.22760720007E+03  0.24719078843E+03  0.78040866554E+02 0.  0.
        -13    1    5    5    0    0 -0.16361489827E+02 -0.21500217527E+02  0.21035059450E+03  0.21207859465E+03  0.00000000000E+00 0.  1.
         14    1    5    5    0    0 -0.26002368494E+02 -0.16092002633E+02  0.17256605568E+02  0.35112193776E+02  0.00000000000E+00 0. -1.
         11    1    3    3    0    0  0.97042235754E+01 -0.25441969646E+02 -0.13879134693E+03  0.14143727853E+03  0.00000000000E+00 0. -1.
        -12    1    3    3    0    0 -0.37671567367E+01  0.39265979808E+02 -0.79860022604E+03  0.79957384253E+03  0.00000000000E+00 0.  1.
          5    1    4    4  501    0 -0.38129998585E+02 -0.22577571077E+02  0.30230641699E+02  0.53805274884E+02  0.41800000000E+01 0.  1.
         -5    1    4    4    0  501  0.74556790068E+02  0.46345781075E+02  0.54071623554E+02  0.10318846468E+03  0.41800000000E+01 0.  1.
</event>
<event>
11    1  0.8037748E-009  0.1406978E+03  0.7561462E-02  0.1106782E+00
         22   -1    0    0    0    0  0.00000000000E+00  0.00000000000E+00  0.13897601331E+04  0.13897601331E+04  0.00000000000E+00 0. -1.
         22   -1    0    0    0    0 -0.00000000000E+00 -0.00000000000E+00 -0.26290234793E+03  0.26290234793E+03  0.00000000000E+00 0. -1.
         24    2    1    2    0    0  0.17598161682E+02  0.42020706526E+01 -0.13232789587E+03  0.15535810671E+03  0.79360674162E+02 0.  0.
         25    2    1    2    0    0  0.44957171936E+02 -0.20620071514E+02 -0.78379713090E+02  0.15568529508E+03  0.12509275368E+03 0.  0.
        -24    2    1    2    0    0 -0.62555333618E+02  0.16418000862E+02  0.13375653941E+04  0.13416190792E+04  0.81718111131E+02 0.  0.
        -11    1    3    3    0    0  0.43543404196E+01 -0.21117674327E+02 -0.16859238620E+01  0.21627731937E+02  0.00000000000E+00 0.  1.
         12    1    3    3    0    0  0.13243821262E+02  0.25319744980E+02 -0.13064197201E+03  0.13373037477E+03  0.00000000000E+00 0. -1.
         13    1    5    5    0    0 -0.38938044960E+02 -0.52970475713E+01  0.11880735872E+04  0.11887232978E+04  0.00000000000E+00 0. -1.
        -14    1    5    5    0    0 -0.23617288657E+02  0.21715048433E+02  0.14949180696E+03  0.15289578149E+03  0.00000000000E+00 0.  1.
          5    1    4    4  501    0  0.72608956452E+02  0.27541430760E+02 -0.55166825984E+02  0.95349053768E+02  0.41800000000E+01 0. -1.
         -5    1    4    4    0  501 -0.27651784515E+02 -0.48161502275E+02 -0.23212887106E+02  0.60336241315E+02  0.41800000000E+01 0. -1.
</event>
<event>
11    1  0.8037748E-009  0.1503207E+03  0.7561462E-02  0.1096552E+00
         22   -1    0    0    0    0  0.00000000000E+00  0.00000000000E+00  0.18257726037E+03  0.18257726037E+03  0.00000000000E+00 0.  1.
         22   -1    0    0    0    0 -0.00000000000E+00 -0.00000000000E+00 -0.28201408879E+03  0.28201408879E+03  0.00000000000E+00 0. -1.
         24    2    1    2    0    0  0.42856754281E+02  0.36067235172E+02 -0.12039187263E+03  0.15544463522E+03  0.80816364580E+02 0.  0.
         25    2    1    2    0    0 -0.11323731176E+03 -0.53590277827E+02 -0.44558108036E+02  0.18256150593E+03  0.12509465137E+03 0.  0.
        -24    2    1    2    0    0  0.70380557479E+02  0.17523042655E+02  0.65513152249E+02  0.12658520801E+03  0.80444775306E+02 0.  0.
        -11    1    3    3    0    0 -0.18554435809E+02  0.30989877817E+02 -0.52886795466E+02  0.64044146883E+02  0.00000000000E+00 0.  1.
         12    1    3    3    0    0  0.61411190090E+02  0.50773573548E+01 -0.67505077163E+02  0.91400488340E+02  0.00000000000E+00 0. -1.
         13    1    5    5    0    0  0.17636711345E+02  0.20203645235E+02 -0.14672848400E+02  0.30570138175E+02  0.00000000000E+00 0. -1.
        -14    1    5    5    0    0  0.52743846134E+02 -0.26806025807E+01  0.80186000649E+02  0.96015069834E+02  0.00000000000E+00 0.  1.
          5    1    4    4  501    0 -0.58487543103E+02 -0.86373257107E+02  0.38565562053E+00  0.10439709465E+03  0.41800000000E+01 0. -1.
         -5    1    4    4    0  501 -0.54749768657E+02  0.32782979280E+02 -0.44943763657E+02  0.78164411276E+02  0.41800000000E+01 0. -1.
</event>
<event>
11    1  0.8037748E-009  0.2046221E+03  0.7561462E-02  0.1051302E+00
         22   -1    0    0    0    0  0.00000000000E+00  0.00000000000E+00  0.17575164326E+04  0.17575164326E+04  0.00000000000E+00 0. -1.
         22   -1    0    0    0    0 -0.00000000000E+00 -0.00000000000E+00 -0.15823376430E+03  0.15823376430E+03  0.00000000000E+00 0.  1.
         24    2    1    2    0    0  0.11856356327E+03  0.86887900670E+02 -0.37359223378E+02  0.17245081671E+03  0.82077687564E+02 0.  0.
         25    2    1    2    0    0 -0.17088152890E+03 -0.21563565504E+03  0.42854508132E+03  0.52440209528E+03  0.12508972046E+03 0.  0.
        -24    2    1    2    0    0  0.52317965635E+02  0.12874775437E+03  0.12080968104E+04  0.12188972849E+04  0.83063434548E+02 0.  0.
        -11    1    3    3    0    0  0.25185606223E+02  0.66201821516E+02 -0.28676945897E+02  0.76415725861E+02  0.00000000000E+00 0.  1.
         12    1    3    3    0    0  0.93377957045E+02  0.20686079154E+02 -0.86822774816E+01  0.96035090852E+02  0.00000000000E+00 0. -1.
         11    1    5    5    0    0  0.59066216422E+02  0.99591901440E+02  0.11175624304E+04  0.11235449037E+04  0.00000000000E+00 0. -1.
        -12    1    5    5    0    0 -0.67482507873E+01  0.29155852933E+02  0.90534379917E+02  0.95352381176E+02  0.00000000000E+00 0.  1.
          5    1    4    4  501    0 -0.16843815526E+03 -0.12963306483E+03  0.26669208714E+03  0.34105466627E+03  0.41800000000E+01 0. -1.
         -5    1    4    4    0  501 -0.24433736420E+01 -0.86002590214E+02  0.16185299418E+03  0.18334742901E+03  0.41800000000E+01 0. -1.
</event>
<event>
11    1  0.8037748E-009  0.2613077E+03  0.7561462E-02  0.1018042E+00
         22   -1    0    0    0    0  0.00000000000E+00  0.00000000000E+00  0.57328235525E+03  0.57328235525E+03  0.00000000000E+00 0. -1.
         22   -1    0    0    0    0 -0.00000000000E+00 -0.00000000000E+00 -0.36150508751E+03  0.36150508751E+03  0.00000000000E+00 0. -1.
         24    2    1    2    0    0 -0.21341757703E+03  0.98295715755E+02 -0.25071413838E+03  0.35340434216E+03  0.82631349692E+02 0.  0.
         25    2    1    2    0    0  0.16184451310E+03 -0.12058454355E+03  0.24238407090E+03  0.33931019350E+03  0.12508833289E+03 0.  0.
        -24    2    1    2    0    0  0.51573063937E+02  0.22288827794E+02  0.22010733522E+03  0.24207290710E+03  0.83638989503E+02 0.  0.
        -11    1    3    3    0    0 -0.19569800637E+02  0.17297234308E+01  0.29502494058E+01  0.19866378927E+02  0.00000000000E+00 0.  1.
         12    1    3    3    0    0 -0.19384777640E+03  0.96565992325E+02 -0.25366438779E+03  0.33353796323E+03  0.00000000000E+00 0. -1.
         11    1    5    5    0    0 -0.18972067995E+01 -0.11493868551E+02  0.13769896775E+03  0.13819086123E+03  0.00000000000E+00 0. -1.
        -12    1    5    5    0    0  0.53470270736E+02  0.33782696345E+02  0.82408367474E+02  0.10388204587E+03  0.00000000000E+00 0.  1.
          5    1    4    4  501    0  0.62301198106E+02 -0.11713410072E+03  0.17206275827E+03  0.21731291269E+03  0.41800000000E+01 0. -1.
         -5    1    4    4    0  501  0.99543314991E+02 -0.34504428249E+01  0.70321312626E+02  0.12199728081E+03  0.41800000000E+01 0. -1.
</event>
<event>
11    1  0.8037748E-009  0.1918524E+03  0.7561462E-02  0.1060440E+00
         22   -1    0    0    0    0  0.00000000000E+00  0.00000000000E+00  0.83832967958E+03  0.83832967958E+03  0.00000000000E+00 0. -1.
         22   -1    0    0    0    0 -0.00000000000E+00 -0.00000000000E+00 -0.38991640766E+03  0.38991640766E+03  0.00000000000E+00 0. -1.
         24    2    1    2    0    0  0.29030933309E+02 -0.64642289137E+01 -0.33083992831E+03  0.34171902398E+03  0.80201320671E+02 0.  0.
         25    2    1    2    0    0 -0.13194891803E+03 -0.91235734937E+02  0.20138950069E+03  0.28624978218E+03  0.12508689184E+03 0.  0.
        -24    2    1    2    0    0  0.10291798472E+03  0.97699963851E+02  0.57786369955E+03  0.60027728109E+03  0.79176792194E+02 0.  0.
        -11    1    3    3    0    0  0.17559806688E+01  0.20418943957E+02 -0.20368263097E+02  0.28894339965E+02  0.00000000000E+00 0.  1.
         12    1    3    3    0    0  0.27274952640E+02 -0.26883172871E+02 -0.31047166522E+03  0.31282468401E+03  0.00000000000E+00 0. -1.
         11    1    5    5    0    0  0.55363223526E+02  0.72972018343E+02  0.48033383970E+03  0.48898936547E+03  0.00000000000E+00 0. -1.
        -12    1    5    5    0    0  0.47554761196E+02  0.24727945508E+02  0.97529859846E+02  0.11128791562E+03  0.00000000000E+00 0.  1.
          5    1    4    4  501    0 -0.92342986731E+02 -0.47705653137E+02  0.35068226501E+02  0.10977390150E+03  0.41800000000E+01 0. -1.
         -5    1    4    4    0  501 -0.39605931300E+02 -0.43530081800E+02  0.16632127419E+03  0.17647588069E+03  0.41800000000E+01 0. -1.
</event>
<event>
11    1  0.8037748E-009  0.1256873E+03  0.7561462E-02  0.1124684E+00
         22   -1    0    0    0    0  0.00000000000E+00  0.00000000000E+00  0.63097058717E+03  0.63097058717E+03  0.00000000000E+00 0.  1.
         22   -1    0    0    0    0 -0.00000000000E+00 -0.00000000000E+00 -0.27595802641E+03  0.27595802641E+03  0.00000000000E+00 0.  1.
         24    2    1    2    0    0 -0.12170817813E+02  0.31781627742E-01 -0.24642179223E+03  0.25986867793E+03  0.81608212005E+02 0.  0.
         25    2    1    2    0    0  0.14081552256E+02  0.84168074042E+01  0.19099016545E+03  0.22889747211E+03  0.12509067383E+03 0.  0.
        -24    2    1    2    0    0 -0.19107344430E+01 -0.84485890319E+01  0.41044418753E+03  0.41816246353E+03  0.79500850712E+02 0.  0.
        -13    1    3    3    0    0 -0.17023745455E+02 -0.39326971207E+02 -0.12844800756E+03  0.13540793633E+03  0.00000000000E+00 0.  1.
         14    1    3    3    0    0  0.48529276417E+01  0.39358752835E+02 -0.11797378467E+03  0.12446074161E+03  0.00000000000E+00 0. -1.
         11    1    5    5    0    0 -0.35629578938E+02 -0.22893781278E+02  0.18775201923E+03  0.19246925168E+03  0.00000000000E+00 0. -1.
        -12    1    5    5    0    0  0.33718844495E+02  0.14445192246E+02  0.22269216830E+03  0.22569321185E+03  0.00000000000E+00 0.  1.
          5    1    4    4  501    0 -0.26131010180E+01  0.43904404129E+02  0.18351073450E+03  0.18875403857E+03  0.41800000000E+01 0. -1.
         -5    1    4    4    0  501  0.16694653274E+02 -0.35487596724E+02  0.74794309517E+01  0.40143433542E+02  0.41800000000E+01 0. -1.
</event>
<event>
11    1  0.8037748E-009  0.1330357E+03  0.7561462E-02  0.1115594E+00
         22   -1    0    0    0    0  0.00000000000E+00  0.00000000000E+00  0.22040255850E+03  0.22040255850E+03  0.00000000000E+00 0. -1.
         22   -1    0    0    0    0 -0.00000000000E+00 -0.00000000000E+00 -0.27376744148E+04  0.27376744148E+04  0.00000000000E+00 0. -1.
        -24    2    1    2    0    0 -0.40323847614E+02  0.15700377623E+02 -0.23703310901E+04  0.23720312654E+04  0.78678669718E+02 0.  0.
         25    2    1    2    0    0  0.84255365777E+02 -0.12732924915E+02 -0.33863210175E+03  0.37091817161E+03  0.12508995026E+03 0.  0.
         24    2    1    2    0    0 -0.43931518163E+02 -0.29674527089E+01  0.19169133555E+03  0.21512753623E+03  0.87152192482E+02 0.  0.
        -13    1    5    5    0    0 -0.45099756162E+02  0.53589862797E+01  0.32821402648E+02  0.56035267569E+02  0.00000000000E+00 0.  1.
         14    1    5    5    0    0  0.11682379986E+01 -0.83264389886E+01  0.15886993290E+03  0.15909226866E+03  0.00000000000E+00 0. -1.
         11    1    3    3    0    0 -0.41328910524E+02  0.39413513292E+02 -0.20609490190E+04  0.20617401298E+04  0.00000000000E+00 0. -1.
        -12    1    3    3    0    0  0.10050629097E+01 -0.23713135669E+02 -0.30938207106E+03  0.31029113563E+03  0.00000000000E+00 0.  1.
          5    1    4    4  501    0  0.32777744262E+02  0.21354695112E+02 -0.16110861824E+02  0.42513948193E+02  0.41800000000E+01 0. -1.
         -5    1    4    4    0  501  0.51477621515E+02 -0.34087620026E+02 -0.32252123992E+03  0.32840422342E+03  0.41800000000E+01 0. -1.
</event>
<event>
11    1  0.8037748E-009  0.1605503E+03  0.7561462E-02  0.1086561E+00
         22   -1    0    0    0    0  0.00000000000E+00  0.00000000000E+00  0.11274170065E+04  0.11274170065E+04  0.00000000000E+00 0. -1.
         22   -1    0    0    0    0 -0.00000000000E+00 -0.00000000000E+00 -0.15581080631E+03  0.15581080631E+03  0.00000000000E+00 0. -1.
         24    2    1    2    0    0  0.35358508135E+02 -0.99582759758E+02 -0.10486987681E+03  0.16998954688E+03  0.82047576730E+02 0.  0.
         25    2    1    2    0    0 -0.65717643467E+02  0.20584288176E+02  0.36373438680E+03  0.39075433838E+03  0.12507488655E+03 0.  0.
        -24    2    1    2    0    0  0.30359135333E+02  0.78998471582E+02  0.71274169016E+03  0.72248392750E+03  0.82582522368E+02 0.  0.
        -13    1    3    3    0    0  0.37823381909E+02 -0.19280340285E+02 -0.71163970380E+02  0.82865254605E+02  0.00000000000E+00 0.  1.
         14    1    3    3    0    0 -0.24648737743E+01 -0.80302419473E+02 -0.33705906433E+02  0.87124292275E+02  0.00000000000E+00 0. -1.
         11    1    5    5    0    0 -0.11208439557E+02 -0.95794672925E+01  0.19642878552E+03  0.19698137752E+03  0.00000000000E+00 0. -1.
        -12    1    5    5    0    0  0.41567574890E+02  0.88577938874E+02  0.51631290464E+03  0.52550254998E+03  0.00000000000E+00 0.  1.
          5    1    4    4  501    0 -0.74055930319E+01 -0.68973678169E+01  0.29934700810E+03  0.29954719186E+03  0.41800000000E+01 0. -1.
         -5    1    4    4    0  501 -0.58312050435E+02  0.27481655993E+02  0.64387378697E+02  0.91207146527E+02  0.41800000000E+01 0. -1.
</event>
<event>
11    1  0.8037748E-009  0.2174225E+03  0.7561462E-02  0.1042844E+00
         22   -1    0    0    0    0  0.00000000000E+00  0.00000000000E+00  0.63090861168E+03  0.63090861168E+03  0.00000000000E+00 0. -1.
         22   -1    0    0    0    0 -0.00000000000E+00 -0.00000000000E+00 -0.14569072553E+03  0.14569072553E+03  0.00000000000E+00 0. -1.
         24    2    1    2    0    0 -0.12936280417E+03 -0.13662534949E+03  0.37754094003E+02  0.20877890771E+03  0.82231620834E+02 0.  0.
         25    2    1    2    0    0  0.17060290027E+03  0.41026300388E+02  0.22746141986E+03  0.31332787806E+03  0.12508858759E+03 0.  0.
        -24    2    1    2    0    0 -0.41240096099E+02  0.95599049101E+02  0.22000237229E+03  0.25449255144E+03  0.74333647892E+02 0.  0.
        -11    1    3    3    0    0 -0.22598653854E+02 -0.70455888598E+02  0.37985394509E+02  0.83172240502E+02  0.00000000000E+00 0.  1.
         12    1    3    3    0    0 -0.10676415031E+03 -0.66169460891E+02 -0.23130050555E+00  0.12560666721E+03  0.00000000000E+00 0. -1.
         11    1    5    5    0    0 -0.31689912567E+02  0.28221628585E+02  0.28134996797E+02  0.50914525661E+02  0.00000000000E+00 0. -1.
        -12    1    5    5    0    0 -0.95501835322E+01  0.67377420516E+02  0.19186737549E+03  0.20357802578E+03  0.00000000000E+00 0.  1.
          5    1    4    4  501    0  0.17816361699E+03  0.28594349762E+02  0.15083503450E+03  0.23522030374E+03  0.41800000000E+01 0. -1.
         -5    1    4    4    0  501 -0.75607167275E+01  0.12431950626E+02  0.76626385351E+02  0.78107574318E+02  0.41800000000E+01 0. -1.
</event>
<event>
11    1  0.8037748E-009  0.1386684E+03  0.7561462E-02  0.1109054E+00
         22   -1    0    0    0    0  0.00000000000E+00  0.00000000000E+00  0.44506037529E+03  0.44506037529E+03  0.00000000000E+00 0. -1.
         22   -1    0    0    0    0 -0.00000000000E+00 -0.00000000000E+00 -0.38843592197E+03  0.38843592197E+03  0.00000000000E+00 0. -1.
        -24    2    1    2    0    0 -0.13278874277E+02  0.58228160615E+02 -0.34585338367E+03  0.36015115442E+03  0.80792597737E+02 0.  0.
         25    2    1    2    0    0 -0.39777529522E+02 -0.74021104326E+02  0.22812432045E+03  0.27340425956E+03  0.12509119801E+03 0.  0.
         24    2    1    2    0    0  0.53056403799E+02  0.15792943711E+02  0.17435351653E+03  0.19994088327E+03  0.80701976571E+02 0.  0.
        -13    1    5    5    0    0  0.53426848627E+02  0.13475690219E+02  0.46593688129E+02  0.72159504950E+02  0.00000000000E+00 0.  1.
         14    1    5    5    0    0 -0.37044482855E+00  0.23172534917E+01  0.12775982840E+03  0.12778137832E+03  0.00000000000E+00 0. -1.
         11    1    3    3    0    0 -0.65464619785E+01  0.78639365363E+02 -0.27704886400E+03  0.28806783748E+03  0.00000000000E+00 0. -1.
        -12    1    3    3    0    0 -0.67324122981E+01 -0.20411204747E+02 -0.68804519665E+02  0.72083316939E+02  0.00000000000E+00 0.  1.
          5    1    4    4  501    0 -0.16851083738E+02 -0.18208025212E+02 -0.10479418750E+02  0.27254023970E+02  0.41800000000E+01 0. -1.
         -5    1    4    4    0  501 -0.22926445784E+02 -0.55813079115E+02  0.23860373920E+03  0.24615023558E+03  0.41800000000E+01 0. -1.
</event>
<event>
11    1  0.8037748E-009  0.1493242E+03  0.7561462E-02  0.1097571E+00
         22   -1    0    0    0    0  0.00000000000E+00  0.00000000000E+00  0.33987308428E+02  0.33987308428E+02  0.00000000000E+00 0. -1.
         22   -1    0    0    0    0 -0.00000000000E+00 -0.00000000000E+00 -0.21808778477E+04  0.21808778477E+04  0.00000000000E+00 0. -1.
         24    2    1    2    0    0  0.52318913611E+02 -0.22178346831E+02 -0.15334280764E+04  0.15366655754E+04  0.81916281316E+02 0.  0.
         25    2    1    2    0    0 -0.63755973047E+02  0.93327050722E+02 -0.45122787628E+03  0.48169299704E+03  0.12508710793E+03 0.  0.
        -24    2    1    2    0    0  0.11437059436E+02 -0.71148703891E+02 -0.16223458652E+03  0.19650658368E+03  0.84272367788E+02 0.  0.
        -11    1    3    3    0    0  0.10417811714E+02 -0.27249367586E+01 -0.21633701396E+02  0.24165535734E+02  0.00000000000E+00 0.  1.
         12    1    3    3    0    0  0.41901101897E+02 -0.19453410073E+02 -0.15117943750E+04  0.15125000396E+04  0.00000000000E+00 0. -1.
         13    1    5    5    0    0  0.16594574226E+02 -0.71012111604E+02 -0.60814269846E+02  0.94955122585E+02  0.00000000000E+00 0. -1.
        -14    1    5    5    0    0 -0.51575147905E+01 -0.13659228670E+00 -0.10142031668E+03  0.10155146110E+03  0.00000000000E+00 0.  1.
          5    1    4    4  501    0 -0.36821060032E+02 -0.28676859493E+01 -0.28720123740E+03  0.28959633500E+03  0.41800000000E+01 0. -1.
         -5    1    4    4    0  501 -0.26934913015E+02  0.96194736671E+02 -0.16402663888E+03  0.19209666203E+03  0.41800000000E+01 0. -1.
</event>
<event>
11    1  0.8037748E-009  0.1309235E+03  0.7561462E-02  0.1118139E+00
         22   -1    0    0    0    0  0.00000000000E+00  0.00000000000E+00  0.17054056656E+03  0.17054056656E+03  0.00000000000E+00 0. -1.
         22   -1    0    0    0    0 -0.00000000000E+00 -0.00000000000E+00 -0.24935875977E+03  0.24935875977E+03  0.00000000000E+00 0.  1.
         24    2    1    2    0    0  0.35839730909E+02  0.70580262253E+01 -0.14225166275E+03  0.16927667189E+03  0.84170981027E+02 0.  0.
         25    2    1    2    0    0 -0.53507551030E+02  0.53651420812E+02  0.12080977607E+01  0.14625439517E+03  0.12508939057E+03 0.  0.
        -24    2    1    2    0    0  0.17667820121E+02 -0.60709447037E+02  0.62225371780E+02  0.10436825927E+03  0.54981340668E+02 0.  0.
        -13    1    3    3    0    0  0.62257490214E+02 -0.45326989230E+01 -0.88929453550E+02  0.10865076233E+03  0.00000000000E+00 0.  1.
         14    1    3    3    0    0 -0.26417759304E+02  0.11590725148E+02 -0.53322209195E+02  0.60625909557E+02  0.00000000000E+00 0. -1.
         11    1    5    5    0    0  0.14345560481E+02 -0.12123576675E+01  0.36920606890E+02  0.39628223904E+02  0.00000000000E+00 0. -1.
        -12    1    5    5    0    0  0.33222596397E+01 -0.59497089370E+02  0.25304764890E+02  0.64740035362E+02  0.00000000000E+00 0.  1.
          5    1    4    4  501    0 -0.36423707977E+02  0.72574394330E+02 -0.45282342381E+02  0.93068212332E+02  0.41800000000E+01 0. -1.
         -5    1    4    4    0  501 -0.17083843054E+02 -0.18922973518E+02  0.46490440142E+02  0.53186182838E+02  0.41800000000E+01 0. -1.
</event>
<event>
11    1  0.8037748E-009  0.1721136E+03  0.7561462E-02  0.1076207E+00
         22   -1    0    0    0    0  0.00000000000E+00  0.00000000000E+00  0.11012254807E+03  0.11012254807E+03  0.00000000000E+00 0. -1.
         22   -1    0    0    0    0 -0.00000000000E+00 -0.00000000000E+00 -0.16796026195E+04  0.16796026195E+04  0.00000000000E+00 0. -1.
        -24    2    1    2    0    0 -0.28196852918E+02 -0.26456347685E+02 -0.12432121627E+04  0.12463838761E+04  0.80008025186E+02 0.  0.
         25    2    1    2    0    0 -0.92797107120E+02  0.14717642995E+01 -0.34722949807E+03  0.38056493737E+03  0.12509147872E+03 0.  0.
         24    2    1    2    0    0  0.12099396004E+03  0.24984583385E+02  0.20961589369E+02  0.16277635413E+03  0.10388929426E+03 0.  0.
        -13    1    5    5    0    0  0.17776045140E+02  0.26579700296E+02 -0.33289245705E+02  0.46158879192E+02  0.00000000000E+00 0.  1.
         14    1    5    5    0    0  0.10321791490E+03 -0.15951169111E+01  0.54250835074E+02  0.11661747494E+03  0.00000000000E+00 0. -1.
         11    1    3    3    0    0 -0.29808453938E+01 -0.24259567639E+02 -0.11345267391E+04  0.11347899954E+04  0.00000000000E+00 0. -1.
        -12    1    3    3    0    0 -0.25216007524E+02 -0.21967800460E+01 -0.10868542367E+03  0.11159388064E+03  0.00000000000E+00 0.  1.
          5    1    4    4  501    0 -0.11828187871E+03 -0.21158455336E+02 -0.24903224550E+03  0.27653718513E+03  0.41800000000E+01 0. -1.
         -5    1    4    4    0  501  0.25484771590E+02  0.22630219636E+02 -0.98197252572E+02  0.10402775224E+03  0.41800000000E+01 0. -1.
</event>
<event>
11    1  0.8037748E-009  0.1362592E+03  0.7561462E-02  0.1111809E+00
         22   -1    0    0    0    0  0.00000000000E+00  0.00000000000E+00  0.23208440822E+03  0.23208440822E+03  0.00000000000E+00 0. -1.
         22   -1    0    0    0    0 -0.00000000000E+00 -0.00000000000E+00 -0.16808131947E+04  0.16808131947E+04  0.00000000000E+00 0.  1.
         24    2    1    2    0    0  0.29486479786E+02  0.29469428738E+02 -0.12983664998E+04  0.13015617484E+04  0.81052559544E+02 0.  0.
         25    2    1    2    0    0 -0.62020227632E+02  0.13876472868E+02 -0.35767685077E+03  0.38420881663E+03  0.12507845563E+03 0.  0.
        -24    2    1    2    0    0  0.32533747846E+02 -0.43345901606E+02  0.20731456411E+03  0.22712703785E+03  0.75299740352E+02 0.  0.
        -11    1    3    3    0    0  0.37487194974E+02  0.50549089425E+02 -0.11214339074E+04  0.11231983391E+04  0.00000000000E+00 0.  1.
         12    1    3    3    0    0 -0.80007151876E+01 -0.21079660687E+02 -0.17693259241E+03  0.17836340935E+03  0.00000000000E+00 0. -1.
         11    1    5    5    0    0  0.22044377831E+02 -0.65039318488E+02  0.15233153890E+03  0.16709567704E+03  0.00000000000E+00 0. -1.
        -12    1    5    5    0    0  0.10489370015E+02  0.21693416882E+02  0.54983025209E+02  0.60031360808E+02  0.00000000000E+00 0.  1.
          5    1    4    4  501    0  0.18322059654E+02 -0.38771119959E+02 -0.89829632469E+02  0.99627972389E+02  0.41800000000E+01 0.  1.
         -5    1    4    4    0  501 -0.80342287285E+02  0.52647592827E+02 -0.26784721830E+03  0.28458084424E+03  0.41800000000E+01 0.  1.
</event>
<event>
11    1  0.8037748E-009  0.2394944E+03  0.7561462E-02  0.1029649E+00
         22   -1    0    0    0    0  0.00000000000E+00  0.00000000000E+00  0.91043716470E+03  0.91043716470E+03  0.00000000000E+00 0. -1.
         22   -1    0    0    0    0 -0.00000000000E+00 -0.00000000000E+00 -0.41000453829E+03  0.41000453829E+03  0.00000000000E+00 0. -1.
        -24    2    1    2    0    0  0.19775041753E+03 -0.53556535839E+02 -0.33540396470E+03  0.40086200697E+03  0.78873309392E+02 0.  0.
         25    2    1    2    0    0 -0.19535188675E+03  0.32918893217E+02  0.31658525857E+03  0.39385243787E+03  0.12508998235E+03 0.  0.
         24    2    1    2    0    0 -0.23985307842E+01  0.20637642623E+02  0.51925133254E+03  0.52572725815E+03  0.79596095211E+02 0.  0.
        -11    1    5    5    0    0 -0.39164855593E+02 -0.39776678030E+00  0.21454876490E+03  0.21809451312E+03  0.00000000000E+00 0.  1.
         12    1    5    5    0    0  0.36766324809E+02  0.21035409403E+02  0.30470256764E+03  0.30763274503E+03  0.00000000000E+00 0. -1.
         11    1    3    3    0    0  0.13514414924E+03 -0.31816749383E+01 -0.17196681427E+03  0.21873876963E+03  0.00000000000E+00 0. -1.
        -12    1    3    3    0    0  0.62606268292E+02 -0.50374860901E+02 -0.16343715043E+03  0.18212323734E+03  0.00000000000E+00 0.  1.
          5    1    4    4  501    0 -0.16712408724E+03 -0.33438556047E+01  0.30244673793E+03  0.34559100623E+03  0.41800000000E+01 0.  1.
         -5    1    4    4    0  501 -0.28227799512E+02  0.36262748821E+02  0.14138520637E+02  0.48261431632E+02  0.41800000000E+01 0.  1.
</event>
<event>
11    1  0.8037748E-009  0.1319418E+03  0.7561462E-02  0.1116906E+00
         22   -1    0    0    0    0  0.00000000000E+00  0.00000000000E+00  0.12457744400E+04  0.12457744400E+04  0.00000000000E+00 0.  1.
         22   -1    0    0    0    0 -0.00000000000E+00 -0.00000000000E+00 -0.71410371982E+03  0.71410371982E+03  0.00000000000E+00 0.  1.
         24    2    1    2    0    0 -0.14160293358E+02 -0.17576257125E+02 -0.67921089465E+03  0.68483490243E+03  0.84628396300E+02 0.  0.
         25    2    1    2    0    0  0.21961895034E+02  0.57602769541E+02  0.13083284214E+03  0.19122188600E+03  0.12509265850E+03 0.  0.
        -24    2    1    2    0    0 -0.78016016759E+01 -0.40026512416E+02  0.10800487727E+04  0.10838213714E+04  0.80625225669E+02 0.  0.
        -11    1    3    3    0    0 -0.32484736681E+02  0.24362680916E+02 -0.37657540723E+03  0.37875828132E+03  0.00000000000E+00 0.  1.
         12    1    3    3    0    0  0.18324443323E+02 -0.41938938041E+02 -0.30263548742E+03  0.30607662112E+03  0.00000000000E+00 0. -1.
         11    1    5    5    0    0 -0.28464724090E+02  0.10166384846E+01  0.15262914491E+03  0.15526406522E+03  0.00000000000E+00 0. -1.
        -12    1    5    5    0    0  0.20663122414E+02 -0.41043150901E+02  0.92741962777E+03  0.92855730616E+03  0.00000000000E+00 0.  1.
          5    1    4    4  501    0 -0.31401840419E+02 -0.24806764429E+02  0.48537906580E+02  0.63046426689E+02  0.41800000000E+01 0. -1.
         -5    1    4    4    0  501  0.53363735453E+02  0.82409533969E+02  0.82294935561E+02  0.12817545931E+03  0.41800000000E+01 0. -1.
</event>
<event>
11    1  0.8037748E-009  0.2314238E+03  0.7561462E-02  0.1034288E+00
         22   -1    0    0    0    0  0.00000000000E+00  0.00000000000E+00  0.14698742095E+04  0.14698742095E+04  0.00000000000E+00 0.  1.
         22   -1    0    0    0    0 -0.00000000000E+00 -0.00000000000E+00 -0.15010474425E+03  0.15010474425E+03  0.00000000000E+00 0. -1.
         24    2    1    2    0    0 -0.52376442982E+02 -0.10503220754E+03 -0.58899121175E+02  0.16353094928E+03  0.97458752792E+02 0.  0.
         25    2    1    2    0    0 -0.27681992844E+02  0.25190196962E+03  0.77960610415E+03  0.82924901046E+03  0.12508936282E+03 0.  0.
        -24    2    1    2    0    0  0.80058435827E+02 -0.14686976208E+03  0.59906248230E+03  0.62719899405E+03  0.80762864450E+02 0.  0.
        -13    1    3    3    0    0 -0.36425495538E+02  0.74741529381E+01 -0.25516543140E+02  0.45097379759E+02  0.00000000000E+00 0.  1.
         14    1    3    3    0    0 -0.15950947445E+02 -0.11250636048E+03 -0.33382578035E+02  0.11843356952E+03  0.00000000000E+00 0. -1.
         11    1    5    5    0    0 -0.25999192022E+01 -0.16084086402E+02  0.12390690054E+02  0.20469162544E+02  0.00000000000E+00 0. -1.
        -12    1    5    5    0    0  0.82658355029E+02 -0.13078567567E+03  0.58667179225E+03  0.60672983151E+03  0.00000000000E+00 0.  1.
          5    1    4    4  501    0 -0.48631106582E+02  0.33449427283E+02  0.22859568096E+03  0.23612985086E+03  0.41800000000E+01 0. -1.
         -5    1    4    4    0  501  0.20949113737E+02  0.21845254233E+03  0.55101042319E+03  0.59311915959E+03  0.41800000000E+01 0. -1.
</event>
<event>
11    1  0.8037748E-009  0.1462846E+03  0.7561462E-02  0.1100737E+00
         22   -1    0    0    0    0  0.00000000000E+00  0.00000000000E+00  0.11139449808E+04  0.11139449808E+04  0.00000000000E+00 0.  1.
         22   -1    0    0    0    0 -0.00000000000E+00 -0.00000000000E+00 -0.22241904834E+03  0.22241904834E+03  0.00000000000E+00 0. -1.
        -24    2    1    2    0    0  0.54341790949E+02 -0.54542143365E+02 -0.14401716340E+03  0.18165864850E+03  0.79567867721E+02 0.  0.
         25    2    1    2    0    0 -0.38516911436E+02  0.60522233419E+02  0.31999584327E+02  0.14770941377E+03  0.12509038458E+03 0.  0.
         24    2    1    2    0    0 -0.15824879513E+02 -0.59800900536E+01  0.10035435116E+04  0.10069959669E+04  0.81578854418E+02 0.  0.
        -13    1    5    5    0    0 -0.12814929829E+02 -0.69216005867E+01  0.10037309691E+04  0.10038366348E+04  0.00000000000E+00 0.  1.
         14    1    5    5    0    0 -0.30099496840E+01  0.94151053307E+00 -0.18745754511E+00  0.31593321313E+01  0.00000000000E+00 0. -1.
         13    1    3    3    0    0  0.18804613064E+02 -0.63985028428E+02 -0.12133456327E+03  0.13845495144E+03  0.00000000000E+00 0. -1.
        -14    1    3    3    0    0  0.35537177885E+02  0.94428850627E+01 -0.22682600127E+02  0.43203697050E+02  0.00000000000E+00 0.  1.
          5    1    4    4  501    0 -0.56568582185E+02 -0.20361459976E+00  0.56118876699E+02  0.79792522652E+02  0.41800000000E+01 0.  1.
         -5    1    4    4    0  501  0.18051670749E+02  0.60725848019E+02 -0.24119292371E+02  0.67916891116E+02  0.41800000000E+01 0.  1.
</event>
<event>
11    1  0.8037748E-009  0.1808001E+03  0.7561462E-02  0.1068997E+00
         22   -1    0    0    0    0  0.00000000000E+00  0.00000000000E+00  0.17581454773E+04  0.17581454773E+04  0.00000000000E+00 0. -1.
         22   -1    0    0    0    0 -0.00000000000E+00 -0.00000000000E+00 -0.60025966029E+02  0.60025966029E+02  0.00000000000E+00 0.  1.
         24    2    1    2    0    0 -0.49848233953E+01 -0.37213589560E+02  0.26527150256E+02  0.93908402325E+02  0.81886498364E+02 0.  0.
         25    2    1    2    0    0 -0.89030028783E+02  0.12209639713E+03  0.42231303325E+03  0.46564918771E+03  0.12508793606E+03 0.  0.
        -24    2    1    2    0    0  0.94014852179E+02 -0.84882807572E+02  0.12492793278E+04  0.12586138533E+04  0.85826041870E+02 0.  0.
        -13    1    3    3    0    0  0.32919503500E+02  0.46300247649E+01  0.14029509306E+02  0.36082654717E+02  0.00000000000E+00 0.  1.
         14    1    3    3    0    0 -0.37904326895E+02 -0.41843614325E+02  0.12497640950E+02  0.57825747608E+02  0.00000000000E+00 0. -1.
         11    1    5    5    0    0  0.75110115344E+02 -0.74825582805E+02  0.12025191855E+04  0.12071838256E+04  0.00000000000E+00 0. -1.
        -12    1    5    5    0    0  0.18904736834E+02 -0.10057224768E+02  0.46760142274E+02  0.51430027710E+02  0.00000000000E+00 0.  1.
          5    1    4    4  501    0 -0.71124052804E+02 -0.79168570103E+00  0.13594538914E+03  0.15348576117E+03  0.41800000000E+01 0. -1.
         -5    1    4    4    0  501 -0.17905975979E+02  0.12288808283E+03  0.28636764411E+03  0.31216342654E+03  0.41800000000E+01 0. -1.
</event>
<event>
11    1  0.8037748E-009  0.1744938E+03  0.7561462E-02  0.1074186E+00
         22   -1    0    0    0    0  0.00000000000E+00  0.00000000000E+00  0.30509105774E+03  0.30509105774E+03  0.00000000000E+00 0.  1.
         22   -1    0    0    0    0 -0.00000000000E+00 -0.00000000000E+00 -0.74675583125E+03  0.74675583125E+03  0.00000000000E+00 0.  1.
        -24    2    1    2    0    0 -0.47325160086E+02  0.11710304849E+03 -0.35483899971E+03  0.38662010910E+03  0.87244474351E+02 0.  0.
         25    2    1    2    0    0  0.10479733342E+03 -0.72702397019E+02 -0.34309776450E+03  0.38682345428E+03  0.12509272223E+03 0.  0.
         24    2    1    2    0    0 -0.57472173335E+02 -0.44400651475E+02  0.25627199070E+03  0.27840332560E+03  0.80985245130E+02 0.  0.
        -11    1    5    5    0    0 -0.32315622144E+02 -0.12900351366E+02  0.22421341154E+03  0.22689727282E+03  0.00000000000E+00 0.  1.
         12    1    5    5    0    0 -0.25156551191E+02 -0.31500300109E+02  0.32058579154E+02  0.51506052772E+02  0.00000000000E+00 0. -1.
         11    1    3    3    0    0 -0.23606559310E+02 -0.10487114084E+01 -0.12386405627E+03  0.12609787418E+03  0.00000000000E+00 0. -1.
        -12    1    3    3    0    0 -0.23718600776E+02  0.11815175990E+03 -0.23097494344E+03  0.26052223492E+03  0.00000000000E+00 0.  1.
          5    1    4    4  501    0 -0.11373538799E+01 -0.15435667962E+02  0.63049367582E+01  0.17227247220E+02  0.41800000000E+01 0.  1.
         -5    1    4    4    0  501  0.10593468730E+03 -0.57266729057E+02 -0.34940270126E+03  0.36959620706E+03  0.41800000000E+01 0.  1.
</event>
<event>
11    1  0.8037748E-009  0.1813670E+03  0.7561462E-02  0.1068542E+00
         22   -1    0    0    0    0  0.00000000000E+00  0.00000000000E+00  0.11089247630E+03  0.11089247630E+03  0.00000000000E+00 0. -1.
         22   -1    0    0    0    0 -0.00000000000E+00 -0.00000000000E+00 -0.14310712344E+04  0.14310712344E+04  0.00000000000E+00 0. -1.
        -24    2    1    2    0    0 -0.23398531241E+02 -0.25563024287E+02 -0.11097602605E+04  0.11131915315E+04  0.80166018492E+02 0.  0.
         25    2    1    2    0    0  0.32611704006E+02  0.14949333358E+03 -0.19712906605E+03  0.27913995864E+03  0.12508983893E+03 0.  0.
         24    2    1    2    0    0 -0.92131727650E+01 -0.12393030930E+03 -0.13289431549E+02  0.14963222057E+03  0.82277508030E+02 0.  0.
        -13    1    5    5    0    0  0.23346572159E+02 -0.24518914454E+02 -0.28078187739E+02  0.43984363407E+02  0.00000000000E+00 0.  1.
         14    1    5    5    0    0 -0.32559744924E+02 -0.99411394843E+02  0.14788756190E+02  0.10564785717E+03  0.00000000000E+00 0. -1.
         13    1    3    3    0    0 -0.16776099014E+02 -0.36132027664E+02 -0.10822845082E+04  0.10830174134E+04  0.00000000000E+00 0. -1.
        -14    1    3    3    0    0 -0.66224322269E+01  0.10569003377E+02 -0.27475752241E+02  0.30174118085E+02  0.00000000000E+00 0.  1.
          5    1    4    4  501    0  0.29187876632E+02  0.64732319173E+02 -0.17855184565E+03  0.19219895752E+03  0.41800000000E+01 0.  1.
         -5    1    4    4    0  501  0.34238273742E+01  0.84761014410E+02 -0.18577220404E+02  0.86941001120E+02  0.41800000000E+01 0.  1.
</event>
<event>
11    1  0.8037748E-009  0.1603560E+03  0.7561462E-02  0.1086743E+00
         22   -1    0    0    0    0  0.00000000000E+00  0.00000000000E+00  0.53811277538E+03  0.53811277538E+03  0.00000000000E+00 0.  1.
         22   -1    0    0    0    0 -0.00000000000E+00 -0.00000000000E+00 -0.33903338723E+03  0.33903338723E+03  0.00000000000E+00 0. -1.
        -24    2    1    2    0    0 -0.39256997767E+02  0.42701169689E+01 -0.27944241861E+03  0.29362692903E+03  0.81051603069E+02 0.  0.
         25    2    1    2    0    0  0.11724690566E+03  0.47672939446E+02  0.15042646311E+03  0.23301996168E+03  0.12510250076E+03 0.  0.
         24    2    1    2    0    0 -0.77989907897E+02 -0.51943056415E+02  0.32809534365E+03  0.35049927189E+03  0.80141613597E+02 0.  0.
        -11    1    5    5    0    0 -0.71871297522E+02 -0.38818600847E+02  0.32574323001E+03  0.33582885385E+03  0.00000000000E+00 0.  1.
         12    1    5    5    0    0 -0.61186103752E+01 -0.13124455569E+02  0.23521136322E+01  0.14670418039E+02  0.00000000000E+00 0. -1.
         11    1    3    3    0    0  0.22997478040E+02 -0.61250939619E+01 -0.11610299379E+03  0.11851711243E+03  0.00000000000E+00 0. -1.
        -12    1    3    3    0    0 -0.62254475807E+02  0.10395210931E+02 -0.16333942483E+03  0.17510981661E+03  0.00000000000E+00 0.  1.
          5    1    4    4  501    0  0.49447183560E+02  0.40555184071E+02 -0.39501291225E+01  0.64209211466E+02  0.41800000000E+01 0. -1.
         -5    1    4    4    0  501  0.67799722104E+02  0.71177553756E+01  0.15437659224E+03  0.16881075022E+03  0.41800000000E+01 0. -1.
</event>
<event>
11    1  0.8037748E-009  0.1410052E+03  0.7561462E-02  0.1106441E+00
         22   -1    0    0    0    0  0.00000000000E+00  0.00000000000E+00  0.64532199234E+03  0.64532199234E+03  0.00000000000E+00 0. -1.
         22   -1    0    0    0    0 -0.00000000000E+00 -0.00000000000E+00 -0.86283351300E+03  0.86283351300E+03  0.00000000000E+00 0. -1.
         24    2    1    2    0    0 -0.57330030357E+02  0.10506011265E+02 -0.47534321210E+03  0.48541027822E+03  0.79214015550E+02 0.  0.
         25    2    1    2    0    0  0.79041208169E+02 -0.39067396345E+02 -0.36418112217E+03  0.39503032748E+03  0.12508915153E+03 0.  0.
        -24    2    1    2    0    0 -0.21711177812E+02  0.28561385080E+02  0.62201281361E+03  0.62771489965E+03  0.76412871873E+02 0.  0.
        -13    1    3    3    0    0  0.19992873867E+02 -0.12638822846E+01 -0.10602381053E+03  0.10789977203E+03  0.00000000000E+00 0.  1.
         14    1    3    3    0    0 -0.77322904224E+02  0.11769893550E+02 -0.36931940157E+03  0.37751050619E+03  0.00000000000E+00 0. -1.
         11    1    5    5    0    0 -0.25653439272E+02 -0.11009168928E+02  0.46171420948E+03  0.46255736075E+03  0.00000000000E+00 0. -1.
        -12    1    5    5    0    0  0.39422614599E+01  0.39570554008E+02  0.16029860413E+03  0.16515753890E+03  0.00000000000E+00 0.  1.
          5    1    4    4  501    0  0.77912459321E+02 -0.24024344562E+02 -0.94440593696E+02  0.12483596672E+03  0.41800000000E+01 0. -1.
         -5    1    4    4    0  501  0.11287488484E+01 -0.15043051783E+02 -0.26974052848E+03  0.27019436076E+03  0.41800000000E+01 0. -1.
</event>
<event>
11    1  0.8037748E-009  0.1456465E+03  0.7561462E-02  0.1101412E+00
         22   -1    0    0    0    0  0.00000000000E+00  0.00000000000E+00  0.31117241559E+03  0.31117241559E+03  0.00000000000E+00 0. -1.
         22   -1    0    0    0    0 -0.00000000000E+00 -0.00000000000E+00 -0.11765130854E+04  0.11765130854E+04  0.00000000000E+00 0. -1.
        -24    2    1    2    0    0 -0.74115238846E+02 -0.15167187298E+02 -0.98454192686E+03  0.99174080435E+03  0.92216620407E+02 0.  0.
         25    2    1    2    0    0  0.61812411289E+02  0.28615052433E+02 -0.15416643162E+03  0.20989117013E+03  0.12508964483E+03 0.  0.
         24    2    1    2    0    0  0.12302827557E+02 -0.13447865135E+02  0.27336768868E+03  0.28605352650E+03  0.82246715224E+02 0.  0.
        -13    1    5    5    0    0  0.22666382425E+02  0.16313868397E+02  0.31318395484E+02  0.41961280843E+02  0.00000000000E+00 0.  1.
         14    1    5    5    0    0 -0.10363554868E+02 -0.29761733532E+02  0.24204929320E+03  0.24409224566E+03  0.00000000000E+00 0. -1.
         13    1    3    3    0    0 -0.86602666126E+02  0.13570157028E+02 -0.69401351025E+03  0.69952764302E+03  0.00000000000E+00 0. -1.
        -14    1    3    3    0    0  0.12487427280E+02 -0.28737344326E+02 -0.29052841661E+03  0.29221316134E+03  0.00000000000E+00 0.  1.
          5    1    4    4  501    0  0.93207737140E+02  0.20464003958E+02 -0.66677971564E+02  0.11648983652E+03  0.41800000000E+01 0.  1.
         -5    1    4    4    0  501 -0.31395325851E+02  0.81510484750E+01 -0.87488460057E+02  0.93401333607E+02  0.41800000000E+01 0.  1.
</event>
<event>
11    1  0.8037748E-009  0.1355487E+03  0.7561462E-02  0.1112633E+00
         22   -1    0    0    0    0  0.00000000000E+00  0.00000000000E+00  0.18848071233E+03  0.18848071233E+03  0.00000000000E+00 0.  1.
         22   -1    0    0    0    0 -0.00000000000E+00 -0.00000000000E+00 -0.93788793428E+03  0.93788793428E+03  0.00000000000E+00 0.  1.
        -24    2    1    2    0    0 -0.40825691713E+02 -0.34728087768E+02 -0.35497407403E+03  0.36761061820E+03  0.79108761804E+02 0.  0.
         25    2    1    2    0    0  0.71293081874E+02  0.75575743523E+02 -0.55123724361E+03  0.57472271637E+03  0.12509718396E+03 0.  0.
         24    2    1    2    0    0 -0.30467390161E+02 -0.40847655755E+02  0.15680409568E+03  0.18403531205E+03  0.81759885116E+02 0.  0.
        -13    1    5    5    0    0 -0.44217188101E+02 -0.19538152808E+02  0.15025913588E+03  0.15784393259E+03  0.00000000000E+00 0.  1.
         14    1    5    5    0    0  0.13749797940E+02 -0.21309502947E+02  0.65449597990E+01  0.26191379460E+02  0.00000000000E+00 0. -1.
         13    1    3    3    0    0 -0.28435648435E+02  0.21407992469E+02 -0.97413185757E+02  0.10371218348E+03  0.00000000000E+00 0. -1.
        -14    1    3    3    0    0 -0.12390043278E+02 -0.56136080237E+02 -0.25756088827E+03  0.26389843471E+03  0.00000000000E+00 0.  1.
          5    1    4    4  501    0  0.63167272681E+02  0.86590055553E+02 -0.23681041109E+03  0.25997035458E+03  0.41800000000E+01 0.  1.
         -5    1    4    4    0  501  0.81258091926E+01 -0.11014312030E+02 -0.31442683252E+03  0.31475236179E+03  0.41800000000E+01 0.  1.
</event>
<event>
11    1  0.8037748E-009  0.1989062E+03  0.7561462E-02  0.1055300E+00
         22   -1    0    0    0    0  0.00000000000E+00  0.00000000000E+00  0.38233422748E+03  0.38233422748E+03  0.00000000000E+00 0.  1.
         22   -1    0    0    0    0 -0.00000000000E+00 -0.00000000000E+00 -0.30116219596E+03  0.30116219596E+03  0.00000000000E+00 0. -1.
        -24    2    1    2    0    0 -0.15012465904E+03 -0.46633931123E+02 -0.19928434124E+03  0.26592400688E+03  0.79304426032E+02 0.  0.
         25    2    1    2    0    0  0.12938611485E+03  0.64291784146E+02  0.92918733197E+02  0.21249970881E+03  0.12509210623E+03 0.  0.
         24    2    1    2    0    0  0.20738544186E+02 -0.17657853024E+02  0.18753763956E+03  0.20507270775E+03  0.78374499816E+02 0.  0.
        -13    1    5    5    0    0  0.20178510735E+02 -0.83614584915E+01  0.19302913727E+03  0.19426099485E+03  0.00000000000E+00 0.  1.
         14    1    5    5    0    0  0.56003345093E+00 -0.92963945321E+01 -0.54914977072E+01  0.10811712900E+02  0.00000000000E+00 0. -1.
         11    1    3    3    0    0 -0.12523000810E+03 -0.34115790950E+02 -0.19956222278E+03  0.23805781416E+03  0.00000000000E+00 0. -1.
        -12    1    3    3    0    0 -0.24894650934E+02 -0.12518140173E+02  0.27788154032E+00  0.27866192719E+02  0.00000000000E+00 0.  1.
          5    1    4    4  501    0  0.96943800009E+02  0.31735507485E+02  0.12112593064E+03  0.15841150927E+03  0.41800000000E+01 0. -1.
         -5    1    4    4    0  501  0.32442314843E+02  0.32556276661E+02 -0.28207197439E+02  0.54088199543E+02  0.41800000000E+01 0. -1.
</event>
<event>
11    1  0.8037748E-009  0.1558729E+03  0.7561462E-02  0.1091024E+00
         22   -1    0    0    0    0  0.00000000000E+00  0.00000000000E+00  0.78159562135E+03  0.78159562135E+03  0.00000000000E+00 0. -1.
         22   -1    0    0    0    0 -0.00000000000E+00 -0.00000000000E+00 -0.10712577656E+03  0.10712577656E+03  0.00000000000E+00 0.  1.
         24    2    1    2    0    0  0.17364676202E+02 -0.11657958586E+02 -0.52911454575E+02  0.96031023148E+02  0.77362105735E+02 0.  0.
         25    2    1    2    0    0  0.14449004135E+02  0.97788105775E+02  0.22492336570E+03  0.27568970045E+03  0.12507199185E+03 0.  0.
        -24    2    1    2    0    0 -0.31813680337E+02 -0.86130147189E+02  0.50245793367E+03  0.51700067431E+03  0.79970054490E+02 0.  0.
        -11    1    3    3    0    0  0.76322538471E+01 -0.38047955039E+01 -0.72386150982E+02  0.72886779471E+02  0.00000000000E+00 0.  1.
         12    1    3    3    0    0  0.97324223545E+01 -0.78531630823E+01  0.19474696407E+02  0.23144243678E+02  0.00000000000E+00 0. -1.
         11    1    5    5    0    0 -0.18746126061E+02 -0.59513250825E+02  0.46528560715E+03  0.46945067951E+03  0.00000000000E+00 0. -1.
        -12    1    5    5    0    0 -0.13067554275E+02 -0.26616896363E+02  0.37172326514E+02  0.47549994797E+02  0.00000000000E+00 0.  1.
          5    1    4    4  501    0  0.52409951200E+00  0.12652925102E+03  0.18850358373E+03  0.22707047259E+03  0.41800000000E+01 0. -1.
         -5    1    4    4    0  501  0.13924904623E+02 -0.28741145247E+02  0.36419781972E+02  0.48619227861E+02  0.41800000000E+01 0. -1.
</event>
<event>
11    1  0.8037748E-009  0.1473675E+03  0.7561462E-02  0.1099599E+00
         22   -1    0    0    0    0  0.00000000000E+00  0.00000000000E+00  0.21454354105E+04  0.21454354105E+04  0.00000000000E+00 0. -1.
         22   -1    0    0    0    0 -0.00000000000E+00 -0.00000000000E+00 -0.46278934466E+03  0.46278934466E+03  0.00000000000E+00 0. -1.
        -24    2    1    2    0    0  0.65217259374E+02 -0.40622496753E+02 -0.40305621853E+03  0.41809397720E+03  0.80279389093E+02 0.  0.
         25    2    1    2    0    0 -0.24151146701E+02  0.10675392358E+03  0.85700692614E+02  0.18701854768E+03  0.12510655608E+03 0.  0.
         24    2    1    2    0    0 -0.41066112673E+02 -0.66131426831E+02  0.20000015918E+04  0.20031122303E+04  0.79952791098E+02 0.  0.
        -13    1    5    5    0    0  0.12264149439E+02 -0.19625769749E+02  0.15155362845E+03  0.15331041222E+03  0.00000000000E+00 0.  1.
         14    1    5    5    0    0 -0.53330262112E+02 -0.46505657082E+02  0.18484479633E+04  0.18498018181E+04  0.00000000000E+00 0. -1.
         13    1    3    3    0    0  0.83909552702E+02 -0.37030851291E+02 -0.31999296121E+03  0.33287774363E+03  0.00000000000E+00 0. -1.
        -14    1    3    3    0    0 -0.18692293327E+02 -0.35916454623E+01 -0.83063257322E+02  0.85216233571E+02  0.00000000000E+00 0.  1.
          5    1    4    4  501    0  0.24178949231E+02  0.67220178489E+02  0.99864863546E+02  0.12285616530E+03  0.41800000000E+01 0. -1.
         -5    1    4    4    0  501 -0.48330095933E+02  0.39533745095E+02 -0.14164170932E+02  0.64162382377E+02  0.41800000000E+01 0. -1.
</event>
<event>
11    1  0.8037748E-009  0.1782617E+03  0.7561462E-02  0.1071058E+00
         22   -1    0    0    0    0  0.00000000000E+00  0.00000000000E+00  0.41174954013E+03  0.41174954013E+03  0.00000000000E+00 0. -1.
         22   -1    0    0    0    0 -0.00000000000E+00 -0.00000000000E+00 -0.21068642408E+03  0.21068642408E+03  0.00000000000E+00 0. -1.
         24    2    1    2    0    0  0.40693527073E+02  0.35471034551E+02 -0.10627388082E+03  0.14374743630E+03  0.80343202961E+02 0.  0.
         25    2    1    2    0    0 -0.45373561286E+02  0.99593612860E+02  0.43689107480E+02  0.17185220493E+03  0.12508714739E+03 0.  0.
        -24    2    1    2    0    0  0.46800342138E+01 -0.13506464741E+03  0.26364788939E+03  0.30683632297E+03  0.79837070426E+02 0.  0.
        -13    1    3    3    0    0  0.62839791138E+02  0.29518294619E+02 -0.96354361270E+02  0.11876166049E+03  0.00000000000E+00 0.  1.
         14    1    3    3    0    0 -0.22146264065E+02  0.59527399326E+01 -0.99195195464E+01  0.24985775809E+02  0.00000000000E+00 0. -1.
         11    1    5    5    0    0  0.30211893102E+02 -0.12271293704E+03  0.23308129865E+03  0.26513791728E+03  0.00000000000E+00 0. -1.
        -12    1    5    5    0    0 -0.25531858888E+02 -0.12351710371E+02  0.30566590746E+02  0.41698405691E+02  0.00000000000E+00 0.  1.
          5    1    4    4  501    0 -0.44741078131E+02 -0.33295329744E+01  0.51641361088E+02  0.68535774871E+02  0.41800000000E+01 0.  1.
         -5    1    4    4    0  501 -0.63248315558E+00  0.10292314583E+03 -0.79522536079E+01  0.10331643006E+03  0.41800000000E+01 0.  1.
</event>
<event>
11    1  0.8037748E-009  0.2216576E+03  0.7561462E-02  0.1040184E+00
         22   -1    0    0    0    0  0.00000000000E+00  0.00000000000E+00  0.61997483178E+03  0.61997483178E+03  0.00000000000E+00 0.  1.
         22   -1    0    0    0    0 -0.00000000000E+00 -0.00000000000E+00 -0.33351467151E+03  0.33351467151E+03  0.00000000000E+00 0.  1.
         24    2    1    2    0    0 -0.12181227163E+03  0.13060907218E+03 -0.22830729988E+03  0.30168480214E+03  0.83621393244E+02 0.  0.
         25    2    1    2    0    0  0.11888800179E+03 -0.17895117165E+03  0.18311029250E+03  0.30876544896E+03  0.12509534144E+03 0.  0.
        -24    2    1    2    0    0  0.29242698444E+01  0.48342099464E+02  0.33165716765E+03  0.34303925219E+03  0.73033839784E+02 0.  0.
        -13    1    3    3    0    0 -0.13163583722E+03  0.11139561131E+03 -0.18269712024E+03  0.25122741412E+03  0.00000000000E+00 0.  1.
         14    1    3    3    0    0  0.98235655878E+01  0.19213460876E+02 -0.45610179640E+02  0.50457388027E+02  0.00000000000E+00 0. -1.
         11    1    5    5    0    0  0.12150935373E+02  0.14011471989E+02  0.13592008002E+02  0.22993678681E+02  0.00000000000E+00 0. -1.
        -12    1    5    5    0    0 -0.92266655291E+01  0.34330627475E+02  0.31806515965E+03  0.32004557351E+03  0.00000000000E+00 0.  1.
          5    1    4    4  501    0 -0.26533905837E+02 -0.27252446117E+02  0.24282539160E+02  0.45319511101E+02  0.41800000000E+01 0.  1.
         -5    1    4    4    0  501  0.14542190762E+03 -0.15169872553E+03  0.15882775334E+03  0.26344593786E+03  0.41800000000E+01 0.  1.
</event>
<event>
11    1  0.8037748E-009  0.1408819E+03  0.7561462E-02  0.1106578E+00
         22   -1    0    0    0    0  0.00000000000E+00  0.00000000000E+00  0.37030554703E+03  0.37030554703E+03  0.00000000000E+00 0.  1.
         22   -1    0    0    0    0 -0.00000000000E+00 -0.00000000000E+00 -0.18650410690E+03  0.18650410690E+03  0.00000000000E+00 0.  1.
         24    2    1    2    0    0  0.47846693251E+02 -0.18065417039E+02 -0.53850423263E+02  0.10799018182E+03  0.78398634789E+02 0.  0.
         25    2    1    2    0    0 -0.44996661341E+02  0.81247569846E+02 -0.33057680382E+02  0.15926734739E+03  0.12508961018E+03 0.  0.
        -24    2    1    2    0    0 -0.28500319100E+01 -0.63182152807E+02  0.27070954378E+03  0.28955212472E+03  0.80973259314E+02 0.  0.
        -13    1    3    3    0    0  0.49452749679E+02 -0.39805533461E+02 -0.17919268653E+02  0.65963286258E+02  0.00000000000E+00 0.  1.
         14    1    3    3    0    0 -0.16060564285E+01  0.21740116421E+02 -0.35931154610E+02  0.42026895565E+02  0.00000000000E+00 0. -1.
         11    1    5    5    0    0 -0.14386685556E+02  0.16281924253E+02  0.72811991311E+02  0.75984629086E+02  0.00000000000E+00 0. -1.
        -12    1    5    5    0    0  0.11536653646E+02 -0.79464077059E+02  0.19789755247E+03  0.21356749564E+03  0.00000000000E+00 0.  1.
          5    1    4    4  501    0  0.89784913648E+01  0.69858292574E+02 -0.64533379955E+02  0.95618114795E+02  0.41800000000E+01 0.  1.
         -5    1    4    4    0  501 -0.53975152705E+02  0.11389277272E+02  0.31475699573E+02  0.63649232595E+02  0.41800000000E+01 0.  1.
</event>
<event>
11    1  0.8037748E-009  0.2654453E+03  0.7561462E-02  0.1015978E+00
         22   -1    0    0    0    0  0.00000000000E+00  0.00000000000E+00  0.44330996592E+03  0.44330996592E+03  0.00000000000E+00 0. -1.
         22   -1    0    0    0    0 -0.00000000000E+00 -0.00000000000E+00 -0.86850533374E+03  0.86850533374E+03  0.00000000000E+00 0. -1.
        -24    2    1    2    0    0  0.55863197225E+02  0.45206012203E+01 -0.55451097428E+03  0.56311964389E+03  0.80499565877E+02 0.  0.
         25    2    1    2    0    0  0.82204639576E+01 -0.23107613604E+03 -0.20443042835E+03  0.33302222930E+03  0.12509295942E+03 0.  0.
         24    2    1    2    0    0 -0.64083661183E+02  0.22655553482E+03  0.33374603482E+03  0.41567342646E+03  0.77226004165E+02 0.  0.
        -11    1    5    5    0    0  0.88588085957E+01  0.85593103286E+02  0.14945462240E+03  0.17245678292E+03  0.00000000000E+00 0.  1.
         12    1    5    5    0    0 -0.72942469778E+02  0.14096243154E+03  0.18429141242E+03  0.24321664354E+03  0.00000000000E+00 0. -1.
         13    1    3    3    0    0 -0.15665169530E+02  0.34700086959E+01 -0.24175297125E+03  0.24228482744E+03  0.00000000000E+00 0. -1.
        -14    1    3    3    0    0  0.71528366755E+02  0.10505925245E+01 -0.31275800303E+03  0.32083481646E+03  0.00000000000E+00 0.  1.
          5    1    4    4  501    0 -0.56907932849E+01 -0.53978952839E+02  0.91362056547E+01  0.55200137061E+02  0.41800000000E+01 0. -1.
         -5    1    4    4    0  501  0.13911257242E+02 -0.17709718320E+03 -0.21356663401E+03  0.27782209224E+03  0.41800000000E+01 0. -1.
</event>
<event>
11    1  0.8037748E-009  0.1933546E+03  0.7561462E-02  0.1059325E+00
         22   -1    0    0    0    0  0.00000000000E+00  0.00000000000E+00  0.24436654113E+04  0.24436654113E+04  0.00000000000E+00 0.  1.
         22   -1    0    0    0    0 -0.00000000000E+00 -0.00000000000E+00 -0.10450257239E+03  0.10450257239E+03  0.00000000000E+00 0. -1.
        -24    2    1    2    0    0 -0.16311491899E+03  0.11562078054E+02  0.98244785799E+01  0.18398525902E+03  0.83749010195E+02 0.  0.
         25    2    1    2    0    0  0.87812890226E+02  0.56034522392E+01  0.34622037512E+03  0.37849502822E+03  0.12508971128E+03 0.  0.
         24    2    1    2    0    0  0.75302028767E+02 -0.17165530293E+02  0.19831179852E+04  0.19856876964E+04  0.65066378540E+02 0.  0.
        -13    1    5    5    0    0  0.19953969320E+02 -0.22737749545E+02  0.12853073098E+04  0.12856632712E+04  0.00000000000E+00 0.  1.
         14    1    5    5    0    0  0.55348059447E+02  0.55722192519E+01  0.69781067534E+03  0.70002442524E+03  0.00000000000E+00 0. -1.
         11    1    3    3    0    0 -0.10422562092E+03 -0.32451406663E+02 -0.37397456572E+01  0.10922481196E+03  0.00000000000E+00 0. -1.
        -12    1    3    3    0    0 -0.58889298072E+02  0.44013484717E+02  0.13564224237E+02  0.74760447053E+02  0.00000000000E+00 0.  1.
          5    1    4    4  501    0  0.11930816304E+03 -0.45502119166E+00  0.25130033595E+03  0.27821570061E+03  0.41800000000E+01 0. -1.
         -5    1    4    4    0  501 -0.31495272818E+02  0.60584734308E+01  0.94920039170E+02  0.10027932761E+03  0.41800000000E+01 0. -1.
</event>
<event>
11    1  0.9021446E-009  0.1973561E+03  0.7561462E-02  0.1056409E+00
         22   -1    0    0    0    0  0.00000000000E+00  0.00000000000E+00  0.13217063677E+04  0.13217063677E+04  0.00000000000E+00 0. -1.
         22   -1    0    0    0    0 -0.00000000000E+00 -0.00000000000E+00 -0.61429127918E+03  0.61429127918E+03  0.00000000000E+00 0. -1.
        -24    2    1    2    0    0 -0.75683940251E+01 -0.53172006517E+01 -0.50093124260E+03  0.50565392823E+03  0.68324462045E+02 0.  0.
         25    2    1    2    0    0 -0.13112517359E+03 -0.59647037363E+02 -0.18205624268E+02  0.19164705279E+03  0.12508224443E+03 0.  0.
         24    2    1    2    0    0  0.13869356761E+03  0.64964238015E+02  0.12265519554E+04  0.12386966658E+04  0.80520015155E+02 0.  0.
        -11    1    5    5    0    0  0.88166920415E+01  0.32125408941E+02  0.39723240589E+03  0.39862684336E+03  0.00000000000E+00 0.  1.
         12    1    5    5    0    0  0.12987687557E+03  0.32838829074E+02  0.82931954947E+03  0.84006982247E+03  0.00000000000E+00 0. -1.
         11    1    3    3    0    0  0.53185114727E+01 -0.11308400868E+02 -0.48106790477E+03  0.48123018972E+03  0.00000000000E+00 0. -1.
        -12    1    3    3    0    0 -0.12886905498E+02  0.59912002159E+01 -0.19863337824E+02  0.24423738511E+02  0.00000000000E+00 0.  1.
          5    1    4    4  501    0 -0.39545875812E+02  0.36143658115E+02  0.13313779435E+02  0.55362166129E+02  0.41800000000E+01 0. -1.
         -5    1    4    4    0  501 -0.91579297777E+02 -0.95790695477E+02 -0.31519403703E+02  0.13628488666E+03  0.41800000000E+01 0. -1.
</event>
<event>
11    1  0.8037748E-009  0.1489590E+03  0.7561462E-02  0.1097947E+00
         22   -1    0    0    0    0  0.00000000000E+00  0.00000000000E+00  0.55308220402E+03  0.55308220402E+03  0.00000000000E+00 0.  1.
         22   -1    0    0    0    0 -0.00000000000E+00 -0.00000000000E+00 -0.19544005086E+04  0.19544005086E+04  0.00000000000E+00 0.  1.
        -24    2    1    2    0    0 -0.33852191939E+02  0.25449935393E+01 -0.15514220027E+04  0.15539693426E+04  0.82207295881E+02 0.  0.
         25    2    1    2    0    0 -0.17614111578E+02 -0.65296560763E+02 -0.38304818843E+03  0.40859292160E+03  0.12509341770E+03 0.  0.
         24    2    1    2    0    0  0.51466303517E+02  0.62751567224E+02  0.53315188659E+03  0.54492044834E+03  0.78107754148E+02 0.  0.
        -13    1    5    5    0    0 -0.16878857785E+01  0.59302304553E+02  0.28867727329E+03  0.29471033304E+03  0.00000000000E+00 0.  1.
         14    1    5    5    0    0  0.53154189295E+02  0.34492626706E+01  0.24447461330E+03  0.25021011530E+03  0.00000000000E+00 0. -1.
         11    1    3    3    0    0  0.20284827689E+02 -0.10769147913E+02 -0.18642408780E+03  0.18783340835E+03  0.00000000000E+00 0. -1.
        -12    1    3    3    0    0 -0.54137019628E+02  0.13314141453E+02 -0.13649979149E+04  0.13661359343E+04  0.00000000000E+00 0.  1.
          5    1    4    4  501    0 -0.12149937571E+02  0.35424485995E+02 -0.14916314892E+03  0.15384938280E+03  0.41800000000E+01 0. -1.
         -5    1    4    4    0  501 -0.54641740065E+01 -0.10072104676E+03 -0.23388503951E+03  0.25474353880E+03  0.41800000000E+01 0. -1.
</event>
<event>
11    1  0.8037748E-009  0.1528721E+03  0.7561462E-02  0.1093980E+00
         22   -1    0    0    0    0  0.00000000000E+00  0.00000000000E+00  0.14066684853E+04  0.14066684853E+04  0.00000000000E+00 0.  1.
         22   -1    0    0    0    0 -0.00000000000E+00 -0.00000000000E+00 -0.17091859911E+03  0.17091859911E+03  0.00000000000E+00 0. -1.
        -24    2    1    2    0    0 -0.47960042750E+01 -0.78996673466E+02 -0.46771972006E+02  0.12220460907E+03  0.80516290513E+02 0.  0.
         25    2    1    2    0    0  0.64638776899E+02  0.98434858235E+02  0.28844917544E+01  0.17182278991E+03  0.12508860078E+03 0.  0.
         24    2    1    2    0    0 -0.59842772624E+02 -0.19438184768E+02  0.12796373665E+04  0.12835596855E+04  0.78068405786E+02 0.  0.
        -11    1    5    5    0    0 -0.61691145463E+02 -0.30328063091E+02  0.12506706950E+04  0.12525584921E+04  0.00000000000E+00 0.  1.
         12    1    5    5    0    0  0.18483728391E+01  0.10889878323E+02  0.28966671467E+02  0.31001193330E+02  0.00000000000E+00 0. -1.
         11    1    3    3    0    0 -0.31027908487E+02 -0.13385761781E+02 -0.38239125894E+02  0.51030779660E+02  0.00000000000E+00 0. -1.
        -12    1    3    3    0    0  0.26231904212E+02 -0.65610911685E+02 -0.85328461124E+01  0.71173829415E+02  0.00000000000E+00 0.  1.
          5    1    4    4  501    0  0.10197356641E+03  0.70543679614E+02 -0.59383417593E+01  0.12420851533E+03  0.41800000000E+01 0. -1.
         -5    1    4    4    0  501 -0.37334789506E+02  0.27891178621E+02  0.88228335138E+01  0.47614274577E+02  0.41800000000E+01 0. -1.
</event>
<event>
11    1  0.8037748E-009  0.1474843E+03  0.7561462E-02  0.1099477E+00
         22   -1    0    0    0    0  0.00000000000E+00  0.00000000000E+00  0.17597269731E+03  0.17597269731E+03  0.00000000000E+00 0.  1.
         22   -1    0    0    0    0 -0.00000000000E+00 -0.00000000000E+00 -0.80280744314E+03  0.80280744314E+03  0.00000000000E+00 0. -1.
        -24    2    1    2    0    0 -0.60580327889E+01  0.78999008292E+02 -0.64427534365E+03  0.65440858695E+03  0.82959852748E+02 0.  0.
         25    2    1    2    0    0 -0.49538035328E+02 -0.70891180740E+02 -0.92319382422E+02  0.17789910420E+03  0.12508255855E+03 0.  0.
         24    2    1    2    0    0  0.55596068117E+02 -0.81078275519E+01  0.10975998024E+03  0.14647244930E+03  0.79058620549E+02 0.  0.
        -11    1    5    5    0    0  0.66554247335E+02  0.10318642806E+02  0.52698575768E+02  0.85516560476E+02  0.00000000000E+00 0.  1.
         12    1    5    5    0    0 -0.10958179218E+02 -0.18426470357E+02  0.57061404474E+02  0.60955888823E+02  0.00000000000E+00 0. -1.
         13    1    3    3    0    0 -0.13006388837E+01  0.91375922774E+02 -0.62043350198E+03  0.62712756382E+03  0.00000000000E+00 0. -1.
        -14    1    3    3    0    0 -0.47573939051E+01 -0.12376914482E+02 -0.23841841672E+02  0.27281023132E+02  0.00000000000E+00 0.  1.
          5    1    4    4  501    0 -0.58563612147E+02  0.17455236118E+02 -0.24042183047E+02  0.65801830532E+02  0.41800000000E+01 0. -1.
         -5    1    4    4    0  501  0.90255768190E+01 -0.88346416858E+02 -0.68277199375E+02  0.11209727367E+03  0.41800000000E+01 0. -1.
</event>
<event>
11    1  0.8037748E-009  0.1273022E+03  0.7561462E-02  0.1122629E+00
         22   -1    0    0    0    0  0.00000000000E+00  0.00000000000E+00  0.22003901837E+03  0.22003901837E+03  0.00000000000E+00 0. -1.
         22   -1    0    0    0    0 -0.00000000000E+00 -0.00000000000E+00 -0.38066405592E+03  0.38066405592E+03  0.00000000000E+00 0.  1.
         24    2    1    2    0    0 -0.87890785599E+01 -0.81740546680E+01 -0.22649241063E+03  0.24073761032E+03  0.80695240722E+02 0.  0.
         25    2    1    2    0    0  0.26187195974E+02 -0.77056974250E+01 -0.10757043299E+03  0.16722405098E+03  0.12508932076E+03 0.  0.
        -24    2    1    2    0    0 -0.17398117414E+02  0.15879752093E+02  0.17343780607E+03  0.19274141299E+03  0.80707612361E+02 0.  0.
        -13    1    3    3    0    0  0.13512620418E+02  0.56956907242E+01 -0.20823847816E+03  0.20875415107E+03  0.00000000000E+00 0.  1.
         14    1    3    3    0    0 -0.22301698977E+02 -0.13869745392E+02 -0.18253932472E+02  0.31983459244E+02  0.00000000000E+00 0. -1.
         13    1    5    5    0    0 -0.95417168967E+01  0.32921746365E+02  0.17029992925E+03  0.17371514513E+03  0.00000000000E+00 0. -1.
        -14    1    5    5    0    0 -0.78564005173E+01 -0.17041994272E+02  0.31378768174E+01  0.19026267863E+02  0.00000000000E+00 0.  1.
          5    1    4    4  501    0  0.56406650165E+02 -0.48535577477E+01 -0.12108767070E+03  0.13373467614E+03  0.41800000000E+01 0.  1.
         -5    1    4    4    0  501 -0.30219454191E+02 -0.28521396773E+01  0.13517237708E+02  0.33489374847E+02  0.41800000000E+01 0.  1.
</event>
<event>
11    1  0.8037748E-009  0.1359428E+03  0.7561462E-02  0.1112175E+00
         22   -1    0    0    0    0  0.00000000000E+00  0.00000000000E+00  0.32852951860E+03  0.32852951860E+03  0.00000000000E+00 0.  1.
         22   -1    0    0    0    0 -0.00000000000E+00 -0.00000000000E+00 -0.22674318648E+04  0.22674318648E+04  0.00000000000E+00 0. -1.
        -24    2    1    2    0    0 -0.46762523185E+02 -0.26276627614E+02 -0.22209116131E+04  0.22230094419E+04  0.80283192418E+02 0.  0.
         25    2    1    2    0    0 -0.81293371928E+00  0.16729079741E+02  0.80766452366E+02  0.14983801389E+03  0.12509071752E+03 0.  0.
         24    2    1    2    0    0  0.47575456904E+02  0.95475478725E+01  0.20124281450E+03  0.22311392760E+03  0.83226044802E+02 0.  0.
        -11    1    5    5    0    0  0.32550837843E+02 -0.35303229599E+02  0.85184150083E+02  0.97786576224E+02  0.00000000000E+00 0.  1.
         12    1    5    5    0    0  0.15024619062E+02  0.44850777471E+02  0.11605866441E+03  0.12532735138E+03  0.00000000000E+00 0. -1.
         13    1    3    3    0    0 -0.61341753688E+01 -0.26068198445E+02 -0.17868120409E+04  0.17870127164E+04  0.00000000000E+00 0. -1.
        -14    1    3    3    0    0 -0.40628347816E+02 -0.20842916894E+00 -0.43409957221E+03  0.43599672554E+03  0.00000000000E+00 0.  1.
          5    1    4    4  501    0  0.20694386367E+02  0.22567815480E+02 -0.26187451203E+02  0.40507023133E+02  0.41800000000E+01 0. -1.
         -5    1    4    4    0  501 -0.21507320086E+02 -0.58387357385E+01  0.10695390357E+03  0.10933099076E+03  0.41800000000E+01 0. -1.
</event>
<event>
11    1  0.8037748E-009  0.3656006E+03  0.7561462E-02  0.9757089E-01
         22   -1    0    0    0    0  0.00000000000E+00  0.00000000000E+00  0.15656227937E+04  0.15656227937E+04  0.00000000000E+00 0. -1.
         22   -1    0    0    0    0 -0.00000000000E+00 -0.00000000000E+00 -0.29591125290E+03  0.29591125290E+03  0.00000000000E+00 0. -1.
         24    2    1    2    0    0  0.19394500252E+03 -0.10862534650E+02 -0.12437628723E+03  0.24326666346E+03  0.77308150038E+02 0.  0.
         25    2    1    2    0    0  0.20165961585E+03  0.37199108623E+02  0.96217211092E+02  0.25875938675E+03  0.12509314198E+03 0.  0.
        -24    2    1    2    0    0 -0.39560461837E+03 -0.26336573972E+02  0.12978706170E+04  0.13595079964E+04  0.81223301787E+02 0.  0.
        -13    1    3    3    0    0  0.15191108611E+03  0.24698660461E+02 -0.94941149068E+02  0.18083369072E+03  0.00000000000E+00 0.  1.
         14    1    3    3    0    0  0.42033916409E+02 -0.35561195111E+02 -0.29435138164E+02  0.62432972740E+02  0.00000000000E+00 0. -1.
         11    1    5    5    0    0 -0.33872356681E+03  0.50988158529E+01  0.11213846009E+04  0.11714363302E+04  0.00000000000E+00 0. -1.
        -12    1    5    5    0    0 -0.56881051559E+02 -0.31435389825E+02  0.17648601606E+03  0.18807166619E+03  0.00000000000E+00 0.  1.
          5    1    4    4  501    0 -0.96260705042E+01  0.21027315366E+02  0.27007362350E+02  0.35800548123E+02  0.41800000000E+01 0.  1.
         -5    1    4    4    0  501  0.21128568636E+03  0.16171793257E+02  0.69209848743E+02  0.22295883862E+03  0.41800000000E+01 0.  1.
</event>
<event>
11    1  0.8037748E-009  0.6178344E+03  0.7561462E-02  0.9163000E-01
         22   -1    0    0    0    0  0.00000000000E+00  0.00000000000E+00  0.90193817533E+03  0.90193817533E+03  0.00000000000E+00 0.  1.
         22   -1    0    0    0    0 -0.00000000000E+00 -0.00000000000E+00 -0.14846660884E+04  0.14846660884E+04  0.00000000000E+00 0.  1.
        -24    2    1    2    0    0 -0.11050041233E+03  0.52137876432E+03 -0.54471285379E+03  0.76645532434E+03  0.81826121281E+02 0.  0.
         25    2    1    2    0    0  0.17724927956E+03 -0.68637831346E+03 -0.65448405822E+03  0.97289740237E+03  0.12508987480E+03 0.  0.
         24    2    1    2    0    0 -0.66748867231E+02  0.16499954914E+03  0.61646899899E+03  0.64725153696E+03  0.84972130105E+02 0.  0.
        -11    1    5    5    0    0 -0.12606112373E+01  0.10467937836E+03  0.39285279210E+03  0.40656202190E+03  0.00000000000E+00 0.  1.
         12    1    5    5    0    0 -0.65488255993E+02  0.60320170782E+02  0.22361620689E+03  0.24068951506E+03  0.00000000000E+00 0. -1.
         13    1    3    3    0    0 -0.68249946578E+02  0.15409935986E+03 -0.14965233852E+03  0.22538964116E+03  0.00000000000E+00 0. -1.
        -14    1    3    3    0    0 -0.42250465752E+02  0.36727940446E+03 -0.39506051526E+03  0.54106568318E+03  0.00000000000E+00 0.  1.
          5    1    4    4  501    0  0.46610357128E+02 -0.44401245506E+02 -0.65197808396E+02  0.91718169485E+02  0.41800000000E+01 0. -1.
         -5    1    4    4    0  501  0.13063892243E+03 -0.64197706796E+03 -0.58928624983E+03  0.88117923289E+03  0.41800000000E+01 0. -1.
</event>
<event>
11    1  0.8037748E-009  0.2342017E+03  0.7561462E-02  0.1032669E+00
         22   -1    0    0    0    0  0.00000000000E+00  0.00000000000E+00  0.21095363749E+04  0.21095363749E+04  0.00000000000E+00 0. -1.
         22   -1    0    0    0    0 -0.00000000000E+00 -0.00000000000E+00 -0.51027351364E+03  0.51027351364E+03  0.00000000000E+00 0. -1.
         24    2    1    2    0    0  0.12124952775E+03  0.10216256160E+03 -0.46266717314E+03  0.49578703338E+03  0.81272580840E+02 0.  0.
         25    2    1    2    0    0 -0.14415646660E+03  0.11685446943E+03  0.54721729709E+03  0.59121019618E+03  0.12508665773E+03 0.  0.
        -24    2    1    2    0    0  0.22906938856E+02 -0.21901703103E+03  0.15147127373E+04  0.15328126590E+04  0.81650372062E+02 0.  0.
        -11    1    3    3    0    0  0.28128794266E+02  0.70481843437E+02 -0.15150466606E+03  0.16944787741E+03  0.00000000000E+00 0.  1.
         12    1    3    3    0    0  0.93120733481E+02  0.31680718164E+02 -0.31116250708E+03  0.32633915597E+03  0.00000000000E+00 0. -1.
         13    1    5    5    0    0  0.16661293810E+02 -0.14766615631E+03  0.73852428633E+03  0.75332663164E+03  0.00000000000E+00 0. -1.
        -14    1    5    5    0    0  0.62456450455E+01 -0.71350874719E+02  0.77618845097E+03  0.77948602735E+03  0.00000000000E+00 0.  1.
          5    1    4    4  501    0 -0.68585024798E+02  0.76594425327E+02  0.13270006226E+03  0.16792078651E+03  0.41800000000E+01 0.  1.
         -5    1    4    4    0  501 -0.75571441804E+02  0.40260044101E+02  0.41451723483E+03  0.42328940967E+03  0.41800000000E+01 0.  1.
</event>
<event>
11    1  0.8037748E-009  0.1372494E+03  0.7561462E-02  0.1110669E+00
         22   -1    0    0    0    0  0.00000000000E+00  0.00000000000E+00  0.14973613677E+03  0.14973613677E+03  0.00000000000E+00 0. -1.
         22   -1    0    0    0    0 -0.00000000000E+00 -0.00000000000E+00 -0.33149357385E+04  0.33149357385E+04  0.00000000000E+00 0. -1.
         24    2    1    2    0    0 -0.16582289132E+02 -0.55488663753E+02 -0.30537612177E+04  0.30552417466E+04  0.75436005641E+02 0.  0.
         25    2    1    2    0    0 -0.37746025326E+01  0.26399693017E+02 -0.22884711026E+03  0.26216296055E+03  0.12508887478E+03 0.  0.
        -24    2    1    2    0    0  0.20356891665E+02  0.29088970735E+02  0.11740872629E+03  0.14726716811E+03  0.81499929668E+02 0.  0.
        -11    1    3    3    0    0  0.13610218715E+02  0.13808387854E+02 -0.56244230553E+03  0.56277638248E+03  0.00000000000E+00 0.  1.
         12    1    3    3    0    0 -0.30192507848E+02 -0.69297051607E+02 -0.24913189122E+04  0.24924653641E+04  0.00000000000E+00 0. -1.
         13    1    5    5    0    0  0.29020149988E+01  0.43600902847E+02  0.11663779122E+03  0.12455454532E+03  0.00000000000E+00 0. -1.
        -14    1    5    5    0    0  0.17454876666E+02 -0.14511932112E+02  0.77093507880E+00  0.22712622789E+02  0.00000000000E+00 0.  1.
          5    1    4    4  501    0  0.47223007242E+02  0.41804022742E+02 -0.68780289724E+02  0.93411933847E+02  0.41800000000E+01 0. -1.
         -5    1    4    4    0  501 -0.50997609775E+02 -0.15404329725E+02 -0.16006682053E+03  0.16875102670E+03  0.41800000000E+01 0. -1.
</event>
<event>
11    1  0.8037748E-009  0.1669663E+03  0.7561462E-02  0.1080702E+00
         22   -1    0    0    0    0  0.00000000000E+00  0.00000000000E+00  0.21949511264E+03  0.21949511264E+03  0.00000000000E+00 0. -1.
         22   -1    0    0    0    0 -0.00000000000E+00 -0.00000000000E+00 -0.15227728597E+04  0.15227728597E+04  0.00000000000E+00 0. -1.
         24    2    1    2    0    0  0.11243979782E+03  0.19601692201E+02 -0.13533259406E+04  0.13605706566E+04  0.81452291440E+02 0.  0.
         25    2    1    2    0    0 -0.57467698683E+02 -0.73216207227E+02 -0.10802699906E+03  0.18968591903E+03  0.12509103070E+03 0.  0.
        -24    2    1    2    0    0 -0.54972099134E+02  0.53614515025E+02  0.15807519255E+03  0.19201139671E+03  0.77357365913E+02 0.  0.
        -11    1    3    3    0    0  0.71606689609E+02 -0.21573655887E+02 -0.53628475504E+03  0.54147417216E+03  0.00000000000E+00 0.  1.
         12    1    3    3    0    0  0.40833108207E+02  0.41175348089E+02 -0.81704118553E+03  0.81909648447E+03  0.00000000000E+00 0. -1.
         11    1    5    5    0    0 -0.20896468521E+02  0.37778161565E+02  0.14644626261E+03  0.15267730584E+03  0.00000000000E+00 0. -1.
        -12    1    5    5    0    0 -0.34075630613E+02  0.15836353461E+02  0.11628929945E+02  0.39334090866E+02  0.00000000000E+00 0.  1.
          5    1    4    4  501    0  0.29921195477E+02 -0.18960975766E+02 -0.72469578462E+02  0.80771955178E+02  0.41800000000E+01 0. -1.
         -5    1    4    4    0  501 -0.87388894159E+02 -0.54255231461E+02 -0.35557420596E+02  0.10891396386E+03  0.41800000000E+01 0. -1.
</event>
<event>
11    1  0.8037748E-009  0.2455854E+03  0.7561462E-02  0.1026278E+00
         22   -1    0    0    0    0  0.00000000000E+00  0.00000000000E+00  0.20814873114E+04  0.20814873114E+04  0.00000000000E+00 0.  1.
         22   -1    0    0    0    0 -0.00000000000E+00 -0.00000000000E+00 -0.12477074246E+04  0.12477074246E+04  0.00000000000E+00 0.  1.
         24    2    1    2    0    0 -0.14364732497E+02 -0.75342938628E+02 -0.11661275124E+04  0.11714282922E+04  0.80671956867E+02 0.  0.
         25    2    1    2    0    0 -0.11443887609E+03  0.23717610842E+03  0.22353244137E+03  0.36737486314E+03  0.12509506367E+03 0.  0.
        -24    2    1    2    0    0  0.12880360859E+03 -0.16183316979E+03  0.17763749578E+04  0.17903915806E+04  0.84933367580E+02 0.  0.
        -11    1    3    3    0    0  0.27133735358E+02 -0.47414327878E+02 -0.80519520558E+03  0.80704626705E+03  0.00000000000E+00 0.  1.
         12    1    3    3    0    0 -0.41498467855E+02 -0.27928610751E+02 -0.36093230681E+03  0.36438202512E+03  0.00000000000E+00 0. -1.
         11    1    5    5    0    0  0.13912315732E+02 -0.46987526299E+01  0.40546810581E+03  0.40573392221E+03  0.00000000000E+00 0. -1.
        -12    1    5    5    0    0  0.11489129285E+03 -0.15713441716E+03  0.13709068520E+04  0.13846576584E+04  0.00000000000E+00 0.  1.
          5    1    4    4  501    0  0.15801400899E+02  0.16192871750E+02  0.57136992706E+02  0.61595468189E+02  0.41800000000E+01 0.  1.
         -5    1    4    4    0  501 -0.13024027699E+03  0.22098323667E+03  0.16639544866E+03  0.30577939495E+03  0.41800000000E+01 0.  1.
</event>
<event>
11    1  0.8037748E-009  0.1410185E+03  0.7561462E-02  0.1106426E+00
         22   -1    0    0    0    0  0.00000000000E+00  0.00000000000E+00  0.56055360692E+02  0.56055360692E+02  0.00000000000E+00 0. -1.
         22   -1    0    0    0    0 -0.00000000000E+00 -0.00000000000E+00 -0.22589387126E+04  0.22589387126E+04  0.00000000000E+00 0. -1.
        -24    2    1    2    0    0 -0.18451124882E+01 -0.62676346227E+02 -0.19388233133E+04  0.19415576453E+04  0.81722220402E+02 0.  0.
         25    2    1    2    0    0 -0.54536214170E+02  0.11841942812E+02 -0.20968291772E+03  0.25046144534E+03  0.12509827877E+03 0.  0.
         24    2    1    2    0    0  0.56381326658E+02  0.50834403415E+02 -0.54377120915E+02  0.12297498261E+03  0.80018650964E+02 0.  0.
        -13    1    5    5    0    0  0.52554221235E+01  0.48672732892E+02 -0.52478757177E+02  0.71768198694E+02  0.00000000000E+00 0.  1.
         14    1    5    5    0    0  0.51125904535E+02  0.21616705232E+01 -0.18983637380E+01  0.51206783914E+02  0.00000000000E+00 0. -1.
         11    1    3    3    0    0 -0.13830658556E+02 -0.53045650952E+02 -0.18786953406E+04  0.18794949617E+04  0.00000000000E+00 0. -1.
        -12    1    3    3    0    0  0.11985546067E+02 -0.96306952750E+01 -0.60127972659E+02  0.62062683652E+02  0.00000000000E+00 0.  1.
          5    1    4    4  501    0 -0.60068639660E+02  0.25352125900E+02 -0.33123773346E+02  0.73250450640E+02  0.41800000000E+01 0.  1.
         -5    1    4    4    0  501  0.55324254901E+01 -0.13510183088E+02 -0.17655914437E+03  0.17721099470E+03  0.41800000000E+01 0.  1.
</event>
<event>
11    1  0.8037748E-009  0.1316432E+03  0.7561462E-02  0.1117266E+00
         22   -1    0    0    0    0  0.00000000000E+00  0.00000000000E+00  0.36221240412E+03  0.36221240412E+03  0.00000000000E+00 0. -1.
         22   -1    0    0    0    0 -0.00000000000E+00 -0.00000000000E+00 -0.87305803757E+03  0.87305803757E+03  0.00000000000E+00 0. -1.
         24    2    1    2    0    0  0.11248014823E+02  0.21596281031E+02 -0.77187479693E+03  0.77663077924E+03  0.82290630889E+02 0.  0.
         25    2    1    2    0    0  0.17747899878E+02  0.95877171049E+01 -0.48642716024E+02  0.13572429484E+03  0.12509219847E+03 0.  0.
        -24    2    1    2    0    0 -0.28995914701E+02 -0.31183998136E+02  0.30967187951E+03  0.32291536761E+03  0.81021335909E+02 0.  0.
        -11    1    3    3    0    0 -0.34486355458E+02  0.12704149924E+02 -0.25099267758E+03  0.25366913162E+03  0.00000000000E+00 0.  1.
         12    1    3    3    0    0  0.45734370281E+02  0.88921311067E+01 -0.52088211936E+03  0.52296164762E+03  0.00000000000E+00 0. -1.
         13    1    5    5    0    0 -0.15078054945E+02 -0.45130105114E+02  0.85248725603E+02  0.97628988244E+02  0.00000000000E+00 0. -1.
        -14    1    5    5    0    0 -0.13917859756E+02  0.13946106978E+02  0.22442315391E+03  0.22528637937E+03  0.00000000000E+00 0.  1.
          5    1    4    4  501    0  0.42960201425E+02 -0.46194137770E+02 -0.12285926437E+02  0.64404143183E+02  0.41800000000E+01 0.  1.
         -5    1    4    4    0  501 -0.25212301548E+02  0.55781854875E+02 -0.36356789587E+02  0.71320151652E+02  0.41800000000E+01 0.  1.
</event>
<event>
11    1  0.8037748E-009  0.1263987E+03  0.7561462E-02  0.1123775E+00
         22   -1    0    0    0    0  0.00000000000E+00  0.00000000000E+00  0.29775965340E+03  0.29775965340E+03  0.00000000000E+00 0. -1.
         22   -1    0    0    0    0 -0.00000000000E+00 -0.00000000000E+00 -0.37482669938E+03  0.37482669938E+03  0.00000000000E+00 0.  1.
         24    2    1    2    0    0 -0.10284116462E+02  0.15202685896E+02 -0.32860673542E+03  0.33795475315E+03  0.76773328093E+02 0.  0.
         25    2    1    2    0    0  0.23103511292E+02 -0.17714472059E+01  0.97050261946E+02  0.16000886771E+03  0.12508866512E+03 0.  0.
        -24    2    1    2    0    0 -0.12819394831E+02 -0.13431238690E+02  0.15448942749E+03  0.17462273192E+03  0.79255159078E+02 0.  0.
        -11    1    3    3    0    0  0.14532601494E+01 -0.83520247134E+01 -0.29568738268E+03  0.29580888519E+03  0.00000000000E+00 0.  1.
         12    1    3    3    0    0 -0.11737376611E+02  0.23554710610E+02 -0.32919352742E+02  0.42145867965E+02  0.00000000000E+00 0. -1.
         13    1    5    5    0    0  0.27635597857E+02 -0.26383797076E+02  0.84761482793E+02  0.92974942766E+02  0.00000000000E+00 0. -1.
        -14    1    5    5    0    0 -0.40454992688E+02  0.12952558385E+02  0.69727944696E+02  0.81647789153E+02  0.00000000000E+00 0.  1.
          5    1    4    4  501    0 -0.32358814994E+01 -0.38993146536E+02 -0.12489032571E+02  0.41284194801E+02  0.41800000000E+01 0.  1.
         -5    1    4    4    0  501  0.26339392792E+02  0.37221699330E+02  0.10953929452E+03  0.11872467291E+03  0.41800000000E+01 0.  1.
</event>
<event>
11    1  0.1484694E-008  0.1705570E+03  0.7561462E-02  0.1077548E+00
         22   -1    0    0    0    0  0.00000000000E+00  0.00000000000E+00  0.28901191144E+04  0.28901191144E+04  0.00000000000E+00 0.  1.
         22   -1    0    0    0    0 -0.00000000000E+00 -0.00000000000E+00 -0.97824812550E+03  0.97824812550E+03  0.00000000000E+00 0.  1.
         24    2    1    2    0    0  0.69236008483E+02  0.19625852767E+01 -0.38982388933E+03  0.40419135830E+03  0.81305060228E+02 0.  0.
         25    2    1    2    0    0 -0.16831725062E+03  0.57910855311E+02 -0.55909823074E+03  0.59993577073E+03  0.12509090040E+03 0.  0.
        -24    2    1    2    0    0  0.99081242136E+02 -0.59873440587E+02  0.28607931090E+04  0.28642401109E+04  0.79575618065E+02 0.  0.
        -13    1    3    3    0    0  0.75441103749E+02  0.13656257139E+02 -0.38012801258E+03  0.38778236092E+03  0.00000000000E+00 0.  1.
         14    1    3    3    0    0 -0.62050952667E+01 -0.11693671863E+02 -0.96958767469E+01  0.16408997373E+02  0.00000000000E+00 0. -1.
         11    1    5    5    0    0  0.71912568722E+02  0.12281593773E+01  0.12601764611E+04  0.12622272533E+04  0.00000000000E+00 0. -1.
        -12    1    5    5    0    0  0.27168673414E+02 -0.61101599965E+02  0.16006166479E+04  0.16020128576E+04  0.00000000000E+00 0.  1.
          5    1    4    4  501    0 -0.15594793134E+03  0.59004172653E+01 -0.47681184605E+03  0.50171862747E+03  0.41800000000E+01 0. -1.
         -5    1    4    4    0  501 -0.12369319279E+02  0.52010438045E+02 -0.82286384688E+02  0.98217143260E+02  0.41800000000E+01 0. -1.
</event>
<event>
11    1  0.8037748E-009  0.7536237E+03  0.7561462E-02  0.8956811E-01
         22   -1    0    0    0    0  0.00000000000E+00  0.00000000000E+00  0.11624272321E+04  0.11624272321E+04  0.00000000000E+00 0.  1.
         22   -1    0    0    0    0 -0.00000000000E+00 -0.00000000000E+00 -0.12214713482E+03  0.12214713482E+03  0.00000000000E+00 0.  1.
         24    2    1    2    0    0 -0.16178153098E+03 -0.10243385203E+03  0.31959814875E+03  0.38158335929E+03  0.82443469072E+02 0.  0.
         25    2    1    2    0    0  0.27388646393E+03  0.19044716261E+03  0.35714206559E+03  0.50446118929E+03  0.12508684828E+03 0.  0.
        -24    2    1    2    0    0 -0.11210493295E+03 -0.88013310581E+02  0.36353988290E+03  0.39852981831E+03  0.79692601852E+02 0.  0.
        -11    1    3    3    0    0 -0.90988342823E+00 -0.28635063280E+02  0.69680613392E+02  0.75340444779E+02  0.00000000000E+00 0.  1.
         12    1    3    3    0    0 -0.16087164755E+03 -0.73798788746E+02  0.24991753536E+03  0.30624291451E+03  0.00000000000E+00 0. -1.
         13    1    5    5    0    0 -0.23861748479E+02 -0.51854152704E+02  0.72558724162E+02  0.92320120479E+02  0.00000000000E+00 0. -1.
        -14    1    5    5    0    0 -0.88243184473E+02 -0.36159157877E+02  0.29098115874E+03  0.30620969783E+03  0.00000000000E+00 0.  1.
          5    1    4    4  501    0  0.20307835617E+03  0.83113288513E+02  0.17117254334E+03  0.27832741414E+03  0.41800000000E+01 0.  1.
         -5    1    4    4    0  501  0.70808107759E+02  0.10733387409E+03  0.18596952225E+03  0.22613377514E+03  0.41800000000E+01 0.  1.
</event>
<event>
11    1  0.8037748E-009  0.1426753E+03  0.7561462E-02  0.1104607E+00
         22   -1    0    0    0    0  0.00000000000E+00  0.00000000000E+00  0.70103425126E+03  0.70103425126E+03  0.00000000000E+00 0.  1.
         22   -1    0    0    0    0 -0.00000000000E+00 -0.00000000000E+00 -0.10076766704E+03  0.10076766704E+03  0.00000000000E+00 0. -1.
         24    2    1    2    0    0 -0.42046597814E+01  0.78678788052E+02 -0.29508815541E+02  0.11841880435E+03  0.83331939706E+02 0.  0.
         25    2    1    2    0    0 -0.37292820934E+02 -0.19257303606E+02  0.19637965016E+03  0.23658984170E+03  0.12509271748E+03 0.  0.
        -24    2    1    2    0    0  0.41497480715E+02 -0.59421484446E+02  0.43339574960E+03  0.44679327225E+03  0.80866548304E+02 0.  0.
        -11    1    3    3    0    0  0.38035228524E+01  0.21632381972E+02  0.28954939249E+02  0.36343021927E+02  0.00000000000E+00 0.  1.
         12    1    3    3    0    0 -0.80081826338E+01  0.57046406080E+02 -0.58463754790E+02  0.82075782420E+02  0.00000000000E+00 0. -1.
         13    1    5    5    0    0 -0.17744775259E+02 -0.43585673787E+02  0.20208849462E+03  0.20749541601E+03  0.00000000000E+00 0. -1.
        -14    1    5    5    0    0  0.59242255974E+02 -0.15835810659E+02  0.23130725498E+03  0.23929785624E+03  0.00000000000E+00 0.  1.
          5    1    4    4  501    0  0.20130620915E+02  0.28254012807E+02  0.13647597101E+03  0.14087829571E+03  0.41800000000E+01 0.  1.
         -5    1    4    4    0  501 -0.57423441849E+02 -0.47511316413E+02  0.59903679141E+02  0.95711545989E+02  0.41800000000E+01 0.  1.
</event>
<event>
11    1  0.8037748E-009  0.1397098E+03  0.7561462E-02  0.1107883E+00
         22   -1    0    0    0    0  0.00000000000E+00  0.00000000000E+00  0.85707537120E+03  0.85707537120E+03  0.00000000000E+00 0.  1.
         22   -1    0    0    0    0 -0.00000000000E+00 -0.00000000000E+00 -0.10884421416E+03  0.10884421416E+03  0.00000000000E+00 0. -1.
        -24    2    1    2    0    0 -0.56784622459E+02 -0.15489388611E+02 -0.52133104987E+02  0.12007399579E+03  0.90749596814E+02 0.  0.
         25    2    1    2    0    0  0.91117794010E+02  0.25754933543E+02  0.30735692828E+03  0.34507870469E+03  0.12508102205E+03 0.  0.
         24    2    1    2    0    0 -0.34333171551E+02 -0.10265544932E+02  0.49300733374E+03  0.50076688488E+03  0.80169157350E+02 0.  0.
        -11    1    5    5    0    0 -0.47999521026E+02 -0.33430974062E+02  0.27825491446E+03  0.28433673957E+03  0.00000000000E+00 0.  1.
         12    1    5    5    0    0  0.13666349475E+02  0.23165429129E+02  0.21475241928E+03  0.21643014531E+03  0.00000000000E+00 0. -1.
         13    1    3    3    0    0 -0.63225494236E+02 -0.42905778352E+02 -0.51043368364E+02  0.91890121294E+02  0.00000000000E+00 0. -1.
        -14    1    3    3    0    0  0.64408717771E+01  0.27416389741E+02 -0.10897366237E+01  0.28183874496E+02  0.00000000000E+00 0.  1.
          5    1    4    4  501    0  0.11835237754E+03  0.38222656561E+02  0.26766079538E+03  0.29517457636E+03  0.41800000000E+01 0. -1.
         -5    1    4    4    0  501 -0.27234583527E+02 -0.12467723018E+02  0.39696132902E+02  0.49904128331E+02  0.41800000000E+01 0. -1.
</event>
<event>
11    1  0.8037748E-009  0.3171436E+03  0.7561462E-02  0.9931858E-01
         22   -1    0    0    0    0  0.00000000000E+00  0.00000000000E+00  0.99663032240E+03  0.99663032240E+03  0.00000000000E+00 0. -1.
         22   -1    0    0    0    0 -0.00000000000E+00 -0.00000000000E+00 -0.83835425126E+03  0.83835425126E+03  0.00000000000E+00 0. -1.
        -24    2    1    2    0    0  0.28062265237E+03 -0.58596215170E+02 -0.65439050828E+03  0.71888917426E+03  0.79950722838E+02 0.  0.
         25    2    1    2    0    0 -0.32082072586E+03  0.33191516579E+02  0.52231261634E+02  0.34986120785E+03  0.12508854924E+03 0.  0.
         24    2    1    2    0    0  0.40198073491E+02  0.25404698591E+02  0.76043531778E+03  0.76623419155E+03  0.81189161484E+02 0.  0.
        -11    1    5    5    0    0  0.26880629257E+02 -0.22406744697E+02  0.16160044897E+03  0.16534610834E+03  0.00000000000E+00 0.  1.
         12    1    5    5    0    0  0.13317444235E+02  0.47811443288E+02  0.59883486882E+03  0.60088808321E+03  0.00000000000E+00 0. -1.
         13    1    3    3    0    0  0.26903935640E+03 -0.48431756950E+02 -0.64573462255E+03  0.70121395674E+03  0.00000000000E+00 0. -1.
        -14    1    3    3    0    0  0.11583295969E+02 -0.10164458220E+02 -0.86558857333E+01  0.17675217516E+02  0.00000000000E+00 0.  1.
          5    1    4    4  501    0 -0.29761555175E+03  0.25140115725E+02  0.76649357044E+01  0.29880305504E+03  0.41800000000E+01 0. -1.
         -5    1    4    4    0  501 -0.23205174111E+02  0.80514008541E+01  0.44566325930E+02  0.51058152808E+02  0.41800000000E+01 0. -1.
</event>
<event>
11    1  0.8037748E-009  0.1381508E+03  0.7561462E-02  0.1109641E+00
         22   -1    0    0    0    0  0.00000000000E+00  0.00000000000E+00  0.72295952668E+03  0.72295952668E+03  0.00000000000E+00 0. -1.
         22   -1    0    0    0    0 -0.00000000000E+00 -0.00000000000E+00 -0.27699998570E+03  0.27699998570E+03  0.00000000000E+00 0.  1.
        -24    2    1    2    0    0  0.53230539659E+02 -0.93793725786E+01 -0.21570126357E+03  0.23679536397E+03  0.81385172531E+02 0.  0.
         25    2    1    2    0    0  0.71857144026E+01 -0.91864808454E+01  0.38554293750E+02  0.13141353467E+03  0.12508819930E+03 0.  0.
         24    2    1    2    0    0 -0.60416254062E+02  0.18565853424E+02  0.62310651080E+03  0.63175061374E+03  0.82778617362E+02 0.  0.
        -13    1    5    5    0    0  0.27328723221E+01  0.23710503090E+02  0.52902028599E+02  0.58036894971E+02  0.00000000000E+00 0.  1.
         14    1    5    5    0    0 -0.63149126384E+02 -0.51446496664E+01  0.57020448220E+03  0.57371371877E+03  0.00000000000E+00 0. -1.
         11    1    3    3    0    0  0.51583196359E+02 -0.40671666887E+02 -0.13251309527E+03  0.14790108537E+03  0.00000000000E+00 0. -1.
        -12    1    3    3    0    0  0.16473433002E+01  0.31292294309E+02 -0.83188168299E+02  0.88894278601E+02  0.00000000000E+00 0.  1.
          5    1    4    4  501    0 -0.25066344628E+02 -0.38424801855E+02 -0.26409520231E+02  0.53101056387E+02  0.41800000000E+01 0. -1.
         -5    1    4    4    0  501  0.32252059030E+02  0.29238321010E+02  0.64963813981E+02  0.78312478279E+02  0.41800000000E+01 0. -1.
</event>
<event>
11    1  0.1561717E-008  0.1515570E+03  0.7561462E-02  0.1095298E+00
         22   -1    0    0    0    0  0.00000000000E+00  0.00000000000E+00  0.47910805152E+03  0.47910805152E+03  0.00000000000E+00 0. -1.
         22   -1    0    0    0    0 -0.00000000000E+00 -0.00000000000E+00 -0.15241019250E+04  0.15241019250E+04  0.00000000000E+00 0. -1.
         24    2    1    2    0    0  0.54622289903E+02  0.22240310620E+02 -0.11059786147E+04  0.11105760369E+04  0.81928087803E+02 0.  0.
         25    2    1    2    0    0 -0.55827493817E+01  0.48967869736E+02 -0.39717876235E+03  0.41931870259E+03  0.12509270852E+03 0.  0.
        -24    2    1    2    0    0 -0.49039540521E+02 -0.71208180357E+02  0.45816350361E+03  0.47331523700E+03  0.81474143450E+02 0.  0.
        -13    1    3    3    0    0  0.32270625957E+02  0.23581062548E+02 -0.18247175201E+03  0.18679775184E+03  0.00000000000E+00 0.  1.
         14    1    3    3    0    0  0.22351663945E+02 -0.13407519276E+01 -0.92350686270E+03  0.92377828506E+03  0.00000000000E+00 0. -1.
         11    1    5    5    0    0 -0.59041801023E+02 -0.47376773981E+02  0.19976024158E+03  0.21362267458E+03  0.00000000000E+00 0. -1.
        -12    1    5    5    0    0  0.10002260502E+02 -0.23831406375E+02  0.25840326204E+03  0.25969256242E+03  0.00000000000E+00 0.  1.
          5    1    4    4  501    0 -0.16701475995E+02 -0.11914056779E+02 -0.31822262972E+03  0.31891064347E+03  0.41800000000E+01 0.  1.
         -5    1    4    4    0  501  0.11118726614E+02  0.60881926515E+02 -0.78956132627E+02  0.10040805912E+03  0.41800000000E+01 0.  1.
</event>
<event>
11    1  0.8037748E-009  0.1603915E+03  0.7561462E-02  0.1086710E+00
         22   -1    0    0    0    0  0.00000000000E+00  0.00000000000E+00  0.29895602858E+03  0.29895602858E+03  0.00000000000E+00 0. -1.
         22   -1    0    0    0    0 -0.00000000000E+00 -0.00000000000E+00 -0.17868647824E+04  0.17868647824E+04  0.00000000000E+00 0. -1.
         24    2    1    2    0    0 -0.99443976209E+02 -0.81270363542E+01 -0.16851670114E+04  0.16900062479E+04  0.79863061235E+02 0.  0.
         25    2    1    2    0    0  0.65430093688E+00 -0.57673189206E+02 -0.16879146520E+02  0.13877796663E+03  0.12509114106E+03 0.  0.
        -24    2    1    2    0    0  0.98789675272E+02  0.65800225561E+02  0.21413740408E+03  0.25703659646E+03  0.78255443701E+02 0.  0.
        -11    1    3    3    0    0 -0.96387339855E+02 -0.33423785362E+02 -0.12994249947E+04  0.13034235634E+04  0.00000000000E+00 0.  1.
         12    1    3    3    0    0 -0.30566363544E+01  0.25296749008E+02 -0.38574201670E+03  0.38658268454E+03  0.00000000000E+00 0. -1.
         11    1    5    5    0    0  0.56225894088E+02  0.77523540274E+02  0.16657715263E+03  0.19214369165E+03  0.00000000000E+00 0. -1.
        -12    1    5    5    0    0  0.42563781185E+02 -0.11723314713E+02  0.47560251454E+02  0.64892904812E+02  0.00000000000E+00 0.  1.
          5    1    4    4  501    0  0.12065571168E+02  0.49427209782E+01 -0.60158177140E+02  0.61696735530E+02  0.41800000000E+01 0.  1.
         -5    1    4    4    0  501 -0.11411270231E+02 -0.62615910185E+02  0.43279030620E+02  0.77081231100E+02  0.41800000000E+01 0.  1.
</event>
<event>
11    1  0.8037748E-009  0.1431090E+03  0.7561462E-02  0.1104135E+00
         22   -1    0    0    0    0  0.00000000000E+00  0.00000000000E+00  0.12799775466E+03  0.12799775466E+03  0.00000000000E+00 0.  1.
         22   -1    0    0    0    0 -0.00000000000E+00 -0.00000000000E+00 -0.47468808315E+03  0.47468808315E+03  0.00000000000E+00 0. -1.
         24    2    1    2    0    0 -0.25707986766E+02  0.52377726858E+01 -0.22333413193E+03  0.23869775761E+03  0.80063413336E+02 0.  0.
         25    2    1    2    0    0  0.11918197542E+02  0.64075607149E+02 -0.19113561452E+03  0.23754792198E+03  0.12509382573E+03 0.  0.
        -24    2    1    2    0    0  0.13789789224E+02 -0.69313379835E+02  0.67779417957E+02  0.12644015822E+03  0.79991006998E+02 0.  0.
        -13    1    3    3    0    0 -0.52998673316E+02  0.61736732811E+01 -0.17749626878E+03  0.18534265306E+03  0.00000000000E+00 0.  1.
         14    1    3    3    0    0  0.27290686550E+02 -0.93590059530E+00 -0.45837863154E+02  0.53355104543E+02  0.00000000000E+00 0. -1.
         13    1    5    5    0    0 -0.16845481432E+02 -0.19714473141E+02  0.62785075826E+02  0.67929348903E+02  0.00000000000E+00 0. -1.
        -14    1    5    5    0    0  0.30635270656E+02 -0.49598906694E+02  0.49943421314E+01  0.58510809316E+02  0.00000000000E+00 0.  1.
          5    1    4    4  501    0 -0.75838597050E+01  0.88727745434E+02 -0.72980859472E+02  0.11521200453E+03  0.41800000000E+01 0. -1.
         -5    1    4    4    0  501  0.19502057247E+02 -0.24652138284E+02 -0.11815475505E+03  0.12233591746E+03  0.41800000000E+01 0. -1.
</event>
<event>
11    1  0.8037748E-009  0.1567311E+03  0.7561462E-02  0.1090193E+00
         22   -1    0    0    0    0  0.00000000000E+00  0.00000000000E+00  0.15437480060E+04  0.15437480060E+04  0.00000000000E+00 0. -1.
         22   -1    0    0    0    0 -0.00000000000E+00 -0.00000000000E+00 -0.22638331430E+04  0.22638331430E+04  0.00000000000E+00 0.  1.
         24    2    1    2    0    0  0.14571419207E+02 -0.37232243125E+02 -0.22289500364E+04  0.22310940793E+04  0.89241020621E+02 0.  0.
         25    2    1    2    0    0 -0.98037405350E+02  0.75608962788E+02  0.21968671518E+03  0.28151482098E+03  0.12514109438E+03 0.  0.
        -24    2    1    2    0    0  0.83465986143E+02 -0.38376719662E+02  0.12891781841E+04  0.12949722488E+04  0.80829395490E+02 0.  0.
        -13    1    3    3    0    0  0.38719988075E+02  0.13965424962E+02 -0.96055207826E+03  0.96143359918E+03  0.00000000000E+00 0.  1.
         14    1    3    3    0    0 -0.24148568868E+02 -0.51197668087E+02 -0.12683979581E+04  0.12696604801E+04  0.00000000000E+00 0. -1.
         13    1    5    5    0    0 -0.65704966483E+01 -0.14808765456E+02  0.50970383118E+03  0.50996124018E+03  0.00000000000E+00 0. -1.
        -14    1    5    5    0    0  0.90036482791E+02 -0.23567954207E+02  0.77947435294E+03  0.78501100858E+03  0.00000000000E+00 0.  1.
          5    1    4    4  501    0  0.17757902475E+02  0.45902675657E+02  0.10386440987E+03  0.11501168102E+03  0.41800000000E+01 0. -1.
         -5    1    4    4    0  501 -0.11579530782E+03  0.29706287130E+02  0.11582230531E+03  0.16650313996E+03  0.41800000000E+01 0. -1.
</event>
<event>
11    1  0.8037748E-009  0.1938906E+03  0.7561462E-02  0.1058930E+00
         22   -1    0    0    0    0  0.00000000000E+00  0.00000000000E+00  0.22243124137E+04  0.22243124137E+04  0.00000000000E+00 0. -1.
         22   -1    0    0    0    0 -0.00000000000E+00 -0.00000000000E+00 -0.41152483486E+03  0.41152483486E+03  0.00000000000E+00 0. -1.
         24    2    1    2    0    0  0.10980596712E+03  0.96316747686E+02 -0.34330951054E+03  0.38140057918E+03  0.79187849235E+02 0.  0.
         25    2    1    2    0    0 -0.10494031414E+03 -0.14558240828E+03  0.20099774377E+03  0.29707815397E+03  0.12509448201E+03 0.  0.
        -24    2    1    2    0    0 -0.48656529830E+01  0.49265660593E+02  0.19550993456E+04  0.19573585154E+04  0.79925757666E+02 0.  0.
        -13    1    3    3    0    0  0.76631841227E+01 -0.98980086450E+01 -0.72814023290E+01  0.14481498055E+02  0.00000000000E+00 0.  1.
         14    1    3    3    0    0  0.10214278300E+03  0.10621475633E+03 -0.33602810822E+03  0.36691908112E+03  0.00000000000E+00 0. -1.
         13    1    5    5    0    0  0.18575338887E+02  0.62041123213E+02  0.15698677803E+04  0.15712030396E+04  0.00000000000E+00 0. -1.
        -14    1    5    5    0    0 -0.23440991870E+02 -0.12775462621E+02  0.38523156531E+03  0.38615547575E+03  0.00000000000E+00 0.  1.
          5    1    4    4  501    0 -0.73998758894E+02 -0.11530981521E+03  0.60190819702E+02  0.14970830631E+03  0.41800000000E+01 0. -1.
         -5    1    4    4    0  501 -0.30941555246E+02 -0.30272593068E+02  0.14080692407E+03  0.14736984766E+03  0.41800000000E+01 0. -1.
</event>
<event>
11    1  0.8037748E-009  0.1478947E+03  0.7561462E-02  0.1099050E+00
         22   -1    0    0    0    0  0.00000000000E+00  0.00000000000E+00  0.75591254100E+03  0.75591254100E+03  0.00000000000E+00 0.  1.
         22   -1    0    0    0    0 -0.00000000000E+00 -0.00000000000E+00 -0.28644744014E+04  0.28644744014E+04  0.00000000000E+00 0. -1.
         24    2    1    2    0    0  0.12484051760E+02 -0.77337571873E+02 -0.27197111758E+04  0.27219180346E+04  0.76628685568E+02 0.  0.
         25    2    1    2    0    0 -0.21919098514E+02  0.99865212312E+02 -0.94997289348E+02  0.18742149411E+03  0.12509525954E+03 0.  0.
        -24    2    1    2    0    0  0.94350467534E+01 -0.22527640439E+02  0.70614660480E+03  0.71104741371E+03  0.79679874383E+02 0.  0.
        -11    1    3    3    0    0 -0.24233770606E+02 -0.10210608865E+01 -0.49179077774E+03  0.49238855316E+03  0.00000000000E+00 0.  1.
         12    1    3    3    0    0  0.36717822366E+02 -0.76316510986E+02 -0.22279203981E+04  0.22295294814E+04  0.00000000000E+00 0. -1.
         11    1    5    5    0    0 -0.72583552314E+01 -0.28413703953E+02  0.90221596754E+02  0.94868112735E+02  0.00000000000E+00 0. -1.
        -12    1    5    5    0    0  0.16693401985E+02  0.58860635146E+01  0.61592500804E+03  0.61617930097E+03  0.00000000000E+00 0.  1.
          5    1    4    4  501    0  0.48740606160E+02  0.15588258854E+02 -0.34145168329E+02  0.61660404014E+02  0.41800000000E+01 0.  1.
         -5    1    4    4    0  501 -0.70659704673E+02  0.84276953457E+02 -0.60852121019E+02  0.12576109009E+03  0.41800000000E+01 0.  1.
</event>
<event>
11    1  0.8037748E-009  0.1381139E+03  0.7561462E-02  0.1109683E+00
         22   -1    0    0    0    0  0.00000000000E+00  0.00000000000E+00  0.15387575531E+04  0.15387575531E+04  0.00000000000E+00 0.  1.
         22   -1    0    0    0    0 -0.00000000000E+00 -0.00000000000E+00 -0.54224068188E+03  0.54224068188E+03  0.00000000000E+00 0.  1.
        -24    2    1    2    0    0 -0.26683313506E+02 -0.25550060018E+02 -0.48362107949E+03  0.49108763420E+03  0.76895456000E+02 0.  0.
         25    2    1    2    0    0  0.21833462928E+01  0.78320484739E+02  0.49131301051E+02  0.15556249074E+03  0.12508772303E+03 0.  0.
         24    2    1    2    0    0  0.24499967213E+02 -0.52770424721E+02  0.14310066497E+04  0.14343481101E+04  0.78673396412E+02 0.  0.
        -11    1    5    5    0    0  0.46585988915E+02 -0.24112474970E+02  0.11228604701E+04  0.11240850952E+04  0.00000000000E+00 0.  1.
         12    1    5    5    0    0 -0.22086021701E+02 -0.28657949751E+02  0.30814617956E+03  0.31026301491E+03  0.00000000000E+00 0. -1.
         13    1    3    3    0    0  0.86835310645E+01  0.17336744880E+02 -0.45571302921E+02  0.49524843106E+02  0.00000000000E+00 0. -1.
        -14    1    3    3    0    0 -0.35366844571E+02 -0.42886804897E+02 -0.43804977657E+03  0.44156279110E+03  0.00000000000E+00 0.  1.
          5    1    4    4  501    0  0.42721622560E+02  0.81897864403E+02  0.63536234574E+02  0.11219056436E+03  0.41800000000E+01 0. -1.
         -5    1    4    4    0  501 -0.40538276267E+02 -0.35773796645E+01 -0.14404933523E+02  0.43371926378E+02  0.41800000000E+01 0. -1.
</event>
<event>
11    1  0.8037748E-009  0.1695915E+03  0.7561462E-02  0.1078388E+00
         22   -1    0    0    0    0  0.00000000000E+00  0.00000000000E+00  0.46385716657E+02  0.46385716657E+02  0.00000000000E+00 0. -1.
         22   -1    0    0    0    0 -0.00000000000E+00 -0.00000000000E+00 -0.16560374922E+04  0.16560374922E+04  0.00000000000E+00 0. -1.
         24    2    1    2    0    0 -0.11221885352E+03 -0.14833796914E+02 -0.11797063120E+04  0.11883051842E+04  0.86885646398E+02 0.  0.
         25    2    1    2    0    0  0.11935742627E+03  0.14485487934E+02 -0.38650121683E+03  0.42365838705E+03  0.12508882338E+03 0.  0.
        -24    2    1    2    0    0 -0.71385727445E+01  0.34830898027E+00 -0.43444246691E+02  0.90459637618E+02  0.79021914222E+02 0.  0.
        -11    1    3    3    0    0  0.90188203211E+01  0.15215218927E+02 -0.13208359464E+03  0.13326259033E+03  0.00000000000E+00 0.  1.
         12    1    3    3    0    0 -0.12123767384E+03 -0.30049015841E+02 -0.10476227174E+04  0.10550425938E+04  0.00000000000E+00 0. -1.
         11    1    5    5    0    0 -0.11059062400E+02  0.27058142132E+02  0.97442929876E+01  0.30812289149E+02  0.00000000000E+00 0. -1.
        -12    1    5    5    0    0  0.39204896553E+01 -0.26709833152E+02 -0.53188539679E+02  0.59647348468E+02  0.00000000000E+00 0.  1.
          5    1    4    4  501    0  0.31842078188E+02  0.42069220609E+02 -0.43312874784E+02  0.68390165872E+02  0.41800000000E+01 0.  1.
         -5    1    4    4    0  501  0.87515348077E+02 -0.27583732676E+02 -0.34318834205E+03  0.35526822117E+03  0.41800000000E+01 0.  1.
</event>
<event>
11    1  0.8037748E-009  0.2782864E+03  0.7561462E-02  0.1009824E+00
         22   -1    0    0    0    0  0.00000000000E+00  0.00000000000E+00  0.32806127243E+03  0.32806127243E+03  0.00000000000E+00 0.  1.
         22   -1    0    0    0    0 -0.00000000000E+00 -0.00000000000E+00 -0.80311921039E+03  0.80311921039E+03  0.00000000000E+00 0.  1.
        -24    2    1    2    0    0 -0.16334550396E+02  0.53355718003E+02 -0.38676656409E+03  0.39855944257E+03  0.78406657801E+02 0.  0.
         25    2    1    2    0    0 -0.23284853544E+02 -0.29036777211E+03 -0.26927993926E+03  0.41595044851E+03  0.12508981749E+03 0.  0.
         24    2    1    2    0    0  0.39619403940E+02  0.23701205411E+03  0.18098856538E+03  0.31667059173E+03  0.98888785557E+02 0.  0.
        -11    1    5    5    0    0 -0.80610002844E+01  0.19728799981E+03  0.13067004927E+03  0.23677456868E+03  0.00000000000E+00 0.  1.
         12    1    5    5    0    0  0.47680404225E+02  0.39724054295E+02  0.50318516110E+02  0.79896023056E+02  0.00000000000E+00 0. -1.
         11    1    3    3    0    0  0.28079442395E+02  0.28423321940E+01 -0.13824624604E+03  0.14109769127E+03  0.00000000000E+00 0. -1.
        -12    1    3    3    0    0 -0.44413992791E+02  0.50513385809E+02 -0.24852031805E+03  0.25746175130E+03  0.00000000000E+00 0.  1.
          5    1    4    4  501    0 -0.52582287882E+02 -0.12716886999E+03 -0.18295782919E+03  0.22897130422E+03  0.41800000000E+01 0.  1.
         -5    1    4    4    0  501  0.29297434338E+02 -0.16319890212E+03 -0.86322110066E+02  0.18697914429E+03  0.41800000000E+01 0.  1.
</event>
<event>
11    1  0.8037748E-009  0.2322962E+03  0.7561462E-02  0.1033777E+00
         22   -1    0    0    0    0  0.00000000000E+00  0.00000000000E+00  0.50128826803E+03  0.50128826803E+03  0.00000000000E+00 0. -1.
         22   -1    0    0    0    0 -0.00000000000E+00 -0.00000000000E+00 -0.24356554726E+03  0.24356554726E+03  0.00000000000E+00 0. -1.
        -24    2    1    2    0    0 -0.24777295518E+02  0.18929326731E+03 -0.78109489497E+02  0.22081729438E+03  0.78824677146E+02 0.  0.
         25    2    1    2    0    0  0.36757952787E+02 -0.20397218761E+03  0.80368136254E+02  0.25507399604E+03  0.12509158932E+03 0.  0.
         24    2    1    2    0    0 -0.11980657270E+02  0.14678920302E+02  0.25546407401E+03  0.26896252487E+03  0.81975239082E+02 0.  0.
        -11    1    5    5    0    0 -0.41220432767E+02 -0.18624654691E+01  0.76950119094E+02  0.87315025532E+02  0.00000000000E+00 0.  1.
         12    1    5    5    0    0  0.29239775497E+02  0.16541385771E+02  0.17851395492E+03  0.18164749934E+03  0.00000000000E+00 0. -1.
         11    1    3    3    0    0 -0.48789363497E+02  0.11815413143E+03 -0.28935215533E+02  0.13106505050E+03  0.00000000000E+00 0. -1.
        -12    1    3    3    0    0  0.24012067980E+02  0.71139135883E+02 -0.49174273964E+02  0.89752243886E+02  0.00000000000E+00 0.  1.
          5    1    4    4  501    0  0.79019529843E+02 -0.16346274700E+03  0.73749860282E+02  0.19601191302E+03  0.41800000000E+01 0. -1.
         -5    1    4    4    0  501 -0.42261577056E+02 -0.40509440614E+02  0.66182759714E+01  0.59062083022E+02  0.41800000000E+01 0. -1.
</event>
<event>
11    1  0.8037748E-009  0.2272496E+03  0.7561462E-02  0.1036769E+00
         22   -1    0    0    0    0  0.00000000000E+00  0.00000000000E+00  0.25862255771E+03  0.25862255771E+03  0.00000000000E+00 0. -1.
         22   -1    0    0    0    0 -0.00000000000E+00 -0.00000000000E+00 -0.12983600101E+04  0.12983600101E+04  0.00000000000E+00 0.  1.
        -24    2    1    2    0    0 -0.23881897241E+02 -0.34281115827E+02 -0.10902063370E+04  0.10959712603E+04  0.10419983738E+03 0.  0.
         25    2    1    2    0    0 -0.84777729060E+02 -0.13730659707E+03 -0.64776249301E+02  0.21420406342E+03  0.12508818236E+03 0.  0.
         24    2    1    2    0    0  0.10865962630E+03  0.17158771290E+03  0.11524513398E+03  0.24680724409E+03  0.79894412973E+02 0.  0.
        -13    1    5    5    0    0  0.11712444960E+02 -0.71407508354E+01  0.14319817335E+01  0.13792108654E+02  0.00000000000E+00 0.  1.
         14    1    5    5    0    0  0.96947181341E+02  0.17872846374E+03  0.11381315225E+03  0.23301513544E+03  0.00000000000E+00 0. -1.
         13    1    3    3    0    0 -0.56193198797E+02 -0.50890222476E+02 -0.76044728824E+03  0.76421696430E+03  0.00000000000E+00 0. -1.
        -14    1    3    3    0    0  0.32311301556E+02  0.16609106649E+02 -0.32975904881E+03  0.33175429599E+03  0.00000000000E+00 0.  1.
          5    1    4    4  501    0 -0.56309213942E+02 -0.15145029624E+03 -0.25709976700E+02  0.16366549761E+03  0.41800000000E+01 0. -1.
         -5    1    4    4    0  501 -0.28468515118E+02  0.14143699166E+02 -0.39066272601E+02  0.50538565810E+02  0.41800000000E+01 0. -1.
</event>
<event>
11    1  0.8037748E-009  0.1354587E+03  0.7561462E-02  0.1112738E+00
         22   -1    0    0    0    0  0.00000000000E+00  0.00000000000E+00  0.14502516888E+04  0.14502516888E+04  0.00000000000E+00 0. -1.
         22   -1    0    0    0    0 -0.00000000000E+00 -0.00000000000E+00 -0.16205609864E+04  0.16205609864E+04  0.00000000000E+00 0.  1.
         24    2    1    2    0    0  0.61247038180E+01  0.51997660577E+02 -0.15703788321E+04  0.15733568039E+04  0.81367608049E+02 0.  0.
         25    2    1    2    0    0  0.13631793459E+02 -0.31547878752E+02  0.41425141586E+02  0.13617550869E+03  0.12508649953E+03 0.  0.
        -24    2    1    2    0    0 -0.19756497277E+02 -0.20449781825E+02  0.13586443928E+04  0.13612803626E+04  0.79756671766E+02 0.  0.
        -13    1    3    3    0    0 -0.33712296006E+02  0.37215391574E+01 -0.49916879120E+03  0.50031974863E+03  0.00000000000E+00 0.  1.
         14    1    3    3    0    0  0.39836999824E+02  0.48276121419E+02 -0.10712100409E+04  0.10730370553E+04  0.00000000000E+00 0. -1.
         13    1    5    5    0    0 -0.29287637983E+02  0.21713431084E+02  0.85764156251E+03  0.85841615116E+03  0.00000000000E+00 0. -1.
        -14    1    5    5    0    0  0.95311407052E+01 -0.42163212909E+02  0.50100283031E+03  0.50286421144E+03  0.00000000000E+00 0.  1.
          5    1    4    4  501    0  0.15085271164E+02 -0.31749694348E+02  0.85156159429E+02  0.92220672227E+02  0.41800000000E+01 0.  1.
         -5    1    4    4    0  501 -0.14534777046E+01  0.20181559617E+00 -0.43731017843E+02  0.43954836464E+02  0.41800000000E+01 0.  1.
</event>
<event>
11    1  0.8037748E-009  0.1485118E+03  0.7561462E-02  0.1098409E+00
         22   -1    0    0    0    0  0.00000000000E+00  0.00000000000E+00  0.27072771745E+03  0.27072771745E+03  0.00000000000E+00 0. -1.
         22   -1    0    0    0    0 -0.00000000000E+00 -0.00000000000E+00 -0.28344619290E+03  0.28344619290E+03  0.00000000000E+00 0. -1.
         24    2    1    2    0    0 -0.11314423789E+03  0.63794618255E+00 -0.16340744728E+03  0.22062855881E+03  0.95775474906E+02 0.  0.
         25    2    1    2    0    0 -0.10242998502E+01  0.43212716985E+02  0.13459698853E+02  0.13303018152E+03  0.12508987810E+03 0.  0.
        -24    2    1    2    0    0  0.11416853774E+03 -0.43850663167E+02  0.13722927297E+03  0.20051517001E+03  0.80106955835E+02 0.  0.
        -11    1    3    3    0    0 -0.23726400899E+02  0.39543565061E+02 -0.28654425715E+02  0.54292833324E+02  0.00000000000E+00 0.  1.
         12    1    3    3    0    0 -0.89417836994E+02 -0.38905618878E+02 -0.13475302156E+03  0.16633572549E+03  0.00000000000E+00 0. -1.
         11    1    5    5    0    0  0.18516734200E+02 -0.12166229269E+02  0.83364545592E+02  0.86258530255E+02  0.00000000000E+00 0. -1.
        -12    1    5    5    0    0  0.95651803543E+02 -0.31684433898E+02  0.53864727382E+02  0.11425663976E+03  0.00000000000E+00 0.  1.
          5    1    4    4  501    0  0.53601837176E+02  0.22282523073E+02  0.37944993802E+02  0.69476346607E+02  0.41800000000E+01 0.  1.
         -5    1    4    4    0  501 -0.54626137026E+02  0.20930193911E+02 -0.24485294950E+02  0.63553834915E+02  0.41800000000E+01 0.  1.
</event>
<event>
11    1  0.8037748E-009  0.1316893E+03  0.7561462E-02  0.1117211E+00
         22   -1    0    0    0    0  0.00000000000E+00  0.00000000000E+00  0.33876972501E+03  0.33876972501E+03  0.00000000000E+00 0. -1.
         22   -1    0    0    0    0 -0.00000000000E+00 -0.00000000000E+00 -0.80407357993E+03  0.80407357993E+03  0.00000000000E+00 0.  1.
        -24    2    1    2    0    0  0.14127641831E+02 -0.37527786670E+02 -0.73372564644E+03  0.73985138302E+03  0.86132570437E+02 0.  0.
         25    2    1    2    0    0 -0.20309107928E+02  0.68616864924E+02  0.27130992614E+02  0.14664376568E+03  0.12509024437E+03 0.  0.
         24    2    1    2    0    0  0.61814660972E+01 -0.31089078254E+02  0.24129079890E+03  0.25634815623E+03  0.80550519936E+02 0.  0.
        -11    1    5    5    0    0 -0.61693058685E+00  0.14540210238E+02  0.46878982085E+01  0.15289692827E+02  0.00000000000E+00 0.  1.
         12    1    5    5    0    0  0.67983966840E+01 -0.45629288492E+02  0.23660290069E+03  0.24105846341E+03  0.00000000000E+00 0. -1.
         13    1    3    3    0    0 -0.36423798113E+01 -0.46335108814E+02 -0.18437923985E+03  0.19014708340E+03  0.00000000000E+00 0. -1.
        -14    1    3    3    0    0  0.17770021642E+02  0.88073221440E+01 -0.54934640659E+03  0.54970429962E+03  0.00000000000E+00 0.  1.
          5    1    4    4  501    0 -0.16519470938E+02 -0.35028241326E+02  0.16495246397E+02  0.42301727673E+02  0.41800000000E+01 0.  1.
         -5    1    4    4    0  501 -0.37896369896E+01  0.10364510625E+03  0.10635746217E+02  0.10434203801E+03  0.41800000000E+01 0.  1.
</event>
<event>
11    1  0.8037748E-009  0.1271695E+03  0.7561462E-02  0.1122796E+00
         22   -1    0    0    0    0  0.00000000000E+00  0.00000000000E+00  0.18256347747E+03  0.18256347747E+03  0.00000000000E+00 0. -1.
         22   -1    0    0    0    0 -0.00000000000E+00 -0.00000000000E+00 -0.10139013581E+04  0.10139013581E+04  0.00000000000E+00 0. -1.
         24    2    1    2    0    0 -0.24865348527E+02  0.25764533954E+01 -0.50142028625E+03  0.50853799289E+03  0.81016437060E+02 0.  0.
         25    2    1    2    0    0  0.13592667232E+02 -0.20556086487E+02 -0.49058257193E+03  0.50687904595E+03  0.12509114298E+03 0.  0.
        -24    2    1    2    0    0  0.11272681295E+02  0.17979633092E+02  0.16066497755E+03  0.18104779674E+03  0.80713872073E+02 0.  0.
        -13    1    3    3    0    0 -0.13056402436E+02  0.24496943595E+02 -0.56792539279E+02  0.63213625176E+02  0.00000000000E+00 0.  1.
         14    1    3    3    0    0 -0.11808946091E+02 -0.21920490199E+02 -0.44462774697E+03  0.44532436771E+03  0.00000000000E+00 0. -1.
         13    1    5    5    0    0  0.24814450205E+02 -0.77690324108E+01  0.14631717828E+03  0.14860966140E+03  0.00000000000E+00 0. -1.
        -14    1    5    5    0    0 -0.13541768910E+02  0.25748665503E+02  0.14347799272E+02  0.32438135340E+02  0.00000000000E+00 0.  1.
          5    1    4    4  501    0  0.64903933615E+02  0.81472390863E+01 -0.20305780541E+03  0.21337488803E+03  0.41800000000E+01 0. -1.
         -5    1    4    4    0  501 -0.51311266383E+02 -0.28703325574E+02 -0.28752476652E+03  0.29350415792E+03  0.41800000000E+01 0. -1.
</event>
<event>
11    1  0.8037748E-009  0.1475153E+03  0.7561462E-02  0.1099445E+00
         22   -1    0    0    0    0  0.00000000000E+00  0.00000000000E+00  0.18313826890E+03  0.18313826890E+03  0.00000000000E+00 0.  1.
         22   -1    0    0    0    0 -0.00000000000E+00 -0.00000000000E+00 -0.25821342683E+04  0.25821342683E+04  0.00000000000E+00 0.  1.
         24    2    1    2    0    0 -0.40095250286E+02  0.79374997201E-01 -0.20124406665E+04  0.20144605138E+04  0.80784218983E+02 0.  0.
         25    2    1    2    0    0  0.10436998067E+03  0.42510473494E+02 -0.53752105296E+03  0.56327397578E+03  0.12509378958E+03 0.  0.
        -24    2    1    2    0    0 -0.64274730383E+02 -0.42589848491E+02  0.15096572006E+03  0.18753804762E+03  0.80216796940E+02 0.  0.
        -13    1    3    3    0    0 -0.61680074513E+02 -0.65649410832E+01 -0.17326087554E+04  0.17337187284E+04  0.00000000000E+00 0.  1.
         14    1    3    3    0    0  0.21584824227E+02  0.66443160804E+01 -0.27983191117E+03  0.28074178542E+03  0.00000000000E+00 0. -1.
         11    1    5    5    0    0 -0.18570758312E+02 -0.57147930244E+02  0.10569360244E+03  0.12158082329E+03  0.00000000000E+00 0. -1.
        -12    1    5    5    0    0 -0.45703972071E+02  0.14558081753E+02  0.45272117628E+02  0.65957224335E+02  0.00000000000E+00 0.  1.
          5    1    4    4  501    0  0.69929230221E+01  0.42904659678E+02 -0.34229512248E+03  0.34506975247E+03  0.41800000000E+01 0. -1.
         -5    1    4    4    0  501  0.97377057647E+02 -0.39418618462E+00 -0.19522593048E+03  0.21820422331E+03  0.41800000000E+01 0. -1.
</event>
<event>
11    1  0.8037748E-009  0.1568144E+03  0.7561462E-02  0.1090112E+00
         22   -1    0    0    0    0  0.00000000000E+00  0.00000000000E+00  0.52814148274E+03  0.52814148274E+03  0.00000000000E+00 0. -1.
         22   -1    0    0    0    0 -0.00000000000E+00 -0.00000000000E+00 -0.26957617825E+03  0.26957617825E+03  0.00000000000E+00 0. -1.
        -24    2    1    2    0    0  0.50383002671E+02 -0.88951603584E+02 -0.19571230890E+03  0.23525604809E+03  0.81186609551E+02 0.  0.
         25    2    1    2    0    0  0.39836808903E+01  0.63197888127E+02  0.57635101505E+02  0.15158901390E+03  0.12509029312E+03 0.  0.
         24    2    1    2    0    0 -0.54366683561E+02  0.25753715457E+02  0.39664251189E+03  0.41087259900E+03  0.88724406073E+02 0.  0.
        -13    1    5    5    0    0  0.10565147626E+02  0.57622897597E+01  0.44371694623E+01  0.12826332308E+02  0.00000000000E+00 0.  1.
         14    1    5    5    0    0 -0.64931831187E+02  0.19991425697E+02  0.39220534243E+03  0.39804626669E+03  0.00000000000E+00 0. -1.
         13    1    3    3    0    0  0.49238043298E+02 -0.14890194120E+02 -0.11340993691E+03  0.12453078567E+03  0.00000000000E+00 0. -1.
        -14    1    3    3    0    0  0.11449593728E+01 -0.74061409464E+02 -0.82302371985E+02  0.11072526242E+03  0.00000000000E+00 0.  1.
          5    1    4    4  501    0 -0.34308187559E+02 -0.10116914579E+02 -0.17254316031E+02  0.39932286635E+02  0.41800000000E+01 0.  1.
         -5    1    4    4    0  501  0.38291868450E+02  0.73314802706E+02  0.74889417536E+02  0.11165672727E+03  0.41800000000E+01 0.  1.
</event>
<event>
11    1  0.8037748E-009  0.1482244E+03  0.7561462E-02  0.1098707E+00
         22   -1    0    0    0    0  0.00000000000E+00  0.00000000000E+00  0.43650899178E+02  0.43650899178E+02  0.00000000000E+00 0.  1.
         22   -1    0    0    0    0 -0.00000000000E+00 -0.00000000000E+00 -0.20756714673E+04  0.20756714673E+04  0.00000000000E+00 0.  1.
         24    2    1    2    0    0  0.17044322446E+02 -0.82109512094E+02 -0.15532974518E+04  0.15576891784E+04  0.81425560782E+02 0.  0.
         25    2    1    2    0    0 -0.49885250539E+02  0.46301353145E+02 -0.43419293531E+03  0.45694884400E+03  0.12508552051E+03 0.  0.
        -24    2    1    2    0    0  0.32840928093E+02  0.35808158949E+02 -0.44530181057E+02  0.10468434408E+03  0.81333412969E+02 0.  0.
        -11    1    3    3    0    0 -0.35645596464E+01 -0.85849645345E+02 -0.14336239079E+04  0.14361964967E+04  0.00000000000E+00 0.  1.
         12    1    3    3    0    0  0.20608882092E+02  0.37401332505E+01 -0.11967354385E+03  0.12149268174E+03  0.00000000000E+00 0. -1.
         13    1    5    5    0    0 -0.42337693052E+01  0.25225895331E+02 -0.58363372745E+02  0.63722475438E+02  0.00000000000E+00 0. -1.
        -14    1    5    5    0    0  0.37074697398E+02  0.10582263618E+02  0.13833191687E+02  0.40961868643E+02  0.00000000000E+00 0.  1.
          5    1    4    4  501    0 -0.26913088539E+02 -0.39563021654E+02 -0.97397299585E+02  0.10859674665E+03  0.41800000000E+01 0. -1.
         -5    1    4    4    0  501 -0.22972161999E+02  0.85864374798E+02 -0.33679563572E+03  0.34835209735E+03  0.41800000000E+01 0. -1.
</event>
<event>
11    1  0.8037748E-009  0.1572881E+03  0.7561462E-02  0.1089656E+00
         22   -1    0    0    0    0  0.00000000000E+00  0.00000000000E+00  0.10328652916E+03  0.10328652916E+03  0.00000000000E+00 0.  1.
         22   -1    0    0    0    0 -0.00000000000E+00 -0.00000000000E+00 -0.69912360579E+03  0.69912360579E+03  0.00000000000E+00 0.  1.
        -24    2    1    2    0    0 -0.44565120260E+02  0.83979198944E+02 -0.49347623431E+03  0.50905338387E+03  0.81104858076E+02 0.  0.
         25    2    1    2    0    0  0.31323405187E+02 -0.92640313181E+02 -0.13122018289E+03  0.20598140071E+03  0.12508484201E+03 0.  0.
         24    2    1    2    0    0  0.13241715073E+02  0.86611142368E+01  0.28859340564E+02  0.87375350366E+02  0.80939683691E+02 0.  0.
        -13    1    5    5    0    0  0.16638491361E+02  0.40880733885E+02  0.32445336345E+02  0.54779317706E+02  0.00000000000E+00 0.  1.
         14    1    5    5    0    0 -0.33967762883E+01 -0.32219619648E+02 -0.35859957814E+01  0.32596032660E+02  0.00000000000E+00 0. -1.
         13    1    3    3    0    0  0.63155319006E+01 -0.38880635597E+01 -0.16672515680E+03  0.16689002634E+03  0.00000000000E+00 0. -1.
        -14    1    3    3    0    0 -0.50880652160E+02  0.87867262504E+02 -0.32675107751E+03  0.34216335753E+03  0.00000000000E+00 0.  1.
          5    1    4    4  501    0 -0.26031132045E+02 -0.96992582355E+02 -0.91804622009E+02  0.13612766761E+03  0.41800000000E+01 0. -1.
         -5    1    4    4    0  501  0.57354537231E+02  0.43522691740E+01 -0.39415560881E+02  0.69853733097E+02  0.41800000000E+01 0. -1.
</event>
<event>
11    1  0.8037748E-009  0.1366898E+03  0.7561462E-02  0.1111312E+00
         22   -1    0    0    0    0  0.00000000000E+00  0.00000000000E+00  0.35998642580E+03  0.35998642580E+03  0.00000000000E+00 0. -1.
         22   -1    0    0    0    0 -0.00000000000E+00 -0.00000000000E+00 -0.50414096461E+03  0.50414096461E+03  0.00000000000E+00 0. -1.
         24    2    1    2    0    0  0.33590997587E+02 -0.47645789553E+02 -0.40681308616E+03  0.41551394005E+03  0.61290055640E+02 0.  0.
         25    2    1    2    0    0  0.24346824640E+02  0.41318422705E+02 -0.32208011945E+02  0.13778749076E+03  0.12509219260E+03 0.  0.
        -24    2    1    2    0    0 -0.57937822227E+02  0.63273668481E+01  0.29486655930E+03  0.31082595960E+03  0.79181200777E+02 0.  0.
        -11    1    3    3    0    0  0.43740587159E+02 -0.29869961677E+02 -0.17606060812E+03  0.18385535431E+03  0.00000000000E+00 0.  1.
         12    1    3    3    0    0 -0.10149589572E+02 -0.17775827876E+02 -0.23075247804E+03  0.23165858573E+03  0.00000000000E+00 0. -1.
         13    1    5    5    0    0 -0.62540622685E+02 -0.14902278042E+02  0.27113613196E+03  0.27865428300E+03  0.00000000000E+00 0. -1.
        -14    1    5    5    0    0  0.46028004581E+01  0.21229644890E+02  0.23730427332E+02  0.32171676605E+02  0.00000000000E+00 0.  1.
          5    1    4    4  501    0  0.71534126268E+01  0.85024813879E+02 -0.11169542153E+02  0.86154636319E+02  0.41800000000E+01 0.  1.
         -5    1    4    4    0  501  0.17193412013E+02 -0.43706391174E+02 -0.21038469792E+02  0.51632854437E+02  0.41800000000E+01 0.  1.
</event>
<event>
11    1  0.8037748E-009  0.1714063E+03  0.7561462E-02  0.1076814E+00
         22   -1    0    0    0    0  0.00000000000E+00  0.00000000000E+00  0.65081467062E+03  0.65081467062E+03  0.00000000000E+00 0. -1.
         22   -1    0    0    0    0 -0.00000000000E+00 -0.00000000000E+00 -0.19286515261E+04  0.19286515261E+04  0.00000000000E+00 0.  1.
        -24    2    1    2    0    0 -0.82356237407E+02  0.83929271212E+02 -0.18652987325E+04  0.18709909968E+04  0.86262832115E+02 0.  0.
         25    2    1    2    0    0  0.94483983074E+02 -0.47687617329E+02  0.64199187400E+02  0.17598330423E+03  0.12508899153E+03 0.  0.
         24    2    1    2    0    0 -0.12127745667E+02 -0.36241653883E+02  0.52326268961E+03  0.53249189571E+03  0.91012290204E+02 0.  0.
        -11    1    5    5    0    0  0.29981358402E+02 -0.89132543935E+01  0.72722782566E+02  0.79163950505E+02  0.00000000000E+00 0.  1.
         12    1    5    5    0    0 -0.42109104070E+02 -0.27328399490E+02  0.45053990705E+03  0.45332794521E+03  0.00000000000E+00 0. -1.
         13    1    3    3    0    0  0.11298463408E+02  0.40364760240E+02 -0.46316690650E+03  0.46505972995E+03  0.00000000000E+00 0. -1.
        -14    1    3    3    0    0 -0.93654700815E+02  0.43564510972E+02 -0.14021318260E+04  0.14059312669E+04  0.00000000000E+00 0.  1.
          5    1    4    4  501    0 -0.35299518941E+01  0.35031530033E+02  0.16133486009E+02  0.38954209370E+02  0.41800000000E+01 0.  1.
         -5    1    4    4    0  501  0.98013934968E+02 -0.82719147362E+02  0.48065701391E+02  0.13702909486E+03  0.41800000000E+01 0.  1.
</event>
<event>
11    1  0.8037748E-009  0.1530556E+03  0.7561462E-02  0.1093797E+00
         22   -1    0    0    0    0  0.00000000000E+00  0.00000000000E+00  0.86331512636E+03  0.86331512636E+03  0.00000000000E+00 0. -1.
         22   -1    0    0    0    0 -0.00000000000E+00 -0.00000000000E+00 -0.70231232561E+02  0.70231232561E+02  0.00000000000E+00 0.  1.
        -24    2    1    2    0    0  0.81316012295E+02  0.94981930420E+01  0.34570112456E+02  0.11968167121E+03  0.80162960406E+02 0.  0.
         25    2    1    2    0    0 -0.11069614786E+03 -0.22936252712E+02  0.27535418565E+03  0.32287378200E+03  0.12509133748E+03 0.  0.
         24    2    1    2    0    0  0.29380135561E+02  0.13438059670E+02  0.48315959569E+03  0.49099090571E+03  0.81148633776E+02 0.  0.
        -11    1    5    5    0    0  0.18182152469E+02 -0.33063474734E+02  0.16524731211E+03  0.16950061413E+03  0.00000000000E+00 0.  1.
         12    1    5    5    0    0  0.11197983092E+02  0.46501534404E+02  0.31791228358E+03  0.32149029158E+03  0.00000000000E+00 0. -1.
         13    1    3    3    0    0 -0.98199255129E+01  0.15907584878E+02 -0.61176939726E+01  0.19669986611E+02  0.00000000000E+00 0. -1.
        -14    1    3    3    0    0  0.91135937808E+02 -0.64093918355E+01  0.40687806429E+02  0.10001168460E+03  0.00000000000E+00 0.  1.
          5    1    4    4  501    0 -0.67158125730E+02 -0.30934561180E+02  0.41628292552E+02  0.84956153796E+02  0.41800000000E+01 0. -1.
         -5    1    4    4    0  501 -0.43538022127E+02  0.79983084677E+01  0.23372589310E+03  0.23791762821E+03  0.41800000000E+01 0. -1.
</event>
<event>
11    1  0.8037748E-009  0.1827445E+03  0.7561462E-02  0.1067444E+00
         22   -1    0    0    0    0  0.00000000000E+00  0.00000000000E+00  0.28966137472E+03  0.28966137472E+03  0.00000000000E+00 0.  1.
         22   -1    0    0    0    0 -0.00000000000E+00 -0.00000000000E+00 -0.62823517590E+03  0.62823517590E+03  0.00000000000E+00 0. -1.
        -24    2    1    2    0    0 -0.34413056044E+01 -0.21158319383E+02 -0.51377057248E+03  0.52078070488E+03  0.82418592320E+02 0.  0.
         25    2    1    2    0    0 -0.11870254605E+03 -0.40966453487E+02  0.25933958521E+02  0.17913235879E+03  0.12508911628E+03 0.  0.
         24    2    1    2    0    0  0.12214385166E+03  0.62124772870E+02  0.14926281278E+03  0.21798348695E+03  0.80366693375E+02 0.  0.
        -13    1    5    5    0    0  0.95494735027E+02  0.77122372059E+02  0.93192859813E+02  0.15411688360E+03  0.00000000000E+00 0.  1.
         14    1    5    5    0    0  0.26649116628E+02 -0.14997599189E+02  0.56069952966E+02  0.63866603355E+02  0.00000000000E+00 0. -1.
         13    1    3    3    0    0  0.97789767163E+00  0.77405031027E+01 -0.45569619125E+03  0.45576297611E+03  0.00000000000E+00 0. -1.
        -14    1    3    3    0    0 -0.44192032761E+01 -0.28898822485E+02 -0.58074381235E+02  0.65017728771E+02  0.00000000000E+00 0.  1.
          5    1    4    4  501    0 -0.13257536603E+03 -0.66018079742E+02  0.24343446601E+02  0.15014889384E+03  0.41800000000E+01 0. -1.
         -5    1    4    4    0  501  0.13872819977E+02  0.25051626255E+02  0.15905119205E+01  0.28983464946E+02  0.41800000000E+01 0. -1.
</event>
<event>
11    1  0.8037748E-009  0.1314230E+03  0.7561462E-02  0.1117533E+00
         22   -1    0    0    0    0  0.00000000000E+00  0.00000000000E+00  0.30306019431E+03  0.30306019431E+03  0.00000000000E+00 0. -1.
         22   -1    0    0    0    0 -0.00000000000E+00 -0.00000000000E+00 -0.72643970940E+03  0.72643970940E+03  0.00000000000E+00 0.  1.
        -24    2    1    2    0    0 -0.68002717918E+01  0.30351826460E+02 -0.67276577859E+03  0.67821358165E+03  0.79952438541E+02 0.  0.
         25    2    1    2    0    0  0.16173344222E+02  0.14539046625E+02  0.57866557136E+02  0.13952849485E+03  0.12508677588E+03 0.  0.
         24    2    1    2    0    0 -0.93730724299E+01 -0.44890873085E+02  0.19151970636E+03  0.21175782721E+03  0.77836588360E+02 0.  0.
        -13    1    5    5    0    0  0.18679913214E+02 -0.24789587107E+01  0.65875160435E+01  0.19961957860E+02  0.00000000000E+00 0.  1.
         14    1    5    5    0    0 -0.28052985644E+02 -0.42411914375E+02  0.18493219032E+03  0.19179586935E+03  0.00000000000E+00 0. -1.
         13    1    3    3    0    0  0.28237460461E+02  0.17501620750E+02 -0.13039864596E+03  0.13456399136E+03  0.00000000000E+00 0. -1.
        -14    1    3    3    0    0 -0.35037732253E+02  0.12850205711E+02 -0.54236713263E+03  0.54364959029E+03  0.00000000000E+00 0.  1.
          5    1    4    4  501    0 -0.16268157063E+02 -0.27674862840E+02  0.76419695281E+02  0.82993934683E+02  0.41800000000E+01 0.  1.
         -5    1    4    4    0  501  0.32441501284E+02  0.42213909466E+02 -0.18553138145E+02  0.56534560164E+02  0.41800000000E+01 0.  1.
</event>
<event>
11    1  0.8037748E-009  0.2185679E+03  0.7561462E-02  0.1042118E+00
         22   -1    0    0    0    0  0.00000000000E+00  0.00000000000E+00  0.26143868552E+03  0.26143868552E+03  0.00000000000E+00 0. -1.
         22   -1    0    0    0    0 -0.00000000000E+00 -0.00000000000E+00 -0.44905761876E+03  0.44905761876E+03  0.00000000000E+00 0.  1.
         24    2    1    2    0    0  0.18770263973E+03 -0.16284751552E+02 -0.27955304050E+03  0.34632430656E+03  0.79329368846E+02 0.  0.
         25    2    1    2    0    0 -0.15624456107E+03  0.13408025257E+02 -0.41715775431E+02  0.20488807391E+03  0.12508708530E+03 0.  0.
        -24    2    1    2    0    0 -0.31458078667E+02  0.28767262950E+01  0.13364988269E+03  0.15928392381E+03  0.80691951112E+02 0.  0.
        -13    1    3    3    0    0  0.78458450124E+02  0.32155496276E+02 -0.10989693584E+03  0.13880576660E+03  0.00000000000E+00 0.  1.
         14    1    3    3    0    0  0.10924418961E+03 -0.48440247828E+02 -0.16965610467E+03  0.20751853995E+03  0.00000000000E+00 0. -1.
         13    1    5    5    0    0  0.14884968820E+02  0.19093778377E+02  0.91264370967E+02  0.94420972657E+02  0.00000000000E+00 0. -1.
        -14    1    5    5    0    0 -0.46343047487E+02 -0.16217052082E+02  0.42385511725E+02  0.64862951157E+02  0.00000000000E+00 0.  1.
          5    1    4    4  501    0 -0.11547774786E+03 -0.33165550265E+01 -0.84606312875E+02  0.14325435549E+03  0.41800000000E+01 0. -1.
         -5    1    4    4    0  501 -0.40766813211E+02  0.16724580284E+02  0.42890537444E+02  0.61633718428E+02  0.41800000000E+01 0. -1.
</event>
<event>
11    1  0.1514180E-008  0.1945909E+03  0.7561462E-02  0.1058416E+00
         22   -1    0    0    0    0  0.00000000000E+00  0.00000000000E+00  0.55335987737E+03  0.55335987737E+03  0.00000000000E+00 0. -1.
         22   -1    0    0    0    0 -0.00000000000E+00 -0.00000000000E+00 -0.10700816377E+04  0.10700816377E+04  0.00000000000E+00 0. -1.
        -24    2    1    2    0    0 -0.10519473151E+03  0.40844872431E+02 -0.66916379710E+03  0.68354796820E+03  0.81996355687E+02 0.  0.
         25    2    1    2    0    0  0.23341225915E+03  0.29948393638E+02 -0.33302405985E+03  0.42653336501E+03  0.12508995972E+03 0.  0.
         24    2    1    2    0    0 -0.12821752764E+03 -0.70793266069E+02  0.48546609662E+03  0.51336018185E+03  0.80062003668E+02 0.  0.
        -11    1    5    5    0    0 -0.10317058533E+03 -0.74997659521E+02  0.46014876950E+03  0.47749943317E+03  0.00000000000E+00 0.  1.
         12    1    5    5    0    0 -0.25046942309E+02  0.42043934516E+01  0.25317327122E+02  0.35860748681E+02  0.00000000000E+00 0. -1.
         11    1    3    3    0    0 -0.49727070256E+01 -0.18404761632E+02 -0.16594112591E+03  0.16703269241E+03  0.00000000000E+00 0. -1.
        -12    1    3    3    0    0 -0.10022202448E+03  0.59249634063E+02 -0.50322267119E+03  0.51651527580E+03  0.00000000000E+00 0.  1.
          5    1    4    4  501    0  0.83687176749E+02 -0.83730034543E+01 -0.35800803874E+02  0.91503118511E+02  0.41800000000E+01 0. -1.
         -5    1    4    4    0  501  0.14972508240E+03  0.38321397093E+02 -0.29722325598E+03  0.33503024650E+03  0.41800000000E+01 0. -1.
</event>
<event>
11    1  0.8037748E-009  0.1687689E+03  0.7561462E-02  0.1079108E+00
         22   -1    0    0    0    0  0.00000000000E+00  0.00000000000E+00  0.35274730984E+03  0.35274730984E+03  0.00000000000E+00 0.  1.
         22   -1    0    0    0    0 -0.00000000000E+00 -0.00000000000E+00 -0.30170791484E+03  0.30170791484E+03  0.00000000000E+00 0.  1.
         24    2    1    2    0    0  0.84654432471E+02  0.12148836756E+02 -0.11052936971E+03  0.16161515752E+03  0.81171118024E+02 0.  0.
         25    2    1    2    0    0 -0.16107796267E+03  0.63368528254E+02 -0.70419759351E+02  0.22487298964E+03  0.12508892249E+03 0.  0.
        -24    2    1    2    0    0  0.76423530201E+02 -0.75517365010E+02  0.23198852406E+03  0.26796707753E+03  0.80276092054E+02 0.  0.
        -11    1    3    3    0    0  0.78470540568E+02 -0.17349442093E+02 -0.10282745803E+03  0.13050714541E+03  0.00000000000E+00 0.  1.
         12    1    3    3    0    0  0.61838919029E+01  0.29498278849E+02 -0.77019116790E+01  0.31108012113E+02  0.00000000000E+00 0. -1.
         11    1    5    5    0    0  0.13176312174E+02 -0.55682650795E+02  0.16089344487E+03  0.17076555099E+03  0.00000000000E+00 0. -1.
        -12    1    5    5    0    0  0.63247218028E+02 -0.19834714216E+02  0.71095079191E+02  0.97201526538E+02  0.00000000000E+00 0.  1.
          5    1    4    4  501    0 -0.15627258890E+03  0.32026590790E+02 -0.14216964161E+02  0.16020742501E+03  0.41800000000E+01 0.  1.
         -5    1    4    4    0  501 -0.48053737721E+01  0.31341937464E+02 -0.56202795190E+02  0.64665564625E+02  0.41800000000E+01 0.  1.
</event>
<event>
11    1  0.8037748E-009  0.1381470E+03  0.7561462E-02  0.1109645E+00
         22   -1    0    0    0    0  0.00000000000E+00  0.00000000000E+00  0.72918088331E+03  0.72918088331E+03  0.00000000000E+00 0. -1.
         22   -1    0    0    0    0 -0.00000000000E+00 -0.00000000000E+00 -0.10897411634E+04  0.10897411634E+04  0.00000000000E+00 0.  1.
        -24    2    1    2    0    0 -0.26014293226E+02  0.28096363793E+02 -0.81074709094E+03  0.81648436473E+03  0.88711460763E+02 0.  0.
         25    2    1    2    0    0  0.72662735916E+01  0.28032526748E+02 -0.25674557431E+03  0.28705815815E+03  0.12508187296E+03 0.  0.
         24    2    1    2    0    0  0.18748019634E+02 -0.56128890541E+02  0.70693238514E+03  0.71537952385E+03  0.92263347994E+02 0.  0.
        -11    1    5    5    0    0 -0.10428725049E+02 -0.40024513734E+02  0.11002309348E+03  0.11754063597E+03  0.00000000000E+00 0.  1.
         12    1    5    5    0    0  0.29176744683E+02 -0.16104376807E+02  0.59690929166E+03  0.59783888788E+03  0.00000000000E+00 0. -1.
         11    1    3    3    0    0 -0.39090279615E+02  0.27712234365E+00 -0.14959913327E+03  0.15462220873E+03  0.00000000000E+00 0. -1.
        -12    1    3    3    0    0  0.13075986390E+02  0.27819241450E+02 -0.66114795767E+03  0.66186215600E+03  0.00000000000E+00 0.  1.
          5    1    4    4  501    0  0.29828584015E+01  0.73485828899E+02 -0.10306051117E+03  0.12668072409E+03  0.41800000000E+01 0.  1.
         -5    1    4    4    0  501  0.42834151901E+01 -0.45453302151E+02 -0.15368506314E+03  0.16037743406E+03  0.41800000000E+01 0.  1.
</event>
<event>
11    1  0.8037748E-009  0.2252532E+03  0.7561462E-02  0.1037976E+00
         22   -1    0    0    0    0  0.00000000000E+00  0.00000000000E+00  0.11182061917E+03  0.11182061917E+03  0.00000000000E+00 0. -1.
         22   -1    0    0    0    0 -0.00000000000E+00 -0.00000000000E+00 -0.18033333182E+04  0.18033333182E+04  0.00000000000E+00 0. -1.
         24    2    1    2    0    0 -0.14212554101E+03  0.11183477537E+03 -0.13645877477E+04  0.13788078328E+04  0.79401712795E+02 0.  0.
         25    2    1    2    0    0  0.17277454214E+03 -0.14451657515E+03 -0.35803095260E+03  0.44110075007E+03  0.12509047041E+03 0.  0.
        -24    2    1    2    0    0 -0.30649001123E+02  0.32681799786E+02  0.31106001350E+02  0.95245354502E+02  0.78080938309E+02 0.  0.
        -13    1    3    3    0    0 -0.24962804949E+02  0.15234258723E+02 -0.50970938048E+03  0.51054762444E+03  0.00000000000E+00 0.  1.
         14    1    3    3    0    0 -0.11716273606E+03  0.96600516644E+02 -0.85487836726E+03  0.86826020832E+03  0.00000000000E+00 0. -1.
         13    1    5    5    0    0 -0.42138968004E+02  0.13109577314E+02  0.49293104194E+02  0.66161648732E+02  0.00000000000E+00 0. -1.
        -14    1    5    5    0    0  0.11489966881E+02  0.19572222472E+02 -0.18187102845E+02  0.29083705770E+02  0.00000000000E+00 0.  1.
          5    1    4    4  501    0  0.17591215107E+03 -0.16209231192E+03 -0.32976435780E+03  0.40740766629E+03  0.41800000000E+01 0. -1.
         -5    1    4    4    0  501 -0.31376089289E+01  0.17575736771E+02 -0.28266594802E+02  0.33693083779E+02  0.41800000000E+01 0. -1.
</event>
<event>
11    1  0.8037748E-009  0.1467934E+03  0.7561462E-02  0.1100201E+00
         22   -1    0    0    0    0  0.00000000000E+00  0.00000000000E+00  0.10243179556E+04  0.10243179556E+04  0.00000000000E+00 0. -1.
         22   -1    0    0    0    0 -0.00000000000E+00 -0.00000000000E+00 -0.35636226176E+03  0.35636226176E+03  0.00000000000E+00 0. -1.
        -24    2    1    2    0    0  0.52319888821E+02  0.17939875911E+02 -0.29552682421E+03  0.31068151441E+03  0.78279560916E+02 0.  0.
         25    2    1    2    0    0  0.23172158544E+02 -0.43096770937E+02  0.40521479032E+02  0.14029677329E+03  0.12508762423E+03 0.  0.
         24    2    1    2    0    0 -0.75492047366E+02  0.25156895026E+02  0.92296103897E+03  0.92970192963E+03  0.78464513723E+02 0.  0.
        -13    1    5    5    0    0  0.10476860956E+02 -0.93668724838E+01  0.24992571765E+03  0.25032052904E+03  0.00000000000E+00 0.  1.
         14    1    5    5    0    0 -0.85968908322E+02  0.34523767510E+02  0.67303532132E+03  0.67938140059E+03  0.00000000000E+00 0. -1.
         11    1    3    3    0    0  0.36889307817E+02  0.36395100972E+02 -0.27249053994E+03  0.27737432968E+03  0.00000000000E+00 0. -1.
        -12    1    3    3    0    0  0.15430581005E+02 -0.18455225061E+02 -0.23036284264E+02  0.33307184734E+02  0.00000000000E+00 0.  1.
          5    1    4    4  501    0  0.40703653553E+02 -0.34356107271E+02 -0.33867434935E+02  0.63258241110E+02  0.41800000000E+01 0.  1.
         -5    1    4    4    0  501 -0.17531495008E+02 -0.87406636664E+01  0.74388913966E+02  0.77038532175E+02  0.41800000000E+01 0.  1.
</event>
<event>
11    1  0.8037748E-009  0.4063456E+03  0.7561462E-02  0.9631218E-01
         22   -1    0    0    0    0  0.00000000000E+00  0.00000000000E+00  0.13237907172E+04  0.13237907172E+04  0.00000000000E+00 0. -1.
         22   -1    0    0    0    0 -0.00000000000E+00 -0.00000000000E+00 -0.10247624431E+03  0.10247624431E+03  0.00000000000E+00 0.  1.
        -24    2    1    2    0    0 -0.30925029165E+03  0.55087245325E+02  0.45036409106E+03  0.55478474697E+03  0.79296617001E+02 0.  0.
         25    2    1    2    0    0  0.10015275433E+03 -0.80592612056E+02  0.30750692390E+03  0.35599681591E+03  0.12508989317E+03 0.  0.
         24    2    1    2    0    0  0.20909753732E+03  0.25505366731E+02  0.46344345788E+03  0.51548539859E+03  0.81074371211E+02 0.  0.
        -13    1    5    5    0    0 -0.70095576272E+01  0.48366591010E+01  0.14735930060E+02  0.17019835608E+02  0.00000000000E+00 0.  1.
         14    1    5    5    0    0  0.21610709494E+03  0.20668707630E+02  0.44870752782E+03  0.49846556298E+03  0.00000000000E+00 0. -1.
         13    1    3    3    0    0 -0.58517409896E+02 -0.12110680341E+02  0.51481414569E+02  0.78875166468E+02  0.00000000000E+00 0. -1.
        -14    1    3    3    0    0 -0.25073288175E+03  0.67197925666E+02  0.39888267649E+03  0.47590958050E+03  0.00000000000E+00 0.  1.
          5    1    4    4  501    0  0.61435724612E+02 -0.11055417836E+03  0.25113955928E+03  0.28122077670E+03  0.41800000000E+01 0. -1.
         -5    1    4    4    0  501  0.38717029721E+02  0.29961566307E+02  0.56367364624E+02  0.74776039214E+02  0.41800000000E+01 0. -1.
</event>
<event>
11    1  0.8037748E-009  0.2808364E+03  0.7561462E-02  0.1008644E+00
         22   -1    0    0    0    0  0.00000000000E+00  0.00000000000E+00  0.12241377754E+04  0.12241377754E+04  0.00000000000E+00 0. -1.
         22   -1    0    0    0    0 -0.00000000000E+00 -0.00000000000E+00 -0.69638217113E+03  0.69638217113E+03  0.00000000000E+00 0. -1.
        -24    2    1    2    0    0  0.52308293075E+02 -0.39303260871E+02 -0.58563958272E+03  0.59741850435E+03  0.98256015871E+02 0.  0.
         25    2    1    2    0    0  0.86862204198E+02 -0.18235593729E+03  0.74792621400E+02  0.24907917846E+03  0.12509104901E+03 0.  0.
         24    2    1    2    0    0 -0.13917049727E+03  0.22165919816E+03  0.10386025656E+04  0.10740222637E+04  0.79544366782E+02 0.  0.
        -11    1    5    5    0    0 -0.45284014052E+01  0.47583801290E+02  0.11449273713E+03  0.12406978448E+03  0.00000000000E+00 0.  1.
         12    1    5    5    0    0 -0.13464209587E+03  0.17407539687E+03  0.92410982843E+03  0.94995247922E+03  0.00000000000E+00 0. -1.
         11    1    3    3    0    0  0.23149396611E+01 -0.20465058041E+02 -0.46526851850E+03  0.46572413707E+03  0.00000000000E+00 0. -1.
        -12    1    3    3    0    0  0.49993353414E+02 -0.18838202830E+02 -0.12037106422E+03  0.13169436728E+03  0.00000000000E+00 0.  1.
          5    1    4    4  501    0  0.20852492645E+02 -0.83808472066E+02 -0.29217343073E+02  0.91267803610E+02  0.41800000000E+01 0. -1.
         -5    1    4    4    0  501  0.66009711553E+02 -0.98547465222E+02  0.10400996447E+03  0.15781137485E+03  0.41800000000E+01 0. -1.
</event>
<event>
11    1  0.8037748E-009  0.1430149E+03  0.7561462E-02  0.1104238E+00
         22   -1    0    0    0    0  0.00000000000E+00  0.00000000000E+00  0.21752945019E+03  0.21752945019E+03  0.00000000000E+00 0. -1.
         22   -1    0    0    0    0 -0.00000000000E+00 -0.00000000000E+00 -0.56647644116E+03  0.56647644116E+03  0.00000000000E+00 0. -1.
        -24    2    1    2    0    0  0.40486692294E+02  0.54394749305E+02 -0.46942628078E+03  0.48120722908E+03  0.81249019852E+02 0.  0.
         25    2    1    2    0    0 -0.73552462194E+02 -0.56755842857E+02  0.26992435987E+01  0.15583823802E+03  0.12508828929E+03 0.  0.
         24    2    1    2    0    0  0.33065769900E+02  0.23610935517E+01  0.11778004621E+03  0.14696042425E+03  0.81402132095E+02 0.  0.
        -11    1    5    5    0    0  0.14417406549E+02 -0.33840927850E+02  0.21946790789E+02  0.42833767465E+02  0.00000000000E+00 0.  1.
         12    1    5    5    0    0  0.18648363351E+02  0.36202021402E+02  0.95833255421E+02  0.10412665679E+03  0.00000000000E+00 0. -1.
         13    1    3    3    0    0  0.30270277430E+02  0.38707247892E+02 -0.45480871211E+03  0.45745546815E+03  0.00000000000E+00 0. -1.
        -14    1    3    3    0    0  0.10216414864E+02  0.15687501413E+02 -0.14617568678E+02  0.23751760931E+02  0.00000000000E+00 0.  1.
          5    1    4    4  501    0  0.19428552047E+02 -0.27141130432E+02 -0.37357266150E+02  0.50270740297E+02  0.41800000000E+01 0.  1.
         -5    1    4    4    0  501 -0.92981014241E+02 -0.29614712425E+02  0.40056509749E+02  0.10556749772E+03  0.41800000000E+01 0.  1.
</event>
<event>
11    1  0.8037748E-009  0.1621896E+03  0.7561462E-02  0.1085036E+00
         22   -1    0    0    0    0  0.00000000000E+00  0.00000000000E+00  0.11618310391E+03  0.11618310391E+03  0.00000000000E+00 0. -1.
         22   -1    0    0    0    0 -0.00000000000E+00 -0.00000000000E+00 -0.19776668983E+04  0.19776668983E+04  0.00000000000E+00 0.  1.
        -24    2    1    2    0    0  0.41349277143E+01 -0.60135307327E+01 -0.12470288493E+04  0.12498009633E+04  0.82874826125E+02 0.  0.
         25    2    1    2    0    0 -0.29424894599E+02 -0.94360257603E+02 -0.67794289725E+03  0.69643709986E+03  0.12509348302E+03 0.  0.
         24    2    1    2    0    0  0.25289966885E+02  0.10037378834E+03  0.63487952177E+02  0.14761193899E+03  0.83929045339E+02 0.  0.
        -11    1    5    5    0    0 -0.12366180686E+01  0.78751256751E+02  0.38532273282E+01  0.78855164859E+02  0.00000000000E+00 0.  1.
         12    1    5    5    0    0  0.26526584953E+02  0.21622531584E+02  0.59634724849E+02  0.68756774133E+02  0.00000000000E+00 0. -1.
         13    1    3    3    0    0  0.35106837157E+02  0.55147024416E+00 -0.27181428236E+03  0.27407261488E+03  0.00000000000E+00 0. -1.
        -14    1    3    3    0    0 -0.30971909443E+02 -0.65650009768E+01 -0.97521456691E+03  0.97572834843E+03  0.00000000000E+00 0.  1.
          5    1    4    4  501    0 -0.20787556180E+02 -0.21254072118E+02 -0.24232697062E+02  0.38581784309E+02  0.41800000000E+01 0. -1.
         -5    1    4    4    0  501 -0.86373384191E+01 -0.73106185485E+02 -0.65371020019E+03  0.65785531555E+03  0.41800000000E+01 0. -1.
</event>
<event>
11    1  0.8037748E-009  0.1432807E+03  0.7561462E-02  0.1103949E+00
         22   -1    0    0    0    0  0.00000000000E+00  0.00000000000E+00  0.21711786804E+03  0.21711786804E+03  0.00000000000E+00 0. -1.
         22   -1    0    0    0    0 -0.00000000000E+00 -0.00000000000E+00 -0.14775283216E+04  0.14775283216E+04  0.00000000000E+00 0. -1.
         24    2    1    2    0    0  0.43301776124E+02 -0.12390007461E+02 -0.13653950601E+04  0.13684872383E+04  0.80156690475E+02 0.  0.
         25    2    1    2    0    0  0.32118962853E+02  0.14776176427E+02 -0.51718048453E+02  0.13995480256E+03  0.12515041774E+03 0.  0.
        -24    2    1    2    0    0 -0.75420738977E+02 -0.23861689652E+01  0.15670265506E+03  0.18620414875E+03  0.66500234878E+02 0.  0.
        -13    1    3    3    0    0  0.32507015397E+02 -0.36474725248E+02 -0.43798315432E+03  0.44069984694E+03  0.00000000000E+00 0.  1.
         14    1    3    3    0    0  0.10794760726E+02  0.24084717787E+02 -0.92741190582E+03  0.92778739135E+03  0.00000000000E+00 0. -1.
         11    1    5    5    0    0 -0.83854771153E+02  0.49633891530E+01  0.15277848253E+03  0.17434885317E+03  0.00000000000E+00 0. -1.
        -12    1    5    5    0    0  0.84340321762E+01 -0.73495581182E+01  0.39241725299E+01  0.11855295582E+02  0.00000000000E+00 0.  1.
          5    1    4    4  501    0 -0.43497748265E+02  0.20275532144E+02 -0.41023855558E+02  0.63273852678E+02  0.41800000000E+01 0. -1.
         -5    1    4    4    0  501  0.75616711118E+02 -0.54993557177E+01 -0.10694192895E+02  0.76680949885E+02  0.41800000000E+01 0. -1.
</event>
<event>
11    1  0.8037748E-009  0.1264937E+03  0.7561462E-02  0.1123654E+00
         22   -1    0    0    0    0  0.00000000000E+00  0.00000000000E+00  0.44320943108E+03  0.44320943108E+03  0.00000000000E+00 0. -1.
         22   -1    0    0    0    0 -0.00000000000E+00 -0.00000000000E+00 -0.36777278847E+03  0.36777278847E+03  0.00000000000E+00 0.  1.
         24    2    1    2    0    0  0.10927976301E+02 -0.61442239833E+01 -0.23685910494E+03  0.25040393673E+03  0.80266579475E+02 0.  0.
         25    2    1    2    0    0 -0.16832928147E+02  0.23658348218E+02 -0.85598153505E+02  0.15432886192E+03  0.12508912354E+03 0.  0.
        -24    2    1    2    0    0  0.59049518459E+01 -0.17514124234E+02  0.39789390106E+03  0.40624942091E+03  0.79858765869E+02 0.  0.
        -11    1    3    3    0    0  0.10024478700E+02 -0.43060934528E+02 -0.12286297983E+03  0.13057582498E+03  0.00000000000E+00 0.  1.
         12    1    3    3    0    0  0.90349760119E+00  0.36916710545E+02 -0.11399612511E+03  0.11982811175E+03  0.00000000000E+00 0. -1.
         13    1    5    5    0    0  0.35465676727E+02 -0.32912856339E+02  0.25107916380E+03  0.25569868367E+03  0.00000000000E+00 0. -1.
        -14    1    5    5    0    0 -0.29560724882E+02  0.15398732105E+02  0.14681473726E+03  0.15055073724E+03  0.00000000000E+00 0.  1.
          5    1    4    4  501    0 -0.38473507935E+02  0.32256888339E+02  0.13733393726E+02  0.52218733816E+02  0.41800000000E+01 0. -1.
         -5    1    4    4    0  501  0.21640579788E+02 -0.85985401208E+01 -0.99331547231E+02  0.10211012810E+03  0.41800000000E+01 0. -1.
</event>
<event>
11    1  0.8037748E-009  0.2517954E+03  0.7561462E-02  0.1022947E+00
         22   -1    0    0    0    0  0.00000000000E+00  0.00000000000E+00  0.10380575143E+04  0.10380575143E+04  0.00000000000E+00 0.  1.
         22   -1    0    0    0    0 -0.00000000000E+00 -0.00000000000E+00 -0.27672825323E+03  0.27672825323E+03  0.00000000000E+00 0. -1.
        -24    2    1    2    0    0 -0.71846830622E+01 -0.72950114757E+02 -0.16484362077E+03  0.19769584478E+03  0.80851028570E+02 0.  0.
         25    2    1    2    0    0 -0.64137689064E+02  0.26695151249E+03  0.21161017440E+03  0.36851382391E+03  0.12508724685E+03 0.  0.
         24    2    1    2    0    0  0.71322372126E+02 -0.19400139774E+03  0.71456270749E+03  0.74857609887E+03  0.83921926675E+02 0.  0.
        -13    1    5    5    0    0  0.69480022919E+02 -0.18767694335E+03  0.57450312209E+03  0.60836169006E+03  0.00000000000E+00 0.  1.
         14    1    5    5    0    0  0.18423492071E+01 -0.63244543865E+01  0.14005958540E+03  0.14021440881E+03  0.00000000000E+00 0. -1.
         11    1    3    3    0    0 -0.66377319653E+01 -0.79878615796E+02 -0.82379134838E+02  0.11493900384E+03  0.00000000000E+00 0. -1.
        -12    1    3    3    0    0 -0.54695109684E+00  0.69285010389E+01 -0.82464485935E+02  0.82756840942E+02  0.00000000000E+00 0.  1.
          5    1    4    4  501    0 -0.72371362073E+01  0.56490703587E+02 -0.95886813927E+01  0.57905016562E+02  0.41800000000E+01 0. -1.
         -5    1    4    4    0  501 -0.56900552857E+02  0.21046080891E+03  0.22119885579E+03  0.31060880735E+03  0.41800000000E+01 0. -1.
</event>
<event>
11    1  0.8037748E-009  0.1348456E+03  0.7561462E-02  0.1113455E+00
         22   -1    0    0    0    0  0.00000000000E+00  0.00000000000E+00  0.25139370039E+03  0.25139370039E+03  0.00000000000E+00 0.  1.
         22   -1    0    0    0    0 -0.00000000000E+00 -0.00000000000E+00 -0.88064697973E+03  0.88064697973E+03  0.00000000000E+00 0.  1.
        -24    2    1    2    0    0  0.22344061758E+02  0.43285591729E+02 -0.69583516992E+03  0.70220654453E+03  0.80836550747E+02 0.  0.
         25    2    1    2    0    0 -0.71226152237E+02 -0.38298628499E+02 -0.13746325162E+03  0.20269206376E+03  0.12509187606E+03 0.  0.
         24    2    1    2    0    0  0.48882090479E+02 -0.49869632296E+01  0.20404514220E+03  0.22714207182E+03  0.86860647956E+02 0.  0.
        -11    1    5    5    0    0 -0.15307517106E+02 -0.12662033034E+02  0.11722956075E+03  0.11890087079E+03  0.00000000000E+00 0.  1.
         12    1    5    5    0    0  0.64189607585E+02  0.76750698047E+01  0.86815581454E+02  0.10824120104E+03  0.00000000000E+00 0. -1.
         13    1    3    3    0    0 -0.96673114057E+01  0.50486568773E+02 -0.56446879380E+03  0.56680452513E+03  0.00000000000E+00 0. -1.
        -14    1    3    3    0    0  0.32011373164E+02 -0.72009770448E+01 -0.13136637612E+03  0.13540201940E+03  0.00000000000E+00 0.  1.
          5    1    4    4  501    0  0.79739664530E+01 -0.64675564694E+02 -0.63499567579E+02  0.91083370009E+02  0.41800000000E+01 0. -1.
         -5    1    4    4    0  501 -0.79200118690E+02  0.26376936195E+02 -0.73963684045E+02  0.11160869375E+03  0.41800000000E+01 0. -1.
</event>
<event>
11    1  0.8037748E-009  0.1528214E+03  0.7561462E-02  0.1094030E+00
         22   -1    0    0    0    0  0.00000000000E+00  0.00000000000E+00  0.26028687996E+03  0.26028687996E+03  0.00000000000E+00 0. -1.
         22   -1    0    0    0    0 -0.00000000000E+00 -0.00000000000E+00 -0.58427997609E+03  0.58427997609E+03  0.00000000000E+00 0.  1.
         24    2    1    2    0    0 -0.27278769088E+02  0.34656268465E+02 -0.40864261934E+03  0.41844502611E+03  0.78500072280E+02 0.  0.
         25    2    1    2    0    0 -0.58919790082E+02 -0.58199821118E+02 -0.11782901420E+03  0.19076161235E+03  0.12509018873E+03 0.  0.
        -24    2    1    2    0    0  0.86198559170E+02  0.23543552653E+02  0.20247853741E+03  0.23536021759E+03  0.80077359085E+02 0.  0.
        -13    1    3    3    0    0 -0.22993228344E+02  0.48192446175E+02 -0.39552991901E+03  0.39911792399E+03  0.00000000000E+00 0.  1.
         14    1    3    3    0    0 -0.42855407440E+01 -0.13536177709E+02 -0.13112700334E+02  0.19327102124E+02  0.00000000000E+00 0. -1.
         13    1    5    5    0    0  0.43909428236E+02 -0.27954037928E+02  0.71930575116E+02  0.88788928144E+02  0.00000000000E+00 0. -1.
        -14    1    5    5    0    0  0.42289130934E+02  0.51497590581E+02  0.13054796230E+03  0.14657128945E+03  0.00000000000E+00 0.  1.
          5    1    4    4  501    0 -0.70507016458E+02 -0.86083660251E+02 -0.11511430190E+03  0.16015745638E+03  0.41800000000E+01 0. -1.
         -5    1    4    4    0  501  0.11587226376E+02  0.27883839133E+02 -0.27147123073E+01  0.30604155973E+02  0.41800000000E+01 0. -1.
</event>
<event>
11    1  0.8037748E-009  0.1664114E+03  0.7561462E-02  0.1081197E+00
         22   -1    0    0    0    0  0.00000000000E+00  0.00000000000E+00  0.41344540764E+03  0.41344540764E+03  0.00000000000E+00 0.  1.
         22   -1    0    0    0    0 -0.00000000000E+00 -0.00000000000E+00 -0.66860909287E+03  0.66860909287E+03  0.00000000000E+00 0. -1.
         24    2    1    2    0    0  0.12243844065E+02 -0.39407047829E+02 -0.33947257616E+03  0.35133776057E+03  0.80583899737E+02 0.  0.
         25    2    1    2    0    0 -0.82100505480E+02  0.12221330959E+03 -0.28118659576E+03  0.34115895337E+03  0.12508774435E+03 0.  0.
        -24    2    1    2    0    0  0.69856661415E+02 -0.82806261763E+02  0.36549548670E+03  0.38955778658E+03  0.80196559489E+02 0.  0.
        -11    1    3    3    0    0 -0.21692933327E+02 -0.23469965818E+01 -0.22824557006E+03  0.22928613565E+03  0.00000000000E+00 0.  1.
         12    1    3    3    0    0  0.33936777391E+02 -0.37060051247E+02 -0.11122700611E+03  0.12205162492E+03  0.00000000000E+00 0. -1.
         13    1    5    5    0    0  0.11034157297E+02 -0.74027167993E+02  0.18735413405E+03  0.20175070204E+03  0.00000000000E+00 0. -1.
        -14    1    5    5    0    0  0.58822504119E+02 -0.87790937700E+01  0.17814135266E+03  0.18780708454E+03  0.00000000000E+00 0.  1.
          5    1    4    4  501    0  0.21196990972E+02  0.46880348326E+02 -0.14686609714E+03  0.15567338364E+03  0.41800000000E+01 0.  1.
         -5    1    4    4    0  501 -0.10329749645E+03  0.75332961266E+02 -0.13432049862E+03  0.18548556972E+03  0.41800000000E+01 0.  1.
</event>
<event>
11    1  0.8037748E-009  0.1807475E+03  0.7561462E-02  0.1069040E+00
         22   -1    0    0    0    0  0.00000000000E+00  0.00000000000E+00  0.22954848847E+03  0.22954848847E+03  0.00000000000E+00 0. -1.
         22   -1    0    0    0    0 -0.00000000000E+00 -0.00000000000E+00 -0.33271939298E+03  0.33271939298E+03  0.00000000000E+00 0.  1.
        -24    2    1    2    0    0 -0.11345845807E+03 -0.91383597577E+02 -0.21748839154E+03  0.27415438007E+03  0.81459438046E+02 0.  0.
         25    2    1    2    0    0  0.55900934818E+02  0.60853589716E+02  0.28524731714E+02  0.15260590099E+03  0.12508727675E+03 0.  0.
         24    2    1    2    0    0  0.57557523248E+02  0.30530007861E+02  0.85792755314E+02  0.13550760039E+03  0.82200748390E+02 0.  0.
        -11    1    5    5    0    0  0.13903070592E+02 -0.15215065895E+02 -0.82359207783E+01  0.22195134447E+02  0.00000000000E+00 0.  1.
         12    1    5    5    0    0  0.43654452656E+02  0.45745073756E+02  0.94028676093E+02  0.11331246594E+03  0.00000000000E+00 0. -1.
         13    1    3    3    0    0 -0.27805526697E+02 -0.40630769130E+02 -0.20295605533E+02  0.53253340918E+02  0.00000000000E+00 0. -1.
        -14    1    3    3    0    0 -0.85652931369E+02 -0.50752828447E+02 -0.19719278601E+03  0.22090103916E+03  0.00000000000E+00 0.  1.
          5    1    4    4  501    0  0.12391355872E+02  0.92173352223E+02  0.32697968325E+02  0.98671688407E+02  0.41800000000E+01 0. -1.
         -5    1    4    4    0  501  0.43509578946E+02 -0.31319762508E+02 -0.41732366108E+01  0.53934212587E+02  0.41800000000E+01 0. -1.
</event>
<event>
11    1  0.8037748E-009  0.1423904E+03  0.7561462E-02  0.1104918E+00
         22   -1    0    0    0    0  0.00000000000E+00  0.00000000000E+00  0.55655040787E+03  0.55655040787E+03  0.00000000000E+00 0. -1.
         22   -1    0    0    0    0 -0.00000000000E+00 -0.00000000000E+00 -0.63717378323E+03  0.63717378323E+03  0.00000000000E+00 0. -1.
        -24    2    1    2    0    0  0.42900220978E+02 -0.26078762241E+02 -0.60000143812E+03  0.60755778837E+03  0.81266288627E+02 0.  0.
         25    2    1    2    0    0  0.35330345831E+02  0.11562656911E+02  0.14465838329E+03  0.19482143321E+03  0.12508962631E+03 0.  0.
         24    2    1    2    0    0 -0.78230566809E+02  0.14516105330E+02  0.37471967947E+03  0.39134496951E+03  0.80033168649E+02 0.  0.
        -11    1    5    5    0    0 -0.70718011897E+02  0.44180426516E+01  0.14606234877E+03  0.16234151051E+03  0.00000000000E+00 0.  1.
         12    1    5    5    0    0 -0.75125549122E+01  0.10098062679E+02  0.22865733070E+03  0.22900345900E+03  0.00000000000E+00 0. -1.
         13    1    3    3    0    0  0.80843168628E+01 -0.32182526918E+01 -0.48776209725E+03  0.48783970405E+03  0.00000000000E+00 0. -1.
        -14    1    3    3    0    0  0.34815904115E+02 -0.22860509549E+02 -0.11223934087E+03  0.11971808433E+03  0.00000000000E+00 0.  1.
          5    1    4    4  501    0 -0.31596814505E+02 -0.29528335355E+02  0.20962437028E+02  0.48240827541E+02  0.41800000000E+01 0.  1.
         -5    1    4    4    0  501  0.66927160336E+02  0.41090992266E+02  0.12369594626E+03  0.14658060567E+03  0.41800000000E+01 0.  1.
</event>
<event>
11    1  0.8037748E-009  0.4990452E+03  0.7561462E-02  0.9395657E-01
         22   -1    0    0    0    0  0.00000000000E+00  0.00000000000E+00  0.10499859364E+04  0.10499859364E+04  0.00000000000E+00 0.  1.
         22   -1    0    0    0    0 -0.00000000000E+00 -0.00000000000E+00 -0.46169487492E+03  0.46169487492E+03  0.00000000000E+00 0.  1.
        -24    2    1    2    0    0  0.42307707947E+02  0.49412387175E+03 -0.20276795109E+03  0.54172741010E+03  0.80033755858E+02 0.  0.
         25    2    1    2    0    0 -0.58377381566E+02 -0.42249384539E+03  0.68939125792E+03  0.82025377189E+03  0.12508787207E+03 0.  0.
         24    2    1    2    0    0  0.16069673619E+02 -0.71630026361E+02  0.10166775468E+03  0.14969962936E+03  0.81759107149E+02 0.  0.
        -13    1    5    5    0    0 -0.20520044696E+02 -0.59188227569E+02  0.89377798055E+02  0.10914535859E+03  0.00000000000E+00 0.  1.
         14    1    5    5    0    0  0.36589718316E+02 -0.12441798792E+02  0.12289956626E+02  0.40554270767E+02  0.00000000000E+00 0. -1.
         11    1    3    3    0    0  0.61697770547E+01  0.13179948087E+03 -0.92980235037E+02  0.16141404342E+03  0.00000000000E+00 0. -1.
        -12    1    3    3    0    0  0.36137930892E+02  0.36232439088E+03 -0.10978771606E+03  0.38031336668E+03  0.00000000000E+00 0.  1.
          5    1    4    4  501    0 -0.81409931607E+02 -0.30724004561E+03  0.42357068571E+03  0.52957872010E+03  0.41800000000E+01 0.  1.
         -5    1    4    4    0  501  0.23032550041E+02 -0.11525379978E+03  0.26582057221E+03  0.29067505179E+03  0.41800000000E+01 0.  1.
</event>
<event>
11    1  0.8037748E-009  0.1364919E+03  0.7561462E-02  0.1111540E+00
         22   -1    0    0    0    0  0.00000000000E+00  0.00000000000E+00  0.45405893821E+03  0.45405893821E+03  0.00000000000E+00 0.  1.
         22   -1    0    0    0    0 -0.00000000000E+00 -0.00000000000E+00 -0.44797322387E+03  0.44797322387E+03  0.00000000000E+00 0. -1.
         24    2    1    2    0    0 -0.33961586481E+02  0.20584090264E+02 -0.39889033661E+03  0.40886831196E+03  0.80515226869E+02 0.  0.
         25    2    1    2    0    0 -0.11717446352E+02 -0.54314530730E+02  0.91021048966E+02  0.16438221046E+03  0.12509721406E+03 0.  0.
        -24    2    1    2    0    0  0.45679032833E+02  0.33730440466E+02  0.31395500197E+03  0.32878163966E+03  0.79405961090E+02 0.  0.
        -13    1    3    3    0    0  0.23138241197E+02 -0.91438896332E+01 -0.13197901148E+03  0.13430356807E+03  0.00000000000E+00 0.  1.
         14    1    3    3    0    0 -0.57099827678E+02  0.29727979897E+02 -0.26691132512E+03  0.27456474389E+03  0.00000000000E+00 0. -1.
         13    1    5    5    0    0  0.29923199806E+02 -0.57711487523E+00  0.30170311678E+02  0.42496807586E+02  0.00000000000E+00 0. -1.
        -14    1    5    5    0    0  0.15755833027E+02  0.34307555342E+02  0.28378469029E+03  0.28628483207E+03  0.00000000000E+00 0.  1.
          5    1    4    4  501    0  0.28088438304E+02 -0.38292901442E+02 -0.14961639812E+02  0.49966285964E+02  0.41800000000E+01 0. -1.
         -5    1    4    4    0  501 -0.39805884656E+02 -0.16021629289E+02  0.10598268878E+03  0.11441592450E+03  0.41800000000E+01 0. -1.
</event>
<event>
11    1  0.8037748E-009  0.1303184E+03  0.7561462E-02  0.1118878E+00
         22   -1    0    0    0    0  0.00000000000E+00  0.00000000000E+00  0.85599436053E+03  0.85599436053E+03  0.00000000000E+00 0. -1.
         22   -1    0    0    0    0 -0.00000000000E+00 -0.00000000000E+00 -0.25575136491E+04  0.25575136491E+04  0.00000000000E+00 0.  1.
        -24    2    1    2    0    0  0.16021060917E+02 -0.33068876653E+02 -0.25142707787E+04  0.25158320857E+04  0.80643100435E+02 0.  0.
         25    2    1    2    0    0 -0.13852351640E+02  0.59379767343E+01  0.58988319703E+02  0.13911849918E+03  0.12508871947E+03 0.  0.
         24    2    1    2    0    0 -0.21687092772E+01  0.27130899918E+02  0.75376317051E+03  0.75855742470E+03  0.80682466028E+02 0.  0.
        -11    1    5    5    0    0 -0.57292490284E+01 -0.73573837050E+01  0.89089659180E+01  0.12896707453E+02  0.00000000000E+00 0.  1.
         12    1    5    5    0    0  0.35605397513E+01  0.34488283623E+02  0.74485420459E+03  0.74566071725E+03  0.00000000000E+00 0. -1.
         11    1    3    3    0    0  0.23944336126E+02 -0.40915384960E+02 -0.73543474782E+03  0.73696110363E+03  0.00000000000E+00 0. -1.
        -12    1    3    3    0    0 -0.79232752091E+01  0.78465083070E+01 -0.17788360309E+04  0.17788709821E+04  0.00000000000E+00 0.  1.
          5    1    4    4  501    0 -0.62639135817E+02 -0.14413655805E+02  0.68869665656E+01  0.64778989789E+02  0.41800000000E+01 0.  1.
         -5    1    4    4    0  501  0.48786784177E+02  0.20351632540E+02  0.52101353137E+02  0.74339509389E+02  0.41800000000E+01 0.  1.
</event>
<event>
11    1  0.8037748E-009  0.1716871E+03  0.7561462E-02  0.1076573E+00
         22   -1    0    0    0    0  0.00000000000E+00  0.00000000000E+00  0.13022605312E+04  0.13022605312E+04  0.00000000000E+00 0.  1.
         22   -1    0    0    0    0 -0.00000000000E+00 -0.00000000000E+00 -0.74357989371E+03  0.74357989371E+03  0.00000000000E+00 0. -1.
         24    2    1    2    0    0  0.10036877326E+03 -0.65346399048E+02 -0.69109605199E+03  0.70574951620E+03  0.78259721556E+02 0.  0.
         25    2    1    2    0    0 -0.36067657971E+02  0.83282872073E+02  0.96802129345E+02  0.18236155580E+03  0.12509265388E+03 0.  0.
        -24    2    1    2    0    0 -0.64301115288E+02 -0.17936473025E+02  0.11529745602E+04  0.11577293529E+04  0.80811928419E+02 0.  0.
        -13    1    3    3    0    0  0.30325663839E+02 -0.19432542745E+02 -0.67076386922E+02  0.76134823092E+02  0.00000000000E+00 0.  1.
         14    1    3    3    0    0  0.70043109421E+02 -0.45913856303E+02 -0.62401966507E+03  0.62961469310E+03  0.00000000000E+00 0. -1.
         11    1    5    5    0    0  0.76875529836E+01  0.21363906742E+02  0.23015900453E+03  0.23127620359E+03  0.00000000000E+00 0. -1.
        -12    1    5    5    0    0 -0.71988668272E+02 -0.39300379767E+02  0.92281555564E+03  0.92645314935E+03  0.00000000000E+00 0.  1.
          5    1    4    4  501    0 -0.78735876970E+02  0.43182842536E+02  0.82330047728E+02  0.12190080135E+03  0.41800000000E+01 0. -1.
         -5    1    4    4    0  501  0.42668218999E+02  0.40100029537E+02  0.14472081617E+02  0.60460754442E+02  0.41800000000E+01 0. -1.
</event>
<event>
11    1  0.8037748E-009  0.1540536E+03  0.7561462E-02  0.1092807E+00
         22   -1    0    0    0    0  0.00000000000E+00  0.00000000000E+00  0.15384082575E+04  0.15384082575E+04  0.00000000000E+00 0.  1.
         22   -1    0    0    0    0 -0.00000000000E+00 -0.00000000000E+00 -0.41860971374E+03  0.41860971374E+03  0.00000000000E+00 0.  1.
         24    2    1    2    0    0  0.31746123817E+02 -0.58331227973E+02 -0.28779235229E+03  0.30618162758E+03  0.80699457829E+02 0.  0.
         25    2    1    2    0    0 -0.83622497151E+02  0.13010134966E+03 -0.36086586878E+02  0.20216405807E+03  0.12509588886E+03 0.  0.
        -24    2    1    2    0    0  0.51876373333E+02 -0.71770121688E+02  0.14436774829E+04  0.14486722855E+04  0.81268738373E+02 0.  0.
        -13    1    3    3    0    0  0.55716617890E+02 -0.53711730951E+02 -0.24480407033E+03  0.25674564145E+03  0.00000000000E+00 0.  1.
         14    1    3    3    0    0 -0.23970494073E+02 -0.46194970218E+01 -0.42988281963E+02  0.49435986133E+02  0.00000000000E+00 0. -1.
         11    1    5    5    0    0 -0.12717669125E+02 -0.50166463292E+02  0.57072413130E+03  0.57306583147E+03  0.00000000000E+00 0. -1.
        -12    1    5    5    0    0  0.64594042459E+02 -0.21603658396E+02  0.87295335158E+03  0.87560645407E+03  0.00000000000E+00 0.  1.
          5    1    4    4  501    0 -0.95427436280E+02  0.11376570564E+03 -0.68647376802E+02  0.16364280038E+03  0.41800000000E+01 0. -1.
         -5    1    4    4    0  501  0.11804939129E+02  0.16335644020E+02  0.32560789924E+02  0.38521257688E+02  0.41800000000E+01 0. -1.
</event>
<event>
11    1  0.8037748E-009  0.4568916E+03  0.7561462E-02  0.9495368E-01
         22   -1    0    0    0    0  0.00000000000E+00  0.00000000000E+00  0.28121706553E+03  0.28121706553E+03  0.00000000000E+00 0.  1.
         22   -1    0    0    0    0 -0.00000000000E+00 -0.00000000000E+00 -0.26867665563E+04  0.26867665563E+04  0.00000000000E+00 0.  1.
        -24    2    1    2    0    0  0.43726872120E+03 -0.44200721142E+02 -0.21555961093E+04  0.22014207599E+04  0.80629630819E+02 0.  0.
         25    2    1    2    0    0 -0.44102513834E+03 -0.56976123296E+00 -0.38798645512E+03  0.60057066049E+03  0.12509249225E+03 0.  0.
         24    2    1    2    0    0  0.37564171435E+01  0.44770482375E+02  0.13803307370E+03  0.16599220140E+03  0.80509469800E+02 0.  0.
        -11    1    5    5    0    0 -0.10028617827E+02  0.22537373584E+02  0.13763624308E+03  0.13982933095E+03  0.00000000000E+00 0.  1.
         12    1    5    5    0    0  0.13785034971E+02  0.22233108790E+02  0.39683061909E+00  0.26162870450E+02  0.00000000000E+00 0. -1.
         11    1    3    3    0    0  0.17036642474E+02 -0.13351060475E+02 -0.57668307257E+02  0.61596523153E+02  0.00000000000E+00 0. -1.
        -12    1    3    3    0    0  0.42023207872E+03 -0.30849660667E+02 -0.20979278021E+04  0.21398242368E+04  0.00000000000E+00 0.  1.
          5    1    4    4  501    0 -0.27527942816E+01 -0.76588923624E+01 -0.39588015484E+02  0.40631513367E+02  0.41800000000E+01 0. -1.
         -5    1    4    4    0  501 -0.43827234406E+03  0.70891311294E+01 -0.34839843963E+03  0.55993914713E+03  0.41800000000E+01 0. -1.
</event>
<event>
11    1  0.8037748E-009  0.1498023E+03  0.7561462E-02  0.1097081E+00
         22   -1    0    0    0    0  0.00000000000E+00  0.00000000000E+00  0.97005554793E+03  0.97005554793E+03  0.00000000000E+00 0.  1.
         22   -1    0    0    0    0 -0.00000000000E+00 -0.00000000000E+00 -0.15311145972E+03  0.15311145972E+03  0.00000000000E+00 0. -1.
        -24    2    1    2    0    0  0.29926727589E+02 -0.78695645638E+02 -0.10360587831E+03  0.15622005475E+03  0.81128994932E+02 0.  0.
         25    2    1    2    0    0  0.26708566981E+02  0.76354072737E+02  0.26474707385E+03  0.30377908605E+03  0.12508967996E+03 0.  0.
         24    2    1    2    0    0 -0.56635294569E+02  0.23415729007E+01  0.65580289267E+03  0.66316786685E+03  0.80629684606E+02 0.  0.
        -11    1    5    5    0    0 -0.24576363793E+02 -0.39045398817E+02  0.31998916066E+03  0.32329801077E+03  0.00000000000E+00 0.  1.
         12    1    5    5    0    0 -0.32058930777E+02  0.41386971718E+02  0.33581373201E+03  0.33986985608E+03  0.00000000000E+00 0. -1.
         13    1    3    3    0    0  0.28701635657E+02 -0.70423049081E+02 -0.29381172708E+02  0.81525720119E+02  0.00000000000E+00 0. -1.
        -14    1    3    3    0    0  0.12250919319E+01 -0.82725965565E+01 -0.74224705601E+02  0.74694334628E+02  0.00000000000E+00 0.  1.
          5    1    4    4  501    0  0.15522307593E+02  0.49412054402E+02  0.26902780890E+03  0.27399986773E+03  0.41800000000E+01 0.  1.
         -5    1    4    4    0  501  0.11186259388E+02  0.26942018334E+02 -0.42807350512E+01  0.29779218318E+02  0.41800000000E+01 0.  1.
</event>
<event>
11    1  0.8037748E-009  0.1455518E+03  0.7561462E-02  0.1101513E+00
         22   -1    0    0    0    0  0.00000000000E+00  0.00000000000E+00  0.55927963010E+03  0.55927963010E+03  0.00000000000E+00 0. -1.
         22   -1    0    0    0    0 -0.00000000000E+00 -0.00000000000E+00 -0.30529865663E+03  0.30529865663E+03  0.00000000000E+00 0.  1.
         24    2    1    2    0    0 -0.11262694730E+02 -0.76739050426E+02 -0.24321482586E+03  0.26995103634E+03  0.87774599667E+02 0.  0.
         25    2    1    2    0    0  0.48393580367E+00  0.50811908313E+02  0.57750325066E+02  0.14684758056E+03  0.12508807957E+03 0.  0.
        -24    2    1    2    0    0  0.10778758926E+02  0.25927142113E+02  0.43944547427E+03  0.44777966983E+03  0.81276746476E+02 0.  0.
        -11    1    3    3    0    0 -0.10038032313E+02 -0.32188411055E+02 -0.21404925007E+03  0.21668857228E+03  0.00000000000E+00 0.  1.
         12    1    3    3    0    0 -0.12246624172E+01 -0.44550639371E+02 -0.29165575790E+02  0.53262464059E+02  0.00000000000E+00 0. -1.
         11    1    5    5    0    0 -0.23081969912E+01  0.22991850231E+02  0.43164715853E+03  0.43226522231E+03  0.00000000000E+00 0. -1.
        -12    1    5    5    0    0  0.13086955917E+02  0.29352918824E+01  0.77983157397E+01  0.15514447525E+02  0.00000000000E+00 0.  1.
          5    1    4    4  501    0  0.21947119756E+01  0.12116206765E+02 -0.39765496905E+02  0.41837619091E+02  0.41800000000E+01 0. -1.
         -5    1    4    4    0  501 -0.17107761719E+01  0.38695701548E+02  0.97515821971E+02  0.10500996147E+03  0.41800000000E+01 0. -1.
</event>
<event>
11    1  0.8037748E-009  0.1607628E+03  0.7561462E-02  0.1086362E+00
         22   -1    0    0    0    0  0.00000000000E+00  0.00000000000E+00  0.19046951409E+03  0.19046951409E+03  0.00000000000E+00 0. -1.
         22   -1    0    0    0    0 -0.00000000000E+00 -0.00000000000E+00 -0.28278950153E+03  0.28278950153E+03  0.00000000000E+00 0. -1.
        -24    2    1    2    0    0 -0.39629042754E+02 -0.10595823309E+03 -0.16226985857E+03  0.21376415208E+03  0.81030843049E+02 0.  0.
         25    2    1    2    0    0  0.27626776177E+02  0.62332788635E+02 -0.29385778747E+01  0.14249160552E+03  0.12508639855E+03 0.  0.
         24    2    1    2    0    0  0.12002266576E+02  0.43625444456E+02  0.72888448999E+02  0.11700325803E+03  0.79560056463E+02 0.  0.
        -13    1    5    5    0    0  0.25895010908E+02  0.30940253134E+02  0.85371707131E+02  0.94425522145E+02  0.00000000000E+00 0.  1.
         14    1    5    5    0    0 -0.13892744332E+02  0.12685191322E+02 -0.12483258132E+02  0.22577735881E+02  0.00000000000E+00 0. -1.
         13    1    3    3    0    0 -0.15409033999E+02 -0.94180856609E+02 -0.71956493320E+02  0.11952074720E+03  0.00000000000E+00 0. -1.
        -14    1    3    3    0    0 -0.24220008754E+02 -0.11777376483E+02 -0.90313365247E+02  0.94243404879E+02  0.00000000000E+00 0.  1.
          5    1    4    4  501    0  0.73232496913E+02  0.49542124602E+02 -0.22090776549E+02  0.91229904761E+02  0.41800000000E+01 0. -1.
         -5    1    4    4    0  501 -0.45605720735E+02  0.12790664033E+02  0.19152198675E+02  0.51261700755E+02  0.41800000000E+01 0. -1.
</event>
<event>
11    1  0.8037748E-009  0.1695075E+03  0.7561462E-02  0.1078461E+00
         22   -1    0    0    0    0  0.00000000000E+00  0.00000000000E+00  0.47111229543E+02  0.47111229543E+02  0.00000000000E+00 0.  1.
         22   -1    0    0    0    0 -0.00000000000E+00 -0.00000000000E+00 -0.11855721885E+04  0.11855721885E+04  0.00000000000E+00 0.  1.
        -24    2    1    2    0    0 -0.53365175357E+02  0.11765666185E+03 -0.69483162318E+03  0.71130452240E+03  0.80450027957E+02 0.  0.
         25    2    1    2    0    0  0.39496365651E+02 -0.78317777892E+02 -0.37741820139E+03  0.40716773039E+03  0.12508966664E+03 0.  0.
         24    2    1    2    0    0  0.13868809706E+02 -0.39338883957E+02 -0.66211134351E+02  0.11421116521E+03  0.83188847052E+02 0.  0.
        -13    1    5    5    0    0 -0.79463146227E+01 -0.63149189073E+00  0.17616643129E+02  0.19336204727E+02  0.00000000000E+00 0.  1.
         14    1    5    5    0    0  0.21815124329E+02 -0.38707392066E+02 -0.83827777480E+02  0.94874960487E+02  0.00000000000E+00 0. -1.
         11    1    3    3    0    0 -0.93460010251E+01  0.16500967759E+02 -0.20177930491E+02  0.27690766531E+02  0.00000000000E+00 0. -1.
        -12    1    3    3    0    0 -0.44019174332E+02  0.10115569409E+03 -0.67465369269E+03  0.68361375587E+03  0.00000000000E+00 0.  1.
          5    1    4    4  501    0  0.14121786751E+02 -0.67139942488E+02 -0.68711822746E+02  0.97190450784E+02  0.41800000000E+01 0.  1.
         -5    1    4    4    0  501  0.25374578900E+02 -0.11177835404E+02 -0.30870637864E+03  0.30997727961E+03  0.41800000000E+01 0.  1.
</event>
<event>
11    1  0.8037748E-009  0.1574666E+03  0.7561462E-02  0.1089485E+00
         22   -1    0    0    0    0  0.00000000000E+00  0.00000000000E+00  0.17261818168E+03  0.17261818168E+03  0.00000000000E+00 0.  1.
         22   -1    0    0    0    0 -0.00000000000E+00 -0.00000000000E+00 -0.33447484872E+03  0.33447484872E+03  0.00000000000E+00 0.  1.
         24    2    1    2    0    0  0.41724028043E+02  0.45236136210E+01 -0.17652557271E+03  0.19882230217E+03  0.81287590840E+02 0.  0.
         25    2    1    2    0    0  0.12661235957E+02 -0.88509358791E+02 -0.54211200764E+02  0.16303666466E+03  0.12509151149E+03 0.  0.
        -24    2    1    2    0    0 -0.54385264000E+02  0.83985745170E+02  0.68880106428E+02  0.14523406357E+03  0.79605915780E+02 0.  0.
        -13    1    3    3    0    0  0.40637474232E+02  0.37007212811E+02 -0.13722681506E+03  0.14782468293E+03  0.00000000000E+00 0.  1.
         14    1    3    3    0    0  0.10865538105E+01 -0.32483599190E+02 -0.39298757643E+02  0.50997619237E+02  0.00000000000E+00 0. -1.
         13    1    5    5    0    0 -0.27032573735E+02  0.34147237515E+02 -0.13091630723E+02  0.45477298377E+02  0.00000000000E+00 0. -1.
        -14    1    5    5    0    0 -0.27352690265E+02  0.49838507655E+02  0.81971737152E+02  0.99756765193E+02  0.00000000000E+00 0.  1.
          5    1    4    4  501    0  0.20172793130E+02 -0.96274320980E+02  0.89147626327E+01  0.98856622720E+02  0.41800000000E+01 0.  1.
         -5    1    4    4    0  501 -0.75115571729E+01  0.77649621884E+01 -0.63125963397E+02  0.64180041942E+02  0.41800000000E+01 0.  1.
</event>
<event>
11    1  0.8037748E-009  0.1508995E+03  0.7561462E-02  0.1095963E+00
         22   -1    0    0    0    0  0.00000000000E+00  0.00000000000E+00  0.42376064455E+03  0.42376064455E+03  0.00000000000E+00 0.  1.
         22   -1    0    0    0    0 -0.00000000000E+00 -0.00000000000E+00 -0.11646924831E+04  0.11646924831E+04  0.00000000000E+00 0.  1.
        -24    2    1    2    0    0 -0.13783203864E+02  0.26550630959E+02 -0.56413560590E+03  0.57010821454E+03  0.76677778581E+02 0.  0.
         25    2    1    2    0    0 -0.48542068193E+02  0.30934784855E+02 -0.58128199018E+03  0.59736869129E+03  0.12508919985E+03 0.  0.
         24    2    1    2    0    0  0.62325272057E+02 -0.57485415814E+02  0.40448575752E+03  0.42097622184E+03  0.80145110542E+02 0.  0.
        -11    1    5    5    0    0  0.57218377560E+02 -0.41844471170E+02  0.39631675906E+03  0.40260635367E+03  0.00000000000E+00 0.  1.
         12    1    5    5    0    0  0.51068944971E+01 -0.15640944644E+02  0.81689984617E+01  0.18369868171E+02  0.00000000000E+00 0. -1.
         13    1    3    3    0    0  0.14560607601E+02  0.42699686999E+02 -0.41509186951E+03  0.41753626752E+03  0.00000000000E+00 0. -1.
        -14    1    3    3    0    0 -0.28343811465E+02 -0.16149056041E+02 -0.14904373640E+03  0.15257194702E+03  0.00000000000E+00 0.  1.
          5    1    4    4  501    0 -0.35170139534E+02  0.28919796467E+02 -0.57818793534E+02  0.73714168436E+02  0.41800000000E+01 0. -1.
         -5    1    4    4    0  501 -0.13371928659E+02  0.20149883887E+01 -0.52346319665E+03  0.52365452285E+03  0.41800000000E+01 0. -1.
</event>
<event>
11    1  0.8037748E-009  0.1614837E+03  0.7561462E-02  0.1085690E+00
         22   -1    0    0    0    0  0.00000000000E+00  0.00000000000E+00  0.19912412037E+03  0.19912412037E+03  0.00000000000E+00 0. -1.
         22   -1    0    0    0    0 -0.00000000000E+00 -0.00000000000E+00 -0.14296712127E+04  0.14296712127E+04  0.00000000000E+00 0.  1.
        -24    2    1    2    0    0 -0.25799802019E+02  0.99692973972E+02 -0.12190198753E+04  0.12259702361E+04  0.79932750579E+02 0.  0.
         25    2    1    2    0    0  0.12091902420E+03 -0.59620676282E+02 -0.13099768085E+03  0.22579505329E+03  0.12508788210E+03 0.  0.
         24    2    1    2    0    0 -0.95119222181E+02 -0.40072297691E+02  0.11947046377E+03  0.17703004371E+03  0.80081141302E+02 0.  0.
        -11    1    5    5    0    0  0.12904316246E+02 -0.12462118900E+02  0.89855274358E+01  0.20064034703E+02  0.00000000000E+00 0.  1.
         12    1    5    5    0    0 -0.10802353843E+03 -0.27610178791E+02  0.11048493634E+03  0.15696600901E+03  0.00000000000E+00 0. -1.
         11    1    3    3    0    0  0.27603411005E+02  0.21608362124E+02 -0.27599633203E+03  0.27821366772E+03  0.00000000000E+00 0. -1.
        -12    1    3    3    0    0 -0.53403213024E+02  0.78084611849E+02 -0.94302354325E+03  0.94775656837E+03  0.00000000000E+00 0.  1.
          5    1    4    4  501    0  0.13045401039E+03 -0.15539970305E+02 -0.12257097028E+03  0.17972438527E+03  0.41800000000E+01 0.  1.
         -5    1    4    4    0  501 -0.95349861908E+01 -0.44080705977E+02 -0.84267105697E+01  0.46070668023E+02  0.41800000000E+01 0.  1.
</event>
<event>
11    1  0.8037748E-009  0.2211833E+03  0.7561462E-02  0.1040479E+00
         22   -1    0    0    0    0  0.00000000000E+00  0.00000000000E+00  0.40107917122E+04  0.40107917122E+04  0.00000000000E+00 0. -1.
         22   -1    0    0    0    0 -0.00000000000E+00 -0.00000000000E+00 -0.52665092521E+02  0.52665092521E+02  0.00000000000E+00 0. -1.
        -24    2    1    2    0    0 -0.13006745159E+02 -0.40278650488E+02  0.71521887726E+02  0.11928009160E+03  0.85561759698E+02 0.  0.
         25    2    1    2    0    0 -0.60336661679E+01  0.21775972851E+03  0.58374712763E+03  0.63550270375E+03  0.12508906014E+03 0.  0.
         24    2    1    2    0    0  0.19040411327E+02 -0.17748107803E+03  0.33028576043E+04  0.33086740094E+04  0.81198987464E+02 0.  0.
        -13    1    5    5    0    0 -0.10861213257E+01 -0.46495499234E+02  0.38346014871E+03  0.38627023799E+03  0.00000000000E+00 0.  1.
         14    1    5    5    0    0  0.20126532652E+02 -0.13098557879E+03  0.29193974556E+04  0.29224037714E+04  0.00000000000E+00 0. -1.
         13    1    3    3    0    0 -0.22785010516E+02 -0.64492982978E+02  0.43940310285E+02  0.81297308846E+02  0.00000000000E+00 0. -1.
        -14    1    3    3    0    0  0.97782653571E+01  0.24214332490E+02  0.27581577441E+02  0.37982782751E+02  0.00000000000E+00 0.  1.
          5    1    4    4  501    0  0.52175933882E+02  0.16246183410E+03  0.40590132102E+03  0.44032888892E+03  0.41800000000E+01 0. -1.
         -5    1    4    4    0  501 -0.58209600050E+02  0.55297894419E+02  0.17784580662E+03  0.19517381483E+03  0.41800000000E+01 0. -1.
</event>
<event>
11    1  0.8037748E-009  0.1367468E+03  0.7561462E-02  0.1111246E+00
         22   -1    0    0    0    0  0.00000000000E+00  0.00000000000E+00  0.49422855416E+03  0.49422855416E+03  0.00000000000E+00 0.  1.
         22   -1    0    0    0    0 -0.00000000000E+00 -0.00000000000E+00 -0.29818704062E+03  0.29818704062E+03  0.00000000000E+00 0. -1.
        -24    2    1    2    0    0 -0.17189013003E+02  0.55274294964E+02 -0.18733819802E+03  0.21181371627E+03  0.80117040064E+02 0.  0.
         25    2    1    2    0    0  0.26789378631E+02 -0.38470513529E+02 -0.47575468083E+02  0.14180658891E+03  0.12509209518E+03 0.  0.
         24    2    1    2    0    0 -0.96003656280E+01 -0.16803781435E+02  0.43095517965E+03  0.43879528960E+03  0.80277052901E+02 0.  0.
        -11    1    5    5    0    0  0.14127734838E+02 -0.19904933734E+02  0.39408496623E+03  0.39484017005E+03  0.00000000000E+00 0.  1.
         12    1    5    5    0    0 -0.23728100466E+02  0.31011522998E+01  0.36870213420E+02  0.43955119553E+02  0.00000000000E+00 0. -1.
         11    1    3    3    0    0  0.82586425511E+01  0.42966113082E+02 -0.17599983456E+03  0.18135664811E+03  0.00000000000E+00 0. -1.
        -12    1    3    3    0    0 -0.25447655554E+02  0.12308181882E+02 -0.11338363464E+02  0.30457068153E+02  0.00000000000E+00 0.  1.
          5    1    4    4  501    0  0.30235451870E+02 -0.35262814758E+02  0.35425651411E+02  0.58567037079E+02  0.41800000000E+01 0.  1.
         -5    1    4    4    0  501 -0.34460732383E+01 -0.32076987717E+01 -0.83001119494E+02  0.83239551833E+02  0.41800000000E+01 0.  1.
</event>
<event>
11    1  0.8037748E-009  0.1522939E+03  0.7561462E-02  0.1094558E+00
         22   -1    0    0    0    0  0.00000000000E+00  0.00000000000E+00  0.97524888597E+03  0.97524888597E+03  0.00000000000E+00 0.  1.
         22   -1    0    0    0    0 -0.00000000000E+00 -0.00000000000E+00 -0.21210709416E+03  0.21210709416E+03  0.00000000000E+00 0. -1.
         24    2    1    2    0    0  0.85006011043E+00 -0.99357187019E+01 -0.18589767689E+03  0.20037938601E+03  0.74124968517E+02 0.  0.
         25    2    1    2    0    0 -0.84195534637E+01  0.91937007111E+02  0.57195117833E+03  0.59270488941E+03  0.12509050072E+03 0.  0.
        -24    2    1    2    0    0  0.75694933533E+01 -0.82001288409E+02  0.37708829037E+03  0.39427170471E+03  0.80455514880E+02 0.  0.
        -11    1    3    3    0    0 -0.18008673366E+02  0.24010320782E+02 -0.12173669356E+03  0.12538193801E+03  0.00000000000E+00 0.  1.
         12    1    3    3    0    0  0.18858733476E+02 -0.33946039484E+02 -0.64160983325E+02  0.74997447998E+02  0.00000000000E+00 0. -1.
         11    1    5    5    0    0  0.19688930358E+02  0.30650665497E+01  0.25642627144E+02  0.32474496739E+02  0.00000000000E+00 0. -1.
        -12    1    5    5    0    0 -0.12119437005E+02 -0.85066354959E+02  0.35144566322E+03  0.36179720797E+03  0.00000000000E+00 0.  1.
          5    1    4    4  501    0  0.35576839473E+02  0.95727063063E+01  0.48903367133E+02  0.61370676466E+02  0.41800000000E+01 0.  1.
         -5    1    4    4    0  501 -0.43996392937E+02  0.82364300805E+02  0.52304781120E+03  0.53133421294E+03  0.41800000000E+01 0.  1.
</event>
<event>
11    1  0.8037748E-009  0.2232106E+03  0.7561462E-02  0.1039225E+00
         22   -1    0    0    0    0  0.00000000000E+00  0.00000000000E+00  0.43900706788E+03  0.43900706788E+03  0.00000000000E+00 0.  1.
         22   -1    0    0    0    0 -0.00000000000E+00 -0.00000000000E+00 -0.65880711023E+03  0.65880711023E+03  0.00000000000E+00 0. -1.
         24    2    1    2    0    0  0.63747081465E+02  0.16450130528E+03 -0.48658630386E+03  0.52365229733E+03  0.79505519036E+02 0.  0.
         25    2    1    2    0    0 -0.12832271684E+03 -0.21515407243E+03 -0.40885609208E+01  0.28005488978E+03  0.12512406012E+03 0.  0.
        -24    2    1    2    0    0  0.64575635373E+02  0.50652767147E+02  0.27087482243E+03  0.29410699100E+03  0.79937708417E+02 0.  0.
        -11    1    3    3    0    0 -0.16872044956E+02  0.11125050934E+02 -0.53456827958E+02  0.57149497939E+02  0.00000000000E+00 0.  1.
         12    1    3    3    0    0  0.80619126421E+02  0.15337625435E+03 -0.43312947590E+03  0.46650279939E+03  0.00000000000E+00 0. -1.
         11    1    5    5    0    0 -0.10542862913E+02  0.35568849325E+02  0.72271396082E+02  0.81236997066E+02  0.00000000000E+00 0. -1.
        -12    1    5    5    0    0  0.75118498286E+02  0.15083917823E+02  0.19860342635E+03  0.21286999394E+03  0.00000000000E+00 0.  1.
          5    1    4    4  501    0 -0.12078612987E+03 -0.19287522841E+03 -0.45623865841E+02  0.23214037227E+03  0.41800000000E+01 0. -1.
         -5    1    4    4    0  501 -0.75365869698E+01 -0.22278844022E+02  0.41535304921E+02  0.47914517518E+02  0.41800000000E+01 0. -1.
</event>
<event>
11    1  0.8037748E-009  0.1495759E+03  0.7561462E-02  0.1097313E+00
         22   -1    0    0    0    0  0.00000000000E+00  0.00000000000E+00  0.65307659080E+02  0.65307659080E+02  0.00000000000E+00 0.  1.
         22   -1    0    0    0    0 -0.00000000000E+00 -0.00000000000E+00 -0.11705945978E+04  0.11705945978E+04  0.00000000000E+00 0. -1.
         24    2    1    2    0    0 -0.87614641403E+02 -0.33454642679E+01 -0.86759005362E+03  0.87551164383E+03  0.78234390203E+02 0.  0.
         25    2    1    2    0    0  0.34476724670E+02  0.73623410564E+02 -0.16625838421E+03  0.22337855407E+03  0.12508827671E+03 0.  0.
        -24    2    1    2    0    0  0.53137916732E+02 -0.70277946296E+02 -0.71438500882E+02  0.13701205898E+03  0.76851915834E+02 0.  0.
        -13    1    3    3    0    0  0.65863755396E+01 -0.10829805774E+02 -0.29459319979E+02  0.32070493752E+02  0.00000000000E+00 0.  1.
         14    1    3    3    0    0 -0.94201016942E+02  0.74843415058E+01 -0.83813073365E+03  0.84344115008E+03  0.00000000000E+00 0. -1.
         13    1    5    5    0    0  0.55160806120E+02 -0.64772040373E+02 -0.86208496887E+02  0.12111992686E+03  0.00000000000E+00 0. -1.
        -14    1    5    5    0    0 -0.20228893878E+01 -0.55059059233E+01  0.14769996004E+02  0.15892132125E+02  0.00000000000E+00 0.  1.
          5    1    4    4  501    0 -0.17315308144E+02  0.87673405694E+02 -0.13238652316E+03  0.15978144410E+03  0.41800000000E+01 0. -1.
         -5    1    4    4    0  501  0.51792032814E+02 -0.14049995130E+02 -0.33871861045E+02  0.63597109972E+02  0.41800000000E+01 0. -1.
</event>
<event>
11    1  0.8037748E-009  0.1301126E+03  0.7561462E-02  0.1119131E+00
         22   -1    0    0    0    0  0.00000000000E+00  0.00000000000E+00  0.36994468619E+03  0.36994468619E+03  0.00000000000E+00 0.  1.
         22   -1    0    0    0    0 -0.00000000000E+00 -0.00000000000E+00 -0.12792779036E+04  0.12792779036E+04  0.00000000000E+00 0.  1.
         24    2    1    2    0    0 -0.44406625614E+01  0.35415490593E+02 -0.12241005221E+04  0.12272278583E+04  0.79950933167E+02 0.  0.
         25    2    1    2    0    0 -0.19914535342E+02 -0.44496862921E+02  0.48377361638E+02  0.14270665627E+03  0.12509300979E+03 0.  0.
        -24    2    1    2    0    0  0.24355197904E+02  0.90813723278E+01  0.26638994304E+03  0.27928807515E+03  0.79765783244E+02 0.  0.
        -11    1    3    3    0    0 -0.28725010669E+01  0.25760043020E+02 -0.12087349228E+04  0.12090127976E+04  0.00000000000E+00 0.  1.
         12    1    3    3    0    0 -0.15681614945E+01  0.96554475735E+01 -0.15365599256E+02  0.18215060769E+02  0.00000000000E+00 0. -1.
         13    1    5    5    0    0 -0.40483858237E+00  0.17416593852E+02  0.73076340575E+01  0.18891880563E+02  0.00000000000E+00 0. -1.
        -14    1    5    5    0    0  0.24760036486E+02 -0.83352215243E+01  0.25908230898E+03  0.26039619458E+03  0.00000000000E+00 0.  1.
          5    1    4    4  501    0 -0.33398956350E+02 -0.31351884474E+02  0.87630610253E+02  0.98969829739E+02  0.41800000000E+01 0. -1.
         -5    1    4    4    0  501  0.13484421008E+02 -0.13144978448E+02 -0.39253248614E+02  0.43736826532E+02  0.41800000000E+01 0. -1.
</event>
<event>
11    1  0.8037748E-009  0.1420217E+03  0.7561462E-02  0.1105322E+00
         22   -1    0    0    0    0  0.00000000000E+00  0.00000000000E+00  0.86086177606E+03  0.86086177606E+03  0.00000000000E+00 0.  1.
         22   -1    0    0    0    0 -0.00000000000E+00 -0.00000000000E+00 -0.13226458578E+03  0.13226458578E+03  0.00000000000E+00 0.  1.
        -24    2    1    2    0    0  0.38871191484E+02 -0.56795000704E+02 -0.72835167054E+02  0.12994559798E+03  0.82730014152E+02 0.  0.
         25    2    1    2    0    0 -0.42968617567E+02  0.40857480867E+02  0.13997804052E+03  0.19685930256E+03  0.12507636602E+03 0.  0.
         24    2    1    2    0    0  0.40974260829E+01  0.15937519836E+02  0.66145431681E+03  0.66632146130E+03  0.78687248822E+02 0.  0.
        -11    1    5    5    0    0 -0.17416366385E+02  0.36692006652E+02  0.52801584859E+03  0.52957565043E+03  0.00000000000E+00 0.  1.
         12    1    5    5    0    0  0.21513792468E+02 -0.20754486815E+02  0.13343846822E+03  0.13674581087E+03  0.00000000000E+00 0. -1.
         13    1    3    3    0    0  0.21120075772E+02 -0.63960539236E+02 -0.14976217242E+02  0.69002139553E+02  0.00000000000E+00 0. -1.
        -14    1    3    3    0    0  0.17751115712E+02  0.71655385320E+01 -0.57858949812E+02  0.60943458425E+02  0.00000000000E+00 0.  1.
          5    1    4    4  501    0 -0.17726578160E+02 -0.39818805900E+02  0.85915811609E+02  0.96430119574E+02  0.41800000000E+01 0. -1.
         -5    1    4    4    0  501 -0.25242039408E+02  0.80676286768E+02  0.54062228911E+02  0.10042918298E+03  0.41800000000E+01 0. -1.
</event>
<event>
11    1  0.8037748E-009  0.1452534E+03  0.7561462E-02  0.1101830E+00
         22   -1    0    0    0    0  0.00000000000E+00  0.00000000000E+00  0.19974900753E+03  0.19974900753E+03  0.00000000000E+00 0.  1.
         22   -1    0    0    0    0 -0.00000000000E+00 -0.00000000000E+00 -0.27762727248E+04  0.27762727248E+04  0.00000000000E+00 0. -1.
         24    2    1    2    0    0 -0.66175019801E+02 -0.31977344208E+02 -0.25874440194E+04  0.25898898317E+04  0.85212106238E+02 0.  0.
         25    2    1    2    0    0  0.80282858084E+02  0.24117480254E+02 -0.14518243294E+03  0.20916788788E+03  0.12508507638E+03 0.  0.
        -24    2    1    2    0    0 -0.14107838283E+02  0.78598639539E+01  0.15610273514E+03  0.17696401266E+03  0.81776459301E+02 0.  0.
        -11    1    3    3    0    0 -0.12773454666E+02 -0.24650173906E+02 -0.20909784957E+03  0.21093293464E+03  0.00000000000E+00 0.  1.
         12    1    3    3    0    0 -0.53401565135E+02 -0.73271703017E+01 -0.23783461699E+04  0.23789568971E+04  0.00000000000E+00 0. -1.
         11    1    5    5    0    0 -0.20115792953E+02  0.12494559529E+00 -0.43431244431E+00  0.20120868888E+02  0.00000000000E+00 0. -1.
        -12    1    5    5    0    0  0.60079546703E+01  0.77349183586E+01  0.15653704759E+03  0.15684314377E+03  0.00000000000E+00 0.  1.
          5    1    4    4  501    0  0.21841812843E+02  0.27083249514E+01  0.21589008429E+02  0.31112015320E+02  0.41800000000E+01 0. -1.
         -5    1    4    4    0  501  0.58441045240E+02  0.21409155303E+02 -0.16677144136E+03  0.17805587256E+03  0.41800000000E+01 0. -1.
</event>
<event>
11    1  0.8037748E-009  0.1435223E+03  0.7561462E-02  0.1103688E+00
         22   -1    0    0    0    0  0.00000000000E+00  0.00000000000E+00  0.17491064597E+03  0.17491064597E+03  0.00000000000E+00 0. -1.
         22   -1    0    0    0    0 -0.00000000000E+00 -0.00000000000E+00 -0.92617301031E+03  0.92617301031E+03  0.00000000000E+00 0.  1.
        -24    2    1    2    0    0 -0.24860390825E+02  0.92744021250E+01 -0.79721334994E+03  0.80174842239E+03  0.80915721046E+02 0.  0.
         25    2    1    2    0    0 -0.28396753955E+02  0.43231614042E+02 -0.59056842874E+02  0.14768665909E+03  0.12509312729E+03 0.  0.
         24    2    1    2    0    0  0.53257144779E+02 -0.52506016167E+02  0.10500782847E+03  0.15164857479E+03  0.79858881743E+02 0.  0.
        -13    1    5    5    0    0 -0.71497847962E+01 -0.13597889671E+02 -0.83130008603E+01  0.17467913712E+02  0.00000000000E+00 0.  1.
         14    1    5    5    0    0  0.60406929576E+02 -0.38908126496E+02  0.11332082933E+03  0.13418066108E+03  0.00000000000E+00 0. -1.
         13    1    3    3    0    0  0.10239540464E+01 -0.15616214716E+02 -0.31306222054E+02  0.34999916903E+02  0.00000000000E+00 0. -1.
        -14    1    3    3    0    0 -0.25884344871E+02  0.24890616841E+02 -0.76590712789E+03  0.76674850548E+03  0.00000000000E+00 0.  1.
          5    1    4    4  501    0 -0.31830003761E+02  0.17972141445E+02 -0.95885448686E+02  0.10270169754E+03  0.41800000000E+01 0.  1.
         -5    1    4    4    0  501  0.34332498069E+01  0.25259472597E+02  0.36828605811E+02  0.44984961555E+02  0.41800000000E+01 0.  1.
</event>
<event>
11    1  0.8037748E-009  0.2192402E+03  0.7561462E-02  0.1041694E+00
         22   -1    0    0    0    0  0.00000000000E+00  0.00000000000E+00  0.27312141039E+04  0.27312141039E+04  0.00000000000E+00 0. -1.
         22   -1    0    0    0    0 -0.00000000000E+00 -0.00000000000E+00 -0.15933972801E+03  0.15933972801E+03  0.00000000000E+00 0.  1.
         24    2    1    2    0    0  0.16318221151E+03  0.24456871776E+01 -0.21083726029E+02  0.18305401099E+03  0.80186232599E+02 0.  0.
         25    2    1    2    0    0 -0.25670564533E+03 -0.36669137508E+02  0.31810246021E+03  0.42904639297E+03  0.12509683505E+03 0.  0.
        -24    2    1    2    0    0  0.93523433824E+02  0.34223450330E+02  0.22748556417E+04  0.22784534280E+04  0.80398727966E+02 0.  0.
        -11    1    3    3    0    0  0.11443133514E+03  0.20542192457E+02 -0.46449305049E+02  0.12519604655E+03  0.00000000000E+00 0.  1.
         12    1    3    3    0    0  0.48750876367E+02 -0.18096505280E+02  0.25365579020E+02  0.57857964438E+02  0.00000000000E+00 0. -1.
         13    1    5    5    0    0  0.59496317145E+02  0.51375075280E+02  0.10220821941E+04  0.10251005910E+04  0.00000000000E+00 0. -1.
        -14    1    5    5    0    0  0.34027116679E+02 -0.17151624950E+02  0.12527734476E+04  0.12533528370E+04  0.00000000000E+00 0.  1.
          5    1    4    4  501    0 -0.11752688283E+03 -0.32614846147E+02  0.60548438017E+02  0.13623465831E+03  0.41800000000E+01 0. -1.
         -5    1    4    4    0  501 -0.13917876249E+03 -0.40542913609E+01  0.25755402219E+03  0.29281173466E+03  0.41800000000E+01 0. -1.
</event>
<event>
11    1  0.8037748E-009  0.1376087E+03  0.7561462E-02  0.1110258E+00
         22   -1    0    0    0    0  0.00000000000E+00  0.00000000000E+00  0.99946651358E+03  0.99946651358E+03  0.00000000000E+00 0. -1.
         22   -1    0    0    0    0 -0.00000000000E+00 -0.00000000000E+00 -0.29216756459E+03  0.29216756459E+03  0.00000000000E+00 0.  1.
        -24    2    1    2    0    0  0.10677548720E+02 -0.19592912768E+02 -0.26668300533E+03  0.27926758581E+03  0.79828985179E+02 0.  0.
         25    2    1    2    0    0  0.95209557007E+00  0.72371402888E+02  0.32128406293E+03  0.35229128160E+03  0.12508865478E+03 0.  0.
         24    2    1    2    0    0 -0.11629644290E+02 -0.52778490120E+02  0.65269789139E+03  0.66007521075E+03  0.82243107773E+02 0.  0.
        -13    1    5    5    0    0  0.34284645731E+02 -0.31449534020E+02  0.26031566687E+03  0.26444045935E+03  0.00000000000E+00 0.  1.
         14    1    5    5    0    0 -0.45914290021E+02 -0.21328956099E+02  0.39238222453E+03  0.39563475141E+03  0.00000000000E+00 0. -1.
         11    1    3    3    0    0  0.22818382333E+01  0.30294072604E+02 -0.72604148054E+02  0.78703874971E+02  0.00000000000E+00 0. -1.
        -12    1    3    3    0    0  0.83957104869E+01 -0.49886985372E+02 -0.19407885728E+03  0.20056371084E+03  0.00000000000E+00 0.  1.
          5    1    4    4  501    0 -0.44894958475E+02  0.73961852665E+02  0.13503455884E+03  0.16042978971E+03  0.41800000000E+01 0. -1.
         -5    1    4    4    0  501  0.45847054045E+02 -0.15904497775E+01  0.18624950409E+03  0.19186149189E+03  0.41800000000E+01 0. -1.
</event>
<event>
11    1  0.8037748E-009  0.1285186E+03  0.7561462E-02  0.1121103E+00
         22   -1    0    0    0    0  0.00000000000E+00  0.00000000000E+00  0.27764876901E+03  0.27764876901E+03  0.00000000000E+00 0. -1.
         22   -1    0    0    0    0 -0.00000000000E+00 -0.00000000000E+00 -0.98596700326E+03  0.98596700326E+03  0.00000000000E+00 0. -1.
         24    2    1    2    0    0  0.11945011660E+01  0.26928887970E+02 -0.86270116667E+03  0.86681809247E+03  0.79960681685E+02 0.  0.
         25    2    1    2    0    0 -0.30204758844E+02 -0.20413277959E+02 -0.76017674023E+02  0.15085019047E+03  0.12509222129E+03 0.  0.
        -24    2    1    2    0    0  0.29010257678E+02 -0.65156100107E+01  0.23040060646E+03  0.24594748932E+03  0.80756918124E+02 0.  0.
        -13    1    3    3    0    0  0.16826677505E+02  0.28232534124E+02 -0.13483411275E+03  0.13878202701E+03  0.00000000000E+00 0.  1.
         14    1    3    3    0    0 -0.15632176339E+02 -0.13036461541E+01 -0.72786705392E+03  0.72803606547E+03  0.00000000000E+00 0. -1.
         13    1    5    5    0    0  0.45314528315E+02  0.12304234337E+02  0.20526257054E+03  0.21056477276E+03  0.00000000000E+00 0. -1.
        -14    1    5    5    0    0 -0.16304270637E+02 -0.18819844348E+02  0.25138035912E+02  0.35382716569E+02  0.00000000000E+00 0.  1.
          5    1    4    4  501    0  0.13157874723E+02 -0.65863173301E+02 -0.37284145413E+02  0.76932874402E+02  0.41800000000E+01 0.  1.
         -5    1    4    4    0  501 -0.43362633567E+02  0.45449895342E+02 -0.38733528610E+02  0.73917316070E+02  0.41800000000E+01 0.  1.
</event>
<event>
11    1  0.8037748E-009  0.1317296E+03  0.7561462E-02  0.1117162E+00
         22   -1    0    0    0    0  0.00000000000E+00  0.00000000000E+00  0.22252138169E+03  0.22252138169E+03  0.00000000000E+00 0.  1.
         22   -1    0    0    0    0 -0.00000000000E+00 -0.00000000000E+00 -0.21837708644E+03  0.21837708644E+03  0.00000000000E+00 0.  1.
        -24    2    1    2    0    0  0.10681492602E+02  0.29380604765E+02 -0.93968899453E+02  0.12771300075E+03  0.80642062702E+02 0.  0.
         25    2    1    2    0    0  0.18041816522E+02 -0.56585466007E+02 -0.42998415900E+02  0.14499775902E+03  0.12509222296E+03 0.  0.
         24    2    1    2    0    0 -0.28723309124E+02  0.27204861242E+02  0.14111161060E+03  0.16818770835E+03  0.82519607550E+02 0.  0.
        -13    1    5    5    0    0 -0.55803150975E+02  0.19420614754E+02  0.11712251687E+03  0.13118245269E+03  0.00000000000E+00 0.  1.
         14    1    5    5    0    0  0.27079841851E+02  0.77842464885E+01  0.23989093732E+02  0.37005255656E+02  0.00000000000E+00 0. -1.
         11    1    3    3    0    0  0.24442916260E+02 -0.10653934314E+00  0.37404039407E+01  0.24727679381E+02  0.00000000000E+00 0. -1.
        -12    1    3    3    0    0 -0.13761423658E+02  0.29487144108E+02 -0.97709303394E+02  0.10298532137E+03  0.00000000000E+00 0.  1.
          5    1    4    4  501    0 -0.29263499048E+01 -0.73233413279E+01 -0.79542123632E+02  0.80041343591E+02  0.41800000000E+01 0.  1.
         -5    1    4    4    0  501  0.20968166427E+02 -0.49262124679E+02  0.36543707732E+02  0.64956415434E+02  0.41800000000E+01 0.  1.
</event>
<event>
11    1  0.8037748E-009  0.1326966E+03  0.7561462E-02  0.1115999E+00
         22   -1    0    0    0    0  0.00000000000E+00  0.00000000000E+00  0.15501180720E+04  0.15501180720E+04  0.00000000000E+00 0. -1.
         22   -1    0    0    0    0 -0.00000000000E+00 -0.00000000000E+00 -0.16201905794E+04  0.16201905794E+04  0.00000000000E+00 0.  1.
         24    2    1    2    0    0  0.58726844777E+01 -0.43855150211E+02 -0.16029396393E+04  0.16058049250E+04  0.85065900237E+02 0.  0.
         25    2    1    2    0    0 -0.50652959156E+02  0.43677067648E+02  0.34468445112E+03  0.37273225303E+03  0.12509417692E+03 0.  0.
        -24    2    1    2    0    0  0.44780274678E+02  0.17808256325E+00  0.11881826808E+04  0.11917714734E+04  0.80844647714E+02 0.  0.
        -11    1    3    3    0    0  0.26790043004E+01 -0.56955091234E+02 -0.58416459534E+03  0.58694065623E+03  0.00000000000E+00 0.  1.
         12    1    3    3    0    0  0.31936801773E+01  0.13099941023E+02 -0.10187750439E+04  0.10188642688E+04  0.00000000000E+00 0. -1.
         11    1    5    5    0    0  0.22072087058E+02 -0.16334054207E+02  0.10679918904E+04  0.10683448209E+04  0.00000000000E+00 0. -1.
        -12    1    5    5    0    0  0.22708187620E+02  0.16512136771E+02  0.12019079041E+03  0.12342665249E+03  0.00000000000E+00 0.  1.
          5    1    4    4  501    0 -0.85068103608E+02  0.59203387140E+02  0.25946336420E+03  0.27942858312E+03  0.41800000000E+01 0. -1.
         -5    1    4    4    0  501  0.34415144453E+02 -0.15526319492E+02  0.85221086914E+02  0.93303669914E+02  0.41800000000E+01 0. -1.
</event>
<event>
11    1  0.8037748E-009  0.1744503E+03  0.7561462E-02  0.1074222E+00
         22   -1    0    0    0    0  0.00000000000E+00  0.00000000000E+00  0.33433087071E+02  0.33433087071E+02  0.00000000000E+00 0.  1.
         22   -1    0    0    0    0 -0.00000000000E+00 -0.00000000000E+00 -0.25350149115E+04  0.25350149115E+04  0.00000000000E+00 0.  1.
        -24    2    1    2    0    0  0.66598185763E+02  0.26745729142E+02 -0.13455862023E+04  0.13500204489E+04  0.82476251446E+02 0.  0.
         25    2    1    2    0    0 -0.12172024127E+03  0.79051968471E+02 -0.93685763906E+03  0.95625092427E+03  0.12509421827E+03 0.  0.
         24    2    1    2    0    0  0.55122055511E+02 -0.10579769761E+03 -0.21913798300E+03  0.26217662541E+03  0.80520391788E+02 0.  0.
        -11    1    5    5    0    0  0.37899184187E+02 -0.75337531523E+02 -0.71854193573E+02  0.11079312683E+03  0.00000000000E+00 0.  1.
         12    1    5    5    0    0  0.17222871324E+02 -0.30460166090E+02 -0.14728378943E+03  0.15138349859E+03  0.00000000000E+00 0. -1.
         11    1    3    3    0    0  0.85061078476E+01 -0.64373699113E+01 -0.19331344974E+02  0.22079277629E+02  0.00000000000E+00 0. -1.
        -12    1    3    3    0    0  0.58092077915E+02  0.33183099054E+02 -0.13262548574E+04  0.13279411712E+04  0.00000000000E+00 0.  1.
          5    1    4    4  501    0 -0.11946398321E+03  0.26076874150E+02 -0.80208519306E+03  0.81136291262E+03  0.41800000000E+01 0. -1.
         -5    1    4    4    0  501 -0.22562580667E+01  0.52975094321E+02 -0.13477244600E+03  0.14488801165E+03  0.41800000000E+01 0. -1.
</event>
<event>
11    1  0.8037748E-009  0.3224163E+03  0.7561462E-02  0.9911265E-01
         22   -1    0    0    0    0  0.00000000000E+00  0.00000000000E+00  0.57910352506E+03  0.57910352506E+03  0.00000000000E+00 0.  1.
         22   -1    0    0    0    0 -0.00000000000E+00 -0.00000000000E+00 -0.32818092798E+03  0.32818092798E+03  0.00000000000E+00 0.  1.
        -24    2    1    2    0    0 -0.11800319283E+03 -0.26140843581E+03 -0.88953435641E+02  0.31163308664E+03  0.83326725284E+02 0.  0.
         25    2    1    2    0    0  0.21683996377E+03  0.25953732078E+03  0.24977925206E+03  0.43865287192E+03  0.12508987377E+03 0.  0.
         24    2    1    2    0    0 -0.98836770941E+02  0.18711150247E+01  0.90096780662E+02  0.15699849449E+03  0.82212462710E+02 0.  0.
        -13    1    5    5    0    0  0.25623605859E+01  0.22248570222E+02  0.47242588156E+01  0.22888494709E+02  0.00000000000E+00 0.  1.
         14    1    5    5    0    0 -0.10139913153E+03 -0.20377455197E+02  0.85372521847E+02  0.13410999978E+03  0.00000000000E+00 0. -1.
         11    1    3    3    0    0 -0.30819024894E+02 -0.42098191456E+02  0.14198122328E+02  0.54070848864E+02  0.00000000000E+00 0. -1.
        -12    1    3    3    0    0 -0.87184167935E+02 -0.21931024435E+03 -0.10315155797E+03  0.25756223777E+03  0.00000000000E+00 0.  1.
          5    1    4    4  501    0  0.18891895065E+03  0.25743054418E+03  0.25645018524E+03  0.40956687476E+03  0.41800000000E+01 0. -1.
         -5    1    4    4    0  501  0.27921013117E+02  0.21067766061E+01 -0.66709331856E+01  0.29085997159E+02  0.41800000000E+01 0. -1.
</event>
<event>
11    1  0.8037748E-009  0.1403371E+03  0.7561462E-02  0.1107183E+00
         22   -1    0    0    0    0  0.00000000000E+00  0.00000000000E+00  0.13795749526E+03  0.13795749526E+03  0.00000000000E+00 0. -1.
         22   -1    0    0    0    0 -0.00000000000E+00 -0.00000000000E+00 -0.99311654387E+03  0.99311654387E+03  0.00000000000E+00 0.  1.
        -24    2    1    2    0    0 -0.11168880981E+02  0.16284493564E+02 -0.56283816707E+03  0.56909551473E+03  0.81810597975E+02 0.  0.
         25    2    1    2    0    0 -0.35883804366E+02  0.27957218482E+02 -0.39490269864E+03  0.41673024022E+03  0.12508676283E+03 0.  0.
         24    2    1    2    0    0  0.47052685347E+02 -0.44241712046E+02  0.10258181709E+03  0.14524828418E+03  0.80017189256E+02 0.  0.
        -13    1    5    5    0    0  0.76788178071E+01 -0.46499437278E+02  0.15434204111E+02  0.49592101857E+02  0.00000000000E+00 0.  1.
         14    1    5    5    0    0  0.39373867540E+02  0.22577252317E+01  0.87147612983E+02  0.95656182325E+02  0.00000000000E+00 0. -1.
         13    1    3    3    0    0 -0.32322117019E+01 -0.50097208549E+01 -0.16559706815E+00  0.59642198080E+01  0.00000000000E+00 0. -1.
        -14    1    3    3    0    0 -0.79366692789E+01  0.21294214419E+02 -0.56267257000E+03  0.56313129492E+03  0.00000000000E+00 0.  1.
          5    1    4    4  501    0 -0.25663902323E+02 -0.33040868418E+02 -0.45824723941E+02  0.62190936579E+02  0.41800000000E+01 0.  1.
         -5    1    4    4    0  501 -0.10219902043E+02  0.60998086901E+02 -0.34907797470E+03  0.35453930364E+03  0.41800000000E+01 0.  1.
</event>
<event>
11    1  0.8037748E-009  0.3132373E+04  0.7561462E-02  0.7715470E-01
         22   -1    0    0    0    0  0.00000000000E+00  0.00000000000E+00  0.34322457773E+04  0.34322457773E+04  0.00000000000E+00 0.  1.
         22   -1    0    0    0    0 -0.00000000000E+00 -0.00000000000E+00 -0.71467515894E+03  0.71467515894E+03  0.00000000000E+00 0.  1.
        -24    2    1    2    0    0  0.85669892950E+02 -0.87927828143E+03  0.11939888980E+03  0.89509794231E+03  0.80464928303E+02 0.  0.
         25    2    1    2    0    0 -0.38581613160E+03  0.12914433513E+04  0.22589370736E+04  0.26334621917E+04  0.12508555316E+03 0.  0.
         24    2    1    2    0    0  0.30014623865E+03 -0.41216506992E+03  0.33923465496E+03  0.61836080221E+03  0.85569393769E+02 0.  0.
        -11    1    5    5    0    0  0.52828562058E+02 -0.48299245156E+02  0.81485023609E+02  0.10845959213E+03  0.00000000000E+00 0.  1.
         12    1    5    5    0    0  0.24731767660E+03 -0.36386582476E+03  0.25774963135E+03  0.50990121008E+03  0.00000000000E+00 0. -1.
         13    1    3    3    0    0  0.52666859940E+01 -0.46151021968E+03  0.69594407204E+02  0.46675775554E+03  0.00000000000E+00 0. -1.
        -14    1    3    3    0    0  0.80403206956E+02 -0.41776806175E+03  0.49804482600E+02  0.42834018676E+03  0.00000000000E+00 0.  1.
          5    1    4    4  501    0 -0.32353781264E+03  0.91384977957E+03  0.16738890459E+04  0.19343526427E+04  0.41800000000E+01 0. -1.
         -5    1    4    4    0  501 -0.62278318966E+02  0.37759357178E+03  0.58504802772E+03  0.69910954907E+03  0.41800000000E+01 0. -1.
</event>
<event>
11    1  0.8037748E-009  0.1495282E+03  0.7561462E-02  0.1097362E+00
         22   -1    0    0    0    0  0.00000000000E+00  0.00000000000E+00  0.10318779778E+04  0.10318779778E+04  0.00000000000E+00 0.  1.
         22   -1    0    0    0    0 -0.00000000000E+00 -0.00000000000E+00 -0.29697081007E+03  0.29697081007E+03  0.00000000000E+00 0.  1.
        -24    2    1    2    0    0  0.71362906247E+02  0.96429977626E+01 -0.26002205890E+03  0.28303907794E+03  0.85521907904E+02 0.  0.
         25    2    1    2    0    0 -0.32651931414E+01  0.52945472460E+02  0.20185182229E+03  0.24332193762E+03  0.12509005805E+03 0.  0.
         24    2    1    2    0    0 -0.68097713106E+02 -0.62588470222E+02  0.79307740437E+03  0.80248777234E+03  0.80375620116E+02 0.  0.
        -11    1    5    5    0    0 -0.51634304757E+02 -0.66735114623E+02  0.76526689794E+03  0.76990460580E+03  0.00000000000E+00 0.  1.
         12    1    5    5    0    0 -0.16463408348E+02  0.41466444008E+01  0.27810506428E+02  0.32583166544E+02  0.00000000000E+00 0. -1.
         11    1    3    3    0    0 -0.10791765638E+02  0.87204147582E+01 -0.11917840576E+03  0.11998333317E+03  0.00000000000E+00 0. -1.
        -12    1    3    3    0    0  0.82154671885E+02  0.92258300443E+00 -0.14084365314E+03  0.16305574477E+03  0.00000000000E+00 0.  1.
          5    1    4    4  501    0 -0.57981504246E+02  0.66759128289E+01  0.57135655378E+02  0.81782505233E+02  0.41800000000E+01 0. -1.
         -5    1    4    4    0  501  0.54716311104E+02  0.46269559631E+02  0.14471616691E+03  0.16153943238E+03  0.41800000000E+01 0. -1.
</event>
<event>
11    1  0.8037748E-009  0.2182572E+03  0.7561462E-02  0.1042315E+00
         22   -1    0    0    0    0  0.00000000000E+00  0.00000000000E+00  0.11337211014E+04  0.11337211014E+04  0.00000000000E+00 0. -1.
         22   -1    0    0    0    0 -0.00000000000E+00 -0.00000000000E+00 -0.26802367512E+03  0.26802367512E+03  0.00000000000E+00 0. -1.
        -24    2    1    2    0    0  0.29540870686E+02  0.60325409477E+02 -0.18449790780E+03  0.21411757949E+03  0.85411016836E+02 0.  0.
         25    2    1    2    0    0 -0.20363599714E+03 -0.59506622429E+02  0.20281369962E+03  0.31904486979E+03  0.12509026636E+03 0.  0.
         24    2    1    2    0    0  0.17409512646E+03 -0.81878704791E+00  0.84738163448E+03  0.86858232726E+03  0.77909186243E+02 0.  0.
        -11    1    5    5    0    0  0.34999022210E+02 -0.25715587175E+02  0.12037255059E+03  0.12796786282E+03  0.00000000000E+00 0.  1.
         12    1    5    5    0    0  0.13909610425E+03  0.24896800127E+02  0.72700908389E+03  0.74061446444E+03  0.00000000000E+00 0. -1.
         13    1    3    3    0    0  0.62123454260E+01 -0.13110659105E+02 -0.94647647070E+02  0.95753118559E+02  0.00000000000E+00 0. -1.
        -14    1    3    3    0    0  0.23328525260E+02  0.73436068582E+02 -0.89850260729E+02  0.11836446094E+03  0.00000000000E+00 0.  1.
          5    1    4    4  501    0 -0.93139099412E+02  0.34032678713E+02  0.61891607308E+02  0.11696648458E+03  0.41800000000E+01 0.  1.
         -5    1    4    4    0  501 -0.11049689773E+03 -0.93539301143E+02  0.14092209231E+03  0.20207838521E+03  0.41800000000E+01 0.  1.
</event>
<event>
11    1  0.8037748E-009  0.1399088E+03  0.7561462E-02  0.1107660E+00
         22   -1    0    0    0    0  0.00000000000E+00  0.00000000000E+00  0.47144659815E+03  0.47144659815E+03  0.00000000000E+00 0. -1.
         22   -1    0    0    0    0 -0.00000000000E+00 -0.00000000000E+00 -0.79182494340E+02  0.79182494340E+02  0.00000000000E+00 0. -1.
        -24    2    1    2    0    0  0.56787229068E+02 -0.54434562707E+02  0.32627825031E+02  0.11731610277E+03  0.80688177578E+02 0.  0.
         25    2    1    2    0    0 -0.19029725667E+02 -0.90290550541E+01  0.23964414674E+03  0.27114536965E+03  0.12508732998E+03 0.  0.
         24    2    1    2    0    0 -0.37757503401E+02  0.63463617761E+02  0.11999213204E+03  0.16216762007E+03  0.80292997236E+02 0.  0.
        -13    1    5    5    0    0  0.14972241066E+01 -0.10414436465E+02  0.55626295522E+02  0.56612603900E+02  0.00000000000E+00 0.  1.
         14    1    5    5    0    0 -0.39254727508E+02  0.73878054226E+02  0.64365836522E+02  0.10555501617E+03  0.00000000000E+00 0. -1.
         11    1    3    3    0    0  0.73945149875E+02 -0.57028916145E+02  0.35155111929E+02  0.99780079983E+02  0.00000000000E+00 0. -1.
        -12    1    3    3    0    0 -0.17157920807E+02  0.25943534384E+01 -0.25272868979E+01  0.17536022788E+02  0.00000000000E+00 0.  1.
          5    1    4    4  501    0  0.18263006870E+02 -0.16967798290E+02 -0.30307765603E+01  0.25457839761E+02  0.41800000000E+01 0. -1.
         -5    1    4    4    0  501 -0.37292732537E+02  0.79387432359E+01  0.24267492330E+03  0.24568752989E+03  0.41800000000E+01 0. -1.
</event>
<event>
11    1  0.8037748E-009  0.2069273E+03  0.7561462E-02  0.1049730E+00
         22   -1    0    0    0    0  0.00000000000E+00  0.00000000000E+00  0.93862151268E+03  0.93862151268E+03  0.00000000000E+00 0.  1.
         22   -1    0    0    0    0 -0.00000000000E+00 -0.00000000000E+00 -0.41722651020E+03  0.41722651020E+03  0.00000000000E+00 0. -1.
        -24    2    1    2    0    0  0.12744957857E+03  0.97660195899E+02 -0.33315757564E+03  0.37826026921E+03  0.79410025283E+02 0.  0.
         25    2    1    2    0    0 -0.20672403409E+03 -0.92859347001E+02  0.24093438279E+03  0.35363120020E+03  0.12509182365E+03 0.  0.
         24    2    1    2    0    0  0.79274455520E+02 -0.48008488982E+01  0.61361819533E+03  0.62395655347E+03  0.80541936533E+02 0.  0.
        -11    1    5    5    0    0 -0.23180422977E+01 -0.23930836121E+02  0.23212412511E+03  0.23336595230E+03  0.00000000000E+00 0.  1.
         12    1    5    5    0    0  0.81592497818E+02  0.19129987223E+02  0.38149407022E+03  0.39059060117E+03  0.00000000000E+00 0. -1.
         13    1    3    3    0    0  0.79614808039E+02  0.53210967246E+02 -0.27362396845E+03  0.28989653465E+03  0.00000000000E+00 0. -1.
        -14    1    3    3    0    0  0.47834770534E+02  0.44449228653E+02 -0.59533607197E+02  0.88363734562E+02  0.00000000000E+00 0.  1.
          5    1    4    4  501    0 -0.27191611368E+02 -0.69530898116E+02  0.47133478004E+02  0.88390987495E+02  0.41800000000E+01 0.  1.
         -5    1    4    4    0  501 -0.17953242273E+03 -0.23328448885E+02  0.19380090479E+03  0.26524021270E+03  0.41800000000E+01 0.  1.
</event>
<event>
11    1  0.8037748E-009  0.1296108E+03  0.7561462E-02  0.1119748E+00
         22   -1    0    0    0    0  0.00000000000E+00  0.00000000000E+00  0.24023658654E+03  0.24023658654E+03  0.00000000000E+00 0.  1.
         22   -1    0    0    0    0 -0.00000000000E+00 -0.00000000000E+00 -0.38982153288E+04  0.38982153288E+04  0.00000000000E+00 0.  1.
         24    2    1    2    0    0 -0.24630345476E+02 -0.10699256606E+02 -0.34053055793E+04  0.34062304189E+04  0.74689021238E+02 0.  0.
         25    2    1    2    0    0 -0.69315852199E+01 -0.29459635612E+01 -0.47611015250E+03  0.49232597853E+03  0.12508903327E+03 0.  0.
        -24    2    1    2    0    0  0.31561930696E+02  0.13645220167E+02  0.22343698959E+03  0.23989551791E+03  0.80270939281E+02 0.  0.
        -11    1    3    3    0    0  0.44164365816E+01 -0.11067257541E+02 -0.29372983689E+04  0.29373225388E+04  0.00000000000E+00 0.  1.
         12    1    3    3    0    0 -0.29046782057E+02  0.36800093509E+00 -0.46800721038E+03  0.46890788002E+03  0.00000000000E+00 0. -1.
         11    1    5    5    0    0  0.25478023703E+01  0.13365147480E+02 -0.95128087770E+00  0.13639039533E+02  0.00000000000E+00 0. -1.
        -12    1    5    5    0    0  0.29014128325E+02  0.28007268693E+00  0.22438827047E+03  0.22625647838E+03  0.00000000000E+00 0.  1.
          5    1    4    4  501    0  0.21123481840E+02 -0.11937481874E+02 -0.45541733566E+03  0.45608236864E+03  0.41800000000E+01 0. -1.
         -5    1    4    4    0  501 -0.28055067060E+02  0.89915183131E+01 -0.20692816836E+02  0.36243609891E+02  0.41800000000E+01 0. -1.
</event>
<event>
11    1  0.8037748E-009  0.1644256E+03  0.7561462E-02  0.1082987E+00
         22   -1    0    0    0    0  0.00000000000E+00  0.00000000000E+00  0.38519366054E+03  0.38519366054E+03  0.00000000000E+00 0. -1.
         22   -1    0    0    0    0 -0.00000000000E+00 -0.00000000000E+00 -0.81060823717E+03  0.81060823717E+03  0.00000000000E+00 0. -1.
         24    2    1    2    0    0  0.44477330828E+02  0.43034426910E+02 -0.66118753386E+03  0.66910742232E+03  0.81887684142E+02 0.  0.
         25    2    1    2    0    0 -0.14564530021E+03 -0.21588257571E+02 -0.61341290973E+02  0.20270338867E+03  0.12508918204E+03 0.  0.
        -24    2    1    2    0    0  0.10116796938E+03 -0.21446169339E+02  0.29711424821E+03  0.32399108671E+03  0.77449671204E+02 0.  0.
        -11    1    3    3    0    0 -0.20761186610E+02  0.26290186307E+02 -0.28221461120E+03  0.28419586123E+03  0.00000000000E+00 0.  1.
         12    1    3    3    0    0  0.65238517438E+02  0.16744240603E+02 -0.37897292266E+03  0.38491156109E+03  0.00000000000E+00 0. -1.
         13    1    5    5    0    0  0.10509046256E+03 -0.76479706815E+01  0.28877589729E+03  0.30739878925E+03  0.00000000000E+00 0. -1.
        -14    1    5    5    0    0 -0.39224931807E+01 -0.13798198658E+02  0.83383509244E+01  0.16592297463E+02  0.00000000000E+00 0.  1.
          5    1    4    4  501    0 -0.13199493577E+03 -0.61434314349E+02 -0.66405972155E+02  0.16007518105E+03  0.41800000000E+01 0.  1.
         -5    1    4    4    0  501 -0.13650364438E+02  0.39846056778E+02  0.50646811825E+01  0.42628207628E+02  0.41800000000E+01 0.  1.
</event>
<event>
11    1  0.8037748E-009  0.1529245E+03  0.7561462E-02  0.1093927E+00
         22   -1    0    0    0    0  0.00000000000E+00  0.00000000000E+00  0.48160763419E+03  0.48160763419E+03  0.00000000000E+00 0.  1.
         22   -1    0    0    0    0 -0.00000000000E+00 -0.00000000000E+00 -0.68529703079E+03  0.68529703079E+03  0.00000000000E+00 0. -1.
        -24    2    1    2    0    0 -0.89288078044E+02 -0.11243994711E+02 -0.64827478154E+03  0.65936066926E+03  0.79984445279E+02 0.  0.
         25    2    1    2    0    0  0.17957042064E+02  0.52790395575E+01  0.16947013436E+03  0.21146505674E+03  0.12508804965E+03 0.  0.
         24    2    1    2    0    0  0.71331035980E+02  0.59649551534E+01  0.27511525058E+03  0.29607893897E+03  0.82768590738E+02 0.  0.
        -11    1    5    5    0    0  0.89888011882E+02  0.38495304468E+01  0.21315610375E+03  0.23136593987E+03  0.00000000000E+00 0.  1.
         12    1    5    5    0    0 -0.18556975902E+02  0.21154247066E+01  0.61959146829E+02  0.64712999097E+02  0.00000000000E+00 0. -1.
         11    1    3    3    0    0 -0.10104367935E+03 -0.13651183981E+02 -0.62407288088E+03  0.63234732593E+03  0.00000000000E+00 0. -1.
        -12    1    3    3    0    0  0.11755601306E+02  0.24071892702E+01 -0.24201900664E+02  0.27013343333E+02  0.00000000000E+00 0.  1.
          5    1    4    4  501    0  0.58838063210E+02 -0.18343837792E+02  0.40004597555E+02  0.73595205637E+02  0.41800000000E+01 0.  1.
         -5    1    4    4    0  501 -0.40881021146E+02  0.23622877349E+02  0.12946553680E+03  0.13786985111E+03  0.41800000000E+01 0.  1.
</event>
<event>
11    1  0.8037748E-009  0.1321139E+03  0.7561462E-02  0.1116699E+00
         22   -1    0    0    0    0  0.00000000000E+00  0.00000000000E+00  0.76223051680E+03  0.76223051680E+03  0.00000000000E+00 0. -1.
         22   -1    0    0    0    0 -0.00000000000E+00 -0.00000000000E+00 -0.80143200283E+03  0.80143200283E+03  0.00000000000E+00 0.  1.
        -24    2    1    2    0    0  0.24944615449E+00 -0.12663674197E+02 -0.69381331429E+03  0.69857873051E+03  0.80466743250E+02 0.  0.
         25    2    1    2    0    0 -0.21543648201E+02  0.49157621355E+02 -0.57140400793E+02  0.14761068860E+03  0.12507313648E+03 0.  0.
         24    2    1    2    0    0  0.21294202047E+02 -0.36493947158E+02  0.71175222904E+03  0.71747310053E+03  0.79944751025E+02 0.  0.
        -11    1    5    5    0    0  0.23430397538E+02  0.78087062301E+01  0.70724268680E+02  0.74912492964E+02  0.00000000000E+00 0.  1.
         12    1    5    5    0    0 -0.21361954909E+01 -0.44302653388E+02  0.64102796037E+03  0.64256060757E+03  0.00000000000E+00 0. -1.
         11    1    3    3    0    0  0.24648165477E-01 -0.34996952056E+02 -0.13974962696E+03  0.14406507382E+03  0.00000000000E+00 0. -1.
        -12    1    3    3    0    0  0.22479798902E+00  0.22333277859E+02 -0.55406368733E+03  0.55451365668E+03  0.00000000000E+00 0.  1.
          5    1    4    4  501    0 -0.42346154006E+02  0.16360847640E+02 -0.87148781529E+02  0.98352715350E+02  0.41800000000E+01 0.  1.
         -5    1    4    4    0  501  0.20802505805E+02  0.32796773715E+02  0.30008380736E+02  0.49257973246E+02  0.41800000000E+01 0.  1.
</event>
<event>
11    1  0.8037748E-009  0.1617319E+03  0.7561462E-02  0.1085460E+00
         22   -1    0    0    0    0  0.00000000000E+00  0.00000000000E+00  0.31509416615E+03  0.31509416615E+03  0.00000000000E+00 0.  1.
         22   -1    0    0    0    0 -0.00000000000E+00 -0.00000000000E+00 -0.73230482323E+03  0.73230482323E+03  0.00000000000E+00 0. -1.
        -24    2    1    2    0    0  0.64424547873E+02 -0.72552105726E+02 -0.36645450820E+03  0.38913336103E+03  0.87872269096E+02 0.  0.
         25    2    1    2    0    0 -0.52744085904E+02  0.10178810993E+03 -0.32734579430E+03  0.36871032277E+03  0.12509706292E+03 0.  0.
         24    2    1    2    0    0 -0.11680461969E+02 -0.29236004208E+02  0.27658964542E+03  0.28955530557E+03  0.79682280943E+02 0.  0.
        -11    1    5    5    0    0 -0.30318720806E+01 -0.31181151351E+02  0.27868994641E+03  0.28044525790E+03  0.00000000000E+00 0.  1.
         12    1    5    5    0    0 -0.86485898881E+01  0.19451471424E+01 -0.21003009838E+01  0.91100476772E+01  0.00000000000E+00 0. -1.
         11    1    3    3    0    0  0.60643329368E+02 -0.89969628061E+02 -0.34250512418E+03  0.35927970644E+03  0.00000000000E+00 0. -1.
        -12    1    3    3    0    0  0.37812185053E+01  0.17417522335E+02 -0.23949384017E+02  0.29853654591E+02  0.00000000000E+00 0.  1.
          5    1    4    4  501    0  0.32481166542E+02  0.67338744924E+02 -0.18049244483E+03  0.19540861749E+03  0.41800000000E+01 0.  1.
         -5    1    4    4    0  501 -0.85225252447E+02  0.34449365009E+02 -0.14685334947E+03  0.17330170528E+03  0.41800000000E+01 0.  1.
</event>
<event>
11    1  0.8037748E-009  0.1494435E+03  0.7561462E-02  0.1097449E+00
         22   -1    0    0    0    0  0.00000000000E+00  0.00000000000E+00  0.39109233411E+03  0.39109233411E+03  0.00000000000E+00 0.  1.
         22   -1    0    0    0    0 -0.00000000000E+00 -0.00000000000E+00 -0.22191945846E+03  0.22191945846E+03  0.00000000000E+00 0.  1.
        -24    2    1    2    0    0  0.30733967911E+02  0.14480940852E+02 -0.14454759141E+03  0.16859943516E+03  0.79859181838E+02 0.  0.
         25    2    1    2    0    0 -0.96253752674E+02  0.28284672533E+02  0.67992146578E+02  0.17417145023E+03  0.12509178420E+03 0.  0.
         24    2    1    2    0    0  0.65519784763E+02 -0.42765613385E+02  0.24572832048E+03  0.27024090719E+03  0.80783665104E+02 0.  0.
        -13    1    5    5    0    0 -0.12381558055E+02 -0.29905057778E+02  0.55019322791E+02  0.63833700668E+02  0.00000000000E+00 0.  1.
         14    1    5    5    0    0  0.77901342819E+02 -0.12860555608E+02  0.19070899769E+03  0.20640720652E+03  0.00000000000E+00 0. -1.
         13    1    3    3    0    0  0.10108373283E+02 -0.22487926841E+02 -0.11338092265E+03  0.11603068424E+03  0.00000000000E+00 0. -1.
        -14    1    3    3    0    0  0.20625594629E+02  0.36968867693E+02 -0.31166668760E+02  0.52568750926E+02  0.00000000000E+00 0.  1.
          5    1    4    4  501    0 -0.60236173153E+02 -0.35810511291E+02 -0.51366046520E+01  0.70389249054E+02  0.41800000000E+01 0. -1.
         -5    1    4    4    0  501 -0.36017579521E+02  0.64095183824E+02  0.73128751230E+02  0.10378220117E+03  0.41800000000E+01 0. -1.
</event>
<event>
11    1  0.8037748E-009  0.6853884E+03  0.7561462E-02  0.9054118E-01
         22   -1    0    0    0    0  0.00000000000E+00  0.00000000000E+00  0.20534276801E+04  0.20534276801E+04  0.00000000000E+00 0. -1.
         22   -1    0    0    0    0 -0.00000000000E+00 -0.00000000000E+00 -0.35300159305E+04  0.35300159305E+04  0.00000000000E+00 0.  1.
         24    2    1    2    0    0 -0.68737019968E+03 -0.19231975541E+03 -0.31670940021E+04  0.32475179832E+04  0.80149568381E+02 0.  0.
         25    2    1    2    0    0  0.39910176526E+03  0.28995832362E+03 -0.99440471227E+02  0.51855013198E+03  0.12509110114E+03 0.  0.
        -24    2    1    2    0    0  0.28826843442E+03 -0.97638568209E+02  0.17899462230E+04  0.18173754954E+04  0.79462129025E+02 0.  0.
        -13    1    3    3    0    0 -0.41801043569E+03 -0.93639992645E+02 -0.20399713966E+04  0.20844626338E+04  0.00000000000E+00 0.  1.
         14    1    3    3    0    0 -0.26935976400E+03 -0.98679762762E+02 -0.11271226055E+04  0.11630553494E+04  0.00000000000E+00 0. -1.
         13    1    5    5    0    0  0.17992674555E+03 -0.90176090823E+02  0.10051316877E+04  0.10250829580E+04  0.00000000000E+00 0. -1.
        -14    1    5    5    0    0  0.10834168887E+03 -0.74624773863E+01  0.78481453530E+03  0.79229253747E+03  0.00000000000E+00 0.  1.
          5    1    4    4  501    0  0.31555448743E+02  0.72915912174E+02 -0.34712383110E+02  0.86803793320E+02  0.41800000000E+01 0. -1.
         -5    1    4    4    0  501  0.36754631652E+03  0.21704241144E+03 -0.64728088117E+02  0.43174633866E+03  0.41800000000E+01 0. -1.
</event>
<event>
11    1  0.8037748E-009  0.1814458E+04  0.7561462E-02  0.8147603E-01
         22   -1    0    0    0    0  0.00000000000E+00  0.00000000000E+00  0.97426362993E+03  0.97426362993E+03  0.00000000000E+00 0. -1.
         22   -1    0    0    0    0 -0.00000000000E+00 -0.00000000000E+00 -0.47690425767E+04  0.47690425767E+04  0.00000000000E+00 0. -1.
        -24    2    1    2    0    0  0.17633184867E+04 -0.53789886497E+03 -0.31095682515E+04  0.36158574178E+04  0.79892933857E+02 0.  0.
         25    2    1    2    0    0 -0.15811965200E+04  0.71644288560E+03 -0.53549038238E+03  0.18209530908E+04  0.12508943226E+03 0.  0.
         24    2    1    2    0    0 -0.18212196662E+03 -0.17854402064E+03 -0.14972031293E+03  0.30649569803E+03  0.80480201157E+02 0.  0.
        -11    1    5    5    0    0 -0.36323085896E+02 -0.10825578383E+02  0.11014470836E+01  0.37917975975E+02  0.00000000000E+00 0.  1.
         12    1    5    5    0    0 -0.14579888072E+03 -0.16771844226E+03 -0.15082176001E+03  0.26857772206E+03  0.00000000000E+00 0. -1.
         13    1    3    3    0    0  0.12801669813E+04 -0.42748184119E+03 -0.22710065452E+04  0.26417870756E+04  0.00000000000E+00 0. -1.
        -14    1    3    3    0    0  0.48315150530E+03 -0.11041702377E+03 -0.83856170633E+03  0.97407034219E+03  0.00000000000E+00 0.  1.
          5    1    4    4  501    0 -0.15811599136E+04  0.71175356182E+03 -0.53507362088E+03  0.18146572837E+04  0.41800000000E+01 0. -1.
         -5    1    4    4    0  501 -0.36606473172E-01  0.46893237824E+01 -0.41676149693E+00  0.62958071536E+01  0.41800000000E+01 0. -1.
</event>
<event>
11    1  0.8037748E-009  0.1374074E+03  0.7561462E-02  0.1110489E+00
         22   -1    0    0    0    0  0.00000000000E+00  0.00000000000E+00  0.75556662291E+02  0.75556662291E+02  0.00000000000E+00 0. -1.
         22   -1    0    0    0    0 -0.00000000000E+00 -0.00000000000E+00 -0.16888911219E+04  0.16888911219E+04  0.00000000000E+00 0. -1.
         24    2    1    2    0    0  0.64001997453E+02  0.13495774341E+02 -0.12846821662E+04  0.12888846990E+04  0.80852381355E+02 0.  0.
         25    2    1    2    0    0 -0.59542863123E+01 -0.23210811251E+02 -0.35050167273E+03  0.37292506296E+03  0.12508990654E+03 0.  0.
        -24    2    1    2    0    0 -0.58047711141E+02  0.97150369096E+01  0.21849379330E+02  0.10263802221E+03  0.81198827058E+02 0.  0.
        -11    1    3    3    0    0 -0.89683096717E+01  0.21343374002E+02 -0.56407182488E+03  0.56454671535E+03  0.00000000000E+00 0.  1.
         12    1    3    3    0    0  0.72970307125E+02 -0.78475996603E+01 -0.72061034132E+03  0.72433798365E+03  0.00000000000E+00 0. -1.
         13    1    5    5    0    0  0.81885264103E+00 -0.11344539045E+02  0.36663007039E+02  0.38386783805E+02  0.00000000000E+00 0. -1.
        -14    1    5    5    0    0 -0.58866563782E+02  0.21059575954E+02 -0.14813627709E+02  0.64251238406E+02  0.00000000000E+00 0.  1.
          5    1    4    4  501    0 -0.50826723476E+02 -0.42357819030E+02 -0.11823051230E+03  0.13554876278E+03  0.41800000000E+01 0. -1.
         -5    1    4    4    0  501  0.44872437163E+02  0.19147007778E+02 -0.23227116042E+03  0.23737630018E+03  0.41800000000E+01 0. -1.
</event>
<event>
11    1  0.8037748E-009  0.1756445E+03  0.7561462E-02  0.1073221E+00
         22   -1    0    0    0    0  0.00000000000E+00  0.00000000000E+00  0.60592193683E+03  0.60592193683E+03  0.00000000000E+00 0. -1.
         22   -1    0    0    0    0 -0.00000000000E+00 -0.00000000000E+00 -0.72280311881E+03  0.72280311881E+03  0.00000000000E+00 0. -1.
         24    2    1    2    0    0  0.40212513777E+02 -0.11486495706E+03 -0.66100680716E+03  0.67695434785E+03  0.80784808759E+02 0.  0.
         25    2    1    2    0    0 -0.89078722582E+02  0.15361274833E+03  0.20843212375E+03  0.30103617847E+03  0.12508771031E+03 0.  0.
        -24    2    1    2    0    0  0.48866208805E+02 -0.38747791272E+02  0.33569350143E+03  0.35073452932E+03  0.80220231042E+02 0.  0.
        -13    1    3    3    0    0  0.58248752140E+02 -0.57704571449E+02 -0.29987436178E+03  0.31088159731E+03  0.00000000000E+00 0.  1.
         14    1    3    3    0    0 -0.18036238363E+02 -0.57160385609E+02 -0.36113244539E+03  0.36607275054E+03  0.00000000000E+00 0. -1.
         11    1    5    5    0    0  0.64264719491E+02 -0.39770741117E+02  0.31969234401E+03  0.32850397386E+03  0.00000000000E+00 0. -1.
        -12    1    5    5    0    0 -0.15398510685E+02  0.10229498452E+01  0.16001157412E+02  0.22230555464E+02  0.00000000000E+00 0.  1.
          5    1    4    4  501    0 -0.59464924308E+02  0.29684923844E+02  0.13235922132E+02  0.67896494470E+02  0.41800000000E+01 0.  1.
         -5    1    4    4    0  501 -0.29613798274E+02  0.12392782449E+03  0.19519620162E+03  0.23313968400E+03  0.41800000000E+01 0.  1.
</event>
<event>
11    1  0.8037748E-009  0.1691280E+03  0.7561462E-02  0.1078793E+00
         22   -1    0    0    0    0  0.00000000000E+00  0.00000000000E+00  0.11893606235E+04  0.11893606235E+04  0.00000000000E+00 0.  1.
         22   -1    0    0    0    0 -0.00000000000E+00 -0.00000000000E+00 -0.23050370337E+03  0.23050370337E+03  0.00000000000E+00 0. -1.
        -24    2    1    2    0    0  0.99503092264E+02  0.60324526767E+02 -0.12745066203E+03  0.19051446523E+03  0.80698056403E+02 0.  0.
         25    2    1    2    0    0 -0.99214537833E+02 -0.40256005774E+02  0.27515943480E+02  0.16693831051E+03  0.12508877588E+03 0.  0.
         24    2    1    2    0    0 -0.28855443174E+00 -0.20068520993E+02  0.10587916387E+04  0.10624115511E+04  0.85297954495E+02 0.  0.
        -13    1    5    5    0    0 -0.16321062307E+02  0.29857169980E+02  0.33528845927E+03  0.33701065057E+03  0.00000000000E+00 0.  1.
         14    1    5    5    0    0  0.16032507875E+02 -0.49925690973E+02  0.72350317938E+03  0.72540090054E+03  0.00000000000E+00 0. -1.
         11    1    3    3    0    0  0.84365873289E+02  0.10285362319E+02 -0.10075555290E+03  0.13181453142E+03  0.00000000000E+00 0. -1.
        -12    1    3    3    0    0  0.15137218976E+02  0.50039164448E+02 -0.26695109137E+02  0.58699933806E+02  0.00000000000E+00 0.  1.
          5    1    4    4  501    0 -0.15953972882E+02 -0.73041098876E+02  0.16572180687E+02  0.76691857120E+02  0.41800000000E+01 0. -1.
         -5    1    4    4    0  501 -0.83260564950E+02  0.32785093102E+02  0.10943762794E+02  0.90246453391E+02  0.41800000000E+01 0. -1.
</event>
<event>
11    1  0.8037748E-009  0.2317271E+03  0.7561462E-02  0.1034110E+00
         22   -1    0    0    0    0  0.00000000000E+00  0.00000000000E+00  0.38159348780E+03  0.38159348780E+03  0.00000000000E+00 0. -1.
         22   -1    0    0    0    0 -0.00000000000E+00 -0.00000000000E+00 -0.26328537226E+04  0.26328537226E+04  0.00000000000E+00 0. -1.
        -24    2    1    2    0    0  0.38601422939E+02 -0.10332663515E+03 -0.23766848057E+04  0.23805908561E+04  0.80098035556E+02 0.  0.
         25    2    1    2    0    0 -0.14525955610E+03 -0.71657633686E+02 -0.16724073709E+03  0.26429529301E+03  0.12508949860E+03 0.  0.
         24    2    1    2    0    0  0.10665813316E+03  0.17498426883E+03  0.29266530800E+03  0.36956106125E+03  0.94482505141E+02 0.  0.
        -13    1    5    5    0    0  0.32810528007E+02  0.10729715845E+03  0.91300027540E+02  0.14465443646E+03  0.00000000000E+00 0.  1.
         14    1    5    5    0    0  0.73847605156E+02  0.67687110385E+02  0.20136528046E+03  0.22490662479E+03  0.00000000000E+00 0. -1.
         13    1    3    3    0    0 -0.12054550144E+02 -0.67510444633E+02 -0.15831520546E+04  0.15846366777E+04  0.00000000000E+00 0. -1.
        -14    1    3    3    0    0  0.50655973083E+02 -0.35816190516E+02 -0.79353275105E+03  0.79595417840E+03  0.00000000000E+00 0.  1.
          5    1    4    4  501    0 -0.60045918234E+01  0.47376995897E+01  0.18148927888E+02  0.20133477192E+02  0.41800000000E+01 0.  1.
         -5    1    4    4    0  501 -0.13925496428E+03 -0.76395333276E+02 -0.18538966498E+03  0.24416181582E+03  0.41800000000E+01 0.  1.
</event>
<event>
11    1  0.8037748E-009  0.5693627E+03  0.7561462E-02  0.9250626E-01
         22   -1    0    0    0    0  0.00000000000E+00  0.00000000000E+00  0.11292833225E+04  0.11292833225E+04  0.00000000000E+00 0. -1.
         22   -1    0    0    0    0 -0.00000000000E+00 -0.00000000000E+00 -0.71765408019E+02  0.71765408019E+02  0.00000000000E+00 0. -1.
        -24    2    1    2    0    0 -0.71028520332E+02  0.17916821346E+02  0.14906551562E+03  0.18146784504E+03  0.73102583049E+02 0.  0.
         25    2    1    2    0    0  0.20099555959E+03 -0.13053774294E+03  0.57730198354E+03  0.63746793378E+03  0.12509384115E+03 0.  0.
         24    2    1    2    0    0 -0.12996703926E+03  0.11262092159E+03  0.33115041531E+03  0.38211295169E+03  0.82309215856E+02 0.  0.
        -11    1    5    5    0    0 -0.46101051869E+02  0.85704631303E+02  0.21789063779E+03  0.23863553978E+03  0.00000000000E+00 0.  1.
         12    1    5    5    0    0 -0.83865987392E+02  0.26916290287E+02  0.11325977752E+03  0.14347741191E+03  0.00000000000E+00 0. -1.
         13    1    3    3    0    0 -0.96124032521E+01  0.24663751313E+02  0.97382427331E+02  0.10091598525E+03  0.00000000000E+00 0. -1.
        -14    1    3    3    0    0 -0.61416117080E+02 -0.67469299675E+01  0.51683088287E+02  0.80551859792E+02  0.00000000000E+00 0.  1.
          5    1    4    4  501    0  0.20971579016E+03 -0.14337544919E+03  0.54838036250E+03  0.60438044843E+03  0.41800000000E+01 0.  1.
         -5    1    4    4    0  501 -0.87202305674E+01  0.12837706255E+02  0.28921621043E+02  0.33087485350E+02  0.41800000000E+01 0.  1.
</event>
<event>
11    1  0.8037748E-009  0.1399692E+03  0.7561462E-02  0.1107593E+00
         22   -1    0    0    0    0  0.00000000000E+00  0.00000000000E+00  0.70429880324E+02  0.70429880324E+02  0.00000000000E+00 0.  1.
         22   -1    0    0    0    0 -0.00000000000E+00 -0.00000000000E+00 -0.75801428110E+03  0.75801428110E+03  0.00000000000E+00 0. -1.
         24    2    1    2    0    0 -0.16004051620E+01  0.24532483374E+02 -0.47547072653E+03  0.48279279256E+03  0.80075369043E+02 0.  0.
         25    2    1    2    0    0  0.58978206955E+01 -0.82168261021E+02 -0.19721276165E+03  0.24764964568E+03  0.12510422149E+03 0.  0.
        -24    2    1    2    0    0 -0.42974155335E+01  0.57635777648E+02 -0.14900912591E+02  0.98001723184E+02  0.77729980739E+02 0.  0.
        -13    1    3    3    0    0  0.16668492610E+02  0.36964751727E+02 -0.12059364485E+03  0.12722837221E+03  0.00000000000E+00 0.  1.
         14    1    3    3    0    0 -0.18268897772E+02 -0.12432268354E+02 -0.35487708168E+03  0.35556442035E+03  0.00000000000E+00 0. -1.
         13    1    5    5    0    0  0.91270817925E+00  0.11239458834E+02 -0.42361521697E+02  0.43836708266E+02  0.00000000000E+00 0. -1.
        -14    1    5    5    0    0 -0.52101237128E+01  0.46396318814E+02  0.27460609106E+02  0.54165014918E+02  0.00000000000E+00 0.  1.
          5    1    4    4  501    0  0.18366192149E+02 -0.10645742630E+03 -0.10244716554E+03  0.14894091028E+03  0.41800000000E+01 0.  1.
         -5    1    4    4    0  501 -0.12468371454E+02  0.24289165275E+02 -0.94765596114E+02  0.98708735395E+02  0.41800000000E+01 0.  1.
</event>
<event>
11    1  0.8037748E-009  0.2229108E+03  0.7561462E-02  0.1039409E+00
         22   -1    0    0    0    0  0.00000000000E+00  0.00000000000E+00  0.65796829770E+03  0.65796829770E+03  0.00000000000E+00 0.  1.
         22   -1    0    0    0    0 -0.00000000000E+00 -0.00000000000E+00 -0.46419068154E+04  0.46419068154E+04  0.00000000000E+00 0.  1.
        -24    2    1    2    0    0 -0.32363383505E+02 -0.54529657779E+01 -0.43616414691E+04  0.43624961471E+04  0.79869926808E+02 0.  0.
         25    2    1    2    0    0 -0.10001163567E+03 -0.12564732709E+03 -0.22130107734E+03  0.30068416584E+03  0.12508885914E+03 0.  0.
         24    2    1    2    0    0  0.13237501918E+03  0.13110029287E+03  0.59900402877E+03  0.63669480012E+03  0.10892203415E+03 0.  0.
        -13    1    5    5    0    0  0.14031437234E+03  0.79025850352E+02  0.48671083531E+03  0.51266036059E+03  0.00000000000E+00 0.  1.
         14    1    5    5    0    0 -0.79393531644E+01  0.52074442521E+02  0.11229319346E+03  0.12403443953E+03  0.00000000000E+00 0. -1.
         11    1    3    3    0    0 -0.45083152571E+02 -0.20030755502E+02 -0.15433098604E+04  0.15440981339E+04  0.00000000000E+00 0. -1.
        -12    1    3    3    0    0  0.12719769065E+02  0.14577789724E+02 -0.28183316087E+04  0.28183980132E+04  0.00000000000E+00 0.  1.
          5    1    4    4  501    0 -0.50478972343E+02  0.15802627108E+02 -0.48248404561E+02  0.71716320423E+02  0.41800000000E+01 0.  1.
         -5    1    4    4    0  501 -0.49532663327E+02 -0.14144995420E+03 -0.17305267278E+03  0.22896784542E+03  0.41800000000E+01 0.  1.
</event>
<event>
11    1  0.8037748E-009  0.1403233E+03  0.7561462E-02  0.1107198E+00
         22   -1    0    0    0    0  0.00000000000E+00  0.00000000000E+00  0.81167962434E+03  0.81167962434E+03  0.00000000000E+00 0. -1.
         22   -1    0    0    0    0 -0.00000000000E+00 -0.00000000000E+00 -0.15875153077E+03  0.15875153077E+03  0.00000000000E+00 0. -1.
         24    2    1    2    0    0 -0.18516308737E+00  0.17926963056E+02 -0.11366640174E+03  0.14053681431E+03  0.80679210470E+02 0.  0.
         25    2    1    2    0    0  0.62089779310E+02 -0.12226984006E+01  0.14949910844E+03  0.20458583340E+03  0.12509494042E+03 0.  0.
        -24    2    1    2    0    0 -0.61904616222E+02 -0.16704264655E+02  0.61709538686E+03  0.62530850739E+03  0.78056383209E+02 0.  0.
        -11    1    3    3    0    0  0.30020378178E+02  0.12501088254E+02 -0.12534905257E+02  0.34851458553E+02  0.00000000000E+00 0.  1.
         12    1    3    3    0    0 -0.30205541265E+02  0.54258748019E+01 -0.10113149649E+03  0.10568535576E+03  0.00000000000E+00 0. -1.
         11    1    5    5    0    0  0.55054344468E+01  0.39975548709E+01  0.31571127501E+03  0.31578457756E+03  0.00000000000E+00 0. -1.
        -12    1    5    5    0    0 -0.67410050669E+02 -0.20701819526E+02  0.30138411185E+03  0.30952392983E+03  0.00000000000E+00 0.  1.
          5    1    4    4  501    0  0.49494642219E+02 -0.46940834105E+02  0.14035626820E+03  0.15611058881E+03  0.41800000000E+01 0.  1.
         -5    1    4    4    0  501  0.12595137090E+02  0.45718135704E+02  0.91428402408E+01  0.48475244592E+02  0.41800000000E+01 0.  1.
</event>
<event>
11    1  0.8037748E-009  0.1715315E+03  0.7561462E-02  0.1076707E+00
         22   -1    0    0    0    0  0.00000000000E+00  0.00000000000E+00  0.50588512909E+03  0.50588512909E+03  0.00000000000E+00 0. -1.
         22   -1    0    0    0    0 -0.00000000000E+00 -0.00000000000E+00 -0.22496448913E+04  0.22496448913E+04  0.00000000000E+00 0.  1.
        -24    2    1    2    0    0 -0.31453825582E+02  0.20541810761E+02 -0.21965619136E+04  0.21983740710E+04  0.80950643507E+02 0.  0.
         25    2    1    2    0    0  0.62585199135E+02  0.96186136360E+02  0.17835778932E+03  0.24622772726E+03  0.12509161716E+03 0.  0.
         24    2    1    2    0    0 -0.31131373553E+02 -0.11672794712E+03  0.27444436213E+03  0.31092822205E+03  0.82231838731E+02 0.  0.
        -11    1    5    5    0    0  0.28450769391E+00 -0.28707884829E+01 -0.59830676042E+01  0.66422487982E+01  0.00000000000E+00 0.  1.
         12    1    5    5    0    0 -0.31415881247E+02 -0.11385715864E+03  0.28042742974E+03  0.30428597325E+03  0.00000000000E+00 0. -1.
         11    1    3    3    0    0  0.13075540150E+02 -0.96800339204E+01 -0.11806986117E+03  0.11918542244E+03  0.00000000000E+00 0. -1.
        -12    1    3    3    0    0 -0.44529365733E+02  0.30221844681E+02 -0.20784920525E+04  0.20791886486E+04  0.00000000000E+00 0.  1.
          5    1    4    4  501    0  0.11880118577E+02  0.52533220392E+01 -0.18799209154E+02  0.23229663680E+02  0.41800000000E+01 0.  1.
         -5    1    4    4    0  501  0.50705080558E+02  0.90932814321E+02  0.19715699847E+03  0.22299806358E+03  0.41800000000E+01 0.  1.
</event>
<event>
11    1  0.8037748E-009  0.2368258E+03  0.7561462E-02  0.1031161E+00
         22   -1    0    0    0    0  0.00000000000E+00  0.00000000000E+00  0.37643650649E+03  0.37643650649E+03  0.00000000000E+00 0. -1.
         22   -1    0    0    0    0 -0.00000000000E+00 -0.00000000000E+00 -0.26502538801E+04  0.26502538801E+04  0.00000000000E+00 0. -1.
         24    2    1    2    0    0 -0.88853988962E+02  0.17834830056E+03 -0.18896160221E+04  0.19022803176E+04  0.91206076219E+02 0.  0.
         25    2    1    2    0    0 -0.89621959968E+02 -0.26175805657E+03 -0.68880661718E+03  0.75276268218E+03  0.12509086267E+03 0.  0.
        -24    2    1    2    0    0  0.17847594893E+03  0.83409756006E+02  0.30460526558E+03  0.37164738683E+03  0.80787131243E+02 0.  0.
        -13    1    3    3    0    0 -0.77240564654E+02  0.79337141305E+02 -0.72517427585E+03  0.73357904630E+03  0.00000000000E+00 0.  1.
         14    1    3    3    0    0 -0.11613424308E+02  0.99011159259E+02 -0.11644417462E+04  0.11687012713E+04  0.00000000000E+00 0. -1.
         13    1    5    5    0    0  0.16712144687E+03  0.65265818948E+02  0.30030235377E+03  0.34981524953E+03  0.00000000000E+00 0. -1.
        -14    1    5    5    0    0  0.11354502065E+02  0.18143937058E+02  0.43029118167E+01  0.21832137303E+02  0.00000000000E+00 0.  1.
          5    1    4    4  501    0 -0.83153078873E+02 -0.26289832618E+03 -0.69155150949E+03  0.74450717062E+03  0.41800000000E+01 0.  1.
         -5    1    4    4    0  501 -0.64688810947E+01  0.11402696113E+01  0.27448923018E+01  0.82555115621E+01  0.41800000000E+01 0.  1.
</event>
<event>
11    1  0.8037748E-009  0.1393361E+03  0.7561462E-02  0.1108302E+00
         22   -1    0    0    0    0  0.00000000000E+00  0.00000000000E+00  0.17598326154E+03  0.17598326154E+03  0.00000000000E+00 0. -1.
         22   -1    0    0    0    0 -0.00000000000E+00 -0.00000000000E+00 -0.23575293176E+03  0.23575293176E+03  0.00000000000E+00 0. -1.
         24    2    1    2    0    0  0.14235956944E+02  0.44163590931E+02 -0.12284845931E+03  0.15467413614E+03  0.81726734921E+02 0.  0.
         25    2    1    2    0    0  0.13083400983E+02 -0.87149035252E+02  0.22309187776E+02  0.15461828284E+03  0.12507191453E+03 0.  0.
        -24    2    1    2    0    0 -0.27319357927E+02  0.42985444321E+02  0.40769601314E+02  0.10244377432E+03  0.78983990560E+02 0.  0.
        -13    1    3    3    0    0 -0.34236646702E+02  0.20793851890E+02 -0.56176443748E+02  0.68995109145E+02  0.00000000000E+00 0.  1.
         14    1    3    3    0    0  0.48472603646E+02  0.23369739041E+02 -0.66672015563E+02  0.85679026992E+02  0.00000000000E+00 0. -1.
         11    1    5    5    0    0  0.14879646699E+02  0.19944850056E+02  0.47765060610E+02  0.53858165070E+02  0.00000000000E+00 0. -1.
        -12    1    5    5    0    0 -0.42199004626E+02  0.23040594264E+02 -0.69954592958E+01  0.48585609250E+02  0.00000000000E+00 0.  1.
          5    1    4    4  501    0  0.58896080013E+02 -0.72309484045E+02 -0.13685509161E+02  0.94351339602E+02  0.41800000000E+01 0.  1.
         -5    1    4    4    0  501 -0.45812679030E+02 -0.14839551207E+02  0.35994696937E+02  0.60266943240E+02  0.41800000000E+01 0.  1.
</event>
<event>
11    1  0.8037748E-009  0.3586413E+03  0.7561462E-02  0.9780345E-01
         22   -1    0    0    0    0  0.00000000000E+00  0.00000000000E+00  0.40031280036E+03  0.40031280036E+03  0.00000000000E+00 0. -1.
         22   -1    0    0    0    0 -0.00000000000E+00 -0.00000000000E+00 -0.41639332299E+04  0.41639332299E+04  0.00000000000E+00 0. -1.
        -24    2    1    2    0    0  0.16625179187E+03  0.29036493828E+03 -0.35090508245E+04  0.35257841834E+04  0.75927355266E+02 0.  0.
         25    2    1    2    0    0 -0.17774737288E+03 -0.29662208654E+03 -0.58892136893E+03  0.69430133700E+03  0.12508867649E+03 0.  0.
         24    2    1    2    0    0  0.11495581011E+02  0.62571482603E+01  0.33435176396E+03  0.34416050979E+03  0.80523624799E+02 0.  0.
        -13    1    5    5    0    0 -0.15725279810E+02  0.20097992595E+02  0.35324031298E+02  0.43577527679E+02  0.00000000000E+00 0.  1.
         14    1    5    5    0    0  0.27220860821E+02 -0.13840844335E+02  0.29902773266E+03  0.30058298212E+03  0.00000000000E+00 0. -1.
         13    1    3    3    0    0  0.14359509394E+03  0.25444848874E+03 -0.32668197127E+04  0.32798589329E+04  0.00000000000E+00 0. -1.
        -14    1    3    3    0    0  0.22656697930E+02  0.35916449542E+02 -0.24223111183E+03  0.24592525053E+03  0.00000000000E+00 0.  1.
          5    1    4    4  501    0 -0.20254744854E+02 -0.35275303854E+02 -0.13662726658E+02  0.43113156354E+02  0.41800000000E+01 0. -1.
         -5    1    4    4    0  501 -0.15749262803E+03 -0.26134678269E+03 -0.57525864227E+03  0.65118818064E+03  0.41800000000E+01 0. -1.
</event>
<event>
11    1  0.8037748E-009  0.2406426E+03  0.7561462E-02  0.1029006E+00
         22   -1    0    0    0    0  0.00000000000E+00  0.00000000000E+00  0.31207744117E+03  0.31207744117E+03  0.00000000000E+00 0. -1.
         22   -1    0    0    0    0 -0.00000000000E+00 -0.00000000000E+00 -0.15521068255E+04  0.15521068255E+04  0.00000000000E+00 0.  1.
         24    2    1    2    0    0  0.79627034599E+02 -0.10445539447E+03 -0.13152171268E+04  0.13239134899E+04  0.75494662687E+02 0.  0.
         25    2    1    2    0    0 -0.24311098508E+03  0.16977368740E+03 -0.23536304495E+02  0.32268802720E+03  0.12509016455E+03 0.  0.
        -24    2    1    2    0    0  0.16348395048E+03 -0.65318292936E+02  0.98724046889E+02  0.21758274962E+03  0.81254747810E+02 0.  0.
        -13    1    3    3    0    0  0.90426084219E+02 -0.10274500392E+03 -0.11102189460E+04  0.11186239406E+04  0.00000000000E+00 0.  1.
         14    1    3    3    0    0 -0.10799049620E+02 -0.17103905453E+01 -0.20499818081E+03  0.20528954928E+03  0.00000000000E+00 0. -1.
         13    1    5    5    0    0  0.17118676876E+03 -0.67655175840E+02  0.99923914118E+02  0.20944431534E+03  0.00000000000E+00 0. -1.
        -14    1    5    5    0    0 -0.77028182793E+01  0.23368829035E+01 -0.11998672289E+01  0.81384342791E+01  0.00000000000E+00 0.  1.
          5    1    4    4  501    0 -0.68731140408E+02  0.27602688206E+02 -0.59122145997E+02  0.94861892271E+02  0.41800000000E+01 0. -1.
         -5    1    4    4    0  501 -0.17437984467E+03  0.14217099920E+03  0.35585841502E+02  0.22782613493E+03  0.41800000000E+01 0. -1.
</event>
<event>
11    1  0.8037748E-009  0.2846175E+03  0.7561462E-02  0.1006920E+00
         22   -1    0    0    0    0  0.00000000000E+00  0.00000000000E+00  0.13797455663E+03  0.13797455663E+03  0.00000000000E+00 0. -1.
         22   -1    0    0    0    0 -0.00000000000E+00 -0.00000000000E+00 -0.22579371559E+04  0.22579371559E+04  0.00000000000E+00 0. -1.
        -24    2    1    2    0    0  0.10286479746E+02  0.93592055027E+01 -0.15499601727E+04  0.15518830333E+04  0.75967134573E+02 0.  0.
         25    2    1    2    0    0  0.22163133032E+03  0.10618359474E+03 -0.48843279882E+03  0.56089983470E+03  0.12508646305E+03 0.  0.
         24    2    1    2    0    0 -0.23191781007E+03 -0.11554280024E+03 -0.81569627757E+02  0.28312884459E+03  0.79826869857E+02 0.  0.
        -11    1    5    5    0    0  0.58668102941E+01 -0.81211777825E+01 -0.50341229918E+01  0.11212287273E+02  0.00000000000E+00 0.  1.
         12    1    5    5    0    0 -0.23778462036E+03 -0.10742162246E+03 -0.76535504766E+02  0.27191655731E+03  0.00000000000E+00 0. -1.
         11    1    3    3    0    0 -0.32019688944E+02  0.86714015329E+01 -0.84819871458E+03  0.84884716710E+03  0.00000000000E+00 0. -1.
        -12    1    3    3    0    0  0.42306168690E+02  0.68780396979E+00 -0.70176145815E+03  0.70303586617E+03  0.00000000000E+00 0.  1.
          5    1    4    4  501    0 -0.42003435472E+00 -0.18920713070E+02 -0.51805155595E+02  0.55311991088E+02  0.41800000000E+01 0.  1.
         -5    1    4    4    0  501  0.22205136468E+03  0.12510430781E+03 -0.43662764322E+03  0.50558784362E+03  0.41800000000E+01 0.  1.
</event>
<event>
11    1  0.8037748E-009  0.1470554E+03  0.7561462E-02  0.1099926E+00
         22   -1    0    0    0    0  0.00000000000E+00  0.00000000000E+00  0.47927841857E+03  0.47927841857E+03  0.00000000000E+00 0.  1.
         22   -1    0    0    0    0 -0.00000000000E+00 -0.00000000000E+00 -0.85086895688E+03  0.85086895688E+03  0.00000000000E+00 0.  1.
         24    2    1    2    0    0  0.24465412233E+02 -0.73348956202E+02 -0.81613464841E+03  0.82466953111E+03  0.89584850419E+02 0.  0.
         25    2    1    2    0    0 -0.56056871136E+02  0.62406394398E+02  0.24389656940E+03  0.28665274554E+03  0.12508928452E+03 0.  0.
        -24    2    1    2    0    0  0.31591458903E+02  0.10942561804E+02  0.20064754071E+03  0.21882509880E+03  0.80667393277E+02 0.  0.
        -13    1    3    3    0    0 -0.17887450955E+02 -0.73761629586E+02 -0.53858776055E+03  0.54390947291E+03  0.00000000000E+00 0.  1.
         14    1    3    3    0    0  0.42352863189E+02  0.41267338385E+00 -0.27754688786E+03  0.28076005820E+03  0.00000000000E+00 0. -1.
         11    1    5    5    0    0  0.55693739801E+00  0.18594010859E+02  0.17958443405E+03  0.18054533052E+03  0.00000000000E+00 0. -1.
        -12    1    5    5    0    0  0.31034521505E+02 -0.76514490549E+01  0.21063106662E+02  0.38279768285E+02  0.00000000000E+00 0.  1.
          5    1    4    4  501    0  0.98726513161E+01  0.71132376126E+01 -0.11414130998E+02  0.17199481963E+02  0.41800000000E+01 0.  1.
         -5    1    4    4    0  501 -0.65929522452E+02  0.55293156786E+02  0.25531070040E+03  0.26945326358E+03  0.41800000000E+01 0.  1.
</event>
<event>
11    1  0.8037748E-009  0.1607912E+03  0.7561462E-02  0.1086335E+00
         22   -1    0    0    0    0  0.00000000000E+00  0.00000000000E+00  0.27974843624E+03  0.27974843624E+03  0.00000000000E+00 0.  1.
         22   -1    0    0    0    0 -0.00000000000E+00 -0.00000000000E+00 -0.42205635411E+03  0.42205635411E+03  0.00000000000E+00 0.  1.
        -24    2    1    2    0    0  0.98211255514E+02  0.55471578784E+02 -0.28605540988E+03  0.31727440681E+03  0.78184428971E+02 0.  0.
         25    2    1    2    0    0 -0.20865410121E+02 -0.79113156320E+02 -0.51739001680E+02  0.15816699776E+03  0.12508244498E+03 0.  0.
         24    2    1    2    0    0 -0.77345845393E+02  0.23641577536E+02  0.19548649368E+03  0.22636338578E+03  0.80523966762E+02 0.  0.
        -13    1    5    5    0    0 -0.94066344811E+02  0.14844791894E+02  0.16232204924E+03  0.18819482656E+03  0.00000000000E+00 0.  1.
         14    1    5    5    0    0  0.16720499418E+02  0.87967856418E+01  0.33164444441E+02  0.38168559227E+02  0.00000000000E+00 0. -1.
         13    1    3    3    0    0  0.26113792965E+02 -0.19980349888E+02 -0.68006135526E+02  0.75537931094E+02  0.00000000000E+00 0. -1.
        -14    1    3    3    0    0  0.72097462549E+02  0.75451928672E+02 -0.21804927435E+03  0.24173647572E+03  0.00000000000E+00 0.  1.
          5    1    4    4  501    0  0.11005769872E+02 -0.64810243273E+02  0.27567452381E+02  0.71406802438E+02  0.41800000000E+01 0. -1.
         -5    1    4    4    0  501 -0.31871179993E+02 -0.14302913047E+02 -0.79306454061E+02  0.86760195317E+02  0.41800000000E+01 0. -1.
</event>
<event>
11    1  0.8037748E-009  0.3415064E+03  0.7561462E-02  0.9840098E-01
         22   -1    0    0    0    0  0.00000000000E+00  0.00000000000E+00  0.67640681468E+03  0.67640681468E+03  0.00000000000E+00 0.  1.
         22   -1    0    0    0    0 -0.00000000000E+00 -0.00000000000E+00 -0.10588720052E+04  0.10588720052E+04  0.00000000000E+00 0. -1.
        -24    2    1    2    0    0 -0.28301100925E+03  0.10261645621E+03 -0.68695898004E+03  0.75449924366E+03  0.82043281171E+02 0.  0.
         25    2    1    2    0    0  0.37315626082E+03 -0.76494119883E+02 -0.20924043695E+03  0.45225226489E+03  0.12511436879E+03 0.  0.
         24    2    1    2    0    0 -0.90145251573E+02 -0.26122336325E+02  0.51373422649E+03  0.52852731132E+03  0.81300187609E+02 0.  0.
        -13    1    5    5    0    0 -0.87185558930E+02 -0.49623462249E+02  0.42589799734E+03  0.43755332684E+03  0.00000000000E+00 0.  1.
         14    1    5    5    0    0 -0.29596926427E+01  0.23501125924E+02  0.87836229146E+02  0.90973984472E+02  0.00000000000E+00 0. -1.
         13    1    3    3    0    0 -0.21008710427E+03  0.91557224728E+02 -0.58796766874E+03  0.63105094586E+03  0.00000000000E+00 0. -1.
        -14    1    3    3    0    0 -0.72923904977E+02  0.11059231480E+02 -0.98991311301E+02  0.12344829781E+03  0.00000000000E+00 0.  1.
          5    1    4    4  501    0  0.29490839556E+03 -0.64432285874E+02 -0.10153074344E+03  0.31850972591E+03  0.41800000000E+01 0. -1.
         -5    1    4    4    0  501  0.78247865259E+02 -0.12061834010E+02 -0.10770969351E+03  0.13374253898E+03  0.41800000000E+01 0. -1.
</event>
<event>
11    1  0.8037748E-009  0.2040471E+03  0.7561462E-02  0.1051698E+00
         22   -1    0    0    0    0  0.00000000000E+00  0.00000000000E+00  0.16297362780E+03  0.16297362780E+03  0.00000000000E+00 0. -1.
         22   -1    0    0    0    0 -0.00000000000E+00 -0.00000000000E+00 -0.19034842231E+04  0.19034842231E+04  0.00000000000E+00 0.  1.
         24    2    1    2    0    0  0.22727929990E+02 -0.15914246733E+03 -0.12025945871E+04  0.12157581568E+04  0.77403302309E+02 0.  0.
         25    2    1    2    0    0  0.28144560964E+01  0.16368138714E+03 -0.66676795185E+03  0.69787355597E+03  0.12509388814E+03 0.  0.
        -24    2    1    2    0    0 -0.25542386086E+02 -0.45389198146E+01  0.12885194367E+03  0.15282613810E+03  0.77974289463E+02 0.  0.
        -11    1    3    3    0    0 -0.11666382850E+02 -0.13498483789E+03 -0.96668921758E+03  0.97613782548E+03  0.00000000000E+00 0.  1.
         12    1    3    3    0    0  0.34394312840E+02 -0.24157629437E+02 -0.23590536950E+03  0.23962033131E+03  0.00000000000E+00 0. -1.
         11    1    5    5    0    0  0.16639835817E+02  0.69042643005E+01  0.97216510205E+02  0.98871648404E+02  0.00000000000E+00 0. -1.
        -12    1    5    5    0    0 -0.42182221903E+02 -0.11443184115E+02  0.31635433467E+02  0.53954489693E+02  0.00000000000E+00 0.  1.
          5    1    4    4  501    0 -0.51579899572E+02  0.13396473594E+03 -0.48215780715E+03  0.50309110498E+03  0.41800000000E+01 0. -1.
         -5    1    4    4    0  501  0.54394355668E+02  0.29716651197E+02 -0.18461014470E+03  0.19478245099E+03  0.41800000000E+01 0. -1.
</event>
<event>
11    1  0.8037748E-009  0.1548281E+03  0.7561462E-02  0.1092045E+00
         22   -1    0    0    0    0  0.00000000000E+00  0.00000000000E+00  0.51680039141E+03  0.51680039141E+03  0.00000000000E+00 0.  1.
         22   -1    0    0    0    0 -0.00000000000E+00 -0.00000000000E+00 -0.40459702556E+03  0.40459702556E+03  0.00000000000E+00 0. -1.
         24    2    1    2    0    0  0.47789949762E+01 -0.28266903529E+02 -0.28326038068E+03  0.29599076531E+03  0.80945866205E+02 0.  0.
         25    2    1    2    0    0 -0.81952845897E+02  0.74338273006E+02 -0.41254429706E+02  0.17202081064E+03  0.12508710380E+03 0.  0.
        -24    2    1    2    0    0  0.77173850921E+02 -0.46071369477E+02  0.43671817623E+03  0.45338584103E+03  0.82204507427E+02 0.  0.
        -11    1    3    3    0    0 -0.30483241172E+02 -0.85681643013E+01 -0.49464153263E+02  0.58731115177E+02  0.00000000000E+00 0.  1.
         12    1    3    3    0    0  0.35262236149E+02 -0.19698739228E+02 -0.23379622742E+03  0.23725965013E+03  0.00000000000E+00 0. -1.
         11    1    5    5    0    0  0.57136863467E+02 -0.47924733715E+02  0.16672028171E+03  0.18263913491E+03  0.00000000000E+00 0. -1.
        -12    1    5    5    0    0  0.20036987453E+02  0.18533642376E+01  0.26999789452E+03  0.27074670612E+03  0.00000000000E+00 0.  1.
          5    1    4    4  501    0  0.30420432993E+02  0.29058756566E+02 -0.26514935355E+02  0.49903189012E+02  0.41800000000E+01 0. -1.
         -5    1    4    4    0  501 -0.11237327889E+03  0.45279516440E+02 -0.14739494351E+02  0.12211762163E+03  0.41800000000E+01 0. -1.
</event>
<event>
11    1  0.8037748E-009  0.1445904E+03  0.7561462E-02  0.1102538E+00
         22   -1    0    0    0    0  0.00000000000E+00  0.00000000000E+00  0.37911853783E+03  0.37911853783E+03  0.00000000000E+00 0.  1.
         22   -1    0    0    0    0 -0.00000000000E+00 -0.00000000000E+00 -0.82677029028E+03  0.82677029028E+03  0.00000000000E+00 0. -1.
        -24    2    1    2    0    0 -0.71709806598E+02 -0.68108103393E+01 -0.67371221847E+03  0.68226735521E+03  0.80074385183E+02 0.  0.
         25    2    1    2    0    0  0.33799184199E+02 -0.57881239752E+02 -0.10377251442E+03  0.17580758471E+03  0.12508776649E+03 0.  0.
         24    2    1    2    0    0  0.37910622399E+02  0.64692050091E+02  0.32983298044E+03  0.34781388820E+03  0.81008821744E+02 0.  0.
        -13    1    5    5    0    0  0.38137064888E+02  0.73199216589E+02  0.32907705586E+03  0.33927020164E+03  0.00000000000E+00 0.  1.
         14    1    5    5    0    0 -0.22644248902E+00 -0.85071664979E+01  0.75592458215E+00  0.85436865578E+01  0.00000000000E+00 0. -1.
         11    1    3    3    0    0 -0.66296093649E+02 -0.37639400756E+02 -0.49458013775E+03  0.50042123175E+03  0.00000000000E+00 0. -1.
        -12    1    3    3    0    0 -0.54137129492E+01  0.30828590417E+02 -0.17913208072E+03  0.18184612346E+03  0.00000000000E+00 0.  1.
          5    1    4    4  501    0  0.33458496197E+02  0.28531232685E+02 -0.49192384828E+01  0.44442924223E+02  0.41800000000E+01 0. -1.
         -5    1    4    4    0  501  0.34068800253E+00 -0.86412472436E+02 -0.98853275938E+02  0.13136466049E+03  0.41800000000E+01 0. -1.
</event>
<event>
11    1  0.8037748E-009  0.1374872E+03  0.7561462E-02  0.1110397E+00
         22   -1    0    0    0    0  0.00000000000E+00  0.00000000000E+00  0.16882906382E+04  0.16882906382E+04  0.00000000000E+00 0.  1.
         22   -1    0    0    0    0 -0.00000000000E+00 -0.00000000000E+00 -0.24202615207E+03  0.24202615207E+03  0.00000000000E+00 0. -1.
        -24    2    1    2    0    0  0.28248959865E+01 -0.28616864542E+02 -0.18166201887E+03  0.20015668609E+03  0.78960147622E+02 0.  0.
         25    2    1    2    0    0  0.50325176982E+02  0.68208546091E+01  0.42271989573E+02  0.14147087127E+03  0.12509172163E+03 0.  0.
         24    2    1    2    0    0 -0.53150072968E+02  0.21796009932E+02  0.15856545155E+04  0.15886892329E+04  0.79581657221E+02 0.  0.
        -13    1    5    5    0    0 -0.18398796175E+02  0.47788669141E+02  0.10645147286E+04  0.10657456920E+04  0.00000000000E+00 0.  1.
         14    1    5    5    0    0 -0.34751276794E+02 -0.25992659209E+02  0.52113978689E+03  0.52294354097E+03  0.00000000000E+00 0. -1.
         13    1    3    3    0    0  0.20207595807E+02 -0.54187238801E+01 -0.16579562560E+03  0.16711043943E+03  0.00000000000E+00 0. -1.
        -14    1    3    3    0    0 -0.17382699820E+02 -0.23198140661E+02 -0.15866393273E+02  0.33046246665E+02  0.00000000000E+00 0.  1.
          5    1    4    4  501    0  0.88466238756E+02  0.94821198479E+01  0.71025090694E+01  0.89353813749E+02  0.41800000000E+01 0. -1.
         -5    1    4    4    0  501 -0.38141061774E+02 -0.26612652388E+01  0.35169480504E+02  0.52117057523E+02  0.41800000000E+01 0. -1.
</event>
<event>
11    1  0.8037748E-009  0.6028030E+03  0.7561462E-02  0.9189237E-01
         22   -1    0    0    0    0  0.00000000000E+00  0.00000000000E+00  0.77028994841E+03  0.77028994841E+03  0.00000000000E+00 0. -1.
         22   -1    0    0    0    0 -0.00000000000E+00 -0.00000000000E+00 -0.95665547580E+03  0.95665547580E+03  0.00000000000E+00 0. -1.
        -24    2    1    2    0    0 -0.29777101863E+03  0.51524750018E+03 -0.58913033784E+03  0.84128131401E+03  0.80821583487E+02 0.  0.
         25    2    1    2    0    0  0.17196136838E+03 -0.55730543175E+03  0.19765599535E+03  0.62839145302E+03  0.12509144358E+03 0.  0.
         24    2    1    2    0    0  0.12580965025E+03  0.42057931573E+02  0.20510881510E+03  0.25727265718E+03  0.80762964278E+02 0.  0.
        -13    1    5    5    0    0  0.74944044134E+02  0.65271037514E+02  0.13266643732E+03  0.16576278738E+03  0.00000000000E+00 0.  1.
         14    1    5    5    0    0  0.50865606114E+02 -0.23213105941E+02  0.72442377781E+02  0.91509869803E+02  0.00000000000E+00 0. -1.
         11    1    3    3    0    0 -0.28726425144E+03  0.49724752281E+03 -0.54155106734E+03  0.78933732184E+03  0.00000000000E+00 0. -1.
        -12    1    3    3    0    0 -0.10506767181E+02  0.17999977371E+02 -0.47579270493E+02  0.51943992170E+02  0.00000000000E+00 0.  1.
          5    1    4    4  501    0  0.23707095944E+02 -0.18179231249E+03  0.11445583598E+03  0.21616679225E+03  0.41800000000E+01 0.  1.
         -5    1    4    4    0  501  0.14825427243E+03 -0.37551311926E+03  0.83200159366E+02  0.41222466078E+03  0.41800000000E+01 0.  1.
</event>
<event>
11    1  0.8037748E-009  0.1425180E+03  0.7561462E-02  0.1104779E+00
         22   -1    0    0    0    0  0.00000000000E+00  0.00000000000E+00  0.12315836866E+04  0.12315836866E+04  0.00000000000E+00 0.  1.
         22   -1    0    0    0    0 -0.00000000000E+00 -0.00000000000E+00 -0.58123738866E+03  0.58123738866E+03  0.00000000000E+00 0.  1.
         24    2    1    2    0    0  0.58194826240E+01  0.28909777328E+02 -0.54202135770E+03  0.54883309143E+03  0.80999805205E+02 0.  0.
         25    2    1    2    0    0 -0.45765661301E+02 -0.81223687809E+02  0.15473885476E+03  0.21973800706E+03  0.12509554491E+03 0.  0.
        -24    2    1    2    0    0  0.39946178677E+02  0.52313910481E+02  0.10376288009E+04  0.10442499768E+04  0.97221618698E+02 0.  0.
        -11    1    3    3    0    0  0.17561958258E+02  0.51621868555E+02 -0.26006608568E+03  0.26572092242E+03  0.00000000000E+00 0.  1.
         12    1    3    3    0    0 -0.11742475634E+02 -0.22712091227E+02 -0.28195527202E+03  0.28311216901E+03  0.00000000000E+00 0. -1.
         11    1    5    5    0    0 -0.30721931668E+02  0.25046820210E+02  0.45383761417E+03  0.45556531949E+03  0.00000000000E+00 0. -1.
        -12    1    5    5    0    0  0.70668110345E+02  0.27267090272E+02  0.58379118673E+03  0.58868465729E+03  0.00000000000E+00 0.  1.
          5    1    4    4  501    0 -0.10126795265E+02  0.32536101820E+02  0.19789563395E+02  0.39626369040E+02  0.41800000000E+01 0.  1.
         -5    1    4    4    0  501 -0.35638866036E+02 -0.11375978963E+03  0.13494929137E+03  0.18011163802E+03  0.41800000000E+01 0.  1.
</event>
<event>
11    1  0.8037748E-009  0.5106279E+03  0.7561462E-02  0.9370082E-01
         22   -1    0    0    0    0  0.00000000000E+00  0.00000000000E+00  0.17007015574E+04  0.17007015574E+04  0.00000000000E+00 0. -1.
         22   -1    0    0    0    0 -0.00000000000E+00 -0.00000000000E+00 -0.38328426519E+02  0.38328426519E+02  0.00000000000E+00 0.  1.
         24    2    1    2    0    0  0.31037472046E+02  0.19925128959E+02  0.27027350185E+03  0.28472355352E+03  0.81605151106E+02 0.  0.
         25    2    1    2    0    0 -0.15785218078E+03 -0.12154742919E+03  0.69254264276E+03  0.73140423621E+03  0.12508299722E+03 0.  0.
        -24    2    1    2    0    0  0.12681470873E+03  0.10162230023E+03  0.69955698625E+03  0.72290219417E+03  0.82453278131E+02 0.  0.
        -11    1    3    3    0    0  0.82620196616E+01 -0.98262815803E+01  0.10232555106E+01  0.12878813238E+02  0.00000000000E+00 0.  1.
         12    1    3    3    0    0  0.22775452385E+02  0.29751410539E+02  0.26925024634E+03  0.27184474028E+03  0.00000000000E+00 0. -1.
         11    1    5    5    0    0  0.64040703162E+02  0.41303278139E+02  0.49139751382E+03  0.49727124292E+03  0.00000000000E+00 0. -1.
        -12    1    5    5    0    0  0.62774005568E+02  0.60319022091E+02  0.20815947243E+03  0.22563095125E+03  0.00000000000E+00 0.  1.
          5    1    4    4  501    0 -0.29795130638E+01 -0.12333718637E+02 -0.30710854558E-01  0.13359320966E+02  0.41800000000E+01 0.  1.
         -5    1    4    4    0  501 -0.15487266771E+03 -0.10921371055E+03  0.69257335362E+03  0.71804491525E+03  0.41800000000E+01 0.  1.
</event>
<event>
11    1  0.8037748E-009  0.5806955E+03  0.7561462E-02  0.9229332E-01
         22   -1    0    0    0    0  0.00000000000E+00  0.00000000000E+00  0.11105803799E+04  0.11105803799E+04  0.00000000000E+00 0. -1.
         22   -1    0    0    0    0 -0.00000000000E+00 -0.00000000000E+00 -0.39037080622E+03  0.39037080622E+03  0.00000000000E+00 0. -1.
        -24    2    1    2    0    0  0.15824694120E+02  0.49221921788E+00 -0.50696774984E+02  0.11098258219E+03  0.97448998623E+02 0.  0.
         25    2    1    2    0    0 -0.24542415230E+03 -0.51491006962E+03  0.44601043581E+03  0.73480477838E+03  0.12508940461E+03 0.  0.
         24    2    1    2    0    0  0.22959945818E+03  0.51441785040E+03  0.32489591289E+03  0.65516382558E+03  0.79628186800E+02 0.  0.
        -13    1    5    5    0    0  0.43387365483E+02  0.18828926953E+03  0.10301404221E+03  0.21896850321E+03  0.00000000000E+00 0.  1.
         14    1    5    5    0    0  0.18621209269E+03  0.32612858087E+03  0.22188187068E+03  0.43619532237E+03  0.00000000000E+00 0. -1.
         11    1    3    3    0    0 -0.22056545830E+02  0.37971280013E+02 -0.13304320701E+02  0.45883703742E+02  0.00000000000E+00 0. -1.
        -12    1    3    3    0    0  0.37881239951E+02 -0.37479060795E+02 -0.37392454283E+02  0.65098878451E+02  0.00000000000E+00 0.  1.
          5    1    4    4  501    0 -0.15733198497E+03 -0.27049838771E+03  0.31413083804E+03  0.44341671941E+03  0.41800000000E+01 0. -1.
         -5    1    4    4    0  501 -0.88092167329E+02 -0.24441168191E+03  0.13187959778E+03  0.29138805896E+03  0.41800000000E+01 0. -1.
</event>
<event>
11    1  0.8037748E-009  0.1500717E+03  0.7561462E-02  0.1096806E+00
         22   -1    0    0    0    0  0.00000000000E+00  0.00000000000E+00  0.65575244569E+03  0.65575244569E+03  0.00000000000E+00 0.  1.
         22   -1    0    0    0    0 -0.00000000000E+00 -0.00000000000E+00 -0.62085750009E+03  0.62085750009E+03  0.00000000000E+00 0. -1.
         24    2    1    2    0    0 -0.24660406564E+02  0.63011888850E+02 -0.53577909346E+03  0.54580858102E+03  0.79177877831E+02 0.  0.
         25    2    1    2    0    0  0.24798158598E+02  0.24572967137E+02 -0.17186754582E+02  0.13100203023E+03  0.12508944003E+03 0.  0.
        -24    2    1    2    0    0 -0.13775203377E+00 -0.87584855987E+02  0.58786079364E+03  0.59979933453E+03  0.80670955256E+02 0.  0.
        -13    1    3    3    0    0  0.14366456375E+02  0.22623923339E+02 -0.49433144229E+02  0.56230531959E+02  0.00000000000E+00 0.  1.
         14    1    3    3    0    0 -0.39026862939E+02  0.40387965510E+02 -0.48634594923E+03  0.48957804906E+03  0.00000000000E+00 0. -1.
         11    1    5    5    0    0  0.31475300711E+02 -0.11526448795E+02  0.23945885835E+03  0.24179350367E+03  0.00000000000E+00 0. -1.
        -12    1    5    5    0    0 -0.31613052745E+02 -0.76058407192E+02  0.34840193529E+03  0.35800583085E+03  0.00000000000E+00 0.  1.
          5    1    4    4  501    0  0.47568037428E+02  0.28189166854E+02 -0.60307969707E+02  0.81926008831E+02  0.41800000000E+01 0. -1.
         -5    1    4    4    0  501 -0.22769878830E+02 -0.36161997171E+01  0.43121215126E+02  0.49076021398E+02  0.41800000000E+01 0. -1.
</event>
<event>
11    1  0.8037748E-009  0.2874375E+03  0.7561462E-02  0.1005653E+00
         22   -1    0    0    0    0  0.00000000000E+00  0.00000000000E+00  0.10667148752E+03  0.10667148752E+03  0.00000000000E+00 0. -1.
         22   -1    0    0    0    0 -0.00000000000E+00 -0.00000000000E+00 -0.23383819034E+04  0.23383819034E+04  0.00000000000E+00 0. -1.
         24    2    1    2    0    0  0.25426126806E+03  0.19071510766E+02 -0.15622745064E+04  0.15850379314E+04  0.81431539752E+02 0.  0.
         25    2    1    2    0    0 -0.27020507794E+03  0.16001914980E+02 -0.70358579989E+03  0.76416475819E+03  0.12509178399E+03 0.  0.
        -24    2    1    2    0    0  0.15943809883E+02 -0.35073425745E+02  0.34149890471E+02  0.95850701281E+02  0.80850427642E+02 0.  0.
        -11    1    3    3    0    0  0.44076770776E+02 -0.10706754073E+02 -0.48016185071E+03  0.48229949117E+03  0.00000000000E+00 0.  1.
         12    1    3    3    0    0  0.21018449728E+03  0.29778264838E+02 -0.10821126557E+04  0.11027384403E+04  0.00000000000E+00 0. -1.
         11    1    5    5    0    0  0.38795079919E+02 -0.10930191228E+02  0.45443113670E+02  0.60742109662E+02  0.00000000000E+00 0. -1.
        -12    1    5    5    0    0 -0.22851270037E+02 -0.24143234517E+02 -0.11293223199E+02  0.35108591619E+02  0.00000000000E+00 0.  1.
          5    1    4    4  501    0 -0.18527489072E+03 -0.76680583565E+01 -0.60029832858E+03  0.62830019890E+03  0.41800000000E+01 0. -1.
         -5    1    4    4    0  501 -0.84930187226E+02  0.23669973336E+02 -0.10328747131E+03  0.13586455929E+03  0.41800000000E+01 0. -1.
</event>
<event>
11    1  0.8037748E-009  0.1730226E+03  0.7561462E-02  0.1075431E+00
         22   -1    0    0    0    0  0.00000000000E+00  0.00000000000E+00  0.43700445728E+03  0.43700445728E+03  0.00000000000E+00 0.  1.
         22   -1    0    0    0    0 -0.00000000000E+00 -0.00000000000E+00 -0.12053075771E+04  0.12053075771E+04  0.00000000000E+00 0.  1.
         24    2    1    2    0    0 -0.11552097100E+03 -0.26178063297E+02 -0.98287716036E+03  0.99313599442E+03  0.79001299458E+02 0.  0.
         25    2    1    2    0    0  0.12955940853E+03  0.44648208703E+01 -0.17379878153E+03  0.25031908569E+03  0.12509217896E+03 0.  0.
        -24    2    1    2    0    0 -0.14038437526E+02  0.21713242427E+02  0.38837282206E+03  0.39885695429E+03  0.87091207622E+02 0.  0.
        -11    1    3    3    0    0 -0.11844932548E+03 -0.10000346780E+02 -0.93475412669E+03  0.94228208463E+03  0.00000000000E+00 0.  1.
         12    1    3    3    0    0  0.29283544839E+01 -0.16177716517E+02 -0.48123033671E+02  0.50853909795E+02  0.00000000000E+00 0. -1.
         11    1    5    5    0    0  0.36120322956E+02  0.48103138908E+01  0.12426906697E+03  0.12950142028E+03  0.00000000000E+00 0. -1.
        -12    1    5    5    0    0 -0.50158760482E+02  0.16902928536E+02  0.26410375509E+03  0.26935553400E+03  0.00000000000E+00 0.  1.
          5    1    4    4  501    0 -0.17120058866E+01  0.20556621672E+02 -0.92842142529E+02  0.95197906952E+02  0.41800000000E+01 0.  1.
         -5    1    4    4    0  501  0.13127141441E+03 -0.16091800802E+02 -0.80956639002E+02  0.15512117874E+03  0.41800000000E+01 0.  1.
</event>
<event>
11    1  0.8037748E-009  0.1429346E+03  0.7561462E-02  0.1104325E+00
         22   -1    0    0    0    0  0.00000000000E+00  0.00000000000E+00  0.45739472554E+03  0.45739472554E+03  0.00000000000E+00 0.  1.
         22   -1    0    0    0    0 -0.00000000000E+00 -0.00000000000E+00 -0.79762891078E+03  0.79762891078E+03  0.00000000000E+00 0.  1.
        -24    2    1    2    0    0 -0.49228413560E+02  0.48906892843E+02 -0.72902727054E+03  0.73675478011E+03  0.80694014363E+02 0.  0.
         25    2    1    2    0    0  0.39292329978E+02 -0.51405726746E+02  0.21916521842E+02  0.14252888800E+03  0.12509082319E+03 0.  0.
         24    2    1    2    0    0  0.99360835819E+01  0.24988339024E+01  0.36687656345E+03  0.37573996822E+03  0.80480686990E+02 0.  0.
        -13    1    5    5    0    0  0.42500241032E+02  0.15144250717E+02  0.17586114704E+03  0.18155649770E+03  0.00000000000E+00 0.  1.
         14    1    5    5    0    0 -0.32564157450E+02 -0.12645416815E+02  0.19101541641E+03  0.19418347052E+03  0.00000000000E+00 0. -1.
         13    1    3    3    0    0  0.22392829221E+02  0.83178604674E+01 -0.14513489462E+03  0.14708760396E+03  0.00000000000E+00 0. -1.
        -14    1    3    3    0    0 -0.71621242781E+02  0.40589032376E+02 -0.58389237592E+03  0.58966717615E+03  0.00000000000E+00 0.  1.
          5    1    4    4  501    0  0.66140536593E+02 -0.69090746015E+02  0.41835475338E+02  0.10447861581E+03  0.41800000000E+01 0.  1.
         -5    1    4    4    0  501 -0.26848206614E+02  0.17685019269E+02 -0.19918953496E+02  0.38050272185E+02  0.41800000000E+01 0.  1.
</event>
<event>
11    1  0.8037748E-009  0.2691155E+03  0.7561462E-02  0.1014182E+00
         22   -1    0    0    0    0  0.00000000000E+00  0.00000000000E+00  0.22415840553E+04  0.22415840553E+04  0.00000000000E+00 0. -1.
         22   -1    0    0    0    0 -0.00000000000E+00 -0.00000000000E+00 -0.30478295523E+03  0.30478295523E+03  0.00000000000E+00 0.  1.
         24    2    1    2    0    0 -0.24473252248E+03 -0.10216459048E+03 -0.16567208151E+03  0.32272646694E+03  0.79834345776E+02 0.  0.
         25    2    1    2    0    0  0.18144692471E+03 -0.15436044646E+02  0.15469767734E+03  0.26970395638E+03  0.12509034635E+03 0.  0.
        -24    2    1    2    0    0  0.63285597769E+02  0.11760063513E+03  0.19477755043E+04  0.19539365872E+04  0.78764177499E+02 0.  0.
        -11    1    3    3    0    0 -0.92579365770E+02 -0.10081609617E+02 -0.26285414581E+02  0.96765184021E+02  0.00000000000E+00 0.  1.
         12    1    3    3    0    0 -0.15215315671E+03 -0.92082980868E+02 -0.13938666693E+03  0.22596128292E+03  0.00000000000E+00 0. -1.
         11    1    5    5    0    0  0.46249864557E+02  0.96245689337E+02  0.18266665528E+04  0.18297849539E+04  0.00000000000E+00 0. -1.
        -12    1    5    5    0    0  0.17035733211E+02  0.21354945793E+02  0.12110895152E+03  0.12415163331E+03  0.00000000000E+00 0.  1.
          5    1    4    4  501    0  0.11581198423E+02 -0.43701966855E+02  0.52526543199E+02  0.69429793348E+02  0.41800000000E+01 0. -1.
         -5    1    4    4    0  501  0.16986572629E+03  0.28265922209E+02  0.10217113415E+03  0.20027416303E+03  0.41800000000E+01 0. -1.
</event>
<event>
11    1  0.8037748E-009  0.1287613E+03  0.7561462E-02  0.1120800E+00
         22   -1    0    0    0    0  0.00000000000E+00  0.00000000000E+00  0.13724056736E+03  0.13724056736E+03  0.00000000000E+00 0. -1.
         22   -1    0    0    0    0 -0.00000000000E+00 -0.00000000000E+00 -0.49336240322E+03  0.49336240322E+03  0.00000000000E+00 0.  1.
        -24    2    1    2    0    0 -0.34528844636E+01  0.27523967134E+02 -0.28256948250E+03  0.29517159351E+03  0.80692415953E+02 0.  0.
         25    2    1    2    0    0 -0.10284543006E+02 -0.41593290524E+02 -0.16519700804E+03  0.21159631376E+03  0.12508866811E+03 0.  0.
         24    2    1    2    0    0  0.13737427469E+02  0.14069323391E+02  0.91644654683E+02  0.12383506331E+03  0.80930324354E+02 0.  0.
        -11    1    5    5    0    0  0.82649619341E+01  0.32437177839E+02  0.35289194673E+01  0.33659075664E+02  0.00000000000E+00 0.  1.
         12    1    5    5    0    0  0.54724655350E+01 -0.18367854449E+02  0.88115735216E+02  0.90175987650E+02  0.00000000000E+00 0. -1.
         11    1    3    3    0    0  0.62209327905E+01 -0.64242397304E+01  0.13693949222E+01  0.90468836264E+01  0.00000000000E+00 0. -1.
        -12    1    3    3    0    0 -0.96738172541E+01  0.33948206864E+02 -0.28393887743E+03  0.28612470988E+03  0.00000000000E+00 0.  1.
          5    1    4    4  501    0  0.13250765910E+02 -0.80232227259E+02 -0.13286614031E+03  0.15583220697E+03  0.41800000000E+01 0. -1.
         -5    1    4    4    0  501 -0.23535308916E+02  0.38638936734E+02 -0.32330867731E+02  0.55764106789E+02  0.41800000000E+01 0. -1.
</event>
<event>
11    1  0.8037748E-009  0.1415808E+03  0.7561462E-02  0.1105806E+00
         22   -1    0    0    0    0  0.00000000000E+00  0.00000000000E+00  0.31507591256E+02  0.31507591256E+02  0.00000000000E+00 0.  1.
         22   -1    0    0    0    0 -0.00000000000E+00 -0.00000000000E+00 -0.23637187017E+04  0.23637187017E+04  0.00000000000E+00 0.  1.
         24    2    1    2    0    0  0.50561055386E+02  0.47629025423E+02 -0.17763428553E+04  0.17793854707E+04  0.77419438072E+02 0.  0.
         25    2    1    2    0    0 -0.41772281890E+02 -0.25491118846E+02 -0.49965628764E+03  0.51739541671E+03  0.12508753251E+03 0.  0.
        -24    2    1    2    0    0 -0.87887734960E+01 -0.22137906576E+02 -0.56211967503E+02  0.98445405533E+02  0.77229418830E+02 0.  0.
        -11    1    3    3    0    0  0.63242095508E+02  0.58607295126E+02 -0.13830032376E+04  0.13856883968E+04  0.00000000000E+00 0.  1.
         12    1    3    3    0    0 -0.12681040123E+02 -0.10978269703E+02 -0.39333961765E+03  0.39369707390E+03  0.00000000000E+00 0. -1.
         11    1    5    5    0    0  0.27720994883E+02  0.10514334286E+02 -0.32615680331E+02  0.44077061906E+02  0.00000000000E+00 0. -1.
        -12    1    5    5    0    0 -0.36509768379E+02 -0.32652240863E+02 -0.23596287172E+02  0.54368343627E+02  0.00000000000E+00 0.  1.
          5    1    4    4  501    0 -0.79983127760E+02 -0.43047997426E+02 -0.30834334039E+03  0.32147086769E+03  0.41800000000E+01 0.  1.
         -5    1    4    4    0  501  0.38210845870E+02  0.17556878580E+02 -0.19131294724E+03  0.19592454902E+03  0.41800000000E+01 0.  1.
</event>
<event>
11    1  0.8037748E-009  0.1928847E+03  0.7561462E-02  0.1059672E+00
         22   -1    0    0    0    0  0.00000000000E+00  0.00000000000E+00  0.15914006372E+04  0.15914006372E+04  0.00000000000E+00 0.  1.
         22   -1    0    0    0    0 -0.00000000000E+00 -0.00000000000E+00 -0.14229794658E+04  0.14229794658E+04  0.00000000000E+00 0.  1.
         24    2    1    2    0    0 -0.13789587041E+03  0.49642026774E+02 -0.12739055578E+04  0.12847854874E+04  0.79741938175E+02 0.  0.
         25    2    1    2    0    0  0.15916129990E+03  0.53045134476E+00 -0.69938906735E+02  0.21417836259E+03  0.12509324347E+03 0.  0.
        -24    2    1    2    0    0 -0.21265429488E+02 -0.50172478119E+02  0.15122656359E+04  0.15154162531E+04  0.81052887015E+02 0.  0.
        -11    1    3    3    0    0 -0.11688090139E+03  0.55587481313E+02 -0.12165038922E+04  0.12233694589E+04  0.00000000000E+00 0.  1.
         12    1    3    3    0    0 -0.21014969022E+02 -0.59454545392E+01 -0.57401665552E+02  0.61416028533E+02  0.00000000000E+00 0. -1.
         11    1    5    5    0    0  0.13480495712E+02  0.29914318934E+01  0.53002773888E+02  0.54771949657E+02  0.00000000000E+00 0. -1.
        -12    1    5    5    0    0 -0.34745925200E+02 -0.53163910012E+02  0.14592628620E+04  0.14606443034E+04  0.00000000000E+00 0.  1.
          5    1    4    4  501    0  0.82888508911E+02 -0.41019899278E+02 -0.85290331427E+02  0.12587712295E+03  0.41800000000E+01 0. -1.
         -5    1    4    4    0  501  0.76272790990E+02  0.41550350623E+02  0.15351424693E+02  0.88301239642E+02  0.41800000000E+01 0. -1.
</event>
<event>
11    1  0.8037748E-009  0.1881976E+03  0.7561462E-02  0.1063198E+00
         22   -1    0    0    0    0  0.00000000000E+00  0.00000000000E+00  0.91795205020E+03  0.91795205020E+03  0.00000000000E+00 0. -1.
         22   -1    0    0    0    0 -0.00000000000E+00 -0.00000000000E+00 -0.31077100579E+04  0.31077100579E+04  0.00000000000E+00 0. -1.
        -24    2    1    2    0    0 -0.52148301165E+01 -0.14225379150E+03 -0.26784518224E+04  0.26834181598E+04  0.79784209693E+02 0.  0.
         25    2    1    2    0    0  0.90628222522E+02  0.11909896994E+03 -0.40027175606E+03  0.44526337282E+03  0.12507578949E+03 0.  0.
         24    2    1    2    0    0 -0.85413392405E+02  0.23154821566E+02  0.88896557075E+03  0.89698057543E+03  0.80515671492E+02 0.  0.
        -13    1    5    5    0    0 -0.36930531477E+02  0.32429130476E+02  0.18930587007E+03  0.19558176066E+03  0.00000000000E+00 0.  1.
         14    1    5    5    0    0 -0.48482860928E+02 -0.92743089102E+01  0.69965970068E+03  0.70139881477E+03  0.00000000000E+00 0. -1.
         13    1    3    3    0    0  0.17474431761E+02 -0.44210188409E+02 -0.14750586222E+04  0.14758244595E+04  0.00000000000E+00 0. -1.
        -14    1    3    3    0    0 -0.22689261877E+02 -0.98043603093E+02 -0.12033932002E+04  0.12075937003E+04  0.00000000000E+00 0.  1.
          5    1    4    4  501    0 -0.24419599839E+02 -0.47232579240E+01 -0.39921691270E+02  0.47221180158E+02  0.41800000000E+01 0. -1.
         -5    1    4    4    0  501  0.11504782236E+03  0.12382222786E+03 -0.36035006479E+03  0.39804219266E+03  0.41800000000E+01 0. -1.
</event>
<event>
11    1  0.8037748E-009  0.1326252E+03  0.7561462E-02  0.1116085E+00
         22   -1    0    0    0    0  0.00000000000E+00  0.00000000000E+00  0.32322397652E+04  0.32322397652E+04  0.00000000000E+00 0.  1.
         22   -1    0    0    0    0 -0.00000000000E+00 -0.00000000000E+00 -0.34053877007E+02  0.34053877007E+02  0.00000000000E+00 0. -1.
         24    2    1    2    0    0 -0.16663527975E+02  0.10451184123E+02  0.39694353765E+02  0.92575052506E+02  0.81287134355E+02 0.  0.
         25    2    1    2    0    0  0.22167404158E+02  0.34163329665E+02  0.63278522367E+03  0.64631499038E+03  0.12508957028E+03 0.  0.
        -24    2    1    2    0    0 -0.55038761834E+01 -0.44614513788E+02  0.25257063107E+04  0.25274035993E+04  0.80968130581E+02 0.  0.
        -13    1    3    3    0    0  0.78981862417E+01  0.14977481172E+02  0.58762106208E+02  0.61153016394E+02  0.00000000000E+00 0.  1.
         14    1    3    3    0    0 -0.24561714216E+02 -0.45262970497E+01 -0.19067752442E+02  0.31422036112E+02  0.00000000000E+00 0. -1.
         11    1    5    5    0    0 -0.44827091761E+01  0.98360063908E+01  0.16340190238E+04  0.16340547763E+04  0.00000000000E+00 0. -1.
        -12    1    5    5    0    0 -0.10211670073E+01 -0.54450520178E+02  0.89168728690E+03  0.89334882300E+03  0.00000000000E+00 0.  1.
          5    1    4    4  501    0  0.31005274629E+02  0.46340729060E+02  0.62726448790E+03  0.62975153863E+03  0.41800000000E+01 0. -1.
         -5    1    4    4    0  501 -0.88378704713E+01 -0.12177399395E+02  0.55207357718E+01  0.16563451753E+02  0.41800000000E+01 0. -1.
</event>
<event>
11    1  0.8037748E-009  0.1290430E+03  0.7561462E-02  0.1120450E+00
         22   -1    0    0    0    0  0.00000000000E+00  0.00000000000E+00  0.97561351233E+03  0.97561351233E+03  0.00000000000E+00 0. -1.
         22   -1    0    0    0    0 -0.00000000000E+00 -0.00000000000E+00 -0.10775706145E+03  0.10775706145E+03  0.00000000000E+00 0.  1.
        -24    2    1    2    0    0  0.12986731748E+02  0.27796504988E+02 -0.62546630610E+02  0.10813656680E+03  0.82705109800E+02 0.  0.
         25    2    1    2    0    0 -0.11780163033E+02 -0.40131114527E+02  0.19722289139E+03  0.23726231923E+03  0.12508901088E+03 0.  0.
         24    2    1    2    0    0 -0.12065687145E+01  0.12334609538E+02  0.73318019010E+03  0.73797168776E+03  0.83038680051E+02 0.  0.
        -11    1    5    5    0    0  0.22088860209E+02  0.17697760768E+02  0.89964122035E+02  0.94311567345E+02  0.00000000000E+00 0.  1.
         12    1    5    5    0    0 -0.23295428924E+02 -0.53631512300E+01  0.64321606806E+03  0.64366012042E+03  0.00000000000E+00 0. -1.
         13    1    3    3    0    0 -0.21218652795E+01 -0.28503331123E+02 -0.12065797357E+02  0.31024597712E+02  0.00000000000E+00 0. -1.
        -14    1    3    3    0    0  0.15108597028E+02  0.56299836111E+02 -0.50480833252E+02  0.77111969085E+02  0.00000000000E+00 0.  1.
          5    1    4    4  501    0 -0.30905427824E+02 -0.64118787620E+02  0.19332672535E+03  0.20605596213E+03  0.41800000000E+01 0. -1.
         -5    1    4    4    0  501  0.19125264791E+02  0.23987673093E+02  0.38961660419E+01  0.31206357102E+02  0.41800000000E+01 0. -1.
</event>
<event>
11    1  0.8037748E-009  0.1434223E+03  0.7561462E-02  0.1103796E+00
         22   -1    0    0    0    0  0.00000000000E+00  0.00000000000E+00  0.10905830159E+03  0.10905830159E+03  0.00000000000E+00 0.  1.
         22   -1    0    0    0    0 -0.00000000000E+00 -0.00000000000E+00 -0.16820966247E+04  0.16820966247E+04  0.00000000000E+00 0. -1.
        -24    2    1    2    0    0 -0.62348313118E+02 -0.23749943638E+02 -0.13607124730E+04  0.13648160661E+04  0.82055395807E+02 0.  0.
         25    2    1    2    0    0  0.90295784947E+02  0.85429536816E+02 -0.25817697683E+03  0.31265578861E+03  0.12508699471E+03 0.  0.
         24    2    1    2    0    0 -0.27947471829E+02 -0.61679593178E+02  0.45851126769E+02  0.11368307159E+03  0.78968864403E+02 0.  0.
        -11    1    5    5    0    0 -0.24500445900E+02 -0.34799018159E+01  0.49422885920E+02  0.55272083538E+02  0.00000000000E+00 0.  1.
         12    1    5    5    0    0 -0.34470259294E+01 -0.58199691362E+02 -0.35717591514E+01  0.58410988057E+02  0.00000000000E+00 0. -1.
         13    1    3    3    0    0 -0.78186482739E+02 -0.29204061803E+02 -0.12562105411E+04  0.12589801138E+04  0.00000000000E+00 0. -1.
        -14    1    3    3    0    0  0.15838169621E+02  0.54541181650E+01 -0.10450193193E+03  0.10583595230E+03  0.00000000000E+00 0.  1.
          5    1    4    4  501    0  0.69168048831E+02  0.23470132002E+01 -0.19242799682E+03  0.20453785422E+03  0.41800000000E+01 0. -1.
         -5    1    4    4    0  501  0.21127736116E+02  0.83082523616E+02 -0.65748980015E+02  0.10811793439E+03  0.41800000000E+01 0. -1.
</event>
<event>
11    1  0.8037748E-009  0.2045480E+03  0.7561462E-02  0.1051353E+00
         22   -1    0    0    0    0  0.00000000000E+00  0.00000000000E+00  0.45509117954E+03  0.45509117954E+03  0.00000000000E+00 0. -1.
         22   -1    0    0    0    0 -0.00000000000E+00 -0.00000000000E+00 -0.10147855987E+04  0.10147855987E+04  0.00000000000E+00 0. -1.
        -24    2    1    2    0    0  0.93017714451E+02 -0.80109332885E+02 -0.40466093380E+03  0.43039809234E+03  0.80138917676E+02 0.  0.
         25    2    1    2    0    0 -0.37947651458E+02  0.23074362174E+03 -0.54734630083E+03  0.60820891144E+03  0.12508982254E+03 0.  0.
         24    2    1    2    0    0 -0.55070062993E+02 -0.15063428885E+03  0.39231281547E+03  0.43126977446E+03  0.79755077352E+02 0.  0.
        -11    1    5    5    0    0  0.24645511602E+01 -0.55251709479E+02  0.21393455941E+03  0.22096791876E+03  0.00000000000E+00 0.  1.
         12    1    5    5    0    0 -0.57534614153E+02 -0.95382579376E+02  0.17837825606E+03  0.21030185570E+03  0.00000000000E+00 0. -1.
         13    1    3    3    0    0  0.10495736203E+02 -0.35435079297E+02 -0.22187570675E+03  0.22493251115E+03  0.00000000000E+00 0. -1.
        -14    1    3    3    0    0  0.82521978248E+02 -0.44674253588E+02 -0.18278522705E+03  0.20546558119E+03  0.00000000000E+00 0.  1.
          5    1    4    4  501    0  0.15999550994E+02  0.13028983724E+03 -0.17518109157E+03  0.21894591699E+03  0.41800000000E+01 0.  1.
         -5    1    4    4    0  501 -0.53947202451E+02  0.10045378450E+03 -0.37216520926E+03  0.38926299445E+03  0.41800000000E+01 0.  1.
</event>
<event>
11    1  0.8037748E-009  0.1621706E+03  0.7561462E-02  0.1085053E+00
         22   -1    0    0    0    0  0.00000000000E+00  0.00000000000E+00  0.11539604509E+04  0.11539604509E+04  0.00000000000E+00 0.  1.
         22   -1    0    0    0    0 -0.00000000000E+00 -0.00000000000E+00 -0.18532400744E+04  0.18532400744E+04  0.00000000000E+00 0.  1.
        -24    2    1    2    0    0  0.21995868985E+02 -0.33622703923E+02 -0.17887132825E+04  0.17909585985E+04  0.80144806439E+02 0.  0.
         25    2    1    2    0    0 -0.10248489219E+03  0.94288035356E+02  0.88220291626E+02  0.20693988447E+03  0.12509160321E+03 0.  0.
         24    2    1    2    0    0  0.80489023205E+02 -0.60665331433E+02  0.10012133674E+04  0.10093020422E+04  0.78125796393E+02 0.  0.
        -13    1    5    5    0    0  0.91762957058E+01 -0.33828210670E+02  0.59322486176E+03  0.59425944574E+03  0.00000000000E+00 0.  1.
         14    1    5    5    0    0  0.71312727499E+02 -0.26837120763E+02  0.40798850567E+03  0.41504259650E+03  0.00000000000E+00 0. -1.
         13    1    3    3    0    0  0.49403990595E+02 -0.70470982970E+01 -0.84381480738E+03  0.84528920793E+03  0.00000000000E+00 0. -1.
        -14    1    3    3    0    0 -0.27408121609E+02 -0.26575605626E+02 -0.94489847515E+03  0.94566939058E+03  0.00000000000E+00 0.  1.
          5    1    4    4  501    0 -0.61385836370E+02  0.12088752390E+03  0.78922889985E+02  0.15693409223E+03  0.41800000000E+01 0. -1.
         -5    1    4    4    0  501 -0.41099055821E+02 -0.26599488544E+02  0.92974016402E+01  0.50005792239E+02  0.41800000000E+01 0. -1.
</event>
<event>
11    1  0.8037748E-009  0.1273472E+03  0.7561462E-02  0.1122572E+00
         22   -1    0    0    0    0  0.00000000000E+00  0.00000000000E+00  0.44763201377E+03  0.44763201377E+03  0.00000000000E+00 0. -1.
         22   -1    0    0    0    0 -0.00000000000E+00 -0.00000000000E+00 -0.70005838284E+02  0.70005838284E+02  0.00000000000E+00 0. -1.
        -24    2    1    2    0    0  0.12157246694E+02 -0.24708999407E+02  0.37149145920E+01  0.86538979886E+02  0.81956458870E+02 0.  0.
         25    2    1    2    0    0  0.15281899211E+02  0.13352910616E+02  0.19396209319E+03  0.23168944920E+03  0.12508745184E+03 0.  0.
         24    2    1    2    0    0 -0.27439145905E+02  0.11356088791E+02  0.17994916770E+03  0.19940942297E+03  0.80625973058E+02 0.  0.
        -13    1    5    5    0    0 -0.16436798780E+02  0.20917823177E+02  0.93645816529E+01  0.28203174823E+02  0.00000000000E+00 0.  1.
         14    1    5    5    0    0 -0.11002347125E+02 -0.95617343863E+01  0.17058458605E+03  0.17120624814E+03  0.00000000000E+00 0. -1.
         13    1    3    3    0    0 -0.58616263279E+01 -0.26665218766E+02 -0.34646753009E+02  0.44111110269E+02  0.00000000000E+00 0. -1.
        -14    1    3    3    0    0  0.18018873022E+02  0.19562193589E+01  0.38361667601E+02  0.42427869618E+02  0.00000000000E+00 0.  1.
          5    1    4    4  501    0 -0.32650360294E+02  0.48425475783E+02  0.13829230789E+03  0.15017758673E+03  0.41800000000E+01 0.  1.
         -5    1    4    4    0  501  0.47932259505E+02 -0.35072565167E+02  0.55669785301E+02  0.81511862475E+02  0.41800000000E+01 0.  1.
</event>
<event>
11    1  0.8037748E-009  0.2140710E+03  0.7561462E-02  0.1044996E+00
         22   -1    0    0    0    0  0.00000000000E+00  0.00000000000E+00  0.23159179669E+03  0.23159179669E+03  0.00000000000E+00 0. -1.
         22   -1    0    0    0    0 -0.00000000000E+00 -0.00000000000E+00 -0.79362638342E+03  0.79362638342E+03  0.00000000000E+00 0.  1.
        -24    2    1    2    0    0  0.16715064756E+02  0.12514775373E+02 -0.57699940120E+03  0.58333755508E+03  0.83176806734E+02 0.  0.
         25    2    1    2    0    0 -0.50510338346E+02 -0.17844672264E+03 -0.72871650488E+02  0.23527034173E+03  0.12508928473E+03 0.  0.
         24    2    1    2    0    0  0.33795273591E+02  0.16593194727E+03  0.87836464961E+02  0.20661028330E+03  0.79353846466E+02 0.  0.
        -11    1    5    5    0    0  0.23172247393E+02  0.64742819678E+02 -0.49059594820E+01  0.68939496572E+02  0.00000000000E+00 0.  1.
         12    1    5    5    0    0  0.10623026198E+02  0.10118912759E+03  0.92742424443E+02  0.13767078673E+03  0.00000000000E+00 0. -1.
         13    1    3    3    0    0 -0.16796569901E+02 -0.18868881216E+02 -0.72924436532E+02  0.77175986436E+02  0.00000000000E+00 0. -1.
        -14    1    3    3    0    0  0.33511634657E+02  0.31383656589E+02 -0.50407496467E+03  0.50616156864E+03  0.00000000000E+00 0.  1.
          5    1    4    4  501    0 -0.67320146482E+02 -0.99292811080E+02 -0.92922073276E+02  0.15179936942E+03  0.41800000000E+01 0.  1.
         -5    1    4    4    0  501  0.16809808135E+02 -0.79153911558E+02  0.20050422788E+02  0.83470972311E+02  0.41800000000E+01 0.  1.
</event>
<event>
11    1  0.8037748E-009  0.1434042E+03  0.7561462E-02  0.1103815E+00
         22   -1    0    0    0    0  0.00000000000E+00  0.00000000000E+00  0.44692083158E+03  0.44692083158E+03  0.00000000000E+00 0. -1.
         22   -1    0    0    0    0 -0.00000000000E+00 -0.00000000000E+00 -0.36431623960E+03  0.36431623960E+03  0.00000000000E+00 0.  1.
         24    2    1    2    0    0  0.14751710925E+02 -0.49069477102E+02 -0.30884355596E+03  0.32308262544E+03  0.79828655525E+02 0.  0.
         25    2    1    2    0    0  0.58173272269E+02  0.43260123304E+02  0.95775860006E+02  0.17342417956E+03  0.12508941930E+03 0.  0.
        -24    2    1    2    0    0 -0.72924983194E+02  0.58093537980E+01  0.29567228794E+03  0.31473026618E+03  0.79254254356E+02 0.  0.
        -11    1    3    3    0    0  0.30608686156E+02 -0.24630220867E+02 -0.27759086438E+03  0.28035732099E+03  0.00000000000E+00 0.  1.
         12    1    3    3    0    0 -0.15856975231E+02 -0.24439256235E+02 -0.31252691585E+02  0.42725304447E+02  0.00000000000E+00 0. -1.
         11    1    5    5    0    0 -0.75788819073E+02  0.26328882159E+02  0.17797854346E+03  0.19522683489E+03  0.00000000000E+00 0. -1.
        -12    1    5    5    0    0  0.28638358797E+01 -0.20519528361E+02  0.11769374448E+03  0.11950343129E+03  0.00000000000E+00 0.  1.
          5    1    4    4  501    0  0.45248161948E+02  0.71935627265E+02  0.14681612576E+02  0.86343226588E+02  0.41800000000E+01 0. -1.
         -5    1    4    4    0  501  0.12925110321E+02 -0.28675503961E+02  0.81094247430E+02  0.87080952971E+02  0.41800000000E+01 0. -1.
</event>
<event>
11    1  0.8037748E-009  0.2078675E+03  0.7561462E-02  0.1049095E+00
         22   -1    0    0    0    0  0.00000000000E+00  0.00000000000E+00  0.83279807241E+03  0.83279807241E+03  0.00000000000E+00 0. -1.
         22   -1    0    0    0    0 -0.00000000000E+00 -0.00000000000E+00 -0.75387973341E+03  0.75387973341E+03  0.00000000000E+00 0. -1.
        -24    2    1    2    0    0  0.76918752294E+01 -0.49659906149E+01 -0.65577000625E+03  0.66029129977E+03  0.76592907325E+02 0.  0.
         25    2    1    2    0    0 -0.69344724736E+02 -0.14941422421E+03  0.44044551626E+02  0.21147219338E+03  0.12508902749E+03 0.  0.
         24    2    1    2    0    0  0.61652849507E+02  0.15438021483E+03  0.69064379362E+03  0.71491431268E+03  0.80494100603E+02 0.  0.
        -11    1    5    5    0    0 -0.18826727551E+02  0.38345124611E+02  0.13438609950E+03  0.14101212001E+03  0.00000000000E+00 0.  1.
         12    1    5    5    0    0  0.80479577057E+02  0.11603509022E+03  0.55625769412E+03  0.57390219267E+03  0.00000000000E+00 0. -1.
         13    1    3    3    0    0 -0.37309367287E+01  0.34303504640E+01 -0.63569493840E+03  0.63571514211E+03  0.00000000000E+00 0. -1.
        -14    1    3    3    0    0  0.11422811958E+02 -0.83963410788E+01 -0.20075067842E+02  0.24576157661E+02  0.00000000000E+00 0.  1.
          5    1    4    4  501    0 -0.49233556103E+02 -0.35335170337E+02  0.70006119693E+02  0.92686819472E+02  0.41800000000E+01 0. -1.
         -5    1    4    4    0  501 -0.20111168633E+02 -0.11407905388E+03 -0.25961568068E+02  0.11878537390E+03  0.41800000000E+01 0. -1.
</event>
<event>
11    1  0.8037748E-009  0.1440407E+03  0.7561462E-02  0.1103128E+00
         22   -1    0    0    0    0  0.00000000000E+00  0.00000000000E+00  0.11114523974E+03  0.11114523974E+03  0.00000000000E+00 0. -1.
         22   -1    0    0    0    0 -0.00000000000E+00 -0.00000000000E+00 -0.43292165725E+03  0.43292165725E+03  0.00000000000E+00 0. -1.
         24    2    1    2    0    0  0.66253629961E+02  0.28905663345E+02 -0.28832695390E+03  0.30843603532E+03  0.82312056727E+02 0.  0.
         25    2    1    2    0    0 -0.57240187491E+02 -0.36421782899E+02 -0.54609968859E+02  0.15242521709E+03  0.12509281663E+03 0.  0.
        -24    2    1    2    0    0 -0.90134424699E+01  0.75161195547E+01  0.21160505244E+02  0.83205644583E+02  0.79609535295E+02 0.  0.
        -11    1    3    3    0    0 -0.30185208056E+01  0.55546423857E+01  0.37496931681E+01  0.73502189588E+01  0.00000000000E+00 0.  1.
         12    1    3    3    0    0  0.69272150767E+02  0.23351020959E+02 -0.29207664707E+03  0.30108581636E+03  0.00000000000E+00 0. -1.
         11    1    5    5    0    0 -0.94006919826E+01 -0.74941520623E+01  0.49605100749E+02  0.51041173039E+02  0.00000000000E+00 0. -1.
        -12    1    5    5    0    0  0.38724951273E+00  0.15010271617E+02 -0.28444595505E+02  0.32164471543E+02  0.00000000000E+00 0.  1.
          5    1    4    4  501    0 -0.63440116071E+02 -0.73866773506E+02 -0.17193818064E+02  0.98964884353E+02  0.41800000000E+01 0. -1.
         -5    1    4    4    0  501  0.61999285797E+01  0.37444990607E+02 -0.37416150795E+02  0.53460332736E+02  0.41800000000E+01 0. -1.
</event>
<event>
11    1  0.8037748E-009  0.1542944E+03  0.7561462E-02  0.1092570E+00
         22   -1    0    0    0    0  0.00000000000E+00  0.00000000000E+00  0.47088210019E+03  0.47088210019E+03  0.00000000000E+00 0.  1.
         22   -1    0    0    0    0 -0.00000000000E+00 -0.00000000000E+00 -0.12761742182E+04  0.12761742182E+04  0.00000000000E+00 0. -1.
         24    2    1    2    0    0  0.29635687517E+02  0.87694370322E+02 -0.11451450453E+04  0.11516364149E+04  0.79628392855E+02 0.  0.
         25    2    1    2    0    0 -0.15976246544E+02 -0.60899431767E+02 -0.83097054847E+02  0.16283999356E+03  0.12509101381E+03 0.  0.
        -24    2    1    2    0    0 -0.13659440973E+02 -0.26794938555E+02  0.42294998213E+03  0.43257990986E+03  0.85639605161E+02 0.  0.
        -13    1    3    3    0    0 -0.16840902348E+02  0.12437149422E+02 -0.50213072364E+03  0.50256697295E+03  0.00000000000E+00 0.  1.
         14    1    3    3    0    0  0.46476589864E+02  0.75257220900E+02 -0.64301432163E+03  0.64906944198E+03  0.00000000000E+00 0. -1.
         11    1    5    5    0    0  0.29664968710E+02 -0.35566639572E+02  0.20035231756E+03  0.20563571521E+03  0.00000000000E+00 0. -1.
        -12    1    5    5    0    0 -0.43324409683E+02  0.87717010171E+01  0.22259766458E+03  0.22694419466E+03  0.00000000000E+00 0.  1.
          5    1    4    4  501    0  0.18948274894E+01  0.11555044913E+02  0.27025351298E+02  0.29748133503E+02  0.41800000000E+01 0. -1.
         -5    1    4    4    0  501 -0.17871074033E+02 -0.72454476680E+02 -0.11012240614E+03  0.13309186006E+03  0.41800000000E+01 0. -1.
</event>
<event>
11    1  0.8037748E-009  0.1418579E+03  0.7561462E-02  0.1105501E+00
         22   -1    0    0    0    0  0.00000000000E+00  0.00000000000E+00  0.16456837867E+04  0.16456837867E+04  0.00000000000E+00 0. -1.
         22   -1    0    0    0    0 -0.00000000000E+00 -0.00000000000E+00 -0.26556569176E+02  0.26556569176E+02  0.00000000000E+00 0. -1.
         24    2    1    2    0    0 -0.50221726212E+02 -0.43804838739E+01  0.14856361449E+03  0.17601689580E+03  0.79808455904E+02 0.  0.
         25    2    1    2    0    0  0.10517436780E+03  0.84438514821E+01  0.67145275676E+03  0.69110774641E+03  0.12509263096E+03 0.  0.
        -24    2    1    2    0    0 -0.54952641591E+02 -0.40633676082E+01  0.79911084627E+03  0.80511571366E+03  0.81221080883E+02 0.  0.
        -11    1    3    3    0    0 -0.88047154512E+01  0.35621193616E+02  0.53479763410E+02  0.64857363061E+02  0.00000000000E+00 0.  1.
         12    1    3    3    0    0 -0.41417010761E+02 -0.40001677490E+02  0.95083851076E+02  0.11115953273E+03  0.00000000000E+00 0. -1.
         13    1    5    5    0    0 -0.32338582878E+02 -0.29745032367E+02  0.67336604972E+03  0.67479803483E+03  0.00000000000E+00 0. -1.
        -14    1    5    5    0    0 -0.22614058713E+02  0.25681664759E+02  0.12574479655E+03  0.13031767883E+03  0.00000000000E+00 0.  1.
          5    1    4    4  501    0  0.43726184690E+02  0.65959368247E+02  0.31152854538E+03  0.32145003418E+03  0.41800000000E+01 0. -1.
         -5    1    4    4    0  501  0.61448183113E+02 -0.57515516765E+02  0.35992421138E+03  0.36965771223E+03  0.41800000000E+01 0. -1.
</event>
<event>
11    1  0.8037748E-009  0.1632157E+03  0.7561462E-02  0.1084091E+00
         22   -1    0    0    0    0  0.00000000000E+00  0.00000000000E+00  0.39164762644E+03  0.39164762644E+03  0.00000000000E+00 0. -1.
         22   -1    0    0    0    0 -0.00000000000E+00 -0.00000000000E+00 -0.10077972851E+04  0.10077972851E+04  0.00000000000E+00 0.  1.
         24    2    1    2    0    0 -0.50850805731E+02 -0.82576758686E+02 -0.51857309208E+03  0.53369537866E+03  0.80672051279E+02 0.  0.
         25    2    1    2    0    0  0.14273213687E+02  0.13004751055E+03 -0.45703034287E+03  0.49156877599E+03  0.12508815930E+03 0.  0.
        -24    2    1    2    0    0  0.36577592045E+02 -0.47470751860E+02  0.35945377630E+03  0.37418075686E+03  0.84928375626E+02 0.  0.
        -11    1    3    3    0    0 -0.88948208441E+01 -0.64705739793E+02 -0.42044836045E+03  0.42549121542E+03  0.00000000000E+00 0.  1.
         12    1    3    3    0    0 -0.41955984887E+02 -0.17871018893E+02 -0.98124731631E+02  0.10820416324E+03  0.00000000000E+00 0. -1.
         13    1    5    5    0    0 -0.20363308418E+02 -0.15744265805E+02  0.20395192965E+03  0.20556978339E+03  0.00000000000E+00 0. -1.
        -14    1    5    5    0    0  0.56940900463E+02 -0.31726486055E+02  0.15550184666E+03  0.16861097348E+03  0.00000000000E+00 0.  1.
          5    1    4    4  501    0  0.69875066678E+02  0.68199099634E+02 -0.24836335342E+03  0.26689973746E+03  0.41800000000E+01 0.  1.
         -5    1    4    4    0  501 -0.55601852991E+02  0.61848410912E+02 -0.20866698944E+03  0.22466903853E+03  0.41800000000E+01 0.  1.
</event>
<event>
11    1  0.8037748E-009  0.1530846E+03  0.7561462E-02  0.1093768E+00
         22   -1    0    0    0    0  0.00000000000E+00  0.00000000000E+00  0.22842606319E+03  0.22842606319E+03  0.00000000000E+00 0. -1.
         22   -1    0    0    0    0 -0.00000000000E+00 -0.00000000000E+00 -0.15825399112E+03  0.15825399112E+03  0.00000000000E+00 0. -1.
         24    2    1    2    0    0  0.32030646783E+01 -0.93511114581E+02  0.76782557580E+01  0.12395415082E+03  0.80938789964E+02 0.  0.
         25    2    1    2    0    0  0.50080763166E+02  0.76062507592E+02  0.19799793601E+02  0.15599044848E+03  0.12508956907E+03 0.  0.
        -24    2    1    2    0    0 -0.53283827844E+02  0.17448606988E+02  0.42694022710E+02  0.10673545501E+03  0.80162694471E+02 0.  0.
        -13    1    3    3    0    0  0.80812326492E+01  0.13090698322E+02 -0.56984776512E+01  0.16405649979E+02  0.00000000000E+00 0.  1.
         14    1    3    3    0    0 -0.48781679709E+01 -0.10660181290E+03  0.13376733409E+02  0.10754850084E+03  0.00000000000E+00 0. -1.
         13    1    5    5    0    0  0.11047202668E+02  0.30057335041E+02  0.17605228096E+02  0.36543510133E+02  0.00000000000E+00 0. -1.
        -14    1    5    5    0    0 -0.64331030512E+02 -0.12608728053E+02  0.25088794614E+02  0.70191944873E+02  0.00000000000E+00 0.  1.
          5    1    4    4  501    0  0.26051467420E+02 -0.18742230104E+02 -0.31765053695E+02  0.45348000841E+02  0.41800000000E+01 0. -1.
         -5    1    4    4    0  501  0.24029295746E+02  0.94804737697E+02  0.51564847296E+02  0.11064244764E+03  0.41800000000E+01 0. -1.
</event>
<event>
11    1  0.8037748E-009  0.1667381E+03  0.7561462E-02  0.1080906E+00
         22   -1    0    0    0    0  0.00000000000E+00  0.00000000000E+00  0.30513065143E+03  0.30513065143E+03  0.00000000000E+00 0. -1.
         22   -1    0    0    0    0 -0.00000000000E+00 -0.00000000000E+00 -0.81631889330E+03  0.81631889330E+03  0.00000000000E+00 0. -1.
         24    2    1    2    0    0  0.33764162290E+02  0.23381905663E+02 -0.68283860361E+03  0.68882226293E+03  0.80751589223E+02 0.  0.
         25    2    1    2    0    0 -0.98997866843E+02 -0.10469636865E+03 -0.28385977763E+02  0.19291158227E+03  0.12508879883E+03 0.  0.
        -24    2    1    2    0    0  0.65233704553E+02  0.81314462986E+02  0.20003633950E+03  0.23971569953E+03  0.81127069330E+02 0.  0.
        -11    1    3    3    0    0 -0.24878732814E+02  0.14512613019E+02 -0.30501169710E+03  0.30636857321E+03  0.00000000000E+00 0.  1.
         12    1    3    3    0    0  0.58642895105E+02  0.88692926447E+01 -0.37782690651E+03  0.38245368972E+03  0.00000000000E+00 0. -1.
         13    1    5    5    0    0  0.46879863080E+02  0.94683536539E+02  0.13902335673E+03  0.17461439623E+03  0.00000000000E+00 0. -1.
        -14    1    5    5    0    0  0.18353841473E+02 -0.13369073553E+02  0.61012982769E+02  0.65101303296E+02  0.00000000000E+00 0.  1.
          5    1    4    4  501    0 -0.86928351833E+02 -0.26102633402E+01 -0.22147169729E+02  0.89840532913E+02  0.41800000000E+01 0.  1.
         -5    1    4    4    0  501 -0.12069515010E+02 -0.10208610531E+03 -0.62388080343E+01  0.10307104936E+03  0.41800000000E+01 0.  1.
</event>
<event>
11    1  0.8037748E-009  0.1306990E+03  0.7561462E-02  0.1118413E+00
         22   -1    0    0    0    0  0.00000000000E+00  0.00000000000E+00  0.45133757614E+03  0.45133757614E+03  0.00000000000E+00 0.  1.
         22   -1    0    0    0    0 -0.00000000000E+00 -0.00000000000E+00 -0.18308254191E+03  0.18308254191E+03  0.00000000000E+00 0.  1.
         24    2    1    2    0    0 -0.34731387000E+02 -0.17533877272E+02 -0.12402572359E+03  0.15437364489E+03  0.83277464121E+02 0.  0.
         25    2    1    2    0    0  0.32213719995E+02  0.34717924213E+01  0.68913466112E+02  0.14644715642E+03  0.12509167324E+03 0.  0.
        -24    2    1    2    0    0  0.25176670058E+01  0.14062084851E+02  0.32336729171E+03  0.33359931674E+03  0.80734242438E+02 0.  0.
        -11    1    3    3    0    0  0.14662322776E+02  0.63288965322E+01 -0.86377151492E+02  0.87841054982E+02  0.00000000000E+00 0.  1.
         12    1    3    3    0    0 -0.49393709777E+02 -0.23862773804E+02 -0.37648572096E+02  0.66532589909E+02  0.00000000000E+00 0. -1.
         13    1    5    5    0    0  0.32958277604E+02  0.29057176650E+02  0.12862283052E+03  0.13592056543E+03  0.00000000000E+00 0. -1.
        -14    1    5    5    0    0 -0.30440610598E+02 -0.14995091799E+02  0.19474446119E+03  0.19767875130E+03  0.00000000000E+00 0.  1.
          5    1    4    4  501    0  0.55363125424E+02  0.48093724521E+02  0.60806138635E+02  0.95356913177E+02  0.41800000000E+01 0. -1.
         -5    1    4    4    0  501 -0.23149405429E+02 -0.44621932100E+02  0.81073274767E+01  0.51090243246E+02  0.41800000000E+01 0. -1.
</event>
<event>
11    1  0.1170439E-008  0.1579548E+03  0.7561462E-02  0.1089017E+00
         22   -1    0    0    0    0  0.00000000000E+00  0.00000000000E+00  0.12622864713E+04  0.12622864713E+04  0.00000000000E+00 0.  1.
         22   -1    0    0    0    0 -0.00000000000E+00 -0.00000000000E+00 -0.14989327593E+04  0.14989327593E+04  0.00000000000E+00 0. -1.
         24    2    1    2    0    0  0.45794536700E+02  0.13988796521E+02 -0.13164661613E+04  0.13208245623E+04  0.95924681371E+02 0.  0.
         25    2    1    2    0    0 -0.39227374785E+02  0.82541597961E+02 -0.14313779247E+03  0.21092112004E+03  0.12508952363E+03 0.  0.
        -24    2    1    2    0    0 -0.65671619153E+01 -0.96530394482E+02  0.12229576658E+04  0.12294735483E+04  0.81354218772E+02 0.  0.
        -13    1    3    3    0    0  0.37379023856E+02  0.37084677399E+02 -0.34034481301E+03  0.34439375207E+03  0.00000000000E+00 0.  1.
         14    1    3    3    0    0  0.84155128443E+01 -0.23095880878E+02 -0.97612134833E+03  0.97643081026E+03  0.00000000000E+00 0. -1.
         13    1    5    5    0    0  0.71644840238E+01  0.91934923407E+01  0.38450470167E+02  0.40178212862E+02  0.00000000000E+00 0. -1.
        -14    1    5    5    0    0 -0.13731645939E+02 -0.10572388682E+03  0.11845071956E+04  0.11892953354E+04  0.00000000000E+00 0.  1.
          5    1    4    4  501    0 -0.17263349929E+02 -0.27625492583E+02 -0.56469813825E+01  0.33324943960E+02  0.41800000000E+01 0. -1.
         -5    1    4    4    0  501 -0.21964024856E+02  0.11016709054E+03 -0.13749081109E+03  0.17759617608E+03  0.41800000000E+01 0. -1.
</event>
<event>
11    1  0.8037748E-009  0.3175051E+03  0.7561462E-02  0.9930433E-01
         22   -1    0    0    0    0  0.00000000000E+00  0.00000000000E+00  0.24126724836E+04  0.24126724836E+04  0.00000000000E+00 0.  1.
         22   -1    0    0    0    0 -0.00000000000E+00 -0.00000000000E+00 -0.16209862817E+03  0.16209862817E+03  0.00000000000E+00 0. -1.
        -24    2    1    2    0    0 -0.56784983079E+02 -0.39480797021E+01 -0.10195481202E+03  0.13942562485E+03  0.76187922492E+02 0.  0.
         25    2    1    2    0    0  0.10834956653E+03  0.28147383446E+03  0.14338279260E+04  0.14705355388E+04  0.12508037970E+03 0.  0.
         24    2    1    2    0    0 -0.51564583451E+02 -0.27752575476E+03  0.91870074142E+03  0.96480994812E+03  0.84662464395E+02 0.  0.
        -11    1    5    5    0    0 -0.35176459496E+02 -0.27500432853E+03  0.84714239920E+03  0.89135571380E+03  0.00000000000E+00 0.  1.
         12    1    5    5    0    0 -0.16388123955E+02 -0.25214262352E+01  0.71558342226E+02  0.73454234317E+02  0.00000000000E+00 0. -1.
         13    1    3    3    0    0  0.88483372850E+01 -0.41312551101E+01 -0.61619739838E+02  0.62388722372E+02  0.00000000000E+00 0. -1.
        -14    1    3    3    0    0 -0.65633320364E+02  0.18317540797E+00 -0.40335072181E+02  0.77036902476E+02  0.00000000000E+00 0.  1.
          5    1    4    4  501    0  0.70510797141E+02  0.39595810698E+02  0.31670154183E+03  0.32688979754E+03  0.41800000000E+01 0.  1.
         -5    1    4    4    0  501  0.37838769389E+02  0.24187802377E+03  0.11171263842E+04  0.11436457412E+04  0.41800000000E+01 0.  1.
</event>
<event>
11    1  0.8037748E-009  0.1466362E+03  0.7561462E-02  0.1100366E+00
         22   -1    0    0    0    0  0.00000000000E+00  0.00000000000E+00  0.93545437122E+03  0.93545437122E+03  0.00000000000E+00 0. -1.
         22   -1    0    0    0    0 -0.00000000000E+00 -0.00000000000E+00 -0.13931538278E+03  0.13931538278E+03  0.00000000000E+00 0.  1.
        -24    2    1    2    0    0 -0.20953760893E+02 -0.45474956534E+02 -0.10044215660E+03  0.13829819954E+03  0.80812953204E+02 0.  0.
         25    2    1    2    0    0  0.63972643068E+02 -0.27514946375E+02  0.37035376694E+03  0.39706367659E+03  0.12509228293E+03 0.  0.
         24    2    1    2    0    0 -0.43018882175E+02  0.72989902909E+02  0.52622737810E+03  0.53940787788E+03  0.82870109825E+02 0.  0.
        -11    1    5    5    0    0 -0.23481288578E+02  0.60113038363E+02  0.16130625590E+03  0.17373732037E+03  0.00000000000E+00 0.  1.
         12    1    5    5    0    0 -0.19537593596E+02  0.12876864546E+02  0.36492112220E+03  0.36567055751E+03  0.00000000000E+00 0. -1.
         11    1    3    3    0    0 -0.12251485379E+02 -0.64829319407E+02 -0.47603353967E+02  0.81357352819E+02  0.00000000000E+00 0. -1.
        -12    1    3    3    0    0 -0.87022755143E+01  0.19354362874E+02 -0.52838802633E+02  0.56940846718E+02  0.00000000000E+00 0.  1.
          5    1    4    4  501    0 -0.31685263260E+02 -0.21093163819E+02  0.17834018074E+03  0.18240496137E+03  0.41800000000E+01 0.  1.
         -5    1    4    4    0  501  0.95657906328E+02 -0.64217825569E+01  0.19201358620E+03  0.21465871522E+03  0.41800000000E+01 0.  1.
</event>
<event>
11    1  0.8037748E-009  0.1303472E+03  0.7561462E-02  0.1118843E+00
         22   -1    0    0    0    0  0.00000000000E+00  0.00000000000E+00  0.15943138460E+03  0.15943138460E+03  0.00000000000E+00 0. -1.
         22   -1    0    0    0    0 -0.00000000000E+00 -0.00000000000E+00 -0.38676370024E+03  0.38676370024E+03  0.00000000000E+00 0.  1.
         24    2    1    2    0    0 -0.99586707820E+01  0.37114461886E+02 -0.24461569760E+03  0.25892508181E+03  0.75688176549E+02 0.  0.
         25    2    1    2    0    0 -0.26852669934E+02 -0.41312055493E+02 -0.77957111184E+02  0.15541165897E+03  0.12509084997E+03 0.  0.
        -24    2    1    2    0    0  0.36811340716E+02  0.41975936070E+01  0.95240493149E+02  0.13185834407E+03  0.83325726936E+02 0.  0.
        -11    1    3    3    0    0  0.18672547179E+02  0.21790675845E+02 -0.20805484332E+03  0.21002455905E+03  0.00000000000E+00 0.  1.
         12    1    3    3    0    0 -0.28631217960E+02  0.15323786041E+02 -0.36560854279E+02  0.48900522759E+02  0.00000000000E+00 0. -1.
         13    1    5    5    0    0  0.17488002659E+02  0.12163557851E+02  0.10616052209E+03  0.10827667721E+03  0.00000000000E+00 0. -1.
        -14    1    5    5    0    0  0.19323338057E+02 -0.79659642436E+01 -0.10920028944E+02  0.23581666865E+02  0.00000000000E+00 0.  1.
          5    1    4    4  501    0  0.19333399291E+02  0.17613819875E+02 -0.75909886469E+02  0.80397824861E+02  0.41800000000E+01 0. -1.
         -5    1    4    4    0  501 -0.46186069225E+02 -0.58925875367E+02 -0.20472247155E+01  0.75013834106E+02  0.41800000000E+01 0. -1.
</event>
<event>
11    1  0.9126463E-009  0.1639362E+03  0.7561462E-02  0.1083432E+00
         22   -1    0    0    0    0  0.00000000000E+00  0.00000000000E+00  0.38131362630E+03  0.38131362630E+03  0.00000000000E+00 0. -1.
         22   -1    0    0    0    0 -0.00000000000E+00 -0.00000000000E+00 -0.16871498179E+04  0.16871498179E+04  0.00000000000E+00 0.  1.
        -24    2    1    2    0    0  0.48733185139E+02  0.87179525178E+02 -0.12161893269E+04  0.12229168434E+04  0.80211807723E+02 0.  0.
         25    2    1    2    0    0 -0.14043669763E+03 -0.87219702381E+02 -0.43358081734E+03  0.48059379479E+03  0.12509327677E+03 0.  0.
         24    2    1    2    0    0  0.91703512492E+02  0.40177202959E-01  0.34393395267E+03  0.36495280598E+03  0.80563335183E+02 0.  0.
        -11    1    5    5    0    0 -0.98455328846E+01 -0.15365881614E+02  0.36368125004E+02  0.40690113687E+02  0.00000000000E+00 0.  1.
         12    1    5    5    0    0  0.10154904538E+03  0.15406058817E+02  0.30756582767E+03  0.32426269229E+03  0.00000000000E+00 0. -1.
         11    1    3    3    0    0  0.44251498166E+02  0.36978237478E+02 -0.30942969327E+03  0.31475755784E+03  0.00000000000E+00 0. -1.
        -12    1    3    3    0    0  0.44816869733E+01  0.50201287700E+02 -0.90675963361E+03  0.90815928556E+03  0.00000000000E+00 0.  1.
          5    1    4    4  501    0 -0.16165625600E+01  0.20044439956E+02 -0.11620860911E+02  0.23598933365E+02  0.41800000000E+01 0.  1.
         -5    1    4    4    0  501 -0.13882013507E+03 -0.10726414234E+03 -0.42195995643E+03  0.45699486142E+03  0.41800000000E+01 0.  1.
</event>
<event>
11    1  0.8037748E-009  0.1412360E+03  0.7561462E-02  0.1106186E+00
         22   -1    0    0    0    0  0.00000000000E+00  0.00000000000E+00  0.28786718444E+04  0.28786718444E+04  0.00000000000E+00 0.  1.
         22   -1    0    0    0    0 -0.00000000000E+00 -0.00000000000E+00 -0.54207390473E+03  0.54207390473E+03  0.00000000000E+00 0.  1.
        -24    2    1    2    0    0 -0.54744831220E+02 -0.37156964825E+02 -0.50830875040E+03  0.52366163499E+03  0.10707980968E+03 0.  0.
         25    2    1    2    0    0  0.30407807073E+02  0.46564094300E+02  0.15894155072E+03  0.20976823481E+03  0.12508975251E+03 0.  0.
         24    2    1    2    0    0  0.24337024147E+02 -0.94071294755E+01  0.26859651394E+04  0.26873158793E+04  0.81099449034E+02 0.  0.
        -13    1    5    5    0    0 -0.13851073339E+02 -0.30135895469E+02  0.17803897680E+04  0.17806986692E+04  0.00000000000E+00 0.  1.
         14    1    5    5    0    0  0.38188097486E+02  0.20728765994E+02  0.90557537132E+03  0.90661721011E+03  0.00000000000E+00 0. -1.
         13    1    3    3    0    0  0.28557393409E+01 -0.58740986286E+02 -0.17206858066E+03  0.18184129115E+03  0.00000000000E+00 0. -1.
        -14    1    3    3    0    0 -0.57600570561E+02  0.21584021462E+02 -0.33624016974E+03  0.34182034384E+03  0.00000000000E+00 0.  1.
          5    1    4    4  501    0 -0.13338659305E+02 -0.31007547973E+02  0.92569746647E+02  0.98620577252E+02  0.41800000000E+01 0. -1.
         -5    1    4    4    0  501  0.43746466378E+02  0.77571642273E+02  0.66371804069E+02  0.11114765756E+03  0.41800000000E+01 0. -1.
</event>
<event>
11    1  0.8037748E-009  0.1351894E+03  0.7561462E-02  0.1113052E+00
         22   -1    0    0    0    0  0.00000000000E+00  0.00000000000E+00  0.24350377927E+03  0.24350377927E+03  0.00000000000E+00 0.  1.
         22   -1    0    0    0    0 -0.00000000000E+00 -0.00000000000E+00 -0.33118067478E+03  0.33118067478E+03  0.00000000000E+00 0. -1.
        -24    2    1    2    0    0  0.18566370897E+02 -0.45224467606E+02 -0.24470412842E+03  0.26238304547E+03  0.81085075594E+02 0.  0.
         25    2    1    2    0    0 -0.53078750217E+01  0.77209573931E+02  0.18036810365E+02  0.14818625705E+03  0.12507736968E+03 0.  0.
         24    2    1    2    0    0 -0.13258495875E+02 -0.31985106326E+02  0.13899042255E+03  0.16411515153E+03  0.80103749368E+02 0.  0.
        -11    1    5    5    0    0  0.15443073642E+02 -0.40001289433E+02  0.33262174268E+02  0.54267521750E+02  0.00000000000E+00 0.  1.
         12    1    5    5    0    0 -0.28701569517E+02  0.80161831076E+01  0.10572824828E+03  0.10984762978E+03  0.00000000000E+00 0. -1.
         13    1    3    3    0    0  0.27553706295E+02 -0.10508227466E+02 -0.21138646135E+03  0.21343351568E+03  0.00000000000E+00 0. -1.
        -14    1    3    3    0    0 -0.89873353980E+01 -0.34716240140E+02 -0.33317667071E+02  0.48949529784E+02  0.00000000000E+00 0.  1.
          5    1    4    4  501    0  0.24432641328E+02  0.15846731340E+02  0.60830868741E+02  0.67571738532E+02  0.41800000000E+01 0. -1.
         -5    1    4    4    0  501 -0.29740516350E+02  0.61362842591E+02 -0.42794058376E+02  0.80614518518E+02  0.41800000000E+01 0. -1.
</event>
<event>
11    1  0.8037748E-009  0.2527648E+03  0.7561462E-02  0.1022437E+00
         22   -1    0    0    0    0  0.00000000000E+00  0.00000000000E+00  0.49118412145E+03  0.49118412145E+03  0.00000000000E+00 0.  1.
         22   -1    0    0    0    0 -0.00000000000E+00 -0.00000000000E+00 -0.34170419704E+03  0.34170419704E+03  0.00000000000E+00 0. -1.
        -24    2    1    2    0    0 -0.73569746749E+02 -0.18142422261E+03 -0.12457132106E+03  0.24561042988E+03  0.80493559033E+02 0.  0.
         25    2    1    2    0    0  0.57387221941E+02  0.29680786745E+03  0.65724024950E+02  0.33369679909E+03  0.12508278397E+03 0.  0.
         24    2    1    2    0    0  0.16182524808E+02 -0.11538364483E+03  0.20832722053E+03  0.25358108952E+03  0.85603028827E+02 0.  0.
        -11    1    5    5    0    0  0.11100712934E+02 -0.12223296816E+03  0.14627864940E+03  0.19094912307E+03  0.00000000000E+00 0.  1.
         12    1    5    5    0    0  0.50818118733E+01  0.68493233219E+01  0.62048571130E+02  0.62631966448E+02  0.00000000000E+00 0. -1.
         11    1    3    3    0    0  0.96279582609E+01 -0.74658474355E+02 -0.56377930048E+02  0.94048159843E+02  0.00000000000E+00 0. -1.
        -12    1    3    3    0    0 -0.83197705010E+02 -0.10676574826E+03 -0.68193391015E+02  0.15156227004E+03  0.00000000000E+00 0.  1.
          5    1    4    4  501    0  0.57461862866E+02  0.22385997533E+03  0.10136104853E+03  0.25240183993E+03  0.41800000000E+01 0. -1.
         -5    1    4    4    0  501 -0.74640924805E-01  0.72947892113E+02 -0.35637023580E+02  0.81294959159E+02  0.41800000000E+01 0. -1.
</event>
<event>
11    1  0.8037748E-009  0.1501048E+03  0.7561462E-02  0.1096772E+00
         22   -1    0    0    0    0  0.00000000000E+00  0.00000000000E+00  0.52978439656E+03  0.52978439656E+03  0.00000000000E+00 0.  1.
         22   -1    0    0    0    0 -0.00000000000E+00 -0.00000000000E+00 -0.10760447106E+04  0.10760447106E+04  0.00000000000E+00 0.  1.
         24    2    1    2    0    0  0.51121448156E+02 -0.41931326648E+02 -0.79284295468E+03  0.79989046479E+03  0.82783852589E+02 0.  0.
         25    2    1    2    0    0  0.28668521451E+01 -0.23105634502E+02 -0.25816293246E+03  0.28781429829E+03  0.12508749505E+03 0.  0.
        -24    2    1    2    0    0 -0.53988300301E+02  0.65036961150E+02  0.50474557314E+03  0.51812434405E+03  0.80871499340E+02 0.  0.
        -13    1    3    3    0    0  0.60333325603E+02  0.26723789481E+01 -0.45732227426E+03  0.46129265583E+03  0.00000000000E+00 0.  1.
         14    1    3    3    0    0 -0.92118774472E+01 -0.44603705597E+02 -0.33552068043E+03  0.33859780896E+03  0.00000000000E+00 0. -1.
         13    1    5    5    0    0 -0.40744831017E+02  0.54639503949E+01  0.90396712649E+02  0.99305395958E+02  0.00000000000E+00 0. -1.
        -14    1    5    5    0    0 -0.13243469283E+02  0.59573010756E+02  0.41434886049E+03  0.41881894809E+03  0.00000000000E+00 0.  1.
          5    1    4    4  501    0 -0.21478201782E+02  0.34280576777E+01 -0.24957939837E+03  0.25056019880E+03  0.41800000000E+01 0.  1.
         -5    1    4    4    0  501  0.24345053928E+02 -0.26533692180E+02 -0.85835340862E+01  0.37254099490E+02  0.41800000000E+01 0.  1.
</event>
<event>
11    1  0.8037748E-009  0.1388832E+03  0.7561462E-02  0.1108812E+00
         22   -1    0    0    0    0  0.00000000000E+00  0.00000000000E+00  0.27114046002E+04  0.27114046002E+04  0.00000000000E+00 0.  1.
         22   -1    0    0    0    0 -0.00000000000E+00 -0.00000000000E+00 -0.51927096286E+03  0.51927096286E+03  0.00000000000E+00 0. -1.
         24    2    1    2    0    0  0.13977119334E+02  0.24494224599E-01 -0.44669261028E+03  0.45417972832E+03  0.80929457431E+02 0.  0.
         25    2    1    2    0    0  0.25942148796E+02 -0.45480919010E+02  0.16867370829E+00  0.13560339785E+03  0.12508694568E+03 0.  0.
        -24    2    1    2    0    0 -0.39919268130E+02  0.45456424786E+02  0.26386575739E+04  0.26408924369E+04  0.90217716158E+02 0.  0.
        -13    1    3    3    0    0 -0.22366397114E+02  0.17232328558E+02 -0.72042615760E+02  0.77377951336E+02  0.00000000000E+00 0.  1.
         14    1    3    3    0    0  0.36343516448E+02 -0.17207834333E+02 -0.37464999451E+03  0.37680177699E+03  0.00000000000E+00 0. -1.
         13    1    5    5    0    0 -0.51915540754E+02  0.34870551194E+02  0.90382810656E+03  0.90598919691E+03  0.00000000000E+00 0. -1.
        -14    1    5    5    0    0  0.11996272624E+02  0.10585873592E+02  0.17348294673E+04  0.17349032400E+04  0.00000000000E+00 0.  1.
          5    1    4    4  501    0 -0.49580855399E+02 -0.65450199359E+01  0.47414394928E+01  0.50408849982E+02  0.41800000000E+01 0.  1.
         -5    1    4    4    0  501  0.75523004195E+02 -0.38935899074E+02 -0.45727657845E+01  0.85194547867E+02  0.41800000000E+01 0.  1.
</event>
<event>
11    1  0.8037748E-009  0.1981643E+03  0.7561462E-02  0.1055829E+00
         22   -1    0    0    0    0  0.00000000000E+00  0.00000000000E+00  0.22890907906E+03  0.22890907906E+03  0.00000000000E+00 0. -1.
         22   -1    0    0    0    0 -0.00000000000E+00 -0.00000000000E+00 -0.83695796618E+03  0.83695796618E+03  0.00000000000E+00 0.  1.
         24    2    1    2    0    0 -0.38405449558E+02  0.87485443632E+02 -0.60362248052E+03  0.61635286361E+03  0.80012949475E+02 0.  0.
         25    2    1    2    0    0  0.14034046970E+03 -0.17646814326E+03 -0.86659623508E+02  0.27201898042E+03  0.12509189560E+03 0.  0.
        -24    2    1    2    0    0 -0.10193502014E+03  0.88982699623E+02  0.82233216911E+02  0.17749520121E+03  0.80209571277E+02 0.  0.
        -11    1    3    3    0    0 -0.30634198947E+02  0.24541505596E+02 -0.42493255575E+03  0.42674162743E+03  0.00000000000E+00 0.  1.
         12    1    3    3    0    0 -0.77712506114E+01  0.62943938036E+02 -0.17868992477E+03  0.18961123618E+03  0.00000000000E+00 0. -1.
         11    1    5    5    0    0 -0.11623607846E+02  0.54617826783E+02  0.97113272088E+01  0.56679142001E+02  0.00000000000E+00 0. -1.
        -12    1    5    5    0    0 -0.90311412293E+02  0.34364872841E+02  0.72521889702E+02  0.12081605920E+03  0.00000000000E+00 0.  1.
          5    1    4    4  501    0  0.79151286887E+02 -0.17179704366E+03 -0.36586624633E+02  0.19270496602E+03  0.41800000000E+01 0.  1.
         -5    1    4    4    0  501  0.61189182811E+02 -0.46710995955E+01 -0.50072998875E+02  0.79314014404E+02  0.41800000000E+01 0.  1.
</event>
<event>
11    1  0.8037748E-009  0.1778565E+03  0.7561462E-02  0.1071390E+00
         22   -1    0    0    0    0  0.00000000000E+00  0.00000000000E+00  0.25562849236E+03  0.25562849236E+03  0.00000000000E+00 0. -1.
         22   -1    0    0    0    0 -0.00000000000E+00 -0.00000000000E+00 -0.68746368891E+03  0.68746368891E+03  0.00000000000E+00 0. -1.
        -24    2    1    2    0    0  0.51229683312E+02  0.63000387387E+01 -0.52856662662E+03  0.53723667550E+03  0.81094980032E+02 0.  0.
         25    2    1    2    0    0 -0.15815959457E+03  0.42716808372E+02 -0.38340874165E+02  0.20965947018E+03  0.12509151743E+03 0.  0.
         24    2    1    2    0    0  0.10692991126E+03 -0.49016847110E+02  0.13507230423E+03  0.19619603559E+03  0.80073090296E+02 0.  0.
        -13    1    5    5    0    0 -0.66095193986E+01  0.85283887839E+01  0.27033534804E+00  0.10793157236E+02  0.00000000000E+00 0.  1.
         14    1    5    5    0    0  0.11353943065E+03 -0.57545235894E+02  0.13480196888E+03  0.18540287836E+03  0.00000000000E+00 0. -1.
         13    1    3    3    0    0  0.13744962428E+02 -0.31987104126E+02 -0.32034964459E+03  0.32223592849E+03  0.00000000000E+00 0. -1.
        -14    1    3    3    0    0  0.37484720884E+02  0.38287142864E+02 -0.20821698203E+03  0.21500074701E+03  0.00000000000E+00 0.  1.
          5    1    4    4  501    0  0.15766715447E+02  0.11285448764E+02  0.15141759994E+02  0.24953876763E+02  0.41800000000E+01 0. -1.
         -5    1    4    4    0  501 -0.17392631001E+03  0.31431359608E+02 -0.53482634159E+02  0.18470559341E+03  0.41800000000E+01 0. -1.
</event>
<event>
11    1  0.8037748E-009  0.2495781E+03  0.7561462E-02  0.1024124E+00
         22   -1    0    0    0    0  0.00000000000E+00  0.00000000000E+00  0.72263846682E+02  0.72263846682E+02  0.00000000000E+00 0.  1.
         22   -1    0    0    0    0 -0.00000000000E+00 -0.00000000000E+00 -0.18574755502E+04  0.18574755502E+04  0.00000000000E+00 0.  1.
         24    2    1    2    0    0  0.17280594727E+03  0.13100639442E+03 -0.13585005338E+04  0.13782226406E+04  0.83362916137E+02 0.  0.
         25    2    1    2    0    0 -0.19933212297E+03 -0.85883629804E+02 -0.29462659259E+03  0.38673220633E+03  0.12509067605E+03 0.  0.
        -24    2    1    2    0    0  0.26526175707E+02 -0.45122764617E+02 -0.13208457705E+03  0.16478454993E+03  0.83474011028E+02 0.  0.
        -11    1    3    3    0    0  0.14276167773E+03  0.13685983127E+03 -0.12475168069E+04  0.12630952829E+04  0.00000000000E+00 0.  1.
         12    1    3    3    0    0  0.30044269539E+02 -0.58534368471E+01 -0.11098372693E+03  0.11512735773E+03  0.00000000000E+00 0. -1.
         11    1    5    5    0    0 -0.65633148885E+01 -0.59229975736E+02 -0.10086998175E+03  0.11715809979E+03  0.00000000000E+00 0. -1.
        -12    1    5    5    0    0  0.33089490596E+02  0.14107211119E+02 -0.31214595305E+02  0.47626450146E+02  0.00000000000E+00 0.  1.
          5    1    4    4  501    0 -0.20550258171E+03 -0.61181456398E+02 -0.21768395600E+03  0.30557856403E+03  0.41800000000E+01 0.  1.
         -5    1    4    4    0  501  0.61704587387E+01 -0.24702173407E+02 -0.76942636598E+02  0.81153642301E+02  0.41800000000E+01 0.  1.
</event>
<event>
11    1  0.8037748E-009  0.1272019E+03  0.7561462E-02  0.1122756E+00
         22   -1    0    0    0    0  0.00000000000E+00  0.00000000000E+00  0.80728347505E+03  0.80728347505E+03  0.00000000000E+00 0. -1.
         22   -1    0    0    0    0 -0.00000000000E+00 -0.00000000000E+00 -0.44161587791E+03  0.44161587791E+03  0.00000000000E+00 0. -1.
         24    2    1    2    0    0 -0.40757013143E+02  0.83656606931E+01 -0.41873164724E+03  0.42844801203E+03  0.80624985054E+02 0.  0.
         25    2    1    2    0    0  0.36363559841E+02 -0.28803558916E+02  0.31080422781E+03  0.33822962160E+03  0.12509218765E+03 0.  0.
        -24    2    1    2    0    0  0.43934533021E+01  0.20437898223E+02  0.47359501656E+03  0.48222171933E+03  0.88365925330E+02 0.  0.
        -11    1    3    3    0    0  0.24739766938E+02  0.36918972599E+01 -0.12200974824E+03  0.12454744012E+03  0.00000000000E+00 0.  1.
         12    1    3    3    0    0 -0.65496780081E+02  0.46737634332E+01 -0.29672189899E+03  0.30390057191E+03  0.00000000000E+00 0. -1.
         11    1    5    5    0    0 -0.86783817267E+01 -0.30827963047E+02  0.26888463213E+03  0.27078519718E+03  0.00000000000E+00 0. -1.
        -12    1    5    5    0    0  0.13071835029E+02  0.51265861270E+02  0.20471038444E+03  0.21143652215E+03  0.00000000000E+00 0.  1.
          5    1    4    4  501    0  0.48777309485E+02 -0.71878686567E+02  0.18031736876E+03  0.20019389945E+03  0.41800000000E+01 0. -1.
         -5    1    4    4    0  501 -0.12413749645E+02  0.43075127651E+02  0.13048685906E+03  0.13803572215E+03  0.41800000000E+01 0. -1.
</event>
<event>
11    1  0.8037748E-009  0.3939347E+03  0.7561462E-02  0.9667825E-01
         22   -1    0    0    0    0  0.00000000000E+00  0.00000000000E+00  0.57266407702E+03  0.57266407702E+03  0.00000000000E+00 0.  1.
         22   -1    0    0    0    0 -0.00000000000E+00 -0.00000000000E+00 -0.70698766818E+03  0.70698766818E+03  0.00000000000E+00 0.  1.
        -24    2    1    2    0    0  0.10673666061E+03 -0.31468967300E+02 -0.37975815044E+03  0.40391480704E+03  0.80919144186E+02 0.  0.
         25    2    1    2    0    0  0.29889551483E+03 -0.75752318697E+01 -0.96024397752E+02  0.33803051321E+03  0.12509208598E+03 0.  0.
         24    2    1    2    0    0 -0.40563217544E+03  0.39044199170E+02  0.34145895704E+03  0.53770642495E+03  0.80449169368E+02 0.  0.
        -13    1    5    5    0    0 -0.34072929657E+03  0.50858046067E+02  0.31440607437E+03  0.46640558958E+03  0.00000000000E+00 0.  1.
         14    1    5    5    0    0 -0.64902878870E+02 -0.11813846897E+02  0.27052882670E+02  0.71300835373E+02  0.00000000000E+00 0. -1.
         11    1    3    3    0    0  0.98749896664E+02 -0.11181612957E+02 -0.20518747252E+03  0.22798787126E+03  0.00000000000E+00 0. -1.
        -12    1    3    3    0    0  0.79867639491E+01 -0.20287354343E+02 -0.17457067792E+03  0.17592693578E+03  0.00000000000E+00 0.  1.
          5    1    4    4  501    0  0.12597414435E+03 -0.14977697205E+01  0.22788178160E+02  0.12809567449E+03  0.41800000000E+01 0.  1.
         -5    1    4    4    0  501  0.17292137047E+03 -0.60774621492E+01 -0.11881257591E+03  0.20993483872E+03  0.41800000000E+01 0.  1.
</event>
<event>
11    1  0.8037748E-009  0.1388256E+03  0.7561462E-02  0.1108877E+00
         22   -1    0    0    0    0  0.00000000000E+00  0.00000000000E+00  0.21091943577E+04  0.21091943577E+04  0.00000000000E+00 0.  1.
         22   -1    0    0    0    0 -0.00000000000E+00 -0.00000000000E+00 -0.58165676325E+03  0.58165676325E+03  0.00000000000E+00 0. -1.
         24    2    1    2    0    0 -0.35500571093E+02  0.11248307533E+02 -0.56249729501E+03  0.56931358307E+03  0.79548312380E+02 0.  0.
         25    2    1    2    0    0  0.88178068403E+02 -0.32418998908E+02  0.41381765938E+03  0.44240043077E+03  0.12508686058E+03 0.  0.
        -24    2    1    2    0    0 -0.52677497309E+02  0.21170691375E+02  0.16762172301E+04  0.16791371072E+04  0.81080855949E+02 0.  0.
        -13    1    3    3    0    0 -0.25146655705E+02 -0.33499070516E+02 -0.26275332495E+03  0.26607114047E+03  0.00000000000E+00 0.  1.
         14    1    3    3    0    0 -0.10353915389E+02  0.44747378048E+02 -0.29974397006E+03  0.30324244260E+03  0.00000000000E+00 0. -1.
         13    1    5    5    0    0 -0.48481381704E+01  0.13598792049E+02  0.46255410067E+02  0.48456109516E+02  0.00000000000E+00 0. -1.
        -14    1    5    5    0    0 -0.47829359139E+02  0.75718993259E+01  0.16299618200E+04  0.16306809976E+04  0.00000000000E+00 0.  1.
          5    1    4    4  501    0  0.10274214943E+03 -0.13443676675E+02  0.40243623175E+03  0.41558281333E+03  0.41800000000E+01 0. -1.
         -5    1    4    4    0  501 -0.14564081026E+02 -0.18975322233E+02  0.11381427631E+02  0.26817617435E+02  0.41800000000E+01 0. -1.
</event>
<event>
11    1  0.8536464E-009  0.1727140E+03  0.7561462E-02  0.1075694E+00
         22   -1    0    0    0    0  0.00000000000E+00  0.00000000000E+00  0.27020447379E+03  0.27020447379E+03  0.00000000000E+00 0. -1.
         22   -1    0    0    0    0 -0.00000000000E+00 -0.00000000000E+00 -0.22728672990E+04  0.22728672990E+04  0.00000000000E+00 0. -1.
         24    2    1    2    0    0 -0.56140189279E+02  0.94156072385E+02 -0.17049016261E+04  0.17105820554E+04  0.85932105403E+02 0.  0.
         25    2    1    2    0    0  0.14429917405E+03 -0.16577564582E+03 -0.51588393070E+03  0.57453240447E+03  0.12508971765E+03 0.  0.
        -24    2    1    2    0    0 -0.88158984774E+02  0.71619573437E+02  0.21812273160E+03  0.25795731290E+03  0.77865777743E+02 0.  0.
        -13    1    3    3    0    0  0.14429717917E+02  0.32167951858E+02 -0.80947354384E+03  0.81024095926E+03  0.00000000000E+00 0.  1.
         14    1    3    3    0    0 -0.70569907195E+02  0.61988120527E+02 -0.89542808226E+03  0.90034109613E+03  0.00000000000E+00 0. -1.
         11    1    5    5    0    0 -0.10085097067E+03  0.55603205905E+02  0.19926534955E+03  0.23015063398E+03  0.00000000000E+00 0. -1.
        -12    1    5    5    0    0  0.12691985892E+02  0.16016367533E+02  0.18857382054E+02  0.27806678924E+02  0.00000000000E+00 0.  1.
          5    1    4    4  501    0  0.12492961151E+03 -0.18013675307E+03 -0.40058063246E+03  0.45666067615E+03  0.41800000000E+01 0.  1.
         -5    1    4    4    0  501  0.19369562546E+02  0.14361107249E+02 -0.11530329824E+03  0.11787172833E+03  0.41800000000E+01 0.  1.
</event>
<event>
11    1  0.8037748E-009  0.1599761E+03  0.7561462E-02  0.1087100E+00
         22   -1    0    0    0    0  0.00000000000E+00  0.00000000000E+00  0.13872909649E+04  0.13872909649E+04  0.00000000000E+00 0. -1.
         22   -1    0    0    0    0 -0.00000000000E+00 -0.00000000000E+00 -0.79397387303E+03  0.79397387303E+03  0.00000000000E+00 0.  1.
         24    2    1    2    0    0 -0.98628286368E+02  0.42994358002E+01 -0.71855419693E+03  0.72979589169E+03  0.80844824089E+02 0.  0.
         25    2    1    2    0    0  0.11869264558E+03 -0.62140585980E+02  0.56129448331E+02  0.19169205566E+03  0.12508370275E+03 0.  0.
        -24    2    1    2    0    0 -0.20064359212E+02  0.57841150180E+02  0.12557418405E+04  0.12597768906E+04  0.80012917388E+02 0.  0.
        -11    1    3    3    0    0 -0.90492432361E+02 -0.15094605767E+02 -0.67734856878E+03  0.68353332842E+03  0.00000000000E+00 0.  1.
         12    1    3    3    0    0 -0.81358540067E+01  0.19394041567E+02 -0.41205628151E+02  0.46262563268E+02  0.00000000000E+00 0. -1.
         13    1    5    5    0    0 -0.24179879083E+02  0.31664992691E+02  0.11525137844E+04  0.11532022206E+04  0.00000000000E+00 0. -1.
        -14    1    5    5    0    0  0.41155198711E+01  0.26176157489E+02  0.10322805612E+03  0.10657467004E+03  0.00000000000E+00 0.  1.
          5    1    4    4  501    0  0.52942074179E+02  0.36003557374E+02  0.29008898998E+02  0.70413833747E+02  0.41800000000E+01 0.  1.
         -5    1    4    4    0  501  0.65750571402E+02 -0.98144143354E+02  0.27120549333E+02  0.12127822191E+03  0.41800000000E+01 0.  1.
</event>
<event>
11    1  0.8037748E-009  0.1704357E+03  0.7561462E-02  0.1077653E+00
         22   -1    0    0    0    0  0.00000000000E+00  0.00000000000E+00  0.22628950169E+03  0.22628950169E+03  0.00000000000E+00 0. -1.
         22   -1    0    0    0    0 -0.00000000000E+00 -0.00000000000E+00 -0.21822965065E+04  0.21822965065E+04  0.00000000000E+00 0.  1.
         24    2    1    2    0    0 -0.15996682525E+02 -0.11477352767E+03 -0.20593875682E+04  0.20642051532E+04  0.80230305485E+02 0.  0.
         25    2    1    2    0    0  0.82262435885E+02  0.10080232930E+03 -0.19779422009E+02  0.18156686456E+03  0.12508830009E+03 0.  0.
        -24    2    1    2    0    0 -0.66265753360E+02  0.13971198373E+02  0.12315998541E+03  0.16281399043E+03  0.82180709542E+02 0.  0.
        -11    1    3    3    0    0 -0.95209012249E+01 -0.11372563885E+03 -0.20470780811E+04  0.20502567738E+04  0.00000000000E+00 0.  1.
         12    1    3    3    0    0 -0.64757813000E+01 -0.10478888222E+01 -0.12309487098E+02  0.13948379370E+02  0.00000000000E+00 0. -1.
         11    1    5    5    0    0 -0.26720175709E+01 -0.25223734667E+02  0.59445344116E+02  0.64630684706E+02  0.00000000000E+00 0. -1.
        -12    1    5    5    0    0 -0.63593735789E+02  0.39194933039E+02  0.63714641296E+02  0.98183305725E+02  0.00000000000E+00 0.  1.
          5    1    4    4  501    0  0.52859482703E+02  0.12801664806E+03 -0.49818865414E+01  0.13865308755E+03  0.41800000000E+01 0. -1.
         -5    1    4    4    0  501  0.29402953182E+02 -0.27214318762E+02 -0.14797535467E+02  0.42913777011E+02  0.41800000000E+01 0. -1.
</event>
<event>
11    1  0.8037748E-009  0.1587715E+03  0.7561462E-02  0.1088238E+00
         22   -1    0    0    0    0  0.00000000000E+00  0.00000000000E+00  0.56358893696E+03  0.56358893696E+03  0.00000000000E+00 0. -1.
         22   -1    0    0    0    0 -0.00000000000E+00 -0.00000000000E+00 -0.96101885823E+03  0.96101885823E+03  0.00000000000E+00 0. -1.
        -24    2    1    2    0    0 -0.25931986336E+02  0.35138981283E+02 -0.71043466110E+03  0.71401046863E+03  0.56447548218E+02 0.  0.
         25    2    1    2    0    0  0.88092900086E+02  0.40731676488E+02 -0.21559075053E+03  0.26748226000E+03  0.12509180302E+03 0.  0.
         24    2    1    2    0    0 -0.62160913750E+02 -0.75870657771E+02  0.52859549036E+03  0.54311506656E+03  0.77074296491E+02 0.  0.
        -11    1    5    5    0    0 -0.12714561681E+02 -0.66425940839E+02  0.21154792242E+03  0.22209590085E+03  0.00000000000E+00 0.  1.
         12    1    5    5    0    0 -0.49446352069E+02 -0.94447169324E+01  0.31704756795E+03  0.32101916571E+03  0.00000000000E+00 0. -1.
         13    1    3    3    0    0 -0.28560498271E+02  0.43843726732E+02 -0.68506614421E+03  0.68706156666E+03  0.00000000000E+00 0. -1.
        -14    1    3    3    0    0  0.26285119350E+01 -0.87047454481E+01 -0.25368516888E+02  0.26948901970E+02  0.00000000000E+00 0.  1.
          5    1    4    4  501    0  0.26823153194E-01 -0.11039904189E+02  0.12701891294E+02  0.17340433859E+02  0.41800000000E+01 0.  1.
         -5    1    4    4    0  501  0.88066076933E+02  0.51771580677E+02 -0.22829264183E+03  0.25014182614E+03  0.41800000000E+01 0.  1.
</event>
<event>
11    1  0.8037748E-009  0.1278664E+03  0.7561462E-02  0.1121919E+00
         22   -1    0    0    0    0  0.00000000000E+00  0.00000000000E+00  0.44332455778E+03  0.44332455778E+03  0.00000000000E+00 0. -1.
         22   -1    0    0    0    0 -0.00000000000E+00 -0.00000000000E+00 -0.16850328369E+03  0.16850328369E+03  0.00000000000E+00 0. -1.
         24    2    1    2    0    0 -0.47715975112E+02 -0.16795147911E+02 -0.12395281497E+03  0.14904190219E+03  0.65500358741E+02 0.  0.
         25    2    1    2    0    0  0.48676017159E+02  0.36523490204E+02  0.17225654391E+03  0.22140995094E+03  0.12508688770E+03 0.  0.
        -24    2    1    2    0    0 -0.96004204714E+00 -0.19728342292E+02  0.22651754516E+03  0.24137598834E+03  0.81006421415E+02 0.  0.
        -11    1    3    3    0    0 -0.98961709627E+01  0.10178139094E+02  0.24207477802E+01  0.14400997707E+02  0.00000000000E+00 0.  1.
         12    1    3    3    0    0 -0.37819804150E+02 -0.26973287006E+02 -0.12637356275E+03  0.13464090448E+03  0.00000000000E+00 0. -1.
         11    1    5    5    0    0 -0.68860517886E+01 -0.33770616181E+02  0.22311239709E+03  0.22575875168E+03  0.00000000000E+00 0. -1.
        -12    1    5    5    0    0  0.59260097415E+01  0.14042273888E+02  0.34051480733E+01  0.15617236657E+02  0.00000000000E+00 0.  1.
          5    1    4    4  501    0  0.71627640596E+02 -0.17223920155E+02  0.12888240264E+03  0.14851036474E+03  0.41800000000E+01 0.  1.
         -5    1    4    4    0  501 -0.22951623437E+02  0.53747410359E+02  0.43374141262E+02  0.72899586205E+02  0.41800000000E+01 0.  1.
</event>
<event>
11    1  0.8037748E-009  0.1258955E+03  0.7561462E-02  0.1124417E+00
         22   -1    0    0    0    0  0.00000000000E+00  0.00000000000E+00  0.23030852258E+04  0.23030852258E+04  0.00000000000E+00 0. -1.
         22   -1    0    0    0    0 -0.00000000000E+00 -0.00000000000E+00 -0.51758145074E+02  0.51758145074E+02  0.00000000000E+00 0. -1.
        -24    2    1    2    0    0  0.10815365429E+02 -0.42499782617E+02  0.13049341291E+02  0.92327298558E+02  0.80192525206E+02 0.  0.
         25    2    1    2    0    0  0.39978725282E+01  0.41999733848E+02  0.38556747447E+03  0.40754061851E+03  0.12508843969E+03 0.  0.
         24    2    1    2    0    0 -0.14813237957E+02  0.50004876877E+00  0.18527102650E+04  0.18549754538E+04  0.90437416102E+02 0.  0.
        -13    1    5    5    0    0 -0.24868176904E+02  0.35763502002E+02  0.54032190435E+03  0.54207491606E+03  0.00000000000E+00 0.  1.
         14    1    5    5    0    0  0.10054938946E+02 -0.35263453233E+02  0.13123883606E+04  0.13129005378E+04  0.00000000000E+00 0. -1.
         13    1    3    3    0    0  0.45847801644E+02 -0.23958350485E+02  0.61467729158E+01  0.52094205924E+02  0.00000000000E+00 0. -1.
        -14    1    3    3    0    0 -0.35032436215E+02 -0.18541432133E+02  0.69025683755E+01  0.40233092634E+02  0.00000000000E+00 0.  1.
          5    1    4    4  501    0 -0.35130751240E+02  0.63690086017E+02  0.31909056652E+03  0.32730239654E+03  0.41800000000E+01 0. -1.
         -5    1    4    4    0  501  0.39128623768E+02 -0.21690352168E+02  0.66476907953E+02  0.80238221978E+02  0.41800000000E+01 0. -1.
</event>
<event>
11    1  0.8037748E-009  0.1308997E+03  0.7561462E-02  0.1118168E+00
         22   -1    0    0    0    0  0.00000000000E+00  0.00000000000E+00  0.46753277418E+02  0.46753277418E+02  0.00000000000E+00 0.  1.
         22   -1    0    0    0    0 -0.00000000000E+00 -0.00000000000E+00 -0.14760732627E+04  0.14760732627E+04  0.00000000000E+00 0. -1.
        -24    2    1    2    0    0  0.39417251584E+01 -0.27323761305E+02 -0.11304740440E+04  0.11335619811E+04  0.78924493845E+02 0.  0.
         25    2    1    2    0    0  0.33409715962E+01 -0.16084788315E+02 -0.26173515295E+03  0.29055538203E+03  0.12508899725E+03 0.  0.
         24    2    1    2    0    0 -0.72826967546E+01  0.43408549620E+02 -0.37110788347E+02  0.98709176990E+02  0.80180740570E+02 0.  0.
        -11    1    5    5    0    0 -0.41842047814E+02  0.16288033833E+02 -0.30510550938E+02  0.54285824392E+02  0.00000000000E+00 0.  1.
         12    1    5    5    0    0  0.34559351060E+02  0.27120515787E+02 -0.66002374090E+01  0.44423352598E+02  0.00000000000E+00 0. -1.
         11    1    3    3    0    0  0.10588358394E+02  0.24016309607E+02 -0.59842732369E+03  0.59900263622E+03  0.00000000000E+00 0. -1.
        -12    1    3    3    0    0 -0.66466332356E+01 -0.51340070912E+02 -0.53204672028E+03  0.53455934486E+03  0.00000000000E+00 0.  1.
          5    1    4    4  501    0 -0.18181759878E+02  0.38402518266E+01  0.69247441240E+01  0.20266928912E+02  0.41800000000E+01 0. -1.
         -5    1    4    4    0  501  0.21522731474E+02 -0.19925040141E+02 -0.26865989707E+03  0.27028845312E+03  0.41800000000E+01 0. -1.
</event>
<event>
11    1  0.8037748E-009  0.1862265E+03  0.7561462E-02  0.1064715E+00
         22   -1    0    0    0    0  0.00000000000E+00  0.00000000000E+00  0.59466311823E+03  0.59466311823E+03  0.00000000000E+00 0.  1.
         22   -1    0    0    0    0 -0.00000000000E+00 -0.00000000000E+00 -0.29187039858E+03  0.29187039858E+03  0.00000000000E+00 0. -1.
        -24    2    1    2    0    0  0.13599697599E+02 -0.15175373066E+02 -0.20939079358E+03  0.22569752469E+03  0.81728969703E+02 0.  0.
         25    2    1    2    0    0  0.12457757340E+03  0.38136409033E+02  0.77190622911E+02  0.19642327849E+03  0.12509897913E+03 0.  0.
         24    2    1    2    0    0 -0.13817727100E+03 -0.22961035966E+02  0.43499289032E+03  0.46441271363E+03  0.82705420365E+02 0.  0.
        -13    1    5    5    0    0 -0.46331545229E+02 -0.80841944997E+01  0.27775576819E+03  0.28170948342E+03  0.00000000000E+00 0.  1.
         14    1    5    5    0    0 -0.91845725770E+02 -0.14876841467E+02  0.15723712213E+03  0.18270323021E+03  0.00000000000E+00 0. -1.
         11    1    3    3    0    0 -0.52721846028E+01  0.11413294581E+01 -0.19833765410E+03  0.19841099666E+03  0.00000000000E+00 0. -1.
        -12    1    3    3    0    0  0.18871882202E+02 -0.16316702524E+02 -0.11053139489E+02  0.27286528025E+02  0.00000000000E+00 0.  1.
          5    1    4    4  501    0 -0.20436210412E+02  0.28361007049E+02  0.15925201877E+02  0.38640262313E+02  0.41800000000E+01 0. -1.
         -5    1    4    4    0  501  0.14501378381E+03  0.97754019836E+01  0.61265421034E+02  0.15778301618E+03  0.41800000000E+01 0. -1.
</event>
<event>
11    1  0.8037748E-009  0.1852446E+03  0.7561462E-02  0.1065478E+00
         22   -1    0    0    0    0  0.00000000000E+00  0.00000000000E+00  0.90400369993E+03  0.90400369993E+03  0.00000000000E+00 0. -1.
         22   -1    0    0    0    0 -0.00000000000E+00 -0.00000000000E+00 -0.74195846055E+03  0.74195846055E+03  0.00000000000E+00 0.  1.
        -24    2    1    2    0    0 -0.10810578742E+03 -0.85092508746E+02 -0.66643456126E+03  0.68440451637E+03  0.73122645364E+02 0.  0.
         25    2    1    2    0    0  0.82970465824E+02  0.94560322126E+02  0.56918917582E+02  0.18631447216E+03  0.12509023398E+03 0.  0.
         24    2    1    2    0    0  0.25135321600E+02 -0.94678133801E+01  0.77156088306E+03  0.77524317196E+03  0.70529111132E+02 0.  0.
        -13    1    5    5    0    0 -0.12519896820E+02  0.20649005510E+02  0.16351698818E+03  0.16529045547E+03  0.00000000000E+00 0.  1.
         14    1    5    5    0    0  0.37655218420E+02 -0.30116818890E+02  0.60804389488E+03  0.60995271649E+03  0.00000000000E+00 0. -1.
         13    1    3    3    0    0 -0.41278930647E+02 -0.71262601869E+02 -0.27503686217E+03  0.28710204474E+03  0.00000000000E+00 0. -1.
        -14    1    3    3    0    0 -0.66826856777E+02 -0.13829906877E+02 -0.39139769909E+03  0.39730247163E+03  0.00000000000E+00 0.  1.
          5    1    4    4  501    0  0.54058497788E+02  0.26262800333E+02 -0.33787189255E+02  0.69073167165E+02  0.41800000000E+01 0.  1.
         -5    1    4    4    0  501  0.28911968036E+02  0.68297521793E+02  0.90706106837E+02  0.11724130499E+03  0.41800000000E+01 0.  1.
</event>
<event>
11    1  0.8037748E-009  0.1339591E+03  0.7561462E-02  0.1114498E+00
         22   -1    0    0    0    0  0.00000000000E+00  0.00000000000E+00  0.32618663970E+03  0.32618663970E+03  0.00000000000E+00 0.  1.
         22   -1    0    0    0    0 -0.00000000000E+00 -0.00000000000E+00 -0.81719027797E+02  0.81719027797E+02  0.00000000000E+00 0.  1.
        -24    2    1    2    0    0 -0.15166157532E+02  0.22164229904E+01  0.13943308695E+02  0.82201062623E+02  0.79546677956E+02 0.  0.
         25    2    1    2    0    0  0.35014831305E+02 -0.42695421217E+02  0.10964258780E+03  0.17526441426E+03  0.12508869031E+03 0.  0.
         24    2    1    2    0    0 -0.19848673773E+02  0.40478998226E+02  0.12088171541E+03  0.15044019061E+03  0.77377921162E+02 0.  0.
        -13    1    5    5    0    0  0.80324261042E+01  0.39753927919E+02  0.11499191930E+03  0.12193455686E+03  0.00000000000E+00 0.  1.
         14    1    5    5    0    0 -0.27881099877E+02  0.72507030738E+00  0.58897961167E+01  0.28505633752E+02  0.00000000000E+00 0. -1.
         13    1    3    3    0    0 -0.60916406913E+01 -0.18320712052E+02 -0.28360271949E+02  0.34308331370E+02  0.00000000000E+00 0. -1.
        -14    1    3    3    0    0 -0.90745168403E+01  0.20537135042E+02  0.42303580643E+02  0.47892731253E+02  0.00000000000E+00 0.  1.
          5    1    4    4  501    0  0.76837671443E+02 -0.11944851119E+01  0.53141943240E+02  0.93525360618E+02  0.41800000000E+01 0.  1.
         -5    1    4    4    0  501 -0.41822840138E+02 -0.41500936105E+02  0.56500644556E+02  0.81739053641E+02  0.41800000000E+01 0.  1.
</event>
<event>
11    1  0.8037748E-009  0.2124821E+03  0.7561462E-02  0.1046032E+00
         22   -1    0    0    0    0  0.00000000000E+00  0.00000000000E+00  0.71216678671E+03  0.71216678671E+03  0.00000000000E+00 0. -1.
         22   -1    0    0    0    0 -0.00000000000E+00 -0.00000000000E+00 -0.19874979119E+04  0.19874979119E+04  0.00000000000E+00 0.  1.
         24    2    1    2    0    0  0.19947872670E+02 -0.15568499336E+02 -0.15930678714E+04  0.15950996142E+04  0.76401833938E+02 0.  0.
         25    2    1    2    0    0 -0.47266615482E+02  0.18450611317E+03 -0.34602032241E+03  0.41431213382E+03  0.12509133453E+03 0.  0.
        -24    2    1    2    0    0  0.27318742812E+02 -0.16893761384E+03  0.66375706871E+03  0.69025295061E+03  0.81175479594E+02 0.  0.
        -13    1    3    3    0    0  0.16225748003E+02 -0.45770954047E+02 -0.11214953022E+04  0.11225461986E+04  0.00000000000E+00 0.  1.
         14    1    3    3    0    0  0.37221246668E+01  0.30202454710E+02 -0.47157256924E+03  0.47255341554E+03  0.00000000000E+00 0. -1.
         13    1    5    5    0    0  0.20938729374E+02 -0.25795650501E+02  0.25405534969E+03  0.25621859159E+03  0.00000000000E+00 0. -1.
        -14    1    5    5    0    0  0.63800134374E+01 -0.14314196334E+03  0.40970171902E+03  0.43403435901E+03  0.00000000000E+00 0.  1.
          5    1    4    4  501    0 -0.52193287978E+00  0.10398082738E+03 -0.76577903409E+02  0.12920500210E+03  0.41800000000E+01 0. -1.
         -5    1    4    4    0  501 -0.46744682602E+02  0.80525285796E+02 -0.26944241900E+03  0.28510713173E+03  0.41800000000E+01 0. -1.
</event>
<event>
11    1  0.8037748E-009  0.1212753E+04  0.7561462E-02  0.8499409E-01
         22   -1    0    0    0    0  0.00000000000E+00  0.00000000000E+00  0.26833415535E+04  0.26833415535E+04  0.00000000000E+00 0.  1.
         22   -1    0    0    0    0 -0.00000000000E+00 -0.00000000000E+00 -0.13702780966E+03  0.13702780966E+03  0.00000000000E+00 0.  1.
         24    2    1    2    0    0 -0.23330884376E+03  0.25602233674E+03  0.10510581447E+04  0.11096295714E+04  0.81080876895E+02 0.  0.
         25    2    1    2    0    0  0.30181469239E+03 -0.42407408986E+03  0.64664329668E+03  0.83948009484E+03  0.12509330221E+03 0.  0.
        -24    2    1    2    0    0 -0.68505848634E+02  0.16805175312E+03  0.84861230237E+03  0.87125969688E+03  0.77564016434E+02 0.  0.
        -13    1    3    3    0    0 -0.10415850063E+03  0.69519493324E+02  0.30084490881E+03  0.32586747669E+03  0.00000000000E+00 0.  1.
         14    1    3    3    0    0 -0.12915034313E+03  0.18650284342E+03  0.75021323593E+03  0.78376209471E+03  0.00000000000E+00 0. -1.
         13    1    5    5    0    0 -0.23557209589E+02  0.10307627071E+02  0.52905609247E+02  0.58823403415E+02  0.00000000000E+00 0. -1.
        -14    1    5    5    0    0 -0.44948639045E+02  0.15774412605E+03  0.79570669313E+03  0.81243629347E+03  0.00000000000E+00 0.  1.
          5    1    4    4  501    0  0.30277705004E+03 -0.42303131710E+03  0.60633129070E+03  0.79892712043E+03  0.41800000000E+01 0.  1.
         -5    1    4    4    0  501 -0.96235765271E+00 -0.10427727623E+01  0.40312005976E+02  0.40552974405E+02  0.41800000000E+01 0.  1.
</event>
<event>
11    1  0.8037748E-009  0.1582943E+03  0.7561462E-02  0.1088693E+00
         22   -1    0    0    0    0  0.00000000000E+00  0.00000000000E+00  0.10480702121E+03  0.10480702121E+03  0.00000000000E+00 0.  1.
         22   -1    0    0    0    0 -0.00000000000E+00 -0.00000000000E+00 -0.17116257198E+04  0.17116257198E+04  0.00000000000E+00 0. -1.
         24    2    1    2    0    0  0.28029400018E+02 -0.11843290212E+03 -0.12245244110E+04  0.12332922249E+04  0.82083367690E+02 0.  0.
         25    2    1    2    0    0  0.14524934469E+01  0.43112600209E+02 -0.43727585148E+03  0.45685785620E+03  0.12509246364E+03 0.  0.
        -24    2    1    2    0    0 -0.29481893465E+02  0.75320301911E+02  0.54981563877E+02  0.12628265993E+03  0.79887470289E+02 0.  0.
        -11    1    3    3    0    0 -0.14858905625E+02  0.53074663610E+01 -0.14275161426E+03  0.14362095826E+03  0.00000000000E+00 0.  1.
         12    1    3    3    0    0  0.42888305643E+02 -0.12374036848E+03 -0.10817727968E+04  0.10896712666E+04  0.00000000000E+00 0. -1.
         13    1    5    5    0    0 -0.15126675885E+01 -0.99478639663E+01 -0.10992617626E+02  0.14902543508E+02  0.00000000000E+00 0. -1.
        -14    1    5    5    0    0 -0.27969225876E+02  0.85268165877E+02  0.65974181503E+02  0.11138011642E+03  0.00000000000E+00 0.  1.
          5    1    4    4  501    0  0.26842045981E+02  0.45918336960E+02 -0.66855749073E+02  0.85534511665E+02  0.41800000000E+01 0. -1.
         -5    1    4    4    0  501 -0.25389552534E+02 -0.28057367509E+01 -0.37042010240E+03  0.37132334454E+03  0.41800000000E+01 0. -1.
</event>
<event>
11    1  0.8037748E-009  0.2008783E+03  0.7561462E-02  0.1053904E+00
         22   -1    0    0    0    0  0.00000000000E+00  0.00000000000E+00  0.59244512651E+03  0.59244512651E+03  0.00000000000E+00 0. -1.
         22   -1    0    0    0    0 -0.00000000000E+00 -0.00000000000E+00 -0.61641217950E+03  0.61641217950E+03  0.00000000000E+00 0.  1.
         24    2    1    2    0    0 -0.19451613212E+03 -0.49383003298E+02 -0.37422051850E+03  0.43249544721E+03  0.82073800438E+02 0.  0.
         25    2    1    2    0    0  0.82727130829E+02  0.79354388259E+02 -0.16827197585E+03  0.23897797449E+03  0.12511641509E+03 0.  0.
        -24    2    1    2    0    0  0.11178900129E+03 -0.29971384961E+02  0.51852544137E+03  0.53738388431E+03  0.80732527802E+02 0.  0.
        -11    1    3    3    0    0 -0.18823768579E+03 -0.58772801262E+02 -0.31083592150E+03  0.36811226360E+03  0.00000000000E+00 0.  1.
         12    1    3    3    0    0 -0.62784463305E+01  0.93897979643E+01 -0.63384597003E+02  0.64383183607E+02  0.00000000000E+00 0. -1.
         13    1    5    5    0    0  0.87398330194E+02  0.49260116346E+01  0.43401065968E+03  0.44275047874E+03  0.00000000000E+00 0. -1.
        -14    1    5    5    0    0  0.24390671096E+02 -0.34897396596E+02  0.84514781692E+02  0.94633405572E+02  0.00000000000E+00 0.  1.
          5    1    4    4  501    0  0.22095046286E+02  0.14425651794E+01 -0.13170101004E+03  0.13361474660E+03  0.41800000000E+01 0. -1.
         -5    1    4    4    0  501  0.60632084543E+02  0.77911823080E+02 -0.36570965812E+02  0.10536322789E+03  0.41800000000E+01 0. -1.
</event>
<event>
11    1  0.8037748E-009  0.1337353E+03  0.7561462E-02  0.1114763E+00
         22   -1    0    0    0    0  0.00000000000E+00  0.00000000000E+00  0.24883739556E+03  0.24883739556E+03  0.00000000000E+00 0.  1.
         22   -1    0    0    0    0 -0.00000000000E+00 -0.00000000000E+00 -0.81271002200E+03  0.81271002200E+03  0.00000000000E+00 0.  1.
         24    2    1    2    0    0 -0.44307025190E+02 -0.89700045520E+01 -0.67137629333E+03  0.67771002291E+03  0.80629860745E+02 0.  0.
         25    2    1    2    0    0  0.71231492339E+02  0.23929890356E+02 -0.87968607574E+02  0.17038881337E+03  0.12508919478E+03 0.  0.
        -24    2    1    2    0    0 -0.26924467149E+02 -0.14959885804E+02  0.19547227445E+03  0.21344858128E+03  0.80013509211E+02 0.  0.
        -13    1    3    3    0    0 -0.22075010586E+02  0.33250106734E+02 -0.41632939688E+03  0.41823802122E+03  0.00000000000E+00 0.  1.
         14    1    3    3    0    0 -0.22232014604E+02 -0.42220111286E+02 -0.25504689645E+03  0.25947200168E+03  0.00000000000E+00 0. -1.
         13    1    5    5    0    0  0.14289725582E+02 -0.35353605844E+02  0.68385997659E+02  0.78298904074E+02  0.00000000000E+00 0. -1.
        -14    1    5    5    0    0 -0.41214192731E+02  0.20393720040E+02  0.12708627679E+03  0.13514967721E+03  0.00000000000E+00 0.  1.
          5    1    4    4  501    0  0.13195170427E+02  0.32752134059E+02 -0.10357061638E+03  0.10950415419E+03  0.41800000000E+01 0.  1.
         -5    1    4    4    0  501  0.58036321912E+02 -0.88222437026E+01  0.15602008803E+02  0.60884659182E+02  0.41800000000E+01 0.  1.
</event>
<event>
11    1  0.8037748E-009  0.1501618E+03  0.7561462E-02  0.1096714E+00
         22   -1    0    0    0    0  0.00000000000E+00  0.00000000000E+00  0.15603047310E+04  0.15603047310E+04  0.00000000000E+00 0.  1.
         22   -1    0    0    0    0 -0.00000000000E+00 -0.00000000000E+00 -0.30579216520E+03  0.30579216520E+03  0.00000000000E+00 0.  1.
         24    2    1    2    0    0 -0.72464535709E+02  0.35059031235E+02 -0.21211262649E+03  0.24116894719E+03  0.81795172016E+02 0.  0.
         25    2    1    2    0    0  0.10502996252E+03 -0.54269452266E+01  0.87609463778E+01  0.16365968131E+03  0.12508793844E+03 0.  0.
        -24    2    1    2    0    0 -0.32565426813E+02 -0.29632086009E+02  0.14578642459E+04  0.14612682677E+04  0.89432785682E+02 0.  0.
        -11    1    3    3    0    0 -0.50349183271E+02  0.29301289561E+02 -0.21032848592E+03  0.21824682773E+03  0.00000000000E+00 0.  1.
         12    1    3    3    0    0 -0.22115352438E+02  0.57577416746E+01 -0.17841405664E+01  0.22922119453E+02  0.00000000000E+00 0. -1.
         11    1    5    5    0    0 -0.37313057998E+01 -0.48596876142E+02  0.41808629540E+03  0.42091772285E+03  0.00000000000E+00 0. -1.
        -12    1    5    5    0    0 -0.28834121014E+02  0.18964790133E+02  0.10397779505E+04  0.10403505449E+04  0.00000000000E+00 0.  1.
          5    1    4    4  501    0 -0.11898239569E+02  0.36857813402E+02  0.19924679166E+00  0.38956111368E+02  0.41800000000E+01 0.  1.
         -5    1    4    4    0  501  0.11692820209E+03 -0.42284758628E+02  0.85616995862E+01  0.12470356994E+03  0.41800000000E+01 0.  1.
</event>
<event>
11    1  0.8037748E-009  0.1970905E+03  0.7561462E-02  0.1056600E+00
         22   -1    0    0    0    0  0.00000000000E+00  0.00000000000E+00  0.15595310284E+04  0.15595310284E+04  0.00000000000E+00 0. -1.
         22   -1    0    0    0    0 -0.00000000000E+00 -0.00000000000E+00 -0.11524285065E+04  0.11524285065E+04  0.00000000000E+00 0. -1.
        -24    2    1    2    0    0  0.10039139312E+02  0.10076189995E+03 -0.89875461236E+03  0.90788540458E+03  0.79008289545E+02 0.  0.
         25    2    1    2    0    0  0.14141178681E+03 -0.11668808888E+03 -0.19374332105E+03  0.29461186362E+03  0.12508505985E+03 0.  0.
         24    2    1    2    0    0 -0.15145092613E+03  0.15926188932E+02  0.14996004553E+04  0.15094622666E+04  0.80521936110E+02 0.  0.
        -11    1    5    5    0    0  0.26593249085E+00 -0.12171189800E+02  0.26166874558E+03  0.26195179136E+03  0.00000000000E+00 0.  1.
         12    1    5    5    0    0 -0.15171685862E+03  0.28097378732E+02  0.12379317098E+04  0.12475104753E+04  0.00000000000E+00 0. -1.
         11    1    3    3    0    0 -0.11952604568E+02  0.58497584127E+01 -0.36941602409E+03  0.36965562796E+03  0.00000000000E+00 0. -1.
        -12    1    3    3    0    0  0.21991743880E+02  0.94912141536E+02 -0.52933858827E+03  0.53822977662E+03  0.00000000000E+00 0.  1.
          5    1    4    4  501    0  0.64924030716E+02 -0.69096209839E+02 -0.17986578510E+03  0.20336811212E+03  0.41800000000E+01 0. -1.
         -5    1    4    4    0  501  0.76487756098E+02 -0.47591879042E+02 -0.13877535952E+02  0.91243751500E+02  0.41800000000E+01 0. -1.
</event>
<event>
11    1  0.8037748E-009  0.1797805E+03  0.7561462E-02  0.1069821E+00
         22   -1    0    0    0    0  0.00000000000E+00  0.00000000000E+00  0.40873974130E+03  0.40873974130E+03  0.00000000000E+00 0.  1.
         22   -1    0    0    0    0 -0.00000000000E+00 -0.00000000000E+00 -0.29792589468E+03  0.29792589468E+03  0.00000000000E+00 0. -1.
        -24    2    1    2    0    0  0.39849902278E+02  0.15811950311E+02 -0.17066111565E+03  0.19444010706E+03  0.82726696738E+02 0.  0.
         25    2    1    2    0    0  0.38152877191E+02 -0.12075452552E+03 -0.14556437099E+02  0.17859524028E+03  0.12508825891E+03 0.  0.
         24    2    1    2    0    0 -0.78002779469E+02  0.10494257521E+03  0.29603139937E+03  0.33363028864E+03  0.81099953053E+02 0.  0.
        -13    1    5    5    0    0 -0.24640871746E+02  0.95371100156E+02  0.17081560434E+03  0.19718212391E+03  0.00000000000E+00 0.  1.
         14    1    5    5    0    0 -0.53361907723E+02  0.95714750530E+01  0.12521579504E+03  0.13644816473E+03  0.00000000000E+00 0. -1.
         11    1    3    3    0    0  0.22467723114E+01  0.46734235528E+01 -0.15004275387E+03  0.15013233117E+03  0.00000000000E+00 0. -1.
        -12    1    3    3    0    0  0.37603129967E+02  0.11138526758E+02 -0.20618361782E+02  0.44307775889E+02  0.00000000000E+00 0.  1.
          5    1    4    4  501    0  0.65749012847E+02 -0.12305038968E+03  0.11881722039E+02  0.14008204314E+03  0.41800000000E+01 0. -1.
         -5    1    4    4    0  501 -0.27596135656E+02  0.22958641603E+01 -0.26438159138E+02  0.38513197141E+02  0.41800000000E+01 0. -1.
</event>
<event>
11    1  0.8037748E-009  0.5091505E+03  0.7561462E-02  0.9373304E-01
         22   -1    0    0    0    0  0.00000000000E+00  0.00000000000E+00  0.26178440820E+04  0.26178440820E+04  0.00000000000E+00 0. -1.
         22   -1    0    0    0    0 -0.00000000000E+00 -0.00000000000E+00 -0.60088198961E+03  0.60088198961E+03  0.00000000000E+00 0. -1.
         24    2    1    2    0    0  0.91948838631E+02  0.10903865797E+03 -0.33937099677E+03  0.37687153100E+03  0.80718396763E+02 0.  0.
         25    2    1    2    0    0 -0.54562351469E+03 -0.26439417759E+03  0.23034468955E+03  0.66054115430E+03  0.12508652846E+03 0.  0.
        -24    2    1    2    0    0  0.45367467606E+03  0.15535551961E+03  0.21259883996E+04  0.21813133863E+04  0.91352968439E+02 0.  0.
        -13    1    3    3    0    0  0.13411423410E+02 -0.35611895603E+00 -0.11057007138E+03  0.11138102973E+03  0.00000000000E+00 0.  1.
         14    1    3    3    0    0  0.78537415221E+02  0.10939477693E+03 -0.22880092539E+03  0.26549050127E+03  0.00000000000E+00 0. -1.
         11    1    5    5    0    0  0.27226857294E+03  0.13564046241E+03  0.14100010437E+04  0.14424394108E+04  0.00000000000E+00 0. -1.
        -12    1    5    5    0    0  0.18140610312E+03  0.19715057206E+02  0.71598735595E+03  0.73887397545E+03  0.00000000000E+00 0.  1.
          5    1    4    4  501    0 -0.25727205915E+01  0.90203578196E+01  0.84714619453E+01  0.13312543481E+02  0.41800000000E+01 0.  1.
         -5    1    4    4    0  501 -0.54305079410E+03 -0.27341453541E+03  0.22187322760E+03  0.64722861082E+03  0.41800000000E+01 0.  1.
</event>
<event>
11    1  0.8037748E-009  0.1322261E+03  0.7561462E-02  0.1116564E+00
         22   -1    0    0    0    0  0.00000000000E+00  0.00000000000E+00  0.23779662803E+03  0.23779662803E+03  0.00000000000E+00 0. -1.
         22   -1    0    0    0    0 -0.00000000000E+00 -0.00000000000E+00 -0.16948024565E+04  0.16948024565E+04  0.00000000000E+00 0. -1.
        -24    2    1    2    0    0  0.31651431233E+02  0.24632067263E+02 -0.10128577668E+04  0.10167488902E+04  0.79302573620E+02 0.  0.
         25    2    1    2    0    0 -0.23138441827E+02 -0.66383457245E+02 -0.66327913100E+03  0.67862284581E+03  0.12509040871E+03 0.  0.
         24    2    1    2    0    0 -0.85129894055E+01  0.41751389982E+02  0.21913106929E+03  0.23722734853E+03  0.80266679307E+02 0.  0.
        -11    1    5    5    0    0 -0.16220193815E+02 -0.21623255273E+02  0.64249582118E+02  0.69704150941E+02  0.00000000000E+00 0.  1.
         12    1    5    5    0    0  0.77072044099E+01  0.63374645255E+02  0.15488148718E+03  0.16752319759E+03  0.00000000000E+00 0. -1.
         13    1    3    3    0    0 -0.82320144552E+01  0.36477452918E+02 -0.71766086375E+03  0.71863445923E+03  0.00000000000E+00 0. -1.
        -14    1    3    3    0    0  0.39883445688E+02 -0.11845385655E+02 -0.29519690302E+03  0.29811443097E+03  0.00000000000E+00 0.  1.
          5    1    4    4  501    0 -0.88809495750E+01 -0.42717304741E+02 -0.64201333791E+03  0.64350776051E+03  0.41800000000E+01 0. -1.
         -5    1    4    4    0  501 -0.14257492252E+02 -0.23666152504E+02 -0.21265793095E+02  0.35115085300E+02  0.41800000000E+01 0. -1.
</event>
<event>
11    1  0.8037748E-009  0.1506860E+03  0.7561462E-02  0.1096180E+00
         22   -1    0    0    0    0  0.00000000000E+00  0.00000000000E+00  0.12649544505E+03  0.12649544505E+03  0.00000000000E+00 0. -1.
         22   -1    0    0    0    0 -0.00000000000E+00 -0.00000000000E+00 -0.13326750928E+04  0.13326750928E+04  0.00000000000E+00 0. -1.
        -24    2    1    2    0    0 -0.81918898722E+02  0.61137165338E+01 -0.10951332218E+04  0.11011422407E+04  0.80308015424E+02 0.  0.
         25    2    1    2    0    0  0.10153222299E+03 -0.77711676209E+02 -0.15794729406E+03  0.23862844165E+03  0.12509311946E+03 0.  0.
         24    2    1    2    0    0 -0.19613324264E+02  0.71597959675E+02  0.46900868082E+02  0.11939985550E+03  0.80905399988E+02 0.  0.
        -13    1    5    5    0    0  0.29371031502E+02  0.39256118196E+02  0.99120263108E+01  0.50019481933E+02  0.00000000000E+00 0.  1.
         14    1    5    5    0    0 -0.48984355766E+02  0.32341841479E+02  0.36988841771E+02  0.69380373562E+02  0.00000000000E+00 0. -1.
         13    1    3    3    0    0 -0.77582121613E+02 -0.22544702732E+02 -0.92837700495E+03  0.93188578299E+03  0.00000000000E+00 0. -1.
        -14    1    3    3    0    0 -0.43367771091E+01  0.28658419266E+02 -0.16675621681E+03  0.16925645771E+03  0.00000000000E+00 0.  1.
          5    1    4    4  501    0  0.41683985043E+02 -0.98952961195E+02 -0.63739630769E+02  0.12493780880E+03  0.41800000000E+01 0.  1.
         -5    1    4    4    0  501  0.59848237943E+02  0.21241284986E+02 -0.94207663294E+02  0.11369063284E+03  0.41800000000E+01 0.  1.
</event>
<event>
11    1  0.8447687E-009  0.1998712E+03  0.7561462E-02  0.1054615E+00
         22   -1    0    0    0    0  0.00000000000E+00  0.00000000000E+00  0.33568756060E+04  0.33568756060E+04  0.00000000000E+00 0.  1.
         22   -1    0    0    0    0 -0.00000000000E+00 -0.00000000000E+00 -0.40296012038E+03  0.40296012038E+03  0.00000000000E+00 0. -1.
         24    2    1    2    0    0  0.65663230536E+02 -0.46419245266E+02 -0.29343027105E+03  0.31415354525E+03  0.78260589368E+02 0.  0.
         25    2    1    2    0    0 -0.17701599083E+03  0.15282000695E+03  0.84756632795E+02  0.27842383014E+03  0.12509007495E+03 0.  0.
        -24    2    1    2    0    0  0.11135276029E+03 -0.10640076169E+03  0.31625891238E+04  0.31672583509E+04  0.76386753479E+02 0.  0.
        -11    1    3    3    0    0  0.41155802083E+02  0.10344887942E+02 -0.65972612002E+02  0.78442350080E+02  0.00000000000E+00 0.  1.
         12    1    3    3    0    0  0.24507428453E+02 -0.56764133208E+02 -0.22745765905E+03  0.23571119517E+03  0.00000000000E+00 0. -1.
         11    1    5    5    0    0  0.44019533757E+02 -0.82024201410E+02  0.13200867464E+04  0.13233649183E+04  0.00000000000E+00 0. -1.
        -12    1    5    5    0    0  0.67333226537E+02 -0.24376560277E+02  0.18425023774E+04  0.18438934326E+04  0.00000000000E+00 0.  1.
          5    1    4    4  501    0 -0.18496553707E+03  0.15108830650E+03  0.10134812010E+03  0.25947801469E+03  0.41800000000E+01 0.  1.
         -5    1    4    4    0  501  0.79495462366E+01  0.17317004552E+01 -0.16591487302E+02  0.18945815441E+02  0.41800000000E+01 0.  1.
</event>
<event>
11    1  0.8037748E-009  0.1541469E+03  0.7561462E-02  0.1092715E+00
         22   -1    0    0    0    0  0.00000000000E+00  0.00000000000E+00  0.31970183060E+03  0.31970183060E+03  0.00000000000E+00 0.  1.
         22   -1    0    0    0    0 -0.00000000000E+00 -0.00000000000E+00 -0.15862054735E+04  0.15862054735E+04  0.00000000000E+00 0. -1.
         24    2    1    2    0    0 -0.84259049626E+02  0.30765010992E+02 -0.11960942169E+04  0.12022079186E+04  0.81341444691E+02 0.  0.
         25    2    1    2    0    0  0.77527045677E+02 -0.54514396682E+02 -0.36513699425E+03  0.39743556003E+03  0.12509091712E+03 0.  0.
        -24    2    1    2    0    0  0.67320039490E+01  0.23749385690E+02  0.29472756826E+03  0.30626382541E+03  0.79522563234E+02 0.  0.
        -11    1    3    3    0    0 -0.37537776870E+02 -0.24358832947E+02 -0.31606975094E+03  0.31922174878E+03  0.00000000000E+00 0.  1.
         12    1    3    3    0    0 -0.46721272756E+02  0.55123843938E+02 -0.88002446592E+03  0.88298616984E+03  0.00000000000E+00 0. -1.
         13    1    5    5    0    0 -0.31088384219E+01  0.49082713585E+02  0.12418013066E+03  0.13356452561E+03  0.00000000000E+00 0. -1.
        -14    1    5    5    0    0  0.98408423708E+01 -0.25333327895E+02  0.17054743759E+03  0.17269929980E+03  0.00000000000E+00 0.  1.
          5    1    4    4  501    0  0.38977037220E+02 -0.42526773693E+02 -0.34899748751E+03  0.35375762126E+03  0.41800000000E+01 0.  1.
         -5    1    4    4    0  501  0.38550008457E+02 -0.11987622989E+02 -0.16139506740E+02  0.43677938765E+02  0.41800000000E+01 0.  1.
</event>
<event>
11    1  0.8037748E-009  0.3879980E+03  0.7561462E-02  0.9685850E-01
         22   -1    0    0    0    0  0.00000000000E+00  0.00000000000E+00  0.55622879701E+03  0.55622879701E+03  0.00000000000E+00 0. -1.
         22   -1    0    0    0    0 -0.00000000000E+00 -0.00000000000E+00 -0.77451290906E+03  0.77451290906E+03  0.00000000000E+00 0. -1.
        -24    2    1    2    0    0  0.34483157486E+02  0.34980740280E+03 -0.35392530506E+03  0.50536554100E+03  0.81098096574E+02 0.  0.
         25    2    1    2    0    0 -0.59395929568E+02 -0.38936069447E+03 -0.21282189610E+03  0.46483449871E+03  0.12509326476E+03 0.  0.
         24    2    1    2    0    0  0.24912772081E+02  0.39553291671E+02  0.34846308911E+03  0.36054166637E+03  0.79866511249E+02 0.  0.
        -11    1    5    5    0    0 -0.15945400318E+02 -0.13251916362E+02  0.14319185779E+03  0.14468509673E+03  0.00000000000E+00 0.  1.
         12    1    5    5    0    0  0.40858172399E+02  0.52805208033E+02  0.20527123132E+03  0.21585656964E+03  0.00000000000E+00 0. -1.
         13    1    3    3    0    0  0.23552350389E+02  0.27536816526E+03 -0.22625236518E+03  0.35717288867E+03  0.00000000000E+00 0. -1.
        -14    1    3    3    0    0  0.10930807097E+02  0.74439237531E+02 -0.12767293987E+03  0.14819265233E+03  0.00000000000E+00 0.  1.
          5    1    4    4  501    0 -0.45282303600E+02 -0.37017526883E+03 -0.22718944108E+03  0.43670668785E+03  0.41800000000E+01 0. -1.
         -5    1    4    4    0  501 -0.14113625968E+02 -0.19185425637E+02  0.14367544986E+02  0.28127810860E+02  0.41800000000E+01 0. -1.
</event>
<event>
11    1  0.8037748E-009  0.2482322E+03  0.7561462E-02  0.1024845E+00
         22   -1    0    0    0    0  0.00000000000E+00  0.00000000000E+00  0.84258270427E+03  0.84258270427E+03  0.00000000000E+00 0. -1.
         22   -1    0    0    0    0 -0.00000000000E+00 -0.00000000000E+00 -0.47683788875E+03  0.47683788875E+03  0.00000000000E+00 0. -1.
        -24    2    1    2    0    0  0.38044820489E+02  0.30374856609E+02 -0.26428355539E+03  0.28061731205E+03  0.80809887366E+02 0.  0.
         25    2    1    2    0    0 -0.53252019744E+02  0.18583888968E+03 -0.11597574200E+03  0.25781679068E+03  0.12508898553E+03 0.  0.
         24    2    1    2    0    0  0.15207199255E+02 -0.21621374629E+03  0.74600411291E+03  0.78098649029E+03  0.80237887184E+02 0.  0.
        -11    1    5    5    0    0  0.27248881081E+02 -0.18396752011E+02  0.11261231783E+03  0.11731358033E+03  0.00000000000E+00 0.  1.
         12    1    5    5    0    0 -0.12041681826E+02 -0.19781699427E+03  0.63339179509E+03  0.66367290995E+03  0.00000000000E+00 0. -1.
         13    1    3    3    0    0  0.36336488794E+02 -0.21326483959E+02 -0.13281686814E+03  0.13933944093E+03  0.00000000000E+00 0. -1.
        -14    1    3    3    0    0  0.17083316952E+01  0.51701340568E+02 -0.13146668724E+03  0.14127787112E+03  0.00000000000E+00 0.  1.
          5    1    4    4  501    0 -0.61701817301E+02  0.86668203381E+02 -0.11700128872E+03  0.15819375998E+03  0.41800000000E+01 0.  1.
         -5    1    4    4    0  501  0.84497975567E+01  0.99170686296E+02  0.10255467177E+01  0.99623030697E+02  0.41800000000E+01 0.  1.
</event>
<event>
11    1  0.8037748E-009  0.1697416E+03  0.7561462E-02  0.1078257E+00
         22   -1    0    0    0    0  0.00000000000E+00  0.00000000000E+00  0.68981246027E+03  0.68981246027E+03  0.00000000000E+00 0.  1.
         22   -1    0    0    0    0 -0.00000000000E+00 -0.00000000000E+00 -0.19710737746E+03  0.19710737746E+03  0.00000000000E+00 0. -1.
         24    2    1    2    0    0  0.84084927125E+02  0.60434018358E+02 -0.12159477095E+03  0.17845334646E+03  0.79610068428E+02 0.  0.
         25    2    1    2    0    0 -0.16794247194E+03 -0.57466094430E+00  0.28128979575E+03  0.35068055879E+03  0.12509157048E+03 0.  0.
        -24    2    1    2    0    0  0.83857544815E+02 -0.59859357414E+02  0.33301005801E+03  0.35778593249E+03  0.80621611594E+02 0.  0.
        -13    1    3    3    0    0  0.13302033278E+02  0.38197245309E+02 -0.57038118663E+01  0.40847363542E+02  0.00000000000E+00 0.  1.
         14    1    3    3    0    0  0.70782893846E+02  0.22236773049E+02 -0.11589095908E+03  0.13760598291E+03  0.00000000000E+00 0. -1.
         11    1    5    5    0    0 -0.23097189889E+01 -0.82352884755E+01 -0.13540696823E+01  0.86595775179E+01  0.00000000000E+00 0. -1.
        -12    1    5    5    0    0  0.86167263804E+02 -0.51624068938E+02  0.33436412769E+03  0.34912635497E+03  0.00000000000E+00 0.  1.
          5    1    4    4  501    0 -0.25515116897E+02  0.49371679146E+01 -0.85388442753E+01  0.27672749752E+02  0.41800000000E+01 0. -1.
         -5    1    4    4    0  501 -0.14242735504E+03 -0.55118288589E+01  0.28982864002E+03  0.32300780904E+03  0.41800000000E+01 0. -1.
</event>
<event>
11    1  0.8037748E-009  0.1360855E+03  0.7561462E-02  0.1112010E+00
         22   -1    0    0    0    0  0.00000000000E+00  0.00000000000E+00  0.10811322583E+03  0.10811322583E+03  0.00000000000E+00 0.  1.
         22   -1    0    0    0    0 -0.00000000000E+00 -0.00000000000E+00 -0.45471058378E+03  0.45471058378E+03  0.00000000000E+00 0. -1.
        -24    2    1    2    0    0  0.26512539284E+02 -0.16874965846E+02 -0.27791963671E+03  0.29087097497E+03  0.79868143824E+02 0.  0.
         25    2    1    2    0    0 -0.32919498281E+02  0.65652102228E+02 -0.96306291667E+02  0.17411637041E+03  0.12509083394E+03 0.  0.
         24    2    1    2    0    0  0.64069589971E+01 -0.48777136382E+02  0.27628570430E+02  0.97836464233E+02  0.79927327444E+02 0.  0.
        -13    1    5    5    0    0  0.14608413862E+02 -0.44971211866E+02  0.52926094981E+02  0.70971735093E+02  0.00000000000E+00 0.  1.
         14    1    5    5    0    0 -0.82014548649E+01 -0.38059245162E+01 -0.25297524551E+02  0.26864729140E+02  0.00000000000E+00 0. -1.
         11    1    3    3    0    0  0.21903838971E+02  0.10510195792E+02 -0.25107225360E+03  0.25224495813E+03  0.00000000000E+00 0. -1.
        -12    1    3    3    0    0  0.46087003127E+01 -0.27385161638E+02 -0.26847383115E+02  0.38626016836E+02  0.00000000000E+00 0.  1.
          5    1    4    4  501    0  0.40588342813E+02  0.26405011950E+02 -0.26319078083E+01  0.48672760011E+02  0.41800000000E+01 0. -1.
         -5    1    4    4    0  501 -0.73507841094E+02  0.39247090278E+02 -0.93674383859E+02  0.12544361040E+03  0.41800000000E+01 0. -1.
</event>
<event>
11    1  0.8037748E-009  0.1256257E+03  0.7561462E-02  0.1124763E+00
         22   -1    0    0    0    0  0.00000000000E+00  0.00000000000E+00  0.42676106803E+03  0.42676106803E+03  0.00000000000E+00 0.  1.
         22   -1    0    0    0    0 -0.00000000000E+00 -0.00000000000E+00 -0.11865078837E+03  0.11865078837E+03  0.00000000000E+00 0.  1.
        -24    2    1    2    0    0 -0.13584786150E+02 -0.17354120628E+02 -0.40123873165E+02  0.11091684404E+03  0.10102924911E+03 0.  0.
         25    2    1    2    0    0 -0.32181900684E+02 -0.10264973922E+02  0.86993898988E+02  0.15606539633E+03  0.12508966804E+03 0.  0.
         24    2    1    2    0    0  0.45766686834E+02  0.27619094550E+02  0.26124025383E+03  0.27842961604E+03  0.80119765692E+02 0.  0.
        -11    1    5    5    0    0 -0.63536576739E+01  0.41667575965E+02  0.10603880557E+03  0.11410865059E+03  0.00000000000E+00 0.  1.
         12    1    5    5    0    0  0.52120344508E+02 -0.14048481415E+02  0.15520144827E+03  0.16432096545E+03  0.00000000000E+00 0. -1.
         13    1    3    3    0    0  0.72053879278E+01  0.36203738587E+02 -0.38650946920E+02  0.53446459197E+02  0.00000000000E+00 0. -1.
        -14    1    3    3    0    0 -0.20790174078E+02 -0.53557859215E+02 -0.14729262446E+01  0.57470384840E+02  0.00000000000E+00 0.  1.
          5    1    4    4  501    0 -0.73931187856E+02  0.18402889332E+02  0.66704323397E+02  0.10134804405E+03  0.41800000000E+01 0.  1.
         -5    1    4    4    0  501  0.41749287172E+02 -0.28667863254E+02  0.20289575591E+02  0.54717352280E+02  0.41800000000E+01 0.  1.
</event>
<event>
11    1  0.8037748E-009  0.1903212E+03  0.7561462E-02  0.1061587E+00
         22   -1    0    0    0    0  0.00000000000E+00  0.00000000000E+00  0.11989187025E+04  0.11989187025E+04  0.00000000000E+00 0. -1.
         22   -1    0    0    0    0 -0.00000000000E+00 -0.00000000000E+00 -0.78209634370E+03  0.78209634370E+03  0.00000000000E+00 0.  1.
         24    2    1    2    0    0 -0.12854863642E+03  0.47433846523E+02 -0.62326106217E+03  0.64321792570E+03  0.80623982810E+02 0.  0.
         25    2    1    2    0    0  0.20879710176E+03 -0.41592502925E+02 -0.41509436938E+02  0.25039260272E+03  0.12508899288E+03 0.  0.
        -24    2    1    2    0    0 -0.80248465336E+02 -0.58413435976E+01  0.10815928579E+04  0.10874045178E+04  0.78304134935E+02 0.  0.
        -13    1    3    3    0    0 -0.12501226398E+03  0.32139618915E+02 -0.60716811147E+03  0.62073676936E+03  0.00000000000E+00 0.  1.
         14    1    3    3    0    0 -0.35363724398E+01  0.15294227608E+02 -0.16092950697E+02  0.22481156338E+02  0.00000000000E+00 0. -1.
         13    1    5    5    0    0 -0.78566307645E+02 -0.25497750230E+02  0.63145204524E+03  0.63683159894E+03  0.00000000000E+00 0. -1.
        -14    1    5    5    0    0 -0.16821576910E+01  0.19656406633E+02  0.45014081266E+03  0.45057291885E+03  0.00000000000E+00 0.  1.
          5    1    4    4  501    0  0.21660331398E+03 -0.41230921706E+02 -0.13422092198E+02  0.22094028490E+03  0.41800000000E+01 0.  1.
         -5    1    4    4    0  501 -0.78062122244E+01 -0.36158121895E+00 -0.28087344740E+02  0.29452317818E+02  0.41800000000E+01 0.  1.
</event>
<event>
11    1  0.8037748E-009  0.1494640E+03  0.7561462E-02  0.1097428E+00
         22   -1    0    0    0    0  0.00000000000E+00  0.00000000000E+00  0.12961846567E+03  0.12961846567E+03  0.00000000000E+00 0. -1.
         22   -1    0    0    0    0 -0.00000000000E+00 -0.00000000000E+00 -0.56926231553E+03  0.56926231553E+03  0.00000000000E+00 0.  1.
         24    2    1    2    0    0  0.49831509373E+02  0.25462022440E+02 -0.39262040538E+03  0.40464237479E+03  0.80331655261E+02 0.  0.
         25    2    1    2    0    0 -0.11868510203E+03 -0.19599011997E+02 -0.66689195376E+02  0.18591819695E+03  0.12509137646E+03 0.  0.
        -24    2    1    2    0    0  0.68853592656E+02 -0.58630104427E+01  0.19665750904E+02  0.10832020946E+03  0.81063764439E+02 0.  0.
        -13    1    3    3    0    0  0.10720784004E+02 -0.13176688098E+02 -0.26673327725E+03  0.26727364538E+03  0.00000000000E+00 0.  1.
         14    1    3    3    0    0  0.39110725369E+02  0.38638710538E+02 -0.12588712813E+03  0.13736872941E+03  0.00000000000E+00 0. -1.
         13    1    5    5    0    0  0.42513627459E+02 -0.41016204933E+02  0.24851770884E+02  0.64088595732E+02  0.00000000000E+00 0. -1.
        -14    1    5    5    0    0  0.26339965197E+02  0.35153194490E+02 -0.51860199805E+01  0.44231613725E+02  0.00000000000E+00 0.  1.
          5    1    4    4  501    0 -0.57383958994E+02 -0.70581814577E+01 -0.99491688786E+02  0.11514688538E+03  0.41800000000E+01 0.  1.
         -5    1    4    4    0  501 -0.61301143035E+02 -0.12540830539E+02  0.32802493410E+02  0.70771311574E+02  0.41800000000E+01 0.  1.
</event>
<event>
11    1  0.8037748E-009  0.1517330E+03  0.7561462E-02  0.1095121E+00
         22   -1    0    0    0    0  0.00000000000E+00  0.00000000000E+00  0.52283347551E+03  0.52283347551E+03  0.00000000000E+00 0. -1.
         22   -1    0    0    0    0 -0.00000000000E+00 -0.00000000000E+00 -0.17681720902E+04  0.17681720902E+04  0.00000000000E+00 0.  1.
         24    2    1    2    0    0 -0.66886215413E+02  0.24024098106E+02 -0.15826123309E+04  0.15862652794E+04  0.80776381083E+02 0.  0.
         25    2    1    2    0    0  0.14844903533E+03 -0.51386479360E+01 -0.12390114569E+03  0.23035314578E+03  0.12509019177E+03 0.  0.
        -24    2    1    2    0    0 -0.81562819916E+02 -0.18885450170E+02  0.46117486192E+03  0.47438714047E+03  0.73155669376E+02 0.  0.
        -13    1    3    3    0    0 -0.79481914151E+02  0.41455528389E+01 -0.99341815713E+03  0.99660132209E+03  0.00000000000E+00 0.  1.
         14    1    3    3    0    0  0.12595698738E+02  0.19878545267E+02 -0.58919417374E+03  0.58966395732E+03  0.00000000000E+00 0. -1.
         13    1    5    5    0    0 -0.61213250444E+02 -0.42785480818E+02  0.25080744640E+03  0.26169072312E+03  0.00000000000E+00 0. -1.
        -14    1    5    5    0    0 -0.20349569472E+02  0.23900030648E+02  0.21036741551E+03  0.21269641735E+03  0.00000000000E+00 0.  1.
          5    1    4    4  501    0  0.16195718734E+03  0.35529531189E+01 -0.13455468566E+03  0.21063045800E+03  0.41800000000E+01 0. -1.
         -5    1    4    4    0  501 -0.13508152007E+02 -0.86916010549E+01  0.10653539965E+02  0.19722687782E+02  0.41800000000E+01 0. -1.
</event>
<event>
11    1  0.8037748E-009  0.1654296E+03  0.7561462E-02  0.1082079E+00
         22   -1    0    0    0    0  0.00000000000E+00  0.00000000000E+00  0.22506205378E+03  0.22506205378E+03  0.00000000000E+00 0.  1.
         22   -1    0    0    0    0 -0.00000000000E+00 -0.00000000000E+00 -0.17623441800E+04  0.17623441800E+04  0.00000000000E+00 0.  1.
        -24    2    1    2    0    0  0.85907995581E+02  0.72226049267E+02 -0.15364114978E+04  0.15424988182E+04  0.78393414935E+02 0.  0.
         25    2    1    2    0    0 -0.48411290728E+01 -0.97010293910E+02 -0.17415829301E+03  0.23539884600E+03  0.12508825692E+03 0.  0.
         24    2    1    2    0    0 -0.81066866508E+02  0.24784244643E+02  0.17328766464E+03  0.20950856957E+03  0.81725946805E+02 0.  0.
        -13    1    5    5    0    0  0.29047217252E+01  0.28363741941E+02  0.74704257342E+02  0.79960398512E+02  0.00000000000E+00 0.  1.
         14    1    5    5    0    0 -0.83971588233E+02 -0.35794972978E+01  0.98583407297E+02  0.12954817106E+03  0.00000000000E+00 0. -1.
         13    1    3    3    0    0  0.52443178341E+02  0.15807897077E+02 -0.34855437294E+03  0.35283186854E+03  0.00000000000E+00 0. -1.
        -14    1    3    3    0    0  0.33464817240E+02  0.56418152190E+02 -0.11878571249E+04  0.11896669496E+04  0.00000000000E+00 0.  1.
          5    1    4    4  501    0 -0.29513093211E+02  0.20813722352E+02 -0.27313366671E+02  0.45472256464E+02  0.41800000000E+01 0. -1.
         -5    1    4    4    0  501  0.24671964138E+02 -0.11782401626E+03 -0.14684492634E+03  0.18992658954E+03  0.41800000000E+01 0. -1.
</event>
<event>
11    1  0.8037748E-009  0.1944281E+03  0.7561462E-02  0.1058535E+00
         22   -1    0    0    0    0  0.00000000000E+00  0.00000000000E+00  0.15678500890E+03  0.15678500890E+03  0.00000000000E+00 0.  1.
         22   -1    0    0    0    0 -0.00000000000E+00 -0.00000000000E+00 -0.44834024438E+03  0.44834024438E+03  0.00000000000E+00 0. -1.
        -24    2    1    2    0    0  0.11286817713E+03  0.58332230797E+02 -0.39308657870E+02  0.15511721057E+03  0.79839237668E+02 0.  0.
         25    2    1    2    0    0 -0.95538815305E+02 -0.14033330472E+03 -0.25837692476E+03  0.33350604595E+03  0.12508615346E+03 0.  0.
         24    2    1    2    0    0 -0.17329361828E+02  0.82001073928E+02  0.61303471491E+01  0.11650199677E+03  0.80688606305E+02 0.  0.
        -13    1    5    5    0    0  0.31313415579E+02  0.43292367426E+02  0.94025536614E+01  0.54250963936E+02  0.00000000000E+00 0.  1.
         14    1    5    5    0    0 -0.48642777407E+02  0.38708706502E+02 -0.32722065123E+01  0.62251032830E+02  0.00000000000E+00 0. -1.
         11    1    3    3    0    0  0.26502542447E+02 -0.19299063608E+02 -0.88079578500E+00  0.32796561002E+02  0.00000000000E+00 0. -1.
        -12    1    3    3    0    0  0.86365634686E+02  0.77631294405E+02 -0.38427862085E+02  0.12232064957E+03  0.00000000000E+00 0.  1.
          5    1    4    4  501    0 -0.32348162560E+02 -0.51873288150E+02 -0.20176778202E+03  0.21086714278E+03  0.41800000000E+01 0.  1.
         -5    1    4    4    0  501 -0.63190652746E+02 -0.88460016575E+02 -0.56609142742E+02  0.12263890316E+03  0.41800000000E+01 0.  1.
</event>
<event>
11    1  0.8037748E-009  0.2720742E+03  0.7561462E-02  0.1012756E+00
         22   -1    0    0    0    0  0.00000000000E+00  0.00000000000E+00  0.16501007283E+03  0.16501007283E+03  0.00000000000E+00 0.  1.
         22   -1    0    0    0    0 -0.00000000000E+00 -0.00000000000E+00 -0.13169554039E+04  0.13169554039E+04  0.00000000000E+00 0.  1.
         24    2    1    2    0    0 -0.14173124932E+02 -0.64593229290E+02 -0.87445503062E+03  0.88067921080E+03  0.80938921548E+02 0.  0.
         25    2    1    2    0    0  0.21612485373E+03 -0.85216479056E+02 -0.19263708916E+03  0.32668154236E+03  0.12505991084E+03 0.  0.
        -24    2    1    2    0    0 -0.20195172880E+03  0.14980970835E+03 -0.84853211248E+02  0.27460472353E+03  0.70570795998E+02 0.  0.
        -13    1    3    3    0    0 -0.81893414996E+01 -0.82547701799E+02 -0.77604645172E+03  0.78046734948E+03  0.00000000000E+00 0.  1.
         14    1    3    3    0    0 -0.59837834323E+01  0.17954472510E+02 -0.98408578906E+02  0.10021186132E+03  0.00000000000E+00 0. -1.
         13    1    5    5    0    0 -0.42450132296E+02  0.71218525121E+02 -0.19586494990E+02  0.85192269827E+02  0.00000000000E+00 0. -1.
        -14    1    5    5    0    0 -0.15950159650E+03  0.78591183225E+02 -0.65266716258E+02  0.18941245370E+03  0.00000000000E+00 0.  1.
          5    1    4    4  501    0  0.44118413451E+02  0.16226685299E+02 -0.91146648288E+02  0.10263977599E+03  0.41800000000E+01 0. -1.
         -5    1    4    4    0  501  0.17200644028E+03 -0.10144316436E+03 -0.10149044087E+03  0.22404176637E+03  0.41800000000E+01 0. -1.
</event>
<event>
11    1  0.8037748E-009  0.1925391E+03  0.7561462E-02  0.1059929E+00
         22   -1    0    0    0    0  0.00000000000E+00  0.00000000000E+00  0.39228568980E+03  0.39228568980E+03  0.00000000000E+00 0.  1.
         22   -1    0    0    0    0 -0.00000000000E+00 -0.00000000000E+00 -0.79836236835E+03  0.79836236835E+03  0.00000000000E+00 0. -1.
        -24    2    1    2    0    0 -0.11421225953E+03  0.79138985281E+02 -0.38736282905E+03  0.41920085595E+03  0.79824664573E+02 0.  0.
         25    2    1    2    0    0  0.15301806106E+03 -0.54206405630E+02 -0.36187250942E+03  0.41587466891E+03  0.12508863157E+03 0.  0.
         24    2    1    2    0    0 -0.38805801525E+02 -0.24932579652E+02  0.34315865993E+03  0.35557253329E+03  0.80910053700E+02 0.  0.
        -11    1    5    5    0    0 -0.41111144517E+02 -0.51735378120E+02  0.23444438840E+03  0.24357924132E+03  0.00000000000E+00 0.  1.
         12    1    5    5    0    0  0.23053429923E+01  0.26802798468E+02  0.10871427153E+03  0.11199329197E+03  0.00000000000E+00 0. -1.
         13    1    3    3    0    0 -0.98409759748E+02  0.70406271859E+02 -0.22182499035E+03  0.25268132158E+03  0.00000000000E+00 0. -1.
        -14    1    3    3    0    0 -0.15802499785E+02  0.87327134220E+01 -0.16553783871E+03  0.16651953437E+03  0.00000000000E+00 0.  1.
          5    1    4    4  501    0  0.24808309557E+02 -0.62186453607E+02 -0.69984323013E+02  0.96942689786E+02  0.41800000000E+01 0. -1.
         -5    1    4    4    0  501  0.12820975150E+03  0.79800479776E+01 -0.29188818641E+03  0.31893197913E+03  0.41800000000E+01 0. -1.
</event>
<event>
11    1  0.8037748E-009  0.2034129E+03  0.7561462E-02  0.1052136E+00
         22   -1    0    0    0    0  0.00000000000E+00  0.00000000000E+00  0.14986895594E+04  0.14986895594E+04  0.00000000000E+00 0.  1.
         22   -1    0    0    0    0 -0.00000000000E+00 -0.00000000000E+00 -0.11316171415E+04  0.11316171415E+04  0.00000000000E+00 0. -1.
         24    2    1    2    0    0 -0.70900230934E+02  0.58291058323E+02 -0.96971948863E+03  0.97747485413E+03  0.81709935823E+02 0.  0.
         25    2    1    2    0    0 -0.31966771491E+02 -0.18135312035E+03 -0.71114563724E+02  0.23370260512E+03  0.12509515468E+03 0.  0.
        -24    2    1    2    0    0  0.10286700243E+03  0.12306206203E+03  0.14079064702E+04  0.14191292417E+04  0.77467957388E+02 0.  0.
        -11    1    3    3    0    0  0.12812045954E+02  0.23283273820E+02 -0.36730062520E+03  0.36826078889E+03  0.00000000000E+00 0.  1.
         12    1    3    3    0    0 -0.83712276888E+02  0.35007784503E+02 -0.60241886342E+03  0.60921406524E+03  0.00000000000E+00 0. -1.
         11    1    5    5    0    0  0.31597646379E+02  0.96990202049E+02  0.84234235921E+03  0.84849641170E+03  0.00000000000E+00 0. -1.
        -12    1    5    5    0    0  0.71269356046E+02  0.26071859983E+02  0.56556411099E+03  0.57063282996E+03  0.00000000000E+00 0.  1.
          5    1    4    4  501    0  0.24187680280E+02 -0.13504957195E+03 -0.82153130434E+02  0.15996887197E+03  0.41800000000E+01 0.  1.
         -5    1    4    4    0  501 -0.56154451771E+02 -0.46303548406E+02  0.11038566710E+02  0.73733733146E+02  0.41800000000E+01 0.  1.
</event>
<event>
11    1  0.8037748E-009  0.1492315E+03  0.7561462E-02  0.1097667E+00
         22   -1    0    0    0    0  0.00000000000E+00  0.00000000000E+00  0.14938079778E+04  0.14938079778E+04  0.00000000000E+00 0.  1.
         22   -1    0    0    0    0 -0.00000000000E+00 -0.00000000000E+00 -0.19929697259E+03  0.19929697259E+03  0.00000000000E+00 0.  1.
        -24    2    1    2    0    0 -0.37597365679E+01 -0.23220795942E+02 -0.16835654483E+03  0.18885314460E+03  0.82269332421E+02 0.  0.
         25    2    1    2    0    0  0.52548094368E+02 -0.44698209207E+02  0.26791347350E+03  0.30362075109E+03  0.12509476039E+03 0.  0.
         24    2    1    2    0    0 -0.48788357801E+02  0.67919005148E+02  0.11949540765E+04  0.12006310547E+04  0.81279698405E+02 0.  0.
        -11    1    5    5    0    0 -0.15168744679E+02  0.74295283637E+02  0.98423126896E+03  0.98714794777E+03  0.00000000000E+00 0.  1.
         12    1    5    5    0    0 -0.33619613122E+02 -0.63762784884E+01  0.21072280752E+03  0.21348310688E+03  0.00000000000E+00 0. -1.
         11    1    3    3    0    0  0.14676490637E+02 -0.48600852305E+02 -0.12826984031E+03  0.13795141955E+03  0.00000000000E+00 0. -1.
        -12    1    3    3    0    0 -0.18436227205E+02  0.25380056363E+02 -0.40086704519E+02  0.50901725056E+02  0.00000000000E+00 0.  1.
          5    1    4    4  501    0  0.31123427049E+02  0.37818778854E+02  0.15145077089E+03  0.15922856575E+03  0.41800000000E+01 0. -1.
         -5    1    4    4    0  501  0.21424667320E+02 -0.82516988061E+02  0.11646270261E+03  0.14439218534E+03  0.41800000000E+01 0. -1.
</event>
<event>
11    1  0.8037748E-009  0.1295420E+03  0.7561462E-02  0.1119833E+00
         22   -1    0    0    0    0  0.00000000000E+00  0.00000000000E+00  0.64627691362E+02  0.64627691362E+02  0.00000000000E+00 0. -1.
         22   -1    0    0    0    0 -0.00000000000E+00 -0.00000000000E+00 -0.87231596729E+03  0.87231596729E+03  0.00000000000E+00 0.  1.
         24    2    1    2    0    0  0.10643324139E+02 -0.27539550507E+02 -0.54120039246E+03  0.54790649448E+03  0.80199468264E+02 0.  0.
         25    2    1    2    0    0 -0.10447460811E+01 -0.85201687068E+01 -0.27355315858E+03  0.30091730392E+03  0.12508480509E+03 0.  0.
        -24    2    1    2    0    0 -0.95985780578E+01  0.36059719214E+02  0.70652751059E+01  0.88119860247E+02  0.79515756974E+02 0.  0.
        -13    1    3    3    0    0  0.16421522993E+02 -0.32405018571E+02 -0.53873797680E+03  0.53996144242E+03  0.00000000000E+00 0.  1.
         14    1    3    3    0    0 -0.57781988536E+01  0.48654680642E+01 -0.24624156524E+01  0.79450520653E+01  0.00000000000E+00 0. -1.
         11    1    5    5    0    0 -0.17387402683E+02  0.55375441431E+02  0.22444999725E+02  0.62229730020E+02  0.00000000000E+00 0. -1.
        -12    1    5    5    0    0  0.77888246254E+01 -0.19315722217E+02 -0.15379724619E+02  0.25890130227E+02  0.00000000000E+00 0.  1.
          5    1    4    4  501    0  0.24086629865E+02 -0.46267714492E+02 -0.48652287139E+02  0.71451973986E+02  0.41800000000E+01 0.  1.
         -5    1    4    4    0  501 -0.25131375946E+02  0.37747545786E+02 -0.22490087144E+03  0.22946532994E+03  0.41800000000E+01 0.  1.
</event>
<event>
11    1  0.8037748E-009  0.1270174E+03  0.7561462E-02  0.1122989E+00
         22   -1    0    0    0    0  0.00000000000E+00  0.00000000000E+00  0.32409704590E+03  0.32409704590E+03  0.00000000000E+00 0. -1.
         22   -1    0    0    0    0 -0.00000000000E+00 -0.00000000000E+00 -0.11547303870E+04  0.11547303870E+04  0.00000000000E+00 0.  1.
         24    2    1    2    0    0 -0.19345879426E+02  0.84186846650E+01 -0.10903649975E+04  0.10935949455E+04  0.81295385216E+02 0.  0.
         25    2    1    2    0    0  0.40128672517E+01  0.10271999058E+02  0.15234656590E+02  0.12649109434E+03  0.12508511150E+03 0.  0.
        -24    2    1    2    0    0  0.15333012174E+02 -0.18690683723E+02  0.24449699987E+03  0.25874139303E+03  0.81141127694E+02 0.  0.
        -13    1    3    3    0    0 -0.36515051075E+02  0.35947522866E+02 -0.71206249220E+03  0.71390375132E+03  0.00000000000E+00 0.  1.
         14    1    3    3    0    0  0.17169171650E+02 -0.27528838201E+02 -0.37830250532E+03  0.37969119416E+03  0.00000000000E+00 0. -1.
         11    1    5    5    0    0  0.18640002384E+02  0.96117093459E+01  0.22047965919E+03  0.22147486259E+03  0.00000000000E+00 0. -1.
        -12    1    5    5    0    0 -0.33069902104E+01 -0.28302393069E+02  0.24017340685E+02  0.37266530443E+02  0.00000000000E+00 0.  1.
          5    1    4    4  501    0  0.48463704287E+02  0.44857489384E+02  0.21722764380E+02  0.69643922056E+02  0.41800000000E+01 0.  1.
         -5    1    4    4    0  501 -0.44450837036E+02 -0.34585490326E+02 -0.64881077905E+01  0.56847172286E+02  0.41800000000E+01 0.  1.
</event>
<event>
11    1  0.8037748E-009  0.1485682E+03  0.7561462E-02  0.1098351E+00
         22   -1    0    0    0    0  0.00000000000E+00  0.00000000000E+00  0.99769239510E+03  0.99769239510E+03  0.00000000000E+00 0. -1.
         22   -1    0    0    0    0 -0.00000000000E+00 -0.00000000000E+00 -0.91554619311E+03  0.91554619311E+03  0.00000000000E+00 0.  1.
         24    2    1    2    0    0  0.63031640755E+02 -0.51876595910E+02 -0.87327290461E+03  0.88086364374E+03  0.81553810498E+02 0.  0.
         25    2    1    2    0    0 -0.24171392715E+02  0.25908411895E+02  0.78637581886E+02  0.15194565925E+03  0.12509241402E+03 0.  0.
        -24    2    1    2    0    0 -0.38860248040E+02  0.25968184015E+02  0.87678152471E+03  0.88042928523E+03  0.65003221083E+02 0.  0.
        -13    1    3    3    0    0  0.54479607549E+02 -0.48504932235E+02 -0.35049345463E+03  0.35800337684E+03  0.00000000000E+00 0.  1.
         14    1    3    3    0    0  0.85520332061E+01 -0.33716636753E+01 -0.52277944997E+03  0.52286026690E+03  0.00000000000E+00 0. -1.
         11    1    5    5    0    0 -0.45846665416E+02  0.41406473307E+02  0.74619555570E+03  0.74874843579E+03  0.00000000000E+00 0. -1.
        -12    1    5    5    0    0  0.69864173766E+01 -0.15438289292E+02  0.13058596902E+03  0.13168084943E+03  0.00000000000E+00 0.  1.
          5    1    4    4  501    0 -0.48181513029E+02  0.26907366867E+02 -0.13223275588E+02  0.56901599334E+02  0.41800000000E+01 0.  1.
         -5    1    4    4    0  501  0.24010120314E+02 -0.99895497188E+00  0.91860857474E+02  0.95044059912E+02  0.41800000000E+01 0.  1.
</event>
<event>
11    1  0.8037748E-009  0.2169648E+03  0.7561462E-02  0.1043136E+00
         22   -1    0    0    0    0  0.00000000000E+00  0.00000000000E+00  0.17702564693E+04  0.17702564693E+04  0.00000000000E+00 0. -1.
         22   -1    0    0    0    0 -0.00000000000E+00 -0.00000000000E+00 -0.90214044434E+03  0.90214044434E+03  0.00000000000E+00 0. -1.
         24    2    1    2    0    0  0.16577676091E+03 -0.62572684509E+02 -0.80743974159E+03  0.83050086795E+03  0.79846603321E+02 0.  0.
         25    2    1    2    0    0 -0.17414928077E+03  0.43850278424E+02  0.63819861156E+02  0.22796110643E+03  0.12506987029E+03 0.  0.
        -24    2    1    2    0    0  0.83725198587E+01  0.18722406085E+02  0.16117359054E+04  0.16139349393E+04  0.81686791076E+02 0.  0.
        -11    1    3    3    0    0  0.19855331739E+02  0.69034485396E+01 -0.22729824055E+03  0.22826822371E+03  0.00000000000E+00 0.  1.
         12    1    3    3    0    0  0.14592142917E+03 -0.69476133049E+02 -0.58014150104E+03  0.60223264424E+03  0.00000000000E+00 0. -1.
         11    1    5    5    0    0 -0.15315497076E+02  0.34913029810E+02  0.13656374326E+04  0.13661694922E+04  0.00000000000E+00 0. -1.
        -12    1    5    5    0    0  0.23688016935E+02 -0.16190623725E+02  0.24609847276E+03  0.24776544703E+03  0.00000000000E+00 0.  1.
          5    1    4    4  501    0 -0.16105094541E+03  0.68985213564E+02  0.21093529923E+02  0.17651848660E+03  0.41800000000E+01 0.  1.
         -5    1    4    4    0  501 -0.13098335366E+02 -0.25134935140E+02  0.42726331234E+02  0.51442619826E+02  0.41800000000E+01 0.  1.
</event>
<event>
11    1  0.8037748E-009  0.1711938E+03  0.7561462E-02  0.1076997E+00
         22   -1    0    0    0    0  0.00000000000E+00  0.00000000000E+00  0.15542735928E+04  0.15542735928E+04  0.00000000000E+00 0.  1.
         22   -1    0    0    0    0 -0.00000000000E+00 -0.00000000000E+00 -0.25021568783E+03  0.25021568783E+03  0.00000000000E+00 0.  1.
        -24    2    1    2    0    0 -0.74797418277E+02  0.89216597565E+02 -0.21796797464E+03  0.25950638178E+03  0.79241839674E+02 0.  0.
         25    2    1    2    0    0  0.81873354008E+02 -0.11112130433E+03  0.94624831165E+03  0.96440873284E+03  0.12508855382E+03 0.  0.
         24    2    1    2    0    0 -0.70759357302E+01  0.21904706770E+02  0.57577756794E+03  0.58057416598E+03  0.70828450637E+02 0.  0.
        -11    1    5    5    0    0 -0.35977903336E+02 -0.11645103131E+01  0.34209966305E+03  0.34398829206E+03  0.00000000000E+00 0.  1.
         12    1    5    5    0    0  0.28901967606E+02  0.23069217083E+02  0.23367790488E+03  0.23658587392E+03  0.00000000000E+00 0. -1.
         11    1    3    3    0    0 -0.39500230410E+02  0.21058370790E+02 -0.23754207636E+02  0.50675295393E+02  0.00000000000E+00 0. -1.
        -12    1    3    3    0    0 -0.35297187867E+02  0.68158226775E+02 -0.19421376701E+03  0.20883108639E+03  0.00000000000E+00 0.  1.
          5    1    4    4  501    0  0.99815740404E+01  0.26052518018E+02  0.92104280519E+02  0.96327755114E+02  0.41800000000E+01 0.  1.
         -5    1    4    4    0  501  0.71891779967E+02 -0.13717382235E+03  0.85414403113E+03  0.86808097772E+03  0.41800000000E+01 0.  1.
</event>
<event>
11    1  0.8037748E-009  0.1357954E+03  0.7561462E-02  0.1112346E+00
         22   -1    0    0    0    0  0.00000000000E+00  0.00000000000E+00  0.22856570999E+03  0.22856570999E+03  0.00000000000E+00 0. -1.
         22   -1    0    0    0    0 -0.00000000000E+00 -0.00000000000E+00 -0.21969891681E+04  0.21969891681E+04  0.00000000000E+00 0. -1.
         24    2    1    2    0    0  0.33364521442E+02  0.42686709934E+02 -0.19683268381E+04  0.19706133713E+04  0.77917719626E+02 0.  0.
         25    2    1    2    0    0 -0.29544425630E+02 -0.15367475819E+02 -0.19946550846E+03  0.23778948309E+03  0.12509323244E+03 0.  0.
        -24    2    1    2    0    0 -0.38200958127E+01 -0.27319234115E+02  0.19936888845E+03  0.21715202372E+03  0.81523702312E+02 0.  0.
        -11    1    3    3    0    0  0.26638016665E+02  0.12445883348E+02 -0.21371229895E+03  0.21572535935E+03  0.00000000000E+00 0.  1.
         12    1    3    3    0    0  0.67265047770E+01  0.30240826587E+02 -0.17546145392E+04  0.17548880120E+04  0.00000000000E+00 0. -1.
         13    1    5    5    0    0  0.32431920827E+02 -0.32172927231E+02  0.78015408107E+02  0.90406474532E+02  0.00000000000E+00 0. -1.
        -14    1    5    5    0    0 -0.36252016640E+02  0.48536931158E+01  0.12135348035E+03  0.12674554919E+03  0.00000000000E+00 0.  1.
          5    1    4    4  501    0  0.20748207342E+01  0.43826492110E+02 -0.24673737676E+02  0.50510711960E+02  0.41800000000E+01 0.  1.
         -5    1    4    4    0  501 -0.31619246364E+02 -0.59193967930E+02 -0.17479177079E+03  0.18727877113E+03  0.41800000000E+01 0.  1.
</event>
<event>
11    1  0.8037748E-009  0.2080501E+03  0.7561462E-02  0.1048973E+00
         22   -1    0    0    0    0  0.00000000000E+00  0.00000000000E+00  0.61299821324E+03  0.61299821324E+03  0.00000000000E+00 0.  1.
         22   -1    0    0    0    0 -0.00000000000E+00 -0.00000000000E+00 -0.51543640205E+03  0.51543640205E+03  0.00000000000E+00 0.  1.
        -24    2    1    2    0    0  0.13137532914E+03 -0.87736344211E+02 -0.27532827597E+03  0.32699453833E+03  0.78502390706E+02 0.  0.
         25    2    1    2    0    0 -0.19549917497E+03  0.35123190398E+02 -0.14196886567E+03  0.27432782088E+03  0.12508808326E+03 0.  0.
         24    2    1    2    0    0  0.64123845831E+02  0.52613153813E+02  0.51485895283E+03  0.52711225608E+03  0.76730552177E+02 0.  0.
        -11    1    5    5    0    0  0.63756191430E+02  0.34297104068E+02  0.49430765231E+03  0.49958102289E+03  0.00000000000E+00 0.  1.
         12    1    5    5    0    0  0.36765440102E+00  0.18316049745E+02  0.20551300522E+02  0.27531233194E+02  0.00000000000E+00 0. -1.
         13    1    3    3    0    0  0.30079035348E+02  0.49457858953E+01 -0.98575462559E+02  0.10318105923E+03  0.00000000000E+00 0. -1.
        -14    1    3    3    0    0  0.10129629379E+03 -0.92682130106E+02 -0.17675281341E+03  0.22381347909E+03  0.00000000000E+00 0.  1.
          5    1    4    4  501    0 -0.51940549211E+02 -0.39437096297E+02 -0.74242007564E+02  0.98906285462E+02  0.41800000000E+01 0.  1.
         -5    1    4    4    0  501 -0.14355862576E+03  0.74560286695E+02 -0.67726858110E+02  0.17542153542E+03  0.41800000000E+01 0.  1.
</event>
<event>
11    1  0.8037748E-009  0.1550149E+03  0.7561462E-02  0.1091862E+00
         22   -1    0    0    0    0  0.00000000000E+00  0.00000000000E+00  0.83244510521E+03  0.83244510521E+03  0.00000000000E+00 0. -1.
         22   -1    0    0    0    0 -0.00000000000E+00 -0.00000000000E+00 -0.68078549467E+03  0.68078549467E+03  0.00000000000E+00 0. -1.
         24    2    1    2    0    0 -0.32953128687E+02  0.57406558739E+02 -0.61013615541E+03  0.61880515212E+03  0.79197641844E+02 0.  0.
         25    2    1    2    0    0 -0.12454204927E+02  0.27993397350E+02  0.67012892485E+01  0.12896434826E+03  0.12509259902E+03 0.  0.
        -24    2    1    2    0    0  0.45407333614E+02 -0.85399956089E+02  0.75509447671E+03  0.76546109949E+03  0.80050281868E+02 0.  0.
        -11    1    3    3    0    0 -0.14770512307E+02 -0.19270720906E+02 -0.13080046052E+03  0.13303491719E+03  0.00000000000E+00 0.  1.
         12    1    3    3    0    0 -0.18182616380E+02  0.76677279645E+02 -0.47933569489E+03  0.48577023494E+03  0.00000000000E+00 0. -1.
         11    1    5    5    0    0 -0.70313690411E+01 -0.38469798732E+02  0.47701614776E+03  0.47861651747E+03  0.00000000000E+00 0. -1.
        -12    1    5    5    0    0  0.52438702655E+02 -0.46930157357E+02  0.27807832894E+03  0.28684458202E+03  0.00000000000E+00 0.  1.
          5    1    4    4  501    0 -0.54061897544E+02 -0.26172619249E+02  0.21627111151E-01  0.60209364987E+02  0.41800000000E+01 0.  1.
         -5    1    4    4    0  501  0.41607692617E+02  0.54166016599E+02  0.66796621374E+01  0.68754983277E+02  0.41800000000E+01 0.  1.
</event>
<event>
11    1  0.8037748E-009  0.1482366E+03  0.7561462E-02  0.1098694E+00
         22   -1    0    0    0    0  0.00000000000E+00  0.00000000000E+00  0.11422644592E+04  0.11422644592E+04  0.00000000000E+00 0. -1.
         22   -1    0    0    0    0 -0.00000000000E+00 -0.00000000000E+00 -0.40627162936E+03  0.40627162936E+03  0.00000000000E+00 0.  1.
        -24    2    1    2    0    0 -0.71104946461E+02  0.37258443269E+02 -0.37101553507E+03  0.38794618803E+03  0.80035070635E+02 0.  0.
         25    2    1    2    0    0  0.29087679528E+02 -0.71971660370E+02  0.20045970246E+03  0.24871522126E+03  0.12509658660E+03 0.  0.
         24    2    1    2    0    0  0.42017266933E+02  0.34713217101E+02  0.90654866245E+03  0.91187467927E+03  0.81942022959E+02 0.  0.
        -13    1    5    5    0    0  0.51799227812E+02  0.40953658477E+01  0.29937414787E+03  0.30384998344E+03  0.00000000000E+00 0.  1.
         14    1    5    5    0    0 -0.97819608788E+01  0.30617851253E+02  0.60717451459E+03  0.60802469583E+03  0.00000000000E+00 0. -1.
         11    1    3    3    0    0 -0.46512014940E+02  0.17712420535E+02 -0.73433591436E+02  0.88710708069E+02  0.00000000000E+00 0. -1.
        -12    1    3    3    0    0 -0.24592931521E+02  0.19546022735E+02 -0.29758194364E+03  0.29923547996E+03  0.00000000000E+00 0.  1.
          5    1    4    4  501    0 -0.41837104023E+02 -0.29547793624E+02  0.13085371462E+03  0.14058300897E+03  0.41800000000E+01 0. -1.
         -5    1    4    4    0  501  0.70924783551E+02 -0.42423866746E+02  0.69605987838E+02  0.10813221229E+03  0.41800000000E+01 0. -1.
</event>
<event>
11    1  0.8037748E-009  0.2898980E+03  0.7561462E-02  0.1004560E+00
         22   -1    0    0    0    0  0.00000000000E+00  0.00000000000E+00  0.23277133086E+03  0.23277133086E+03  0.00000000000E+00 0.  1.
         22   -1    0    0    0    0 -0.00000000000E+00 -0.00000000000E+00 -0.10674746615E+04  0.10674746615E+04  0.00000000000E+00 0.  1.
         24    2    1    2    0    0  0.25190978285E+03 -0.78637953863E+02 -0.76030889417E+03  0.80878634749E+03  0.80145335764E+02 0.  0.
         25    2    1    2    0    0 -0.25004548251E+03  0.50858649904E+02 -0.19417107666E+03  0.34418072047E+03  0.12509442729E+03 0.  0.
        -24    2    1    2    0    0 -0.18643003386E+01  0.27779303958E+02  0.11977664017E+03  0.14727892442E+03  0.81052283770E+02 0.  0.
        -13    1    3    3    0    0  0.23414568640E+03 -0.46407334826E+02 -0.67094800288E+03  0.71214399229E+03  0.00000000000E+00 0.  1.
         14    1    3    3    0    0  0.17764096454E+02 -0.32230619037E+02 -0.89360891288E+02  0.96642355197E+02  0.00000000000E+00 0. -1.
         11    1    5    5    0    0 -0.23172577831E+02  0.34124336366E+02  0.21493481353E+02  0.46512454637E+02  0.00000000000E+00 0. -1.
        -12    1    5    5    0    0  0.21308277493E+02 -0.63450324072E+01  0.98283158814E+02  0.10076646978E+03  0.00000000000E+00 0.  1.
          5    1    4    4  501    0 -0.23916934110E+03  0.73440660830E+02 -0.14596519172E+03  0.28968744187E+03  0.41800000000E+01 0. -1.
         -5    1    4    4    0  501 -0.10876141414E+02 -0.22582010926E+02 -0.48205884942E+02  0.54493278600E+02  0.41800000000E+01 0. -1.
</event>
<event>
11    1  0.8037748E-009  0.1358953E+03  0.7561462E-02  0.1112231E+00
         22   -1    0    0    0    0  0.00000000000E+00  0.00000000000E+00  0.29318475869E+03  0.29318475869E+03  0.00000000000E+00 0.  1.
         22   -1    0    0    0    0 -0.00000000000E+00 -0.00000000000E+00 -0.36608809788E+03  0.36608809788E+03  0.00000000000E+00 0.  1.
         24    2    1    2    0    0 -0.31939222734E+02  0.37847815155E+02 -0.26870352931E+03  0.28490135757E+03  0.80713231993E+02 0.  0.
         25    2    1    2    0    0  0.74305481802E+02 -0.48958481322E+02 -0.50546098516E+01  0.15359497452E+03  0.12509048564E+03 0.  0.
        -24    2    1    2    0    0 -0.42366259068E+02  0.11110666167E+02  0.20085479997E+03  0.22077652449E+03  0.80506374166E+02 0.  0.
        -13    1    3    3    0    0 -0.16960870851E+02  0.26143310271E+02 -0.26330193518E+03  0.26513968560E+03  0.00000000000E+00 0.  1.
         14    1    3    3    0    0 -0.14978351882E+02  0.11704504884E+02 -0.54015941311E+01  0.19761671965E+02  0.00000000000E+00 0. -1.
         11    1    5    5    0    0 -0.42944209756E+01  0.23987140346E+02  0.11038539143E+02  0.26752089636E+02  0.00000000000E+00 0. -1.
        -12    1    5    5    0    0 -0.38071838092E+02 -0.12876474179E+02  0.18981626083E+03  0.19402443485E+03  0.00000000000E+00 0.  1.
          5    1    4    4  501    0  0.89397947426E+02 -0.39448649399E+01 -0.36243853153E+02  0.96636661028E+02  0.41800000000E+01 0.  1.
         -5    1    4    4    0  501 -0.15092465624E+02 -0.45013616382E+02  0.31189243301E+02  0.56958313494E+02  0.41800000000E+01 0.  1.
</event>
<event>
11    1  0.8037748E-009  0.2051866E+03  0.7561462E-02  0.1050915E+00
         22   -1    0    0    0    0  0.00000000000E+00  0.00000000000E+00  0.48418969663E+03  0.48418969663E+03  0.00000000000E+00 0.  1.
         22   -1    0    0    0    0 -0.00000000000E+00 -0.00000000000E+00 -0.15119491624E+03  0.15119491624E+03  0.00000000000E+00 0.  1.
         24    2    1    2    0    0 -0.10028475897E+03  0.29118040962E+02  0.38231414014E+02  0.13627605206E+03  0.78769462078E+02 0.  0.
         25    2    1    2    0    0  0.64282866072E+02 -0.17936695210E+03  0.16063765708E+03  0.27885132446E+03  0.12509521935E+03 0.  0.
        -24    2    1    2    0    0  0.36001892901E+02  0.15024891114E+03  0.13412570929E+03  0.22025723635E+03  0.81563917759E+02 0.  0.
        -13    1    3    3    0    0 -0.90790593577E+02  0.36008933571E+02  0.57776954063E+02  0.11348018153E+03  0.00000000000E+00 0.  1.
         14    1    3    3    0    0 -0.94941653964E+01 -0.68908926093E+01 -0.19545540049E+02  0.22795870533E+02  0.00000000000E+00 0. -1.
         13    1    5    5    0    0 -0.23766332112E+02  0.26293950083E+02  0.15950109803E+02  0.38866648373E+02  0.00000000000E+00 0. -1.
        -14    1    5    5    0    0  0.59768225013E+02  0.12395496106E+03  0.11817559949E+03  0.18139058798E+03  0.00000000000E+00 0.  1.
          5    1    4    4  501    0  0.46048988443E+02 -0.17795549856E+03  0.88015491492E+02  0.20384520585E+03  0.41800000000E+01 0. -1.
         -5    1    4    4    0  501  0.18233877630E+02 -0.14114535397E+01  0.72622165586E+02  0.75006118610E+02  0.41800000000E+01 0. -1.
</event>
<event>
11    1  0.8037748E-009  0.1634875E+03  0.7561462E-02  0.1083842E+00
         22   -1    0    0    0    0  0.00000000000E+00  0.00000000000E+00  0.17694045910E+04  0.17694045910E+04  0.00000000000E+00 0. -1.
         22   -1    0    0    0    0 -0.00000000000E+00 -0.00000000000E+00 -0.20130363441E+03  0.20130363441E+03  0.00000000000E+00 0.  1.
         24    2    1    2    0    0  0.10106643112E+03  0.14542566599E+02 -0.60196975781E+02  0.14437584566E+03  0.82430571840E+02 0.  0.
         25    2    1    2    0    0 -0.98659545610E+02 -0.64022742287E+02 -0.22208302020E+02  0.17312522867E+03  0.12508604500E+03 0.  0.
        -24    2    1    2    0    0 -0.24068855127E+01  0.49480175687E+02  0.16505062344E+04  0.16532071511E+04  0.80429930482E+02 0.  0.
        -11    1    3    3    0    0  0.26058647204E+02 -0.76697192593E+01 -0.60313387675E+02  0.66148185315E+02  0.00000000000E+00 0.  1.
         12    1    3    3    0    0  0.75007783919E+02  0.22212285859E+02  0.11641189377E+00  0.78227660346E+02  0.00000000000E+00 0. -1.
         11    1    5    5    0    0 -0.38497739344E+02  0.37976323616E+02  0.77668612436E+03  0.77856638308E+03  0.00000000000E+00 0. -1.
        -12    1    5    5    0    0  0.36090853831E+02  0.11503852071E+02  0.87382011007E+03  0.87464076803E+03  0.00000000000E+00 0.  1.
          5    1    4    4  501    0  0.33577670010E+01  0.31253673856E+02 -0.83269043256E+01  0.32785308667E+02  0.41800000000E+01 0.  1.
         -5    1    4    4    0  501 -0.10201731261E+03 -0.95276416142E+02 -0.13881397694E+02  0.14033992001E+03  0.41800000000E+01 0.  1.
</event>
<event>
11    1  0.8037748E-009  0.1469569E+03  0.7561462E-02  0.1100029E+00
         22   -1    0    0    0    0  0.00000000000E+00  0.00000000000E+00  0.52422943472E+03  0.52422943472E+03  0.00000000000E+00 0. -1.
         22   -1    0    0    0    0 -0.00000000000E+00 -0.00000000000E+00 -0.11399674301E+04  0.11399674301E+04  0.00000000000E+00 0. -1.
        -24    2    1    2    0    0  0.27724764756E+02 -0.11077675503E+02 -0.80544366650E+03  0.81001104728E+03  0.80542034652E+02 0.  0.
         25    2    1    2    0    0 -0.40189984942E+02 -0.65160320837E+02 -0.30961505815E+03  0.34259222198E+03  0.12508734560E+03 0.  0.
         24    2    1    2    0    0  0.12465220186E+02  0.76237996340E+02  0.49932072930E+03  0.51159359553E+03  0.80244641412E+02 0.  0.
        -11    1    5    5    0    0  0.31078689480E+02  0.14885604584E+02  0.76027569045E+02  0.83472494981E+02  0.00000000000E+00 0.  1.
         12    1    5    5    0    0 -0.18613469293E+02  0.61352391756E+02  0.42329316025E+03  0.42812110054E+03  0.00000000000E+00 0. -1.
         13    1    3    3    0    0  0.41634581521E+02  0.34586879646E+01 -0.74763403325E+03  0.74880040637E+03  0.00000000000E+00 0. -1.
        -14    1    3    3    0    0 -0.13909816765E+02 -0.14536363468E+02 -0.57809633243E+02  0.61210640913E+02  0.00000000000E+00 0.  1.
          5    1    4    4  501    0 -0.70567520336E+02 -0.57007686350E+02 -0.12079197799E+03  0.15112188980E+03  0.41800000000E+01 0.  1.
         -5    1    4    4    0  501  0.30377535394E+02 -0.81526344862E+01 -0.18882308015E+03  0.19147033218E+03  0.41800000000E+01 0.  1.
</event>
<event>
11    1  0.8037748E-009  0.1497071E+03  0.7561462E-02  0.1097178E+00
         22   -1    0    0    0    0  0.00000000000E+00  0.00000000000E+00  0.33030291625E+02  0.33030291625E+02  0.00000000000E+00 0.  1.
         22   -1    0    0    0    0 -0.00000000000E+00 -0.00000000000E+00 -0.32393947034E+04  0.32393947034E+04  0.00000000000E+00 0. -1.
        -24    2    1    2    0    0 -0.26135370070E+01  0.74390826673E+01 -0.20925080656E+04  0.20947717876E+04  0.97039512890E+02 0.  0.
         25    2    1    2    0    0 -0.69062075652E+02 -0.47360931220E+02 -0.97119503924E+03  0.98279186843E+03  0.12508966507E+03 0.  0.
         24    2    1    2    0    0  0.71675612659E+02  0.39921848553E+02 -0.14266130698E+03  0.19486133903E+03  0.10434340178E+03 0.  0.
        -11    1    5    5    0    0  0.36089261780E+02  0.52220717023E+02 -0.20004040848E+02  0.66555238355E+02  0.00000000000E+00 0.  1.
         12    1    5    5    0    0  0.35586350879E+02 -0.12298868470E+02 -0.12265726613E+03  0.12830610067E+03  0.00000000000E+00 0. -1.
         11    1    3    3    0    0 -0.45098546137E+02 -0.62151300349E+01 -0.14507244023E+04  0.14514385272E+04  0.00000000000E+00 0. -1.
        -12    1    3    3    0    0  0.42485009130E+02  0.13654212702E+02 -0.64178366326E+03  0.64333326042E+03  0.00000000000E+00 0.  1.
          5    1    4    4  501    0 -0.27484978229E+02 -0.34244168932E+02 -0.88508888364E+03  0.88618727788E+03  0.41800000000E+01 0.  1.
         -5    1    4    4    0  501 -0.41577097423E+02 -0.13116762288E+02 -0.86106155602E+02  0.96604590551E+02  0.41800000000E+01 0.  1.
</event>
<event>
11    1  0.8037748E-009  0.2427271E+03  0.7561462E-02  0.1027846E+00
         22   -1    0    0    0    0  0.00000000000E+00  0.00000000000E+00  0.34928738978E+03  0.34928738978E+03  0.00000000000E+00 0. -1.
         22   -1    0    0    0    0 -0.00000000000E+00 -0.00000000000E+00 -0.10562326837E+04  0.10562326837E+04  0.00000000000E+00 0. -1.
         24    2    1    2    0    0  0.81189717557E+02  0.19213238406E+03 -0.57225940476E+03  0.61427454455E+03  0.79660319516E+02 0.  0.
         25    2    1    2    0    0 -0.10076236497E+03 -0.18177540800E+03 -0.42482176218E+03  0.48920222076E+03  0.12509968036E+03 0.  0.
        -24    2    1    2    0    0  0.19572647412E+02 -0.10356976064E+02  0.29013587302E+03  0.30204330817E+03  0.80999874824E+02 0.  0.
        -11    1    3    3    0    0  0.21314914019E+01  0.93971025892E+02 -0.29727274978E+03  0.31177906396E+03  0.00000000000E+00 0.  1.
         12    1    3    3    0    0  0.79058226155E+02  0.98161358169E+02 -0.27498665499E+03  0.30249548059E+03  0.00000000000E+00 0. -1.
         13    1    5    5    0    0  0.32683098330E+02 -0.37280817743E+02  0.22434024449E+03  0.22975332334E+03  0.00000000000E+00 0. -1.
        -14    1    5    5    0    0 -0.13110450918E+02  0.26923841679E+02  0.65795628525E+02  0.72289984832E+02  0.00000000000E+00 0.  1.
          5    1    4    4  501    0 -0.37995677185E+02 -0.10071917047E+03 -0.94467861971E+02  0.14328179274E+03  0.41800000000E+01 0. -1.
         -5    1    4    4    0  501 -0.62766687784E+02 -0.81056237523E+02 -0.33035390021E+03  0.34592042802E+03  0.41800000000E+01 0. -1.
</event>
<event>
11    1  0.8037748E-009  0.1490296E+03  0.7561462E-02  0.1097874E+00
         22   -1    0    0    0    0  0.00000000000E+00  0.00000000000E+00  0.87633231079E+03  0.87633231079E+03  0.00000000000E+00 0.  1.
         22   -1    0    0    0    0 -0.00000000000E+00 -0.00000000000E+00 -0.61114445215E+03  0.61114445215E+03  0.00000000000E+00 0. -1.
        -24    2    1    2    0    0 -0.14723154979E+02 -0.16303310223E+02 -0.42318216835E+03  0.43132831503E+03  0.80488499313E+02 0.  0.
         25    2    1    2    0    0 -0.65196122273E+02  0.30930957186E+02 -0.15107992649E+03  0.20899817947E+03  0.12509131210E+03 0.  0.
         24    2    1    2    0    0  0.79919277252E+02 -0.14627646963E+02  0.83944995348E+03  0.84715026843E+03  0.79914291306E+02 0.  0.
        -11    1    5    5    0    0  0.85649964173E+02 -0.29483668401E+02  0.79056237533E+03  0.79573492593E+03  0.00000000000E+00 0.  1.
         12    1    5    5    0    0 -0.57306869206E+01  0.14856021438E+02  0.48887578155E+02  0.51415342490E+02  0.00000000000E+00 0. -1.
         13    1    3    3    0    0  0.29948549661E+02 -0.16250765399E+02 -0.25691379538E+03  0.25916346436E+03  0.00000000000E+00 0. -1.
        -14    1    3    3    0    0 -0.44671704640E+02 -0.52544824664E-01 -0.16626837297E+03  0.17216485067E+03  0.00000000000E+00 0.  1.
          5    1    4    4  501    0 -0.40011636725E+02  0.48960999444E+02 -0.16351242434E+03  0.17536218478E+03  0.41800000000E+01 0. -1.
         -5    1    4    4    0  501 -0.25184485548E+02 -0.18030042258E+02  0.12432497843E+02  0.33635994690E+02  0.41800000000E+01 0. -1.
</event>
<event>
11    1  0.8037748E-009  0.1472877E+03  0.7561462E-02  0.1099683E+00
         22   -1    0    0    0    0  0.00000000000E+00  0.00000000000E+00  0.68341145030E+03  0.68341145030E+03  0.00000000000E+00 0. -1.
         22   -1    0    0    0    0 -0.00000000000E+00 -0.00000000000E+00 -0.21020520434E+03  0.21020520434E+03  0.00000000000E+00 0. -1.
        -24    2    1    2    0    0 -0.76501302334E+02  0.17330321091E+02 -0.17234404492E+03  0.20559196595E+03  0.80079943541E+02 0.  0.
         25    2    1    2    0    0  0.68017322898E+02  0.90526840939E+01  0.30050501507E+03  0.33265738178E+03  0.12509741112E+03 0.  0.
         24    2    1    2    0    0  0.84839794355E+01 -0.26383005185E+02  0.34504527581E+03  0.35536730691E+03  0.80384324291E+02 0.  0.
        -13    1    5    5    0    0  0.79754130268E+01 -0.18112659472E+02  0.14056175429E+02  0.24274507488E+02  0.00000000000E+00 0.  1.
         14    1    5    5    0    0  0.50856640873E+00 -0.82703457134E+01  0.33098910038E+03  0.33109279942E+03  0.00000000000E+00 0. -1.
         13    1    3    3    0    0 -0.63014038306E+02  0.40998430264E+02 -0.15761047455E+03  0.17462159659E+03  0.00000000000E+00 0. -1.
        -14    1    3    3    0    0 -0.13487264028E+02 -0.23668109172E+02 -0.14733570372E+02  0.30970369366E+02  0.00000000000E+00 0.  1.
          5    1    4    4  501    0  0.40332748053E+02 -0.53608834660E+02  0.97986233541E+02  0.11882513237E+03  0.41800000000E+01 0. -1.
         -5    1    4    4    0  501  0.27684574845E+02  0.62661518754E+02  0.20251878153E+03  0.21383224941E+03  0.41800000000E+01 0. -1.
</event>
<event>
11    1  0.8037748E-009  0.1366402E+03  0.7561462E-02  0.1111369E+00
         22   -1    0    0    0    0  0.00000000000E+00  0.00000000000E+00  0.33210768125E+04  0.33210768125E+04  0.00000000000E+00 0.  1.
         22   -1    0    0    0    0 -0.00000000000E+00 -0.00000000000E+00 -0.48400793290E+03  0.48400793290E+03  0.00000000000E+00 0. -1.
        -24    2    1    2    0    0 -0.34463567564E+02 -0.21762058928E+02 -0.45096332976E+03  0.45965521004E+03  0.79080102667E+02 0.  0.
         25    2    1    2    0    0  0.59133016283E+02  0.69891157871E+02  0.18694559748E+03  0.24284938982E+03  0.12508270128E+03 0.  0.
         24    2    1    2    0    0 -0.24669448719E+02 -0.48129098942E+02  0.31010866119E+04  0.31025801455E+04  0.79626585748E+02 0.  0.
        -11    1    5    5    0    0 -0.49479381655E+02 -0.23764912303E+02  0.24042126577E+04  0.24048391804E+04  0.00000000000E+00 0.  1.
         12    1    5    5    0    0  0.24809932936E+02 -0.24364186639E+02  0.69687395418E+03  0.69774096510E+03  0.00000000000E+00 0. -1.
         13    1    3    3    0    0 -0.32111395941E+02  0.56643638721E+01 -0.40328464548E+03  0.40460070693E+03  0.00000000000E+00 0. -1.
        -14    1    3    3    0    0 -0.23521716236E+01 -0.27426422800E+02 -0.47678684277E+02  0.55054503116E+02  0.00000000000E+00 0.  1.
          5    1    4    4  501    0  0.86812075394E+02  0.76367930653E+02  0.17882961408E+03  0.21299272414E+03  0.41800000000E+01 0.  1.
         -5    1    4    4    0  501 -0.27679059111E+02 -0.64767727828E+01  0.81159833968E+01  0.29856665679E+02  0.41800000000E+01 0.  1.
</event>
<event>
11    1  0.8037748E-009  0.1436942E+03  0.7561462E-02  0.1103502E+00
         22   -1    0    0    0    0  0.00000000000E+00  0.00000000000E+00  0.80553171519E+02  0.80553171519E+02  0.00000000000E+00 0. -1.
         22   -1    0    0    0    0 -0.00000000000E+00 -0.00000000000E+00 -0.16137620444E+04  0.16137620444E+04  0.00000000000E+00 0. -1.
        -24    2    1    2    0    0  0.18957410015E+02 -0.18001529412E+01 -0.14110636073E+04  0.14135075955E+04  0.80873943152E+02 0.  0.
         25    2    1    2    0    0 -0.80303920649E+02  0.18448079345E+02 -0.79069192264E+02  0.16935215066E+03  0.12505663702E+03 0.  0.
         24    2    1    2    0    0  0.61346510634E+02 -0.16647926404E+02 -0.43076073266E+02  0.11145546973E+03  0.80785059418E+02 0.  0.
        -13    1    5    5    0    0  0.68043995818E+02 -0.39658009220E+02 -0.34778941085E+02  0.86094818690E+02  0.00000000000E+00 0.  1.
         14    1    5    5    0    0 -0.66974851838E+01  0.23010082816E+02 -0.82971321810E+01  0.25360651045E+02  0.00000000000E+00 0. -1.
         11    1    3    3    0    0  0.27865308530E+02 -0.13214461869E+02 -0.13620758901E+04  0.13624249807E+04  0.00000000000E+00 0. -1.
        -12    1    3    3    0    0 -0.89078985150E+01  0.11414308927E+02 -0.48987717174E+02  0.51082614833E+02  0.00000000000E+00 0.  1.
          5    1    4    4  501    0  0.64695499554E+01  0.44506939654E+02  0.53018870489E+01  0.45478623114E+02  0.41800000000E+01 0.  1.
         -5    1    4    4    0  501 -0.86773470604E+02 -0.26058860309E+02 -0.84371079313E+02  0.12387352754E+03  0.41800000000E+01 0.  1.
</event>
<event>
11    1  0.8037748E-009  0.1272807E+03  0.7561462E-02  0.1122656E+00
         22   -1    0    0    0    0  0.00000000000E+00  0.00000000000E+00  0.11715702664E+04  0.11715702664E+04  0.00000000000E+00 0.  1.
         22   -1    0    0    0    0 -0.00000000000E+00 -0.00000000000E+00 -0.31127317171E+03  0.31127317171E+03  0.00000000000E+00 0. -1.
         24    2    1    2    0    0 -0.22885442997E+02  0.41871188432E+01 -0.27731439859E+03  0.28987718435E+03  0.81143273733E+02 0.  0.
         25    2    1    2    0    0  0.29597027373E+02 -0.35610027499E+01  0.13237988501E+03  0.18455521817E+03  0.12509008685E+03 0.  0.
        -24    2    1    2    0    0 -0.67115843761E+01 -0.62611609331E+00  0.10052316082E+04  0.10084110356E+04  0.79729499328E+02 0.  0.
        -13    1    3    3    0    0 -0.42209863812E+02  0.28829113203E+02 -0.14006671856E+03  0.14910223345E+03  0.00000000000E+00 0.  1.
         14    1    3    3    0    0  0.19324420815E+02 -0.24641994360E+02 -0.13724768003E+03  0.14077495089E+03  0.00000000000E+00 0. -1.
         13    1    5    5    0    0  0.27128075425E+02  0.64045055945E+01  0.15561190792E+03  0.15808863354E+03  0.00000000000E+00 0. -1.
        -14    1    5    5    0    0 -0.33839659801E+02 -0.70306216878E+01  0.84961970032E+03  0.85032240203E+03  0.00000000000E+00 0.  1.
          5    1    4    4  501    0  0.77064588199E+02 -0.43191056977E+01  0.10222055646E+03  0.12815662290E+03  0.41800000000E+01 0. -1.
         -5    1    4    4    0  501 -0.47467560826E+02  0.75810294776E+00  0.30159328550E+02  0.56398595279E+02  0.41800000000E+01 0. -1.
</event>
<event>
11    1  0.8037748E-009  0.1644659E+03  0.7561462E-02  0.1082951E+00
         22   -1    0    0    0    0  0.00000000000E+00  0.00000000000E+00  0.77139787228E+03  0.77139787228E+03  0.00000000000E+00 0.  1.
         22   -1    0    0    0    0 -0.00000000000E+00 -0.00000000000E+00 -0.16128499100E+03  0.16128499100E+03  0.00000000000E+00 0.  1.
         24    2    1    2    0    0  0.19348482877E+02 -0.58911305369E+02 -0.28387236112E+02  0.10412826354E+03  0.78688972573E+02 0.  0.
         25    2    1    2    0    0 -0.11318544700E+03  0.59816590924E+01 -0.41493841166E+01  0.16884577484E+03  0.12507978508E+03 0.  0.
        -24    2    1    2    0    0  0.93836964118E+02  0.52929646277E+02  0.64264950151E+03  0.65970882489E+03  0.10300693450E+03 0.  0.
        -11    1    3    3    0    0  0.19252562019E+02 -0.57008386382E+02  0.13934249598E+02  0.61763909964E+02  0.00000000000E+00 0.  1.
         12    1    3    3    0    0  0.95920858591E-01 -0.19029189865E+01 -0.42321485710E+02  0.42364353579E+02  0.00000000000E+00 0. -1.
         13    1    5    5    0    0 -0.59209993443E+01 -0.22859296011E+02  0.91246963127E+02  0.94252925298E+02  0.00000000000E+00 0. -1.
        -14    1    5    5    0    0  0.99757963462E+02  0.75788942287E+02  0.55140253838E+03  0.56545589959E+03  0.00000000000E+00 0.  1.
          5    1    4    4  501    0  0.20976928755E+02  0.25356060960E+02 -0.38498814867E+00  0.33175020471E+02  0.41800000000E+01 0.  1.
         -5    1    4    4    0  501 -0.13416237575E+03 -0.19374401868E+02 -0.37643959679E+01  0.13567075437E+03  0.41800000000E+01 0.  1.
</event>
<event>
11    1  0.8037748E-009  0.1548003E+03  0.7561462E-02  0.1092072E+00
         22   -1    0    0    0    0  0.00000000000E+00  0.00000000000E+00  0.79358330616E+03  0.79358330616E+03  0.00000000000E+00 0. -1.
         22   -1    0    0    0    0 -0.00000000000E+00 -0.00000000000E+00 -0.20221213089E+03  0.20221213089E+03  0.00000000000E+00 0. -1.
        -24    2    1    2    0    0  0.59744088168E+02  0.62187468341E+02 -0.13938790854E+03  0.18155431324E+03  0.78079077345E+02 0.  0.
         25    2    1    2    0    0 -0.94516125711E+02 -0.13677852312E+03  0.27680076599E+03  0.34627766794E+03  0.12509155387E+03 0.  0.
         24    2    1    2    0    0  0.34772037543E+02  0.74591054779E+02  0.45395831783E+03  0.46796345587E+03  0.78349994614E+02 0.  0.
        -13    1    5    5    0    0  0.29684140266E+02 -0.79312019607E+01  0.11031606264E+03  0.11451500262E+03  0.00000000000E+00 0.  1.
         14    1    5    5    0    0  0.50878972769E+01  0.82522256740E+02  0.34364225518E+03  0.35344845325E+03  0.00000000000E+00 0. -1.
         11    1    3    3    0    0  0.25459769371E+02  0.74909509184E+02 -0.86160319512E+02  0.11697536100E+03  0.00000000000E+00 0. -1.
        -12    1    3    3    0    0  0.34284318797E+02 -0.12722040843E+02 -0.53227589031E+02  0.64578952242E+02  0.00000000000E+00 0.  1.
          5    1    4    4  501    0 -0.44903957539E+02 -0.58715455992E+02  0.25242110200E+02  0.78220884055E+02  0.41800000000E+01 0.  1.
         -5    1    4    4    0  501 -0.49612168172E+02 -0.78063067129E+02  0.25155865579E+03  0.26805678388E+03  0.41800000000E+01 0.  1.
</event>
<event>
11    1  0.8037748E-009  0.1760725E+03  0.7561462E-02  0.1072865E+00
         22   -1    0    0    0    0  0.00000000000E+00  0.00000000000E+00  0.15334829323E+04  0.15334829323E+04  0.00000000000E+00 0.  1.
         22   -1    0    0    0    0 -0.00000000000E+00 -0.00000000000E+00 -0.46596559046E+03  0.46596559046E+03  0.00000000000E+00 0. -1.
         24    2    1    2    0    0  0.12206150898E+03 -0.17508652943E+02 -0.43592867246E+03  0.46031755750E+03  0.81565197055E+02 0.  0.
         25    2    1    2    0    0 -0.17375428795E+03 -0.30331060013E+02  0.85673714352E+03  0.88360218682E+03  0.12507504022E+03 0.  0.
        -24    2    1    2    0    0  0.51692778970E+02  0.47839712956E+02  0.64670887075E+03  0.65552877841E+03  0.80776446300E+02 0.  0.
        -13    1    3    3    0    0  0.55406607094E+01 -0.86797780395E+01 -0.14501327961E+01  0.10399055392E+02  0.00000000000E+00 0.  1.
         14    1    3    3    0    0  0.11652084827E+03 -0.88288749030E+01 -0.43447853966E+03  0.44991850211E+03  0.00000000000E+00 0. -1.
         13    1    5    5    0    0 -0.15075600038E+02  0.36363611151E+02  0.22730336299E+03  0.23068681098E+03  0.00000000000E+00 0. -1.
        -14    1    5    5    0    0  0.66768379008E+02  0.11476101805E+02  0.41940550776E+03  0.42484196743E+03  0.00000000000E+00 0.  1.
          5    1    4    4  501    0 -0.32904650856E+02 -0.15381087967E+02  0.47513750582E+03  0.47654214478E+03  0.41800000000E+01 0. -1.
         -5    1    4    4    0  501 -0.14084963710E+03 -0.14949972046E+02  0.38159963770E+03  0.40706004204E+03  0.41800000000E+01 0. -1.
</event>
<event>
11    1  0.8037748E-009  0.1333143E+03  0.7561462E-02  0.1115263E+00
         22   -1    0    0    0    0  0.00000000000E+00  0.00000000000E+00  0.80838023463E+03  0.80838023463E+03  0.00000000000E+00 0. -1.
         22   -1    0    0    0    0 -0.00000000000E+00 -0.00000000000E+00 -0.10111976320E+03  0.10111976320E+03  0.00000000000E+00 0. -1.
         24    2    1    2    0    0  0.22391815397E+02  0.42438611205E+02 -0.41362089216E+02  0.10019102536E+03  0.77620809193E+02 0.  0.
         25    2    1    2    0    0  0.12079382352E+02 -0.44750292693E+02  0.13574256315E+03  0.19032314008E+03  0.12509338121E+03 0.  0.
        -24    2    1    2    0    0 -0.34471197749E+02  0.23116814880E+01  0.61287999749E+03  0.61898583240E+03  0.79548488613E+02 0.  0.
        -11    1    3    3    0    0  0.16326111830E+01  0.17889116282E+02  0.22441229257E+02  0.28745341730E+02  0.00000000000E+00 0.  1.
         12    1    3    3    0    0  0.20759204214E+02  0.24549494923E+02 -0.63803318473E+02  0.71445683626E+02  0.00000000000E+00 0. -1.
         13    1    5    5    0    0 -0.57441082255E+02 -0.85485841294E+01  0.33984611646E+03  0.34477230036E+03  0.00000000000E+00 0. -1.
        -14    1    5    5    0    0  0.22969884507E+02  0.10860265617E+02  0.27303388103E+03  0.27421353204E+03  0.00000000000E+00 0.  1.
          5    1    4    4  501    0  0.22580799615E+02 -0.14101730464E+02  0.15162447952E+03  0.15400067046E+03  0.41800000000E+01 0.  1.
         -5    1    4    4    0  501 -0.10501417264E+02 -0.30648562229E+02 -0.15881916366E+02  0.36322469612E+02  0.41800000000E+01 0.  1.
</event>
<event>
11    1  0.8037748E-009  0.1548005E+03  0.7561462E-02  0.1092072E+00
         22   -1    0    0    0    0  0.00000000000E+00  0.00000000000E+00  0.62946623152E+03  0.62946623152E+03  0.00000000000E+00 0.  1.
         22   -1    0    0    0    0 -0.00000000000E+00 -0.00000000000E+00 -0.10365557302E+03  0.10365557302E+03  0.00000000000E+00 0. -1.
        -24    2    1    2    0    0 -0.16768284997E+02  0.34079005191E+02  0.30435811380E+01  0.88425116225E+02  0.79794635263E+02 0.  0.
         25    2    1    2    0    0 -0.11687287766E+02 -0.11683589530E+03  0.86632647025E+02  0.19220440384E+03  0.12510035252E+03 0.  0.
         24    2    1    2    0    0  0.28455572763E+02  0.82756890104E+02  0.43613443034E+03  0.45249228448E+03  0.82931319212E+02 0.  0.
        -13    1    5    5    0    0  0.93685431409E+01  0.89796506821E+02  0.40740748526E+03  0.41729131465E+03  0.00000000000E+00 0.  1.
         14    1    5    5    0    0  0.19087029622E+02 -0.70396167161E+01  0.28726945077E+02  0.35200969828E+02  0.00000000000E+00 0. -1.
         11    1    3    3    0    0 -0.74425173467E+01  0.60093923605E+02 -0.55696118025E+00  0.60555601925E+02  0.00000000000E+00 0. -1.
        -12    1    3    3    0    0 -0.93257676505E+01 -0.26014918414E+02  0.36005423183E+01  0.27869514301E+02  0.00000000000E+00 0.  1.
          5    1    4    4  501    0  0.29176584514E+02 -0.33677982540E+02 -0.21577341559E+02  0.49684340195E+02  0.41800000000E+01 0.  1.
         -5    1    4    4    0  501 -0.40863872280E+02 -0.83157912755E+02  0.10820998858E+03  0.14252006364E+03  0.41800000000E+01 0.  1.
</event>
<event>
11    1  0.8037748E-009  0.1772697E+03  0.7561462E-02  0.1071873E+00
         22   -1    0    0    0    0  0.00000000000E+00  0.00000000000E+00  0.85717854813E+03  0.85717854813E+03  0.00000000000E+00 0. -1.
         22   -1    0    0    0    0 -0.00000000000E+00 -0.00000000000E+00 -0.10170843118E+04  0.10170843118E+04  0.00000000000E+00 0. -1.
         24    2    1    2    0    0 -0.47314327072E+02 -0.41933342553E+02 -0.82108156588E+03  0.83074797329E+03  0.10940843899E+03 0.  0.
         25    2    1    2    0    0 -0.52376089936E+02  0.11901411334E+03 -0.13990788539E+03  0.22832187215E+03  0.12509615076E+03 0.  0.
        -24    2    1    2    0    0  0.99690417008E+02 -0.77080770788E+02  0.80108368765E+03  0.81519301446E+03  0.83216294878E+02 0.  0.
        -11    1    3    3    0    0  0.76415205371E+01  0.27420233218E+02 -0.36845638139E+03  0.36955428155E+03  0.00000000000E+00 0.  1.
         12    1    3    3    0    0 -0.54955847609E+02 -0.69353575770E+02 -0.45262518449E+03  0.46119369173E+03  0.00000000000E+00 0. -1.
         13    1    5    5    0    0  0.71588604130E+02 -0.59276474726E+01  0.46474679500E+03  0.47026550874E+03  0.00000000000E+00 0. -1.
        -14    1    5    5    0    0  0.28101812878E+02 -0.71153123315E+02  0.33633689264E+03  0.34492750571E+03  0.00000000000E+00 0.  1.
          5    1    4    4  501    0 -0.51454414504E+02  0.14142585056E+03 -0.95197464248E+02  0.17812595987E+03  0.41800000000E+01 0. -1.
         -5    1    4    4    0  501 -0.92167543152E+00 -0.22411737222E+02 -0.44710421141E+02  0.50195912279E+02  0.41800000000E+01 0. -1.
</event>
<event>
11    1  0.8037748E-009  0.1683826E+03  0.7561462E-02  0.1079448E+00
         22   -1    0    0    0    0  0.00000000000E+00  0.00000000000E+00  0.97928429735E+02  0.97928429735E+02  0.00000000000E+00 0.  1.
         22   -1    0    0    0    0 -0.00000000000E+00 -0.00000000000E+00 -0.13054991869E+04  0.13054991869E+04  0.00000000000E+00 0.  1.
         24    2    1    2    0    0  0.40738943468E+02 -0.10340692209E+03 -0.10998238874E+04  0.11079764471E+04  0.75143669013E+02 0.  0.
         25    2    1    2    0    0 -0.59061645457E+02  0.12014419717E+03 -0.10285821891E+03  0.21011833335E+03  0.12508794800E+03 0.  0.
        -24    2    1    2    0    0  0.18322701989E+02 -0.16737275086E+02 -0.48886508219E+01  0.85332836149E+02  0.81498075026E+02 0.  0.
        -13    1    3    3    0    0  0.32518219493E+02 -0.11209642093E+03 -0.86382968316E+03  0.87167927800E+03  0.00000000000E+00 0.  1.
         14    1    3    3    0    0  0.82207239755E+01  0.86894988393E+01 -0.23599420425E+03  0.23629716912E+03  0.00000000000E+00 0. -1.
         11    1    5    5    0    0  0.19862015614E+02 -0.14211246280E+02 -0.41741603476E+02  0.48361354880E+02  0.00000000000E+00 0. -1.
        -12    1    5    5    0    0 -0.15393136251E+01 -0.25260288059E+01  0.36852952654E+02  0.36971481270E+02  0.00000000000E+00 0.  1.
          5    1    4    4  501    0 -0.30155736316E+02  0.78499503457E+02  0.11480927804E+02  0.84975435151E+02  0.41800000000E+01 0.  1.
         -5    1    4    4    0  501 -0.28905909141E+02  0.41644693716E+02 -0.11433914672E+03  0.12514289820E+03  0.41800000000E+01 0.  1.
</event>
<event>
11    1  0.1027901E-008  0.1849729E+03  0.7561462E-02  0.1065690E+00
         22   -1    0    0    0    0  0.00000000000E+00  0.00000000000E+00  0.12828021135E+04  0.12828021135E+04  0.00000000000E+00 0. -1.
         22   -1    0    0    0    0 -0.00000000000E+00 -0.00000000000E+00 -0.56555933626E+03  0.56555933626E+03  0.00000000000E+00 0.  1.
        -24    2    1    2    0    0 -0.14009526537E+00 -0.20067981205E+02 -0.33889744290E+03  0.34893047646E+03  0.80611767774E+02 0.  0.
         25    2    1    2    0    0 -0.12507320180E+03  0.73380757552E+02 -0.17430236111E+03  0.25895142616E+03  0.12508591700E+03 0.  0.
         24    2    1    2    0    0  0.12521329707E+03 -0.53312776347E+02  0.12304425813E+04  0.12404795472E+04  0.79246067771E+02 0.  0.
        -13    1    5    5    0    0 -0.68670743438E+01 -0.17220935648E+02  0.93378320464E+02  0.95200987744E+02  0.00000000000E+00 0.  1.
         14    1    5    5    0    0  0.13208037141E+03 -0.36091840699E+02  0.11370642608E+04  0.11452785594E+04  0.00000000000E+00 0. -1.
         11    1    3    3    0    0 -0.33652673039E+01  0.29072052558E+02 -0.75595617330E+02  0.81062979365E+02  0.00000000000E+00 0. -1.
        -12    1    3    3    0    0  0.32251720385E+01 -0.49140033763E+02 -0.26330182557E+03  0.26786749709E+03  0.00000000000E+00 0.  1.
          5    1    4    4  501    0 -0.57663912104E+02 -0.24545834340E+02 -0.10186789026E+03  0.11967524476E+03  0.41800000000E+01 0.  1.
         -5    1    4    4    0  501 -0.67409289700E+02  0.97926591892E+02 -0.72434470849E+02  0.13927618140E+03  0.41800000000E+01 0.  1.
</event>
<event>
11    1  0.8037748E-009  0.1602546E+03  0.7561462E-02  0.1086838E+00
         22   -1    0    0    0    0  0.00000000000E+00  0.00000000000E+00  0.81318093531E+03  0.81318093531E+03  0.00000000000E+00 0.  1.
         22   -1    0    0    0    0 -0.00000000000E+00 -0.00000000000E+00 -0.20435283188E+04  0.20435283188E+04  0.00000000000E+00 0. -1.
         24    2    1    2    0    0 -0.38601860154E+02  0.44178246891E+02 -0.16012490602E+04  0.16043553932E+04  0.80720838499E+02 0.  0.
         25    2    1    2    0    0  0.12204202456E+03 -0.98408274067E+02 -0.41251813168E+03  0.45869055693E+03  0.12508946352E+03 0.  0.
        -24    2    1    2    0    0 -0.83440164402E+02  0.54230027175E+02  0.78341980838E+03  0.79366330399E+03  0.79067610692E+02 0.  0.
        -13    1    3    3    0    0 -0.15331374985E+02 -0.76954231703E+01 -0.70722660807E+02  0.72773383515E+02  0.00000000000E+00 0.  1.
         14    1    3    3    0    0 -0.23270485168E+02  0.51873670062E+02 -0.15305263994E+04  0.15315820097E+04  0.00000000000E+00 0. -1.
         13    1    5    5    0    0 -0.31481207289E+02  0.58682888928E+02  0.29268579875E+03  0.30016616174E+03  0.00000000000E+00 0. -1.
        -14    1    5    5    0    0 -0.51958957112E+02 -0.44528617526E+01  0.49073400964E+03  0.49349714226E+03  0.00000000000E+00 0.  1.
          5    1    4    4  501    0  0.10214279729E+03 -0.24154884089E+01 -0.20068129259E+03  0.22523196757E+03  0.41800000000E+01 0. -1.
         -5    1    4    4    0  501  0.19899227262E+02 -0.95992785658E+02 -0.21183683910E+03  0.23345858935E+03  0.41800000000E+01 0. -1.
</event>
<event>
11    1  0.8037748E-009  0.2143920E+03  0.7561462E-02  0.1044788E+00
         22   -1    0    0    0    0  0.00000000000E+00  0.00000000000E+00  0.10542555224E+04  0.10542555224E+04  0.00000000000E+00 0. -1.
         22   -1    0    0    0    0 -0.00000000000E+00 -0.00000000000E+00 -0.50009446337E+03  0.50009446337E+03  0.00000000000E+00 0.  1.
         24    2    1    2    0    0  0.74162271962E+02  0.15472407414E+03 -0.43758741175E+03  0.47714106204E+03  0.82105227975E+02 0.  0.
         25    2    1    2    0    0 -0.78343724542E+02 -0.22208706407E+03  0.43076281604E+03  0.50662094504E+03  0.12509106711E+03 0.  0.
        -24    2    1    2    0    0  0.41814525806E+01  0.67362989931E+02  0.56098565475E+03  0.57058797869E+03  0.79438527325E+02 0.  0.
        -11    1    3    3    0    0  0.54839777734E+02  0.16069820347E+03 -0.38408661661E+03  0.41994504745E+03  0.00000000000E+00 0.  1.
         12    1    3    3    0    0  0.19322494227E+02 -0.59741293231E+01 -0.53500795143E+02  0.57196014593E+02  0.00000000000E+00 0. -1.
         13    1    5    5    0    0  0.16327739527E+02  0.56082145141E+02  0.17996242081E+03  0.18920432073E+03  0.00000000000E+00 0. -1.
        -14    1    5    5    0    0 -0.12146286946E+02  0.11280844790E+02  0.38102323395E+03  0.38138365795E+03  0.00000000000E+00 0.  1.
          5    1    4    4  501    0 -0.47078676135E+02 -0.13351619602E+02  0.13166361453E+03  0.14052561077E+03  0.41800000000E+01 0.  1.
         -5    1    4    4    0  501 -0.31265048407E+02 -0.20873544447E+03  0.29909920151E+03  0.36609533427E+03  0.41800000000E+01 0.  1.
</event>
<event>
11    1  0.8037748E-009  0.1883028E+03  0.7561462E-02  0.1063118E+00
         22   -1    0    0    0    0  0.00000000000E+00  0.00000000000E+00  0.18275000279E+03  0.18275000279E+03  0.00000000000E+00 0. -1.
         22   -1    0    0    0    0 -0.00000000000E+00 -0.00000000000E+00 -0.14331561459E+04  0.14331561459E+04  0.00000000000E+00 0.  1.
        -24    2    1    2    0    0 -0.85231683640E+01 -0.34350288197E+02 -0.10815294433E+04  0.10852623855E+04  0.82679633808E+02 0.  0.
         25    2    1    2    0    0 -0.15389621847E+02  0.16893379817E+03 -0.26966664241E+03  0.34226104658E+03  0.12508819828E+03 0.  0.
         24    2    1    2    0    0  0.23912790211E+02 -0.13458350998E+03  0.10078994265E+03  0.18838271661E+03  0.81516211170E+02 0.  0.
        -11    1    5    5    0    0 -0.51240913892E+01 -0.11227045800E+03  0.10195786886E+03  0.15174425549E+03  0.00000000000E+00 0.  1.
         12    1    5    5    0    0  0.29036881600E+02 -0.22313051975E+02 -0.11679262046E+01  0.36638461118E+02  0.00000000000E+00 0. -1.
         11    1    3    3    0    0  0.27558749187E+02 -0.13824052043E+02 -0.16900985292E+03  0.17179906710E+03  0.00000000000E+00 0. -1.
        -12    1    3    3    0    0 -0.36081917551E+02 -0.20526236154E+02 -0.91251959041E+03  0.91346331838E+03  0.00000000000E+00 0.  1.
          5    1    4    4  501    0 -0.38919286880E+02  0.59173423754E+01 -0.23474156701E+02  0.46024279080E+02  0.41800000000E+01 0.  1.
         -5    1    4    4    0  501  0.23529665033E+02  0.16301645580E+03 -0.24619248571E+03  0.29623676750E+03  0.41800000000E+01 0.  1.
</event>
<event>
11    1  0.8037748E-009  0.1410964E+03  0.7561462E-02  0.1106340E+00
         22   -1    0    0    0    0  0.00000000000E+00  0.00000000000E+00  0.42517421851E+03  0.42517421851E+03  0.00000000000E+00 0.  1.
         22   -1    0    0    0    0 -0.00000000000E+00 -0.00000000000E+00 -0.45789530140E+03  0.45789530140E+03  0.00000000000E+00 0. -1.
        -24    2    1    2    0    0 -0.95531640574E+01  0.24806043699E+02 -0.35989471788E+03  0.37331808978E+03  0.95580256599E+02 0.  0.
         25    2    1    2    0    0 -0.38978906202E+02  0.21589687660E+02 -0.31808510037E+02  0.13654587966E+03  0.12509007234E+03 0.  0.
         24    2    1    2    0    0  0.48532070260E+02 -0.46395731359E+02  0.35898214503E+03  0.37320555048E+03  0.76852304602E+02 0.  0.
        -13    1    5    5    0    0  0.65277946289E+02 -0.29394328358E+02  0.31634478573E+03  0.32434435446E+03  0.00000000000E+00 0.  1.
         14    1    5    5    0    0 -0.16745876029E+02 -0.17001403001E+02  0.42637359306E+02  0.48861196020E+02  0.00000000000E+00 0. -1.
         11    1    3    3    0    0 -0.24012859696E+02  0.17950092017E+02 -0.35544654400E+03  0.35670866106E+03  0.00000000000E+00 0. -1.
        -12    1    3    3    0    0  0.14459695638E+02  0.68559516814E+01 -0.44481738756E+01  0.16609428715E+02  0.00000000000E+00 0.  1.
          5    1    4    4  501    0  0.14275366731E+02  0.52161956911E+02  0.18230848428E+02  0.57223177808E+02  0.41800000000E+01 0.  1.
         -5    1    4    4    0  501 -0.53254272933E+02 -0.30572269251E+02 -0.50039358465E+02  0.79322701847E+02  0.41800000000E+01 0.  1.
</event>
<event>
11    1  0.8037748E-009  0.1609753E+03  0.7561462E-02  0.1086164E+00
         22   -1    0    0    0    0  0.00000000000E+00  0.00000000000E+00  0.68632414751E+03  0.68632414751E+03  0.00000000000E+00 0. -1.
         22   -1    0    0    0    0 -0.00000000000E+00 -0.00000000000E+00 -0.62830641316E+03  0.62830641316E+03  0.00000000000E+00 0.  1.
         24    2    1    2    0    0  0.45794958704E+02 -0.26881017646E+02 -0.55876540006E+03  0.56747452981E+03  0.83599057019E+02 0.  0.
         25    2    1    2    0    0 -0.88944826696E+02 -0.65220736557E+02  0.63446302974E+02  0.17843048915E+03  0.12508828652E+03 0.  0.
        -24    2    1    2    0    0  0.43149867992E+02  0.92101754202E+02  0.55333683144E+03  0.56872554170E+03  0.83201253137E+02 0.  0.
        -11    1    3    3    0    0  0.41421723070E+02 -0.72655853948E+01 -0.53366720778E+03  0.53532161972E+03  0.00000000000E+00 0.  1.
         12    1    3    3    0    0  0.43732356334E+01 -0.19615432251E+02 -0.25098192274E+02  0.32152910097E+02  0.00000000000E+00 0. -1.
         13    1    5    5    0    0  0.47059110354E+01  0.68153119973E+02  0.45926073336E+03  0.46431391813E+03  0.00000000000E+00 0. -1.
        -14    1    5    5    0    0  0.38443956956E+02  0.23948634229E+02  0.94076098082E+02  0.10441162358E+03  0.00000000000E+00 0.  1.
          5    1    4    4  501    0  0.29680758519E+02 -0.26394916360E+01  0.20964222590E+00  0.30090375408E+02  0.41800000000E+01 0.  1.
         -5    1    4    4    0  501 -0.11862558521E+03 -0.62581244921E+02  0.63236660748E+02  0.14834011374E+03  0.41800000000E+01 0.  1.
</event>
<event>
11    1  0.8037748E-009  0.1363330E+03  0.7561462E-02  0.1111724E+00
         22   -1    0    0    0    0  0.00000000000E+00  0.00000000000E+00  0.15308904311E+03  0.15308904311E+03  0.00000000000E+00 0.  1.
         22   -1    0    0    0    0 -0.00000000000E+00 -0.00000000000E+00 -0.10027701349E+04  0.10027701349E+04  0.00000000000E+00 0.  1.
         24    2    1    2    0    0  0.18128537362E+02 -0.61624311779E+01 -0.84093592867E+03  0.84492981411E+03  0.79790571080E+02 0.  0.
         25    2    1    2    0    0  0.91257301012E+01  0.53484361581E+02 -0.10703605528E+03  0.17334739004E+03  0.12509494242E+03 0.  0.
        -24    2    1    2    0    0 -0.27254267464E+02 -0.47321930403E+02  0.98290892177E+02  0.13758197384E+03  0.79281396617E+02 0.  0.
        -11    1    3    3    0    0  0.30876652856E+02  0.18072142333E+02 -0.72185498669E+03  0.72274102681E+03  0.00000000000E+00 0.  1.
         12    1    3    3    0    0 -0.12748115493E+02 -0.24234573511E+02 -0.11908094197E+03  0.12218878730E+03  0.00000000000E+00 0. -1.
         11    1    5    5    0    0 -0.26219187949E+02  0.14011212456E+02  0.12814292470E+02  0.32372302709E+02  0.00000000000E+00 0. -1.
        -12    1    5    5    0    0 -0.10350795150E+01 -0.61333142860E+02  0.85476599707E+02  0.10520967113E+03  0.00000000000E+00 0.  1.
          5    1    4    4  501    0  0.65027861061E+02  0.41609119409E+02 -0.74920218117E+02  0.10765896625E+03  0.41800000000E+01 0.  1.
         -5    1    4    4    0  501 -0.55902130960E+02  0.11875242172E+02 -0.32115837164E+02  0.65688423784E+02  0.41800000000E+01 0.  1.
</event>
<event>
11    1  0.8037748E-009  0.1734245E+03  0.7561462E-02  0.1075089E+00
         22   -1    0    0    0    0  0.00000000000E+00  0.00000000000E+00  0.92077781048E+03  0.92077781048E+03  0.00000000000E+00 0.  1.
         22   -1    0    0    0    0 -0.00000000000E+00 -0.00000000000E+00 -0.71551040368E+03  0.71551040368E+03  0.00000000000E+00 0. -1.
        -24    2    1    2    0    0  0.25182237892E+01  0.72185749548E+02 -0.63623535448E+03  0.64546291137E+03  0.81300798107E+02 0.  0.
         25    2    1    2    0    0  0.11777456172E+03 -0.63076675163E+02  0.54363281804E+02  0.19092834702E+03  0.12509497571E+03 0.  0.
         24    2    1    2    0    0 -0.12029278550E+03 -0.91090743848E+01  0.78713947948E+03  0.79989695578E+03  0.75453629644E+02 0.  0.
        -11    1    5    5    0    0 -0.10226892024E+03  0.23293559792E+02  0.60442287594E+03  0.61345622088E+03  0.00000000000E+00 0.  1.
         12    1    5    5    0    0 -0.18023865263E+02 -0.32402634177E+02  0.18271660354E+03  0.18644073490E+03  0.00000000000E+00 0. -1.
         13    1    3    3    0    0 -0.69176279124E+01  0.36321707326E+02 -0.55423156433E+03  0.55546354236E+03  0.00000000000E+00 0. -1.
        -14    1    3    3    0    0  0.94358517015E+01  0.35864042221E+02 -0.82003790158E+02  0.89999369010E+02  0.00000000000E+00 0.  1.
          5    1    4    4  501    0 -0.15191390329E+02  0.14652798621E+02 -0.10274348386E+02  0.23843604642E+02  0.41800000000E+01 0. -1.
         -5    1    4    4    0  501  0.13296595204E+03 -0.77729473784E+02  0.64637630191E+02  0.16708474237E+03  0.41800000000E+01 0. -1.
</event>
<event>
11    1  0.8037748E-009  0.1447953E+03  0.7561462E-02  0.1102319E+00
         22   -1    0    0    0    0  0.00000000000E+00  0.00000000000E+00  0.15022860706E+03  0.15022860706E+03  0.00000000000E+00 0. -1.
         22   -1    0    0    0    0 -0.00000000000E+00 -0.00000000000E+00 -0.68443589362E+03  0.68443589362E+03  0.00000000000E+00 0. -1.
         24    2    1    2    0    0 -0.67208782442E+02  0.23092000273E+02 -0.51553928648E+03  0.52686637521E+03  0.82201949580E+02 0.  0.
         25    2    1    2    0    0  0.66298849303E+02 -0.71254831757E+02 -0.97161006429E+02  0.18590538067E+03  0.12509101056E+03 0.  0.
        -24    2    1    2    0    0  0.90993313805E+00  0.48162831484E+02  0.78493006342E+02  0.12189274480E+03  0.79851129448E+02 0.  0.
        -11    1    3    3    0    0 -0.31072753319E+02  0.50329832786E+01 -0.46869690227E+02  0.56458965466E+02  0.00000000000E+00 0.  1.
         12    1    3    3    0    0 -0.36136029123E+02  0.18059016995E+02 -0.46866959625E+03  0.47040740975E+03  0.00000000000E+00 0. -1.
         13    1    5    5    0    0  0.26427102653E+02  0.17628687250E+02  0.75590371836E+02  0.81994308846E+02  0.00000000000E+00 0. -1.
        -14    1    5    5    0    0 -0.25517169515E+02  0.30534144234E+02  0.29026345061E+01  0.39898435949E+02  0.00000000000E+00 0.  1.
          5    1    4    4  501    0  0.91530366677E+02 -0.57450452318E+02 -0.29244260257E+02  0.11203152080E+03  0.41800000000E+01 0.  1.
         -5    1    4    4    0  501 -0.25231517373E+02 -0.13804379439E+02 -0.67916746172E+02  0.73873859864E+02  0.41800000000E+01 0.  1.
</event>
<event>
11    1  0.8037748E-009  0.5550285E+03  0.7561462E-02  0.9278323E-01
         22   -1    0    0    0    0  0.00000000000E+00  0.00000000000E+00  0.20622411226E+04  0.20622411226E+04  0.00000000000E+00 0. -1.
         22   -1    0    0    0    0 -0.00000000000E+00 -0.00000000000E+00 -0.95022495885E+03  0.95022495885E+03  0.00000000000E+00 0. -1.
         24    2    1    2    0    0 -0.75378893606E+02 -0.27354758655E+03 -0.70719823699E+03  0.76617944370E+03  0.79945818154E+02 0.  0.
         25    2    1    2    0    0  0.53867333614E+03  0.45403550715E+03  0.62693019045E+03  0.95131949963E+03  0.12510044707E+03 0.  0.
        -24    2    1    2    0    0 -0.46329444254E+03 -0.18048792060E+03  0.11922842103E+04  0.12949671381E+04  0.90446783998E+02 0.  0.
        -11    1    3    3    0    0 -0.20858591424E+02 -0.47620692732E+02 -0.65086485080E+02  0.83301030921E+02  0.00000000000E+00 0.  1.
         12    1    3    3    0    0 -0.54520302182E+02 -0.22592689382E+03 -0.64211175191E+03  0.68287841278E+03  0.00000000000E+00 0. -1.
         13    1    5    5    0    0 -0.24419801304E+03 -0.47279111564E+02  0.60632785721E+03  0.65536360472E+03  0.00000000000E+00 0. -1.
        -14    1    5    5    0    0 -0.21909642950E+03 -0.13320880903E+03  0.58595635307E+03  0.63960353339E+03  0.00000000000E+00 0.  1.
          5    1    4    4  501    0  0.45753386831E+03  0.41534133071E+03  0.58891121599E+03  0.85362729242E+03  0.41800000000E+01 0. -1.
         -5    1    4    4    0  501  0.81139467831E+02  0.38694176443E+02  0.38018974455E+02  0.97692207208E+02  0.41800000000E+01 0. -1.
</event>
<event>
11    1  0.8037748E-009  0.5173882E+03  0.7561462E-02  0.9355485E-01
         22   -1    0    0    0    0  0.00000000000E+00  0.00000000000E+00  0.20551840875E+04  0.20551840875E+04  0.00000000000E+00 0.  1.
         22   -1    0    0    0    0 -0.00000000000E+00 -0.00000000000E+00 -0.31420839428E+03  0.31420839428E+03  0.00000000000E+00 0. -1.
         24    2    1    2    0    0  0.13170991929E+02  0.59839242988E+02 -0.16893230538E+03  0.19698841579E+03  0.80697596771E+02 0.  0.
         25    2    1    2    0    0 -0.42242835184E+03 -0.31628651113E+03  0.91896699568E+03  0.10670662065E+04  0.12508829024E+03 0.  0.
        -24    2    1    2    0    0  0.40925735991E+03  0.25644726815E+03  0.99094100290E+03  0.11053378595E+04  0.80937780750E+02 0.  0.
        -11    1    3    3    0    0  0.13404774003E+02 -0.17981669169E+02 -0.50749817674E+02  0.55484884303E+02  0.00000000000E+00 0.  1.
         12    1    3    3    0    0 -0.23378207370E+00  0.77820912156E+02 -0.11818248771E+03  0.14150353149E+03  0.00000000000E+00 0. -1.
         13    1    5    5    0    0  0.17464118205E+03  0.70255938688E+02  0.33548039032E+03  0.38468497719E+03  0.00000000000E+00 0. -1.
        -14    1    5    5    0    0  0.23461617786E+03  0.18619132946E+03  0.65546061258E+03  0.72065288227E+03  0.00000000000E+00 0.  1.
          5    1    4    4  501    0 -0.30046460874E+02 -0.56812292700E+02  0.61622608071E+02  0.89136101768E+02  0.41800000000E+01 0. -1.
         -5    1    4    4    0  501 -0.39238189097E+03 -0.25947421843E+03  0.85734438761E+03  0.97793010474E+03  0.41800000000E+01 0. -1.
</event>
<event>
11    1  0.8037748E-009  0.1292873E+03  0.7561462E-02  0.1120148E+00
         22   -1    0    0    0    0  0.00000000000E+00  0.00000000000E+00  0.25649361179E+03  0.25649361179E+03  0.00000000000E+00 0. -1.
         22   -1    0    0    0    0 -0.00000000000E+00 -0.00000000000E+00 -0.34264548186E+03  0.34264548186E+03  0.00000000000E+00 0.  1.
        -24    2    1    2    0    0  0.26242509021E+02  0.11493202246E+02 -0.27307633446E+03  0.28609093414E+03  0.80352816860E+02 0.  0.
         25    2    1    2    0    0 -0.20760526143E+02 -0.42117312614E+02  0.34266882772E+02  0.13793578015E+03  0.12508873939E+03 0.  0.
         24    2    1    2    0    0 -0.54819828780E+01  0.30624110369E+02  0.15265758162E+03  0.17511237936E+03  0.79950734235E+02 0.  0.
        -13    1    5    5    0    0 -0.26211362573E+02 -0.18756388140E+02  0.56492798814E+02  0.65040556131E+02  0.00000000000E+00 0.  1.
         14    1    5    5    0    0  0.20729379695E+02  0.49380498508E+02  0.96164782808E+02  0.11007182322E+03  0.00000000000E+00 0. -1.
         11    1    3    3    0    0  0.88161089757E+01  0.45074903325E+02 -0.12228685626E+03  0.13062750821E+03  0.00000000000E+00 0. -1.
        -12    1    3    3    0    0  0.17426400045E+02 -0.33581701080E+02 -0.15078947821E+03  0.15546342593E+03  0.00000000000E+00 0.  1.
          5    1    4    4  501    0 -0.67731779024E+02 -0.37062571636E+01  0.36363879857E+02  0.77078754467E+02  0.41800000000E+01 0.  1.
         -5    1    4    4    0  501  0.46971252882E+02 -0.38411055450E+02 -0.20969970849E+01  0.60857025682E+02  0.41800000000E+01 0.  1.
</event>
<event>
11    1  0.8037748E-009  0.1349397E+03  0.7561462E-02  0.1113344E+00
         22   -1    0    0    0    0  0.00000000000E+00  0.00000000000E+00  0.11083552010E+04  0.11083552010E+04  0.00000000000E+00 0.  1.
         22   -1    0    0    0    0 -0.00000000000E+00 -0.00000000000E+00 -0.14228777809E+04  0.14228777809E+04  0.00000000000E+00 0. -1.
        -24    2    1    2    0    0  0.88569254364E+01  0.13727464304E+02 -0.13867194694E+04  0.13890579073E+04  0.78892931526E+02 0.  0.
         25    2    1    2    0    0  0.24090306197E+02  0.26160500372E+02  0.97397450238E+02  0.16247864173E+03  0.12509328948E+03 0.  0.
         24    2    1    2    0    0 -0.32947231633E+02 -0.39887964676E+02  0.97479943926E+03  0.97969643278E+03  0.83033630627E+02 0.  0.
        -11    1    5    5    0    0 -0.35143992039E+02 -0.50543814459E+02  0.95596682563E+03  0.95794694481E+03  0.00000000000E+00 0.  1.
         12    1    5    5    0    0  0.21967604058E+01  0.10655849783E+02  0.18832613631E+02  0.21749487973E+02  0.00000000000E+00 0. -1.
         13    1    3    3    0    0  0.25605768641E+02  0.14010565064E+02 -0.13181089261E+04  0.13184320583E+04  0.00000000000E+00 0. -1.
        -14    1    3    3    0    0 -0.16748843205E+02 -0.28310075952E+00 -0.68610543279E+02  0.70625848977E+02  0.00000000000E+00 0.  1.
          5    1    4    4  501    0  0.59294363386E+02 -0.21853733743E+02  0.76337451227E+02  0.99188134713E+02  0.41800000000E+01 0. -1.
         -5    1    4    4    0  501 -0.35204057190E+02  0.48014234115E+02  0.21059999011E+02  0.63290507018E+02  0.41800000000E+01 0. -1.
</event>
<event>
11    1  0.8037748E-009  0.1649859E+03  0.7561462E-02  0.1082479E+00
         22   -1    0    0    0    0  0.00000000000E+00  0.00000000000E+00  0.54407503382E+03  0.54407503382E+03  0.00000000000E+00 0.  1.
         22   -1    0    0    0    0 -0.00000000000E+00 -0.00000000000E+00 -0.18888038005E+03  0.18888038005E+03  0.00000000000E+00 0.  1.
         24    2    1    2    0    0  0.57118818189E+02  0.10578299463E+03 -0.11754428483E+03  0.18582378116E+03  0.79127854802E+02 0.  0.
         25    2    1    2    0    0 -0.58085426110E+02 -0.44518783552E+01  0.17747157390E+03  0.22480257998E+03  0.12508518887E+03 0.  0.
        -24    2    1    2    0    0  0.96660792052E+00 -0.10133111627E+03  0.29526736470E+03  0.32232905273E+03  0.80276223876E+02 0.  0.
        -13    1    3    3    0    0  0.49862307743E+02  0.95564595510E+02 -0.53077716993E+02  0.12015026296E+03  0.00000000000E+00 0.  1.
         14    1    3    3    0    0  0.72565104467E+01  0.10218399118E+02 -0.64466567836E+02  0.65673518201E+02  0.00000000000E+00 0. -1.
         13    1    5    5    0    0  0.35135721957E+02 -0.61054354074E+02  0.11867386502E+03  0.13800593954E+03  0.00000000000E+00 0. -1.
        -14    1    5    5    0    0 -0.34169114036E+02 -0.40276762198E+02  0.17659349967E+03  0.18432311319E+03  0.00000000000E+00 0.  1.
          5    1    4    4  501    0  0.25868600755E+02 -0.87798859295E+01  0.11936947675E+03  0.12252679413E+03  0.41800000000E+01 0. -1.
         -5    1    4    4    0  501 -0.83954026864E+02  0.43280075744E+01  0.58102097151E+02  0.10227578584E+03  0.41800000000E+01 0. -1.
</event>
<event>
11    1  0.8037748E-009  0.1613316E+03  0.7561462E-02  0.1085832E+00
         22   -1    0    0    0    0  0.00000000000E+00  0.00000000000E+00  0.15423175045E+04  0.15423175045E+04  0.00000000000E+00 0. -1.
         22   -1    0    0    0    0 -0.00000000000E+00 -0.00000000000E+00 -0.31305178965E+03  0.31305178965E+03  0.00000000000E+00 0. -1.
        -24    2    1    2    0    0  0.61393032195E+02 -0.39277218596E+02 -0.27321936080E+03  0.29414448192E+03  0.80996004999E+02 0.  0.
         25    2    1    2    0    0 -0.36839675195E+01  0.12309078930E+03  0.27677281705E+03  0.32774132656E+03  0.12508505446E+03 0.  0.
         24    2    1    2    0    0 -0.57709064675E+02 -0.83813570704E+02  0.12257122586E+04  0.12334834857E+04  0.93573061109E+02 0.  0.
        -13    1    5    5    0    0  0.95090464815E+01  0.15442009531E+02  0.18680230984E+03  0.18768052798E+03  0.00000000000E+00 0.  1.
         14    1    5    5    0    0 -0.67218111157E+02 -0.99255580234E+02  0.10389099488E+04  0.10458029577E+04  0.00000000000E+00 0. -1.
         11    1    3    3    0    0 -0.92803115882E+01 -0.37096420274E+02 -0.98061992379E+02  0.10525408747E+03  0.00000000000E+00 0. -1.
        -12    1    3    3    0    0  0.70673343783E+02 -0.21807983223E+01 -0.17515736842E+03  0.18889039445E+03  0.00000000000E+00 0.  1.
          5    1    4    4  501    0  0.31886498730E+02  0.36668398164E+02  0.20250507963E+03  0.20829570303E+03  0.41800000000E+01 0.  1.
         -5    1    4    4    0  501 -0.35570466249E+02  0.86422391135E+02  0.74267737425E+02  0.11944562353E+03  0.41800000000E+01 0.  1.
</event>
<event>
11    1  0.8037748E-009  0.1508737E+03  0.7561462E-02  0.1095989E+00
         22   -1    0    0    0    0  0.00000000000E+00  0.00000000000E+00  0.34251724190E+04  0.34251724190E+04  0.00000000000E+00 0. -1.
         22   -1    0    0    0    0 -0.00000000000E+00 -0.00000000000E+00 -0.36278284629E+03  0.36278284629E+03  0.00000000000E+00 0. -1.
        -24    2    1    2    0    0 -0.75203943226E+02  0.80056382704E+00 -0.31861074570E+03  0.33790968871E+03  0.83748889377E+02 0.  0.
         25    2    1    2    0    0  0.84537258579E+02 -0.84331350364E+02  0.18969143076E+03  0.25668840441E+03  0.12509106008E+03 0.  0.
         24    2    1    2    0    0 -0.93333153536E+01  0.83530786537E+02  0.31913088876E+04  0.31933571721E+04  0.77544242242E+02 0.  0.
        -11    1    5    5    0    0  0.24040562063E+02  0.49887992991E+02  0.23945559632E+04  0.23951962386E+04  0.00000000000E+00 0.  1.
         12    1    5    5    0    0 -0.33373877416E+02  0.33642793546E+02  0.79675292443E+03  0.79816093355E+03  0.00000000000E+00 0. -1.
         11    1    3    3    0    0 -0.64389092788E+02 -0.22185690286E+02 -0.29653331573E+03  0.30425345924E+03  0.00000000000E+00 0. -1.
        -12    1    3    3    0    0 -0.10814850438E+02  0.22986254113E+02 -0.22077429972E+02  0.33656229472E+02  0.00000000000E+00 0.  1.
          5    1    4    4  501    0  0.78904555638E+02 -0.10592345913E+03  0.19283368592E+03  0.23376914022E+03  0.41800000000E+01 0. -1.
         -5    1    4    4    0  501  0.56327029413E+01  0.21592108767E+02 -0.31422551615E+01  0.22919264188E+02  0.41800000000E+01 0. -1.
</event>
<event>
11    1  0.8037748E-009  0.1465915E+03  0.7561462E-02  0.1100413E+00
         22   -1    0    0    0    0  0.00000000000E+00  0.00000000000E+00  0.62777681550E+03  0.62777681550E+03  0.00000000000E+00 0.  1.
         22   -1    0    0    0    0 -0.00000000000E+00 -0.00000000000E+00 -0.56400663882E+03  0.56400663882E+03  0.00000000000E+00 0. -1.
         24    2    1    2    0    0  0.63048340067E+02 -0.37775396809E+02 -0.45377187127E+03  0.46675548426E+03  0.80930199171E+02 0.  0.
         25    2    1    2    0    0 -0.83079704691E+02  0.70620623975E+02 -0.31104516917E+02  0.16882422522E+03  0.12507844813E+03 0.  0.
        -24    2    1    2    0    0  0.20031364624E+02 -0.32845227166E+02  0.54864656487E+03  0.55620374485E+03  0.82882375198E+02 0.  0.
        -13    1    3    3    0    0  0.28618462199E+02 -0.15639806641E+02 -0.43097868432E+02  0.54046703820E+02  0.00000000000E+00 0.  1.
         14    1    3    3    0    0  0.34429877868E+02 -0.22135590168E+02 -0.41067400284E+03  0.41270878044E+03  0.00000000000E+00 0. -1.
         13    1    5    5    0    0 -0.21574131371E+01 -0.19902289551E+02  0.25463859032E+02  0.32390796187E+02  0.00000000000E+00 0. -1.
        -14    1    5    5    0    0  0.22188777761E+02 -0.12942937614E+02  0.52318270584E+03  0.52381294866E+03  0.00000000000E+00 0.  1.
          5    1    4    4  501    0 -0.59143489445E+02  0.87153269208E+02  0.22415023992E+02  0.10776618383E+03  0.41800000000E+01 0.  1.
         -5    1    4    4    0  501 -0.23936215245E+02 -0.16532645233E+02 -0.53519540909E+02  0.61058041385E+02  0.41800000000E+01 0.  1.
</event>
<event>
11    1  0.8037748E-009  0.1795143E+03  0.7561462E-02  0.1070036E+00
         22   -1    0    0    0    0  0.00000000000E+00  0.00000000000E+00  0.88218712895E+03  0.88218712895E+03  0.00000000000E+00 0. -1.
         22   -1    0    0    0    0 -0.00000000000E+00 -0.00000000000E+00 -0.67442425531E+03  0.67442425531E+03  0.00000000000E+00 0.  1.
        -24    2    1    2    0    0  0.59227419526E+02  0.11237820997E+03 -0.57172025961E+03  0.59121821449E+03  0.80858967331E+02 0.  0.
         25    2    1    2    0    0 -0.79521956410E+02 -0.12411787565E+03  0.12187183279E+02  0.19371587597E+03  0.12509326345E+03 0.  0.
         24    2    1    2    0    0  0.20294536885E+02  0.11739665673E+02  0.76729594998E+03  0.77167729380E+03  0.78696143070E+02 0.  0.
        -11    1    5    5    0    0 -0.22577913139E+02 -0.43635230494E+01  0.49679485255E+03  0.49732678192E+03  0.00000000000E+00 0.  1.
         12    1    5    5    0    0  0.42872450023E+02  0.16103188722E+02  0.27050109742E+03  0.27435051187E+03  0.00000000000E+00 0. -1.
         13    1    3    3    0    0  0.36022908729E+02  0.85329640750E+02 -0.23463984976E+03  0.25225910616E+03  0.00000000000E+00 0. -1.
        -14    1    3    3    0    0  0.23204510797E+02  0.27048569224E+02 -0.33708040985E+03  0.33895910833E+03  0.00000000000E+00 0.  1.
          5    1    4    4  501    0 -0.10214928704E+02 -0.36726402444E+02 -0.52266713588E+02  0.64826346142E+02  0.41800000000E+01 0. -1.
         -5    1    4    4    0  501 -0.69307027706E+02 -0.87391473204E+02  0.64453896867E+02  0.12888952983E+03  0.41800000000E+01 0. -1.
</event>
<event>
11    1  0.8037748E-009  0.1554980E+03  0.7561462E-02  0.1091390E+00
         22   -1    0    0    0    0  0.00000000000E+00  0.00000000000E+00  0.42166569468E+03  0.42166569468E+03  0.00000000000E+00 0.  1.
         22   -1    0    0    0    0 -0.00000000000E+00 -0.00000000000E+00 -0.10759091736E+04  0.10759091736E+04  0.00000000000E+00 0.  1.
         24    2    1    2    0    0  0.41427459374E+02 -0.67038334395E+02 -0.52599308686E+03  0.53801251264E+03  0.81107112275E+02 0.  0.
         25    2    1    2    0    0 -0.65959614324E+02  0.10638466628E+03 -0.52407820858E+03  0.55314910236E+03  0.12509033853E+03 0.  0.
        -24    2    1    2    0    0  0.24532154950E+02 -0.39346331886E+02  0.39582781655E+03  0.40641325325E+03  0.79637375669E+02 0.  0.
        -11    1    3    3    0    0  0.19206399843E+02 -0.40358937675E+02 -0.88523761098E+02  0.99167464040E+02  0.00000000000E+00 0.  1.
         12    1    3    3    0    0  0.22221059531E+02 -0.26679396720E+02 -0.43746932577E+03  0.43884504860E+03  0.00000000000E+00 0. -1.
         11    1    5    5    0    0  0.12847391412E+02  0.22589124032E+02  0.72931792705E+02  0.77423319342E+02  0.00000000000E+00 0. -1.
        -12    1    5    5    0    0  0.11684763537E+02 -0.61935455918E+02  0.32289602384E+03  0.32898993391E+03  0.00000000000E+00 0.  1.
          5    1    4    4  501    0 -0.78843418876E+02  0.11218440049E+02 -0.26846447416E+03  0.28005853743E+03  0.41800000000E+01 0. -1.
         -5    1    4    4    0  501  0.12883804552E+02  0.95166226232E+02 -0.25561373442E+03  0.27309056494E+03  0.41800000000E+01 0. -1.
</event>
<event>
11    1  0.8037748E-009  0.1549184E+03  0.7561462E-02  0.1091956E+00
         22   -1    0    0    0    0  0.00000000000E+00  0.00000000000E+00  0.47282870471E+03  0.47282870471E+03  0.00000000000E+00 0. -1.
         22   -1    0    0    0    0 -0.00000000000E+00 -0.00000000000E+00 -0.41695128994E+04  0.41695128994E+04  0.00000000000E+00 0. -1.
        -24    2    1    2    0    0  0.73129875641E+01  0.70615387243E+02 -0.41155601237E+04  0.41169082837E+04  0.77837469595E+02 0.  0.
         25    2    1    2    0    0 -0.31192300587E+02 -0.14217472279E+03  0.18314756540E+03  0.26528848238E+03  0.12509331220E+03 0.  0.
         24    2    1    2    0    0  0.23879313023E+02  0.71559335543E+02  0.23572836368E+03  0.26014483800E+03  0.80103153511E+02 0.  0.
        -13    1    5    5    0    0 -0.66220541551E+00  0.23370395232E+02  0.60002003074E+01  0.24137445868E+02  0.00000000000E+00 0.  1.
         14    1    5    5    0    0  0.24541518439E+02  0.48188940310E+02  0.22972816337E+03  0.23600739213E+03  0.00000000000E+00 0. -1.
         13    1    3    3    0    0  0.29271642955E+02  0.76420258780E+02 -0.29938499041E+04  0.29949681356E+04  0.00000000000E+00 0. -1.
        -14    1    3    3    0    0 -0.21958655390E+02 -0.58048715372E+01 -0.11217102196E+04  0.11219401481E+04  0.00000000000E+00 0.  1.
          5    1    4    4  501    0 -0.64630847188E+02 -0.39153122311E+02  0.39604509310E+02  0.85417228664E+02  0.41800000000E+01 0.  1.
         -5    1    4    4    0  501  0.33438546601E+02 -0.10302160047E+03  0.14354305609E+03  0.17987125372E+03  0.41800000000E+01 0.  1.
</event>
<event>
11    1  0.8037748E-009  0.1419250E+03  0.7561462E-02  0.1105428E+00
         22   -1    0    0    0    0  0.00000000000E+00  0.00000000000E+00  0.28493241710E+04  0.28493241710E+04  0.00000000000E+00 0.  1.
         22   -1    0    0    0    0 -0.00000000000E+00 -0.00000000000E+00 -0.83349631834E+02  0.83349631834E+02  0.00000000000E+00 0. -1.
        -24    2    1    2    0    0 -0.64100263844E+02 -0.12794022188E+02 -0.20801787057E+02  0.12931414570E+03  0.10962163611E+03 0.  0.
         25    2    1    2    0    0  0.10383494648E+03 -0.33495116749E+02  0.94070579219E+03  0.95523746766E+03  0.12509042014E+03 0.  0.
         24    2    1    2    0    0 -0.39734682631E+02  0.46289138937E+02  0.18460705340E+04  0.18481221895E+04  0.62110234431E+02 0.  0.
        -11    1    5    5    0    0 -0.34836357377E+02  0.51346846573E+02  0.18216619697E+04  0.18227184100E+04  0.00000000000E+00 0.  1.
         12    1    5    5    0    0 -0.48983252536E+01 -0.50577076356E+01  0.24408564331E+02  0.25403779434E+02  0.00000000000E+00 0. -1.
         11    1    3    3    0    0 -0.35809319875E+01  0.37550991214E+02 -0.32420234427E+02  0.49739035127E+02  0.00000000000E+00 0. -1.
        -12    1    3    3    0    0 -0.60519331857E+02 -0.50345013402E+02  0.11618447370E+02  0.79575110570E+02  0.00000000000E+00 0.  1.
          5    1    4    4  501    0  0.63402535464E+02  0.44590855332E+02  0.47087575899E+03  0.47723126332E+03  0.41800000000E+01 0.  1.
         -5    1    4    4    0  501  0.40432411011E+02 -0.78085972081E+02  0.46983003320E+03  0.47800620434E+03  0.41800000000E+01 0.  1.
</event>
<event>
11    1  0.8037748E-009  0.1447766E+03  0.7561462E-02  0.1102339E+00
         22   -1    0    0    0    0  0.00000000000E+00  0.00000000000E+00  0.19009466002E+03  0.19009466002E+03  0.00000000000E+00 0. -1.
         22   -1    0    0    0    0 -0.00000000000E+00 -0.00000000000E+00 -0.58079727289E+03  0.58079727289E+03  0.00000000000E+00 0.  1.
        -24    2    1    2    0    0  0.64376668443E+02 -0.25255326671E+02 -0.43829593988E+03  0.45066669428E+03  0.78834963382E+02 0.  0.
         25    2    1    2    0    0 -0.10859331178E+03  0.17798799336E+02 -0.61501729489E+02  0.17759290417E+03  0.12508985674E+03 0.  0.
         24    2    1    2    0    0  0.44216643339E+02  0.74565273342E+01  0.10909505651E+03  0.14263233446E+03  0.80196883546E+02 0.  0.
        -11    1    5    5    0    0  0.46840962250E+02  0.32290379864E+02  0.41067558744E+02  0.70166151080E+02  0.00000000000E+00 0.  1.
         12    1    5    5    0    0 -0.26243189113E+01 -0.24833852530E+02  0.68027497767E+02  0.72466183380E+02  0.00000000000E+00 0. -1.
         13    1    3    3    0    0 -0.12021391602E+02 -0.22828425378E+02 -0.15990254587E+03  0.16197059930E+03  0.00000000000E+00 0. -1.
        -14    1    3    3    0    0  0.76398060045E+02 -0.24269012927E+01 -0.27839339402E+03  0.28869609499E+03  0.00000000000E+00 0.  1.
          5    1    4    4  501    0  0.16241423921E+02  0.22901077723E+02  0.13898572466E+02  0.31605156675E+02  0.41800000000E+01 0. -1.
         -5    1    4    4    0  501 -0.12483473570E+03 -0.51022783862E+01 -0.75400301955E+02  0.14598774749E+03  0.41800000000E+01 0. -1.
</event>
<event>
11    1  0.8037748E-009  0.2654048E+03  0.7561462E-02  0.1015998E+00
         22   -1    0    0    0    0  0.00000000000E+00  0.00000000000E+00  0.16844430143E+03  0.16844430143E+03  0.00000000000E+00 0.  1.
         22   -1    0    0    0    0 -0.00000000000E+00 -0.00000000000E+00 -0.21413454745E+04  0.21413454745E+04  0.00000000000E+00 0. -1.
         24    2    1    2    0    0  0.10615378325E+03  0.21775006492E+03 -0.12705517295E+04  0.12959384500E+04  0.80442852573E+02 0.  0.
         25    2    1    2    0    0  0.32354823920E+01 -0.23641312568E+03 -0.80123406012E+03  0.84470445917E+03  0.12509184584E+03 0.  0.
        -24    2    1    2    0    0 -0.10938926565E+03  0.18663060766E+02  0.98884616521E+02  0.16914686673E+03  0.80735208341E+02 0.  0.
        -13    1    3    3    0    0  0.19548195301E+02  0.32474349489E+02 -0.39514131044E+03  0.39695512407E+03  0.00000000000E+00 0.  1.
         14    1    3    3    0    0  0.86605587953E+02  0.18527571543E+03 -0.87541041904E+03  0.89898332596E+03  0.00000000000E+00 0. -1.
         11    1    5    5    0    0 -0.25974752251E+02  0.32529124416E+01 -0.12606524067E+02  0.29055010634E+02  0.00000000000E+00 0. -1.
        -12    1    5    5    0    0 -0.83414513394E+02  0.15410148324E+02  0.11149114059E+03  0.14009185610E+03  0.00000000000E+00 0.  1.
          5    1    4    4  501    0 -0.47536765553E+02 -0.19802029723E+03 -0.60746335566E+03  0.64070350636E+03  0.41800000000E+01 0.  1.
         -5    1    4    4    0  501  0.50772247945E+02 -0.38392828454E+02 -0.19377070447E+03  0.20400095281E+03  0.41800000000E+01 0.  1.
</event>
<event>
11    1  0.8037748E-009  0.2324380E+03  0.7561462E-02  0.1033694E+00
         22   -1    0    0    0    0  0.00000000000E+00  0.00000000000E+00  0.16388935959E+04  0.16388935959E+04  0.00000000000E+00 0. -1.
         22   -1    0    0    0    0 -0.00000000000E+00 -0.00000000000E+00 -0.13870555770E+04  0.13870555770E+04  0.00000000000E+00 0.  1.
         24    2    1    2    0    0  0.19369705544E+03 -0.31121349954E+02 -0.13263559577E+04  0.13431303458E+04  0.79321570822E+02 0.  0.
         25    2    1    2    0    0 -0.19616284278E+03 -0.46185473374E+02  0.23148679244E+03  0.33143025694E+03  0.12508765447E+03 0.  0.
        -24    2    1    2    0    0  0.24657873406E+01  0.77306823328E+02  0.13467071841E+04  0.13513885701E+04  0.81537737511E+02 0.  0.
        -11    1    3    3    0    0  0.18005229977E+03 -0.17453552013E+02 -0.10018736320E+04  0.10180737849E+04  0.00000000000E+00 0.  1.
         12    1    3    3    0    0  0.13644755674E+02 -0.13667797941E+02 -0.32448232574E+03  0.32505656088E+03  0.00000000000E+00 0. -1.
         13    1    5    5    0    0 -0.61653231672E+01  0.85263448179E+00  0.71308090071E+03  0.71310806275E+03  0.00000000000E+00 0. -1.
        -14    1    5    5    0    0  0.86311105079E+01  0.76454188846E+02  0.63362628343E+03  0.63828050739E+03  0.00000000000E+00 0.  1.
          5    1    4    4  501    0 -0.10865867811E+03 -0.60357870548E+02  0.20329067331E+03  0.23831565438E+03  0.41800000000E+01 0.  1.
         -5    1    4    4    0  501 -0.87504164671E+02  0.14172397174E+02  0.28196119130E+02  0.93114602563E+02  0.41800000000E+01 0.  1.
</event>
<event>
11    1  0.8037748E-009  0.3418188E+03  0.7561462E-02  0.9838975E-01
         22   -1    0    0    0    0  0.00000000000E+00  0.00000000000E+00  0.51873628558E+03  0.51873628558E+03  0.00000000000E+00 0.  1.
         22   -1    0    0    0    0 -0.00000000000E+00 -0.00000000000E+00 -0.27131937523E+04  0.27131937523E+04  0.00000000000E+00 0. -1.
         24    2    1    2    0    0 -0.25917598286E+03 -0.18409522673E+03 -0.24748830807E+04  0.24964710122E+04  0.79107579826E+02 0.  0.
         25    2    1    2    0    0  0.27606168849E+03  0.16491030454E+03 -0.89058426487E+02  0.35634790878E+03  0.12508782662E+03 0.  0.
        -24    2    1    2    0    0 -0.16885705625E+02  0.19184922196E+02  0.36948404046E+03  0.37911111686E+03  0.80954273991E+02 0.  0.
        -13    1    3    3    0    0 -0.23042099503E+01  0.58328944602E+01 -0.22143978677E+02  0.23014948032E+02  0.00000000000E+00 0.  1.
         14    1    3    3    0    0 -0.25687177291E+03 -0.18992812119E+03 -0.24527391020E+04  0.24734560642E+04  0.00000000000E+00 0. -1.
         13    1    5    5    0    0  0.46711958195E+01  0.43388941925E+02  0.12314249571E+03  0.13064644887E+03  0.00000000000E+00 0. -1.
        -14    1    5    5    0    0 -0.21556901444E+02 -0.24204019729E+02  0.24634154475E+03  0.24846466799E+03  0.00000000000E+00 0.  1.
          5    1    4    4  501    0  0.27357065154E+03  0.16141299285E+03 -0.10874868444E+03  0.33576599651E+03  0.41800000000E+01 0.  1.
         -5    1    4    4    0  501  0.24910369448E+01  0.34973116905E+01  0.19690257957E+02  0.20581912267E+02  0.41800000000E+01 0.  1.
</event>
<event>
11    1  0.8037748E-009  0.2411570E+03  0.7561462E-02  0.1028718E+00
         22   -1    0    0    0    0  0.00000000000E+00  0.00000000000E+00  0.65038022445E+03  0.65038022445E+03  0.00000000000E+00 0. -1.
         22   -1    0    0    0    0 -0.00000000000E+00 -0.00000000000E+00 -0.17952064358E+03  0.17952064358E+03  0.00000000000E+00 0. -1.
        -24    2    1    2    0    0  0.19356245921E+03  0.75128651068E+02 -0.31036605151E+02  0.22521278766E+03  0.81527842119E+02 0.  0.
         25    2    1    2    0    0 -0.17900506424E+03 -0.94485978420E+02  0.27867187185E+03  0.36643405097E+03  0.12508192677E+03 0.  0.
         24    2    1    2    0    0 -0.14557394972E+02  0.19357327352E+02  0.22322431417E+03  0.23825402941E+03  0.79682270432E+02 0.  0.
        -11    1    5    5    0    0 -0.38946052252E+02  0.31708012207E+02  0.98445754986E+02  0.11051587985E+03  0.00000000000E+00 0.  1.
         12    1    5    5    0    0  0.24388657279E+02 -0.12350684854E+02  0.12477855918E+03  0.12773814956E+03  0.00000000000E+00 0. -1.
         11    1    3    3    0    0  0.15501979544E+03  0.82759332500E+02 -0.48377828669E+02  0.18226535162E+03  0.00000000000E+00 0. -1.
        -12    1    3    3    0    0  0.38542663765E+02 -0.76306814321E+01  0.17341223518E+02  0.42947436039E+02  0.00000000000E+00 0.  1.
          5    1    4    4  501    0 -0.65506157004E+02 -0.33152175117E+02  0.20504621525E+03  0.21783375796E+03  0.41800000000E+01 0. -1.
         -5    1    4    4    0  501 -0.11349890723E+03 -0.61333803303E+02  0.73625656605E+02  0.14860029300E+03  0.41800000000E+01 0. -1.
</event>
<event>
11    1  0.8037748E-009  0.1398764E+03  0.7561462E-02  0.1107697E+00
         22   -1    0    0    0    0  0.00000000000E+00  0.00000000000E+00  0.11163944367E+04  0.11163944367E+04  0.00000000000E+00 0.  1.
         22   -1    0    0    0    0 -0.00000000000E+00 -0.00000000000E+00 -0.23946036542E+04  0.23946036542E+04  0.00000000000E+00 0. -1.
         24    2    1    2    0    0  0.42192703553E+01 -0.62214665579E+02 -0.22704655331E+04  0.22727205625E+04  0.79727983039E+02 0.  0.
         25    2    1    2    0    0 -0.26820768400E+02  0.71131229066E+02 -0.77199912775E+02  0.16547812664E+03  0.12507669046E+03 0.  0.
        -24    2    1    2    0    0  0.22601498045E+02 -0.89165634875E+01  0.10694562284E+04  0.10727994018E+04  0.81065401349E+02 0.  0.
        -13    1    3    3    0    0 -0.15468912632E+02  0.13291945289E+02 -0.28876457185E+03  0.28948392187E+03  0.00000000000E+00 0.  1.
         14    1    3    3    0    0  0.19688182987E+02 -0.75506610867E+02 -0.19817009612E+04  0.19832366406E+04  0.00000000000E+00 0. -1.
         13    1    5    5    0    0 -0.23533634326E+02 -0.88856011262E+01  0.14303619486E+03  0.14523132890E+03  0.00000000000E+00 0. -1.
        -14    1    5    5    0    0  0.46135132371E+02 -0.30962361331E-01  0.92642003350E+03  0.92756807290E+03  0.00000000000E+00 0.  1.
          5    1    4    4  501    0 -0.30215399851E+02 -0.27519681158E+02 -0.16696126912E+01  0.41116459548E+02  0.41800000000E+01 0. -1.
         -5    1    4    4    0  501  0.33946314508E+01  0.98650910224E+02 -0.75530300084E+02  0.12436166709E+03  0.41800000000E+01 0. -1.
</event>
<event>
11    1  0.8037748E-009  0.1374790E+03  0.7561462E-02  0.1110407E+00
         22   -1    0    0    0    0  0.00000000000E+00  0.00000000000E+00  0.22451339652E+03  0.22451339652E+03  0.00000000000E+00 0.  1.
         22   -1    0    0    0    0 -0.00000000000E+00 -0.00000000000E+00 -0.60227300132E+03  0.60227300132E+03  0.00000000000E+00 0.  1.
        -24    2    1    2    0    0 -0.65996669014E+01 -0.56210956649E+02 -0.48145898665E+03  0.49144183344E+03  0.80678947577E+02 0.  0.
         25    2    1    2    0    0  0.35343444229E+02  0.56947713175E+02 -0.57344472631E+02  0.15305821940E+03  0.12508488677E+03 0.  0.
         24    2    1    2    0    0 -0.28743777327E+02 -0.73675652625E+00  0.16104385448E+03  0.18228634499E+03  0.80414183817E+02 0.  0.
        -13    1    5    5    0    0  0.12937328218E+02 -0.29733900716E+02  0.43600256069E+02  0.54336558987E+02  0.00000000000E+00 0.  1.
         14    1    5    5    0    0 -0.41681105545E+02  0.28997144190E+02  0.11744359841E+03  0.12794978600E+03  0.00000000000E+00 0. -1.
         11    1    3    3    0    0  0.16131330101E+02  0.50988611966E+01 -0.24176416926E+02  0.29507919813E+02  0.00000000000E+00 0. -1.
        -12    1    3    3    0    0 -0.22730997002E+02 -0.61309817846E+02 -0.45728256972E+03  0.46193391363E+03  0.00000000000E+00 0.  1.
          5    1    4    4  501    0  0.22550666093E+02 -0.26109822238E+02  0.18858225839E+02  0.39539353059E+02  0.41800000000E+01 0. -1.
         -5    1    4    4    0  501  0.12792778135E+02  0.83057535413E+02 -0.76202698471E+02  0.11351886634E+03  0.41800000000E+01 0. -1.
</event>
<event>
11    1  0.8037748E-009  0.1640965E+03  0.7561462E-02  0.1083286E+00
         22   -1    0    0    0    0  0.00000000000E+00  0.00000000000E+00  0.13945121339E+03  0.13945121339E+03  0.00000000000E+00 0. -1.
         22   -1    0    0    0    0 -0.00000000000E+00 -0.00000000000E+00 -0.41805162815E+04  0.41805162815E+04  0.00000000000E+00 0. -1.
         24    2    1    2    0    0 -0.10522282105E+03 -0.11735351567E+02 -0.38960809238E+04  0.38983811746E+04  0.81973510947E+02 0.  0.
         25    2    1    2    0    0  0.11872542732E+03 -0.33952057527E+02 -0.23434274090E+03  0.29293859051E+03  0.12509207927E+03 0.  0.
        -24    2    1    2    0    0 -0.13502606269E+02  0.45687409094E+02  0.89358596626E+02  0.12864772983E+03  0.79344942329E+02 0.  0.
        -13    1    3    3    0    0 -0.47972388750E+01  0.24196705002E+02 -0.10786815945E+04  0.10789636121E+04  0.00000000000E+00 0.  1.
         14    1    3    3    0    0 -0.10042558218E+03 -0.35932056570E+02 -0.28173993294E+04  0.28194175624E+04  0.00000000000E+00 0. -1.
         13    1    5    5    0    0 -0.29174295427E+02  0.44777793081E+02  0.97333178996E+02  0.11104025396E+03  0.00000000000E+00 0. -1.
        -14    1    5    5    0    0  0.15671689158E+02  0.90961601327E+00 -0.79745823700E+01  0.17607475865E+02  0.00000000000E+00 0.  1.
          5    1    4    4  501    0  0.74329121504E+02  0.38909400286E+02 -0.77249941836E+02  0.11412180181E+03  0.41800000000E+01 0.  1.
         -5    1    4    4    0  501  0.44396305819E+02 -0.72861457812E+02 -0.15709279906E+03  0.17881678870E+03  0.41800000000E+01 0.  1.
</event>
<event>
11    1  0.8037748E-009  0.1301252E+03  0.7561462E-02  0.1119115E+00
         22   -1    0    0    0    0  0.00000000000E+00  0.00000000000E+00  0.23070873642E+03  0.23070873642E+03  0.00000000000E+00 0. -1.
         22   -1    0    0    0    0 -0.00000000000E+00 -0.00000000000E+00 -0.27547822083E+03  0.27547822083E+03  0.00000000000E+00 0. -1.
        -24    2    1    2    0    0 -0.65481929386E+00 -0.38116982651E+02 -0.11795880871E+03  0.14828585750E+03  0.81370030291E+02 0.  0.
         25    2    1    2    0    0 -0.29715085197E+02  0.14629201176E+02 -0.92939282923E+02  0.15932044728E+03  0.12509314448E+03 0.  0.
         24    2    1    2    0    0  0.30369904491E+02  0.23487781475E+02  0.16612860722E+03  0.19858065245E+03  0.10179172075E+03 0.  0.
        -13    1    5    5    0    0 -0.17134910598E+02 -0.85020389831E+01 -0.35874151589E+01  0.19461741330E+02  0.00000000000E+00 0.  1.
         14    1    5    5    0    0  0.47504815088E+02  0.31989820458E+02  0.16971602238E+03  0.17911891112E+03  0.00000000000E+00 0. -1.
         13    1    3    3    0    0  0.18201382040E+02 -0.17087640462E+02 -0.11741043959E+03  0.12003536600E+03  0.00000000000E+00 0. -1.
        -14    1    3    3    0    0 -0.18856201334E+02 -0.21029342188E+02 -0.54836911277E+00  0.28250491506E+02  0.00000000000E+00 0.  1.
          5    1    4    4  501    0 -0.54711853994E+02  0.51814411358E+02 -0.84923425946E+02  0.11361153492E+03  0.41800000000E+01 0.  1.
         -5    1    4    4    0  501  0.24996768797E+02 -0.37185210182E+02 -0.80158569774E+01  0.45708912366E+02  0.41800000000E+01 0.  1.
</event>
<event>
11    1  0.1297578E-008  0.1864186E+03  0.7561462E-02  0.1064566E+00
         22   -1    0    0    0    0  0.00000000000E+00  0.00000000000E+00  0.66695522666E+03  0.66695522666E+03  0.00000000000E+00 0. -1.
         22   -1    0    0    0    0 -0.00000000000E+00 -0.00000000000E+00 -0.30879361512E+03  0.30879361512E+03  0.00000000000E+00 0. -1.
        -24    2    1    2    0    0  0.30366742699E+02 -0.42047035761E+02 -0.21706911575E+03  0.24937360244E+03  0.11125691126E+03 0.  0.
         25    2    1    2    0    0  0.10601325462E+03  0.78273569746E+02  0.68611835725E+02  0.19421927493E+03  0.12509188973E+03 0.  0.
         24    2    1    2    0    0 -0.13637999732E+03 -0.36226533985E+02  0.50661889156E+03  0.53215596440E+03  0.81335132183E+02 0.  0.
        -11    1    5    5    0    0 -0.88768631851E+01 -0.73269403235E+01  0.30706219744E+01  0.11912660233E+02  0.00000000000E+00 0.  1.
         12    1    5    5    0    0 -0.12750313414E+03 -0.28899593661E+02  0.50354826959E+03  0.52024330417E+03  0.00000000000E+00 0. -1.
         13    1    3    3    0    0  0.81996029338E+01 -0.54703713142E+02 -0.21690507296E+03  0.22384713622E+03  0.00000000000E+00 0. -1.
        -14    1    3    3    0    0  0.22167139765E+02  0.12656677381E+02 -0.16404279303E+00  0.25526466221E+02  0.00000000000E+00 0.  1.
          5    1    4    4  501    0  0.76386367416E+02  0.55947521672E+02 -0.21059325686E+02  0.97087434339E+02  0.41800000000E+01 0.  1.
         -5    1    4    4    0  501  0.29626887208E+02  0.22326048074E+02  0.89671161411E+02  0.97131840593E+02  0.41800000000E+01 0.  1.
</event>
<event>
11    1  0.8037748E-009  0.1349957E+03  0.7561462E-02  0.1113279E+00
         22   -1    0    0    0    0  0.00000000000E+00  0.00000000000E+00  0.55280040176E+03  0.55280040176E+03  0.00000000000E+00 0.  1.
         22   -1    0    0    0    0 -0.00000000000E+00 -0.00000000000E+00 -0.54231202001E+03  0.54231202001E+03  0.00000000000E+00 0.  1.
        -24    2    1    2    0    0  0.26704298312E+02  0.12513078820E+02 -0.38626693053E+03  0.39581099287E+03  0.81206549986E+02 0.  0.
         25    2    1    2    0    0 -0.59704740692E+02  0.25767053499E+02 -0.11306128865E+03  0.18071198718E+03  0.12508145431E+03 0.  0.
         24    2    1    2    0    0  0.33000442380E+02 -0.38280132319E+02  0.50981660094E+03  0.51858944172E+03  0.80421668406E+02 0.  0.
        -11    1    5    5    0    0  0.79501633715E+01  0.30218348436E+01  0.37970756689E+03  0.37980280797E+03  0.00000000000E+00 0.  1.
         12    1    5    5    0    0  0.25050279008E+02 -0.41301967163E+02  0.13010903404E+03  0.13878663376E+03  0.00000000000E+00 0. -1.
         11    1    3    3    0    0  0.15000951104E+02  0.23384813465E+00 -0.76984607418E+01  0.16862666360E+02  0.00000000000E+00 0. -1.
        -12    1    3    3    0    0  0.11703347208E+02  0.12279230685E+02 -0.37856846979E+03  0.37894832651E+03  0.00000000000E+00 0.  1.
          5    1    4    4  501    0 -0.46428503959E+02 -0.28868748179E+02 -0.11156527873E+03  0.12431128034E+03  0.41800000000E+01 0.  1.
         -5    1    4    4    0  501 -0.13276236732E+02  0.54635801678E+02 -0.14960099198E+01  0.56400706844E+02  0.41800000000E+01 0.  1.
</event>
<event>
11    1  0.8037748E-009  0.1372944E+03  0.7561462E-02  0.1110618E+00
         22   -1    0    0    0    0  0.00000000000E+00  0.00000000000E+00  0.11358428481E+03  0.11358428481E+03  0.00000000000E+00 0.  1.
         22   -1    0    0    0    0 -0.00000000000E+00 -0.00000000000E+00 -0.11804194973E+04  0.11804194973E+04  0.00000000000E+00 0.  1.
         24    2    1    2    0    0  0.37838309605E+02  0.40598146393E+02 -0.79422596617E+03  0.80026209248E+03  0.80898604172E+02 0.  0.
         25    2    1    2    0    0 -0.61863276656E+02 -0.24669349398E+02 -0.35571845094E+03  0.38290768080E+03  0.12508810446E+03 0.  0.
        -24    2    1    2    0    0  0.24024967050E+02 -0.15928796995E+02  0.83109204627E+02  0.11083400882E+03  0.67424861891E+02 0.  0.
        -11    1    3    3    0    0  0.38380043387E+02  0.63075109701E+02 -0.66596343435E+03  0.67004387400E+03  0.00000000000E+00 0.  1.
         12    1    3    3    0    0 -0.54173378124E+00 -0.22476963308E+02 -0.12826253182E+03  0.13021821848E+03  0.00000000000E+00 0. -1.
         13    1    5    5    0    0  0.14006234670E+02 -0.31979406463E+02  0.11484856483E+02  0.36752673043E+02  0.00000000000E+00 0. -1.
        -14    1    5    5    0    0  0.10018732380E+02  0.16050609468E+02  0.71624348145E+02  0.74081335773E+02  0.00000000000E+00 0.  1.
          5    1    4    4  501    0  0.34842503007E+02 -0.23713023556E+02 -0.14420067714E+03  0.15029176687E+03  0.41800000000E+01 0.  1.
         -5    1    4    4    0  501 -0.96705779663E+02 -0.95632584234E+00 -0.21151777381E+03  0.23261591393E+03  0.41800000000E+01 0.  1.
</event>
<event>
11    1  0.8037748E-009  0.1509245E+03  0.7561462E-02  0.1095938E+00
         22   -1    0    0    0    0  0.00000000000E+00  0.00000000000E+00  0.13846196276E+03  0.13846196276E+03  0.00000000000E+00 0.  1.
         22   -1    0    0    0    0 -0.00000000000E+00 -0.00000000000E+00 -0.12265696723E+04  0.12265696723E+04  0.00000000000E+00 0.  1.
        -24    2    1    2    0    0  0.73522887884E+02 -0.31240541068E+02 -0.92886652576E+03  0.93577766184E+03  0.80654964317E+02 0.  0.
         25    2    1    2    0    0 -0.11160747050E+03  0.46129216663E+02 -0.24697501490E+03  0.30204035671E+03  0.12509031536E+03 0.  0.
         24    2    1    2    0    0  0.38084582611E+02 -0.14888675596E+02  0.87733831107E+02  0.12721361652E+03  0.82546780762E+02 0.  0.
        -13    1    5    5    0    0  0.62241080692E+02  0.15422038851E+00  0.70060772830E+02  0.93714928369E+02  0.00000000000E+00 0.  1.
         14    1    5    5    0    0 -0.24156498080E+02 -0.15042895984E+02  0.17673058277E+02  0.33498688153E+02  0.00000000000E+00 0. -1.
         13    1    3    3    0    0 -0.87596066706E+01 -0.20135558288E+02 -0.38339102700E+03  0.38401933675E+03  0.00000000000E+00 0. -1.
        -14    1    3    3    0    0  0.82282494555E+02 -0.11104982779E+02 -0.54547549876E+03  0.55175832509E+03  0.00000000000E+00 0.  1.
          5    1    4    4  501    0 -0.44850276349E+02  0.53137080667E+02 -0.31754761634E+02  0.76556736587E+02  0.41800000000E+01 0. -1.
         -5    1    4    4    0  501 -0.66757194146E+02 -0.70078640036E+01 -0.21522025327E+03  0.22548362012E+03  0.41800000000E+01 0. -1.
</event>
<event>
11    1  0.8037748E-009  0.1362630E+03  0.7561462E-02  0.1111805E+00
         22   -1    0    0    0    0  0.00000000000E+00  0.00000000000E+00  0.99786197749E+03  0.99786197749E+03  0.00000000000E+00 0. -1.
         22   -1    0    0    0    0 -0.00000000000E+00 -0.00000000000E+00 -0.67204131633E+02  0.67204131633E+02  0.00000000000E+00 0. -1.
         24    2    1    2    0    0  0.29420047997E+02 -0.32542337832E+02  0.17932573743E+02  0.92167091706E+02  0.79048419445E+02 0.  0.
         25    2    1    2    0    0 -0.64847059900E+02 -0.87929865688E+01  0.15966262649E+03  0.21312475131E+03  0.12509015761E+03 0.  0.
        -24    2    1    2    0    0  0.35427011903E+02  0.41335324401E+02  0.75306264562E+03  0.75977426611E+03  0.84793307496E+02 0.  0.
        -13    1    3    3    0    0  0.41669803297E+02 -0.26977906388E+02  0.41716286949E+02  0.64841564885E+02  0.00000000000E+00 0.  1.
         14    1    3    3    0    0 -0.12249755300E+02 -0.55644314440E+01 -0.23783713206E+02  0.27325526821E+02  0.00000000000E+00 0. -1.
         11    1    5    5    0    0  0.33455941122E+02  0.83311078362E+01  0.66196442859E+03  0.66286168396E+03  0.00000000000E+00 0. -1.
        -12    1    5    5    0    0  0.19710707810E+01  0.33004216565E+02  0.91098217031E+02  0.96912582142E+02  0.00000000000E+00 0.  1.
          5    1    4    4  501    0  0.21978183621E+02 -0.30033462075E+01  0.11113128974E+03  0.11340060230E+03  0.41800000000E+01 0. -1.
         -5    1    4    4    0  501 -0.86825243521E+02 -0.57896403612E+01  0.48531336758E+02  0.99724149009E+02  0.41800000000E+01 0. -1.
</event>
<event>
11    1  0.8037748E-009  0.1557472E+03  0.7561462E-02  0.1091147E+00
         22   -1    0    0    0    0  0.00000000000E+00  0.00000000000E+00  0.32190356014E+03  0.32190356014E+03  0.00000000000E+00 0.  1.
         22   -1    0    0    0    0 -0.00000000000E+00 -0.00000000000E+00 -0.63271766128E+03  0.63271766128E+03  0.00000000000E+00 0.  1.
         24    2    1    2    0    0 -0.17210447016E+02 -0.55854590661E+02 -0.44607973061E+03  0.45747758446E+03  0.82961915579E+02 0.  0.
         25    2    1    2    0    0  0.10692539247E+03  0.33507227234E+02 -0.12557217635E+03  0.20969301947E+03  0.12508803743E+03 0.  0.
        -24    2    1    2    0    0 -0.89714945457E+02  0.22347363427E+02  0.26083780582E+03  0.28745061750E+03  0.77738796425E+02 0.  0.
        -11    1    3    3    0    0 -0.31993925048E+02 -0.47829682784E+02 -0.43119092556E+03  0.43501368264E+03  0.00000000000E+00 0.  1.
         12    1    3    3    0    0  0.14783478033E+02 -0.80249078772E+01 -0.14888805043E+02  0.22463901816E+02  0.00000000000E+00 0. -1.
         13    1    5    5    0    0 -0.54264059675E+02  0.30718493345E+02  0.72518084100E+02  0.95640402170E+02  0.00000000000E+00 0. -1.
        -14    1    5    5    0    0 -0.35450885783E+02 -0.83711299185E+01  0.18831972172E+03  0.19181021533E+03  0.00000000000E+00 0.  1.
          5    1    4    4  501    0  0.12162819543E+03  0.54448530403E+02 -0.75276115277E+02  0.15310789110E+03  0.41800000000E+01 0. -1.
         -5    1    4    4    0  501 -0.14702802953E+02 -0.20941303169E+02 -0.50296061069E+02  0.56585128366E+02  0.41800000000E+01 0. -1.
</event>
<event>
11    1  0.8968890E-009  0.2613636E+03  0.7561462E-02  0.1018014E+00
         22   -1    0    0    0    0  0.00000000000E+00  0.00000000000E+00  0.17040533097E+04  0.17040533097E+04  0.00000000000E+00 0.  1.
         22   -1    0    0    0    0 -0.00000000000E+00 -0.00000000000E+00 -0.76656427437E+03  0.76656427437E+03  0.00000000000E+00 0. -1.
        -24    2    1    2    0    0 -0.13296823062E+03 -0.17258923850E+03 -0.57190707606E+03  0.61959816697E+03  0.96729464298E+02 0.  0.
         25    2    1    2    0    0  0.14743117170E+03  0.28250831959E+03  0.69925618927E+01  0.34240774384E+03  0.12508903265E+03 0.  0.
         24    2    1    2    0    0 -0.14462941087E+02 -0.10991908109E+03  0.15024035495E+04  0.15086116733E+04  0.80008587605E+02 0.  0.
        -11    1    5    5    0    0 -0.43722493455E+02 -0.51960415098E+02  0.94567848258E+03  0.94811356576E+03  0.00000000000E+00 0.  1.
         12    1    5    5    0    0  0.29259552369E+02 -0.57958665990E+02  0.55672506696E+03  0.56049810753E+03  0.00000000000E+00 0. -1.
         11    1    3    3    0    0 -0.14437454869E+03 -0.13005896228E+03 -0.46256906339E+03  0.50172650158E+03  0.00000000000E+00 0. -1.
        -12    1    3    3    0    0  0.11406318076E+02 -0.42530276221E+02 -0.10933801267E+03  0.11787166539E+03  0.00000000000E+00 0.  1.
          5    1    4    4  501    0  0.10208074506E+03  0.75116262789E+02  0.25223602493E+02  0.12929282258E+03  0.41800000000E+01 0.  1.
         -5    1    4    4    0  501  0.45350426643E+02  0.20739205680E+03 -0.18231040600E+02  0.21311492126E+03  0.41800000000E+01 0.  1.
</event>
<event>
11    1  0.8037748E-009  0.3213103E+03  0.7561462E-02  0.9915549E-01
         22   -1    0    0    0    0  0.00000000000E+00  0.00000000000E+00  0.52953555908E+03  0.52953555908E+03  0.00000000000E+00 0.  1.
         22   -1    0    0    0    0 -0.00000000000E+00 -0.00000000000E+00 -0.36300990147E+04  0.36300990147E+04  0.00000000000E+00 0.  1.
         24    2    1    2    0    0  0.29364816276E+03 -0.69712227887E+02 -0.34178585647E+04  0.34321092038E+04  0.80792205065E+02 0.  0.
         25    2    1    2    0    0 -0.18382598993E+03  0.15595423615E+03 -0.92833057571E+02  0.28701814099E+03  0.12509084031E+03 0.  0.
        -24    2    1    2    0    0 -0.10982217283E+03 -0.86242008258E+02  0.41012816657E+03  0.44050722907E+03  0.79642402124E+02 0.  0.
        -13    1    3    3    0    0  0.18305998149E+03 -0.16380418930E+02 -0.23610610105E+04  0.23682036167E+04  0.00000000000E+00 0.  1.
         14    1    3    3    0    0  0.11058818127E+03 -0.53331808957E+02 -0.10567975541E+04  0.10639055870E+04  0.00000000000E+00 0. -1.
         13    1    5    5    0    0 -0.39800171696E+02 -0.24084023671E+01  0.48736569328E+02  0.62969097650E+02  0.00000000000E+00 0. -1.
        -14    1    5    5    0    0 -0.70022001132E+02 -0.83833605891E+02  0.36139159724E+03  0.37753813142E+03  0.00000000000E+00 0.  1.
          5    1    4    4  501    0 -0.52349042553E+02 -0.10412511213E+02 -0.44198086855E+02  0.69424678088E+02  0.41800000000E+01 0.  1.
         -5    1    4    4    0  501 -0.13147694738E+03  0.16636674736E+03 -0.48634970716E+02  0.21759346290E+03  0.41800000000E+01 0.  1.
</event>
<event>
11    1  0.8037748E-009  0.1446301E+03  0.7561462E-02  0.1102496E+00
         22   -1    0    0    0    0  0.00000000000E+00  0.00000000000E+00  0.11209021525E+04  0.11209021525E+04  0.00000000000E+00 0. -1.
         22   -1    0    0    0    0 -0.00000000000E+00 -0.00000000000E+00 -0.31479534845E+03  0.31479534845E+03  0.00000000000E+00 0. -1.
         24    2    1    2    0    0  0.50778477397E+01 -0.63225641649E+01 -0.26596550975E+03  0.27798252490E+03  0.80441733081E+02 0.  0.
         25    2    1    2    0    0 -0.46744913159E+02  0.65087875119E+02  0.98623336760E+02  0.17831163274E+03  0.12508779886E+03 0.  0.
        -24    2    1    2    0    0  0.41667065420E+02 -0.58765310955E+02  0.97344897706E+03  0.97940334333E+03  0.80240213549E+02 0.  0.
        -13    1    3    3    0    0  0.19181639811E+02 -0.33721232184E+01 -0.10528559079E+02  0.22139491347E+02  0.00000000000E+00 0.  1.
         14    1    3    3    0    0 -0.14103792071E+02 -0.29504409465E+01 -0.25543695067E+03  0.25584303355E+03  0.00000000000E+00 0. -1.
         13    1    5    5    0    0  0.31711365259E+02 -0.79073840299E+02  0.76142619472E+03  0.76617761186E+03  0.00000000000E+00 0. -1.
        -14    1    5    5    0    0  0.99557001605E+01  0.20308529344E+02  0.21202278234E+03  0.21322573147E+03  0.00000000000E+00 0.  1.
          5    1    4    4  501    0  0.34913277868E+02 -0.81752476527E+01  0.10685684908E+02  0.37648743772E+02  0.41800000000E+01 0. -1.
         -5    1    4    4    0  501 -0.81658191027E+02  0.73263122772E+02  0.87937651852E+02  0.14066288897E+03  0.41800000000E+01 0. -1.
</event>
<event>
11    1  0.8037748E-009  0.1633565E+03  0.7561462E-02  0.1083962E+00
         22   -1    0    0    0    0  0.00000000000E+00  0.00000000000E+00  0.11106832845E+04  0.11106832845E+04  0.00000000000E+00 0.  1.
         22   -1    0    0    0    0 -0.00000000000E+00 -0.00000000000E+00 -0.21285014012E+03  0.21285014012E+03  0.00000000000E+00 0.  1.
        -24    2    1    2    0    0 -0.62654663529E+02 -0.18743695802E+02 -0.17521380818E+03  0.20647909223E+03  0.87503165409E+02 0.  0.
         25    2    1    2    0    0 -0.39249644171E+02  0.78404717902E+02  0.37287927270E+03  0.40295634828E+03  0.12508809797E+03 0.  0.
         24    2    1    2    0    0  0.10190430770E+03 -0.59661022101E+02  0.70016767989E+03  0.71409798414E+03  0.75876382981E+02 0.  0.
        -13    1    5    5    0    0  0.10043056003E+03 -0.45657562843E+02  0.68319419577E+03  0.69204423238E+03  0.00000000000E+00 0.  1.
         14    1    5    5    0    0  0.14737476730E+01 -0.14003459257E+02  0.16973484123E+02  0.22053751759E+02  0.00000000000E+00 0. -1.
         13    1    3    3    0    0 -0.15688121009E+02  0.19640892339E+02 -0.12567281091E+03  0.12816215195E+03  0.00000000000E+00 0. -1.
        -14    1    3    3    0    0 -0.46966542521E+02 -0.38384588140E+02 -0.49540997273E+02  0.78316940274E+02  0.00000000000E+00 0.  1.
          5    1    4    4  501    0 -0.47866257066E+02  0.27848713754E+02  0.46173021368E+02  0.72222916900E+02  0.41800000000E+01 0. -1.
         -5    1    4    4    0  501  0.86166128951E+01  0.50556004149E+02  0.32670625133E+03  0.33073343138E+03  0.41800000000E+01 0. -1.
</event>
<event>
11    1  0.8037748E-009  0.1332950E+03  0.7561462E-02  0.1115285E+00
         22   -1    0    0    0    0  0.00000000000E+00  0.00000000000E+00  0.70529033050E+03  0.70529033050E+03  0.00000000000E+00 0.  1.
         22   -1    0    0    0    0 -0.00000000000E+00 -0.00000000000E+00 -0.45889963044E+03  0.45889963044E+03  0.00000000000E+00 0.  1.
         24    2    1    2    0    0  0.29905526837E+02 -0.12226923104E+02 -0.18906316151E+03  0.20836026070E+03  0.81395829208E+02 0.  0.
         25    2    1    2    0    0 -0.72930253098E+02 -0.33199027320E+01 -0.23657353893E+03  0.27738858179E+03  0.12509013715E+03 0.  0.
        -24    2    1    2    0    0  0.43024726261E+02  0.15546825836E+02  0.67202740051E+03  0.67844111846E+03  0.81047475692E+02 0.  0.
        -11    1    3    3    0    0  0.53219208190E+02 -0.18053377060E+02 -0.87497823776E+02  0.10399075781E+03  0.00000000000E+00 0.  1.
         12    1    3    3    0    0 -0.23313681354E+02  0.58264539557E+01 -0.10156533773E+03  0.10436950289E+03  0.00000000000E+00 0. -1.
         11    1    5    5    0    0 -0.14362120272E+02  0.10483034890E+02  0.39763251068E+02  0.43557785237E+02  0.00000000000E+00 0. -1.
        -12    1    5    5    0    0  0.57386846534E+02  0.50637909461E+01  0.63226414944E+03  0.63488333322E+03  0.00000000000E+00 0.  1.
          5    1    4    4  501    0 -0.24024356119E+02  0.12146566258E+02 -0.22232679791E+03  0.22398970116E+03  0.41800000000E+01 0. -1.
         -5    1    4    4    0  501 -0.48905896978E+02 -0.15466468990E+02 -0.14246741024E+02  0.53398880626E+02  0.41800000000E+01 0. -1.
</event>
<event>
11    1  0.8037748E-009  0.2033977E+03  0.7561462E-02  0.1052147E+00
         22   -1    0    0    0    0  0.00000000000E+00  0.00000000000E+00  0.90025798622E+03  0.90025798622E+03  0.00000000000E+00 0. -1.
         22   -1    0    0    0    0 -0.00000000000E+00 -0.00000000000E+00 -0.39961887214E+03  0.39961887214E+03  0.00000000000E+00 0. -1.
         24    2    1    2    0    0  0.14094111977E+03 -0.91462227089E+02 -0.34121025979E+03  0.38776075960E+03  0.75526333660E+02 0.  0.
         25    2    1    2    0    0 -0.79514463450E+02  0.51621379145E+02  0.16919046336E+03  0.23078184194E+03  0.12509008352E+03 0.  0.
        -24    2    1    2    0    0 -0.61426656317E+02  0.39840847944E+02  0.67265891050E+03  0.68133425683E+03  0.79911403281E+02 0.  0.
        -13    1    3    3    0    0  0.82562188493E+02 -0.32194061611E+02 -0.24520077583E+03  0.26072282800E+03  0.00000000000E+00 0.  1.
         14    1    3    3    0    0  0.58378931274E+02 -0.59268165479E+02 -0.96009483956E+02  0.12703793160E+03  0.00000000000E+00 0. -1.
         13    1    5    5    0    0  0.44096719904E+01  0.35663351194E+02  0.36015718270E+03  0.36194546009E+03  0.00000000000E+00 0. -1.
        -14    1    5    5    0    0 -0.65836328307E+02  0.41774967506E+01  0.31250172780E+03  0.31938879674E+03  0.00000000000E+00 0.  1.
          5    1    4    4  501    0 -0.85712026571E+02 -0.10722564673E+02  0.13199101623E+03  0.15779932084E+03  0.41800000000E+01 0.  1.
         -5    1    4    4    0  501  0.61975631208E+01  0.62343943818E+02  0.37199447134E+02  0.72982521102E+02  0.41800000000E+01 0.  1.
</event>
<event>
11    1  0.8037748E-009  0.1328346E+03  0.7561462E-02  0.1115834E+00
         22   -1    0    0    0    0  0.00000000000E+00  0.00000000000E+00  0.16893796548E+04  0.16893796548E+04  0.00000000000E+00 0.  1.
         22   -1    0    0    0    0 -0.00000000000E+00 -0.00000000000E+00 -0.76017417820E+02  0.76017417820E+02  0.00000000000E+00 0.  1.
         24    2    1    2    0    0 -0.18932926685E+02 -0.62213852730E+01 -0.38456326965E+02  0.91341889380E+02  0.80419464835E+02 0.  0.
         25    2    1    2    0    0  0.30117417415E+02  0.47575398875E+02  0.49528781658E+03  0.51393432360E+03  0.12509192744E+03 0.  0.
        -24    2    1    2    0    0 -0.11184490730E+02 -0.41354013602E+02  0.11565307474E+04  0.11601208596E+04  0.80509577716E+02 0.  0.
        -11    1    3    3    0    0  0.12905277083E+02 -0.12425729659E+02 -0.52887569757E+02  0.55839412326E+02  0.00000000000E+00 0.  1.
         12    1    3    3    0    0 -0.31838203768E+02  0.62043443857E+01  0.14431242792E+02  0.35502477054E+02  0.00000000000E+00 0. -1.
         11    1    5    5    0    0  0.32019708119E+02 -0.56428393431E+01  0.29964903173E+03  0.30140777290E+03  0.00000000000E+00 0. -1.
        -12    1    5    5    0    0 -0.43204198849E+02 -0.35711174259E+02  0.85688171564E+03  0.85871308675E+03  0.00000000000E+00 0.  1.
          5    1    4    4  501    0 -0.38909714327E+02  0.49228095505E+02  0.16724708398E+03  0.17867968758E+03  0.41800000000E+01 0. -1.
         -5    1    4    4    0  501  0.69027131742E+02 -0.16526966298E+01  0.32804073260E+03  0.33525463601E+03  0.41800000000E+01 0. -1.
</event>
<event>
11    1  0.8037748E-009  0.1496328E+03  0.7561462E-02  0.1097255E+00
         22   -1    0    0    0    0  0.00000000000E+00  0.00000000000E+00  0.28153896161E+04  0.28153896161E+04  0.00000000000E+00 0. -1.
         22   -1    0    0    0    0 -0.00000000000E+00 -0.00000000000E+00 -0.13400006807E+04  0.13400006807E+04  0.00000000000E+00 0.  1.
        -24    2    1    2    0    0 -0.83129598457E+02  0.21727690952E+02 -0.11993224890E+04  0.12050508432E+04  0.79940474099E+02 0.  0.
         25    2    1    2    0    0  0.35155697896E+02 -0.22856227081E+02 -0.10528703110E+03  0.16879323320E+03  0.12508983351E+03 0.  0.
         24    2    1    2    0    0  0.47973900562E+02  0.11285361290E+01  0.27799984555E+04  0.27815462204E+04  0.79405256514E+02 0.  0.
        -11    1    5    5    0    0  0.26510070127E+00 -0.66435756304E+01  0.20205845709E+04  0.20205955101E+04  0.00000000000E+00 0.  1.
         12    1    5    5    0    0  0.47708799861E+02  0.77721117594E+01  0.75941388465E+03  0.76095071030E+03  0.00000000000E+00 0. -1.
         13    1    3    3    0    0  0.11992142640E+02 -0.35572378579E+01 -0.31864277652E+03  0.31888820056E+03  0.00000000000E+00 0. -1.
        -14    1    3    3    0    0 -0.95121741097E+02  0.25284928810E+02 -0.88067971247E+03  0.88616264264E+03  0.00000000000E+00 0.  1.
          5    1    4    4  501    0  0.59947524340E+02 -0.54306710655E+02 -0.99207308613E+02  0.12807219440E+03  0.41800000000E+01 0.  1.
         -5    1    4    4    0  501 -0.24791826444E+02  0.31450483574E+02 -0.60797224847E+01  0.40721038800E+02  0.41800000000E+01 0.  1.
</event>
<event>
11    1  0.8037748E-009  0.1469334E+03  0.7561462E-02  0.1100054E+00
         22   -1    0    0    0    0  0.00000000000E+00  0.00000000000E+00  0.65207791316E+03  0.65207791316E+03  0.00000000000E+00 0. -1.
         22   -1    0    0    0    0 -0.00000000000E+00 -0.00000000000E+00 -0.82382700034E+03  0.82382700034E+03  0.00000000000E+00 0. -1.
         24    2    1    2    0    0 -0.49183519346E+02  0.16406602930E+01 -0.74000301746E+03  0.74581363231E+03  0.78814960208E+02 0.  0.
         25    2    1    2    0    0  0.85957202512E+02  0.64290759472E+02  0.14463502919E+02  0.16547824937E+03  0.12510761639E+03 0.  0.
        -24    2    1    2    0    0 -0.36773683166E+02 -0.65931419765E+02  0.55379042737E+03  0.56461303182E+03  0.80029884261E+02 0.  0.
        -11    1    3    3    0    0 -0.43341740963E+02  0.26025903862E+02 -0.24426592203E+03  0.24944276868E+03  0.00000000000E+00 0.  1.
         12    1    3    3    0    0 -0.58417783837E+01 -0.24385243569E+02 -0.49573709543E+03  0.49637086363E+03  0.00000000000E+00 0. -1.
         11    1    5    5    0    0 -0.78516644467E+01 -0.60759676818E+02  0.49613263541E+03  0.49990096907E+03  0.00000000000E+00 0. -1.
        -12    1    5    5    0    0 -0.28922018719E+02 -0.51717429475E+01  0.57657791956E+02  0.64712062749E+02  0.00000000000E+00 0.  1.
          5    1    4    4  501    0  0.37481624530E+02 -0.36651872723E+02  0.84071158107E+01  0.53257712566E+02  0.41800000000E+01 0. -1.
         -5    1    4    4    0  501  0.48475577982E+02  0.10094263219E+03  0.60563871083E+01  0.11222053680E+03  0.41800000000E+01 0. -1.
</event>
<event>
11    1  0.8037748E-009  0.1313544E+03  0.7561462E-02  0.1117616E+00
         22   -1    0    0    0    0  0.00000000000E+00  0.00000000000E+00  0.11286719457E+03  0.11286719457E+03  0.00000000000E+00 0.  1.
         22   -1    0    0    0    0 -0.00000000000E+00 -0.00000000000E+00 -0.20794893844E+04  0.20794893844E+04  0.00000000000E+00 0. -1.
         24    2    1    2    0    0  0.34285742022E+02  0.23044293466E+02 -0.17671035222E+04  0.17692608714E+04  0.76958569357E+02 0.  0.
         25    2    1    2    0    0 -0.24981095872E+02 -0.63842708369E+01 -0.28004932530E+03  0.30779763248E+03  0.12508774477E+03 0.  0.
        -24    2    1    2    0    0 -0.93046461501E+01 -0.16660022629E+02  0.80530657737E+02  0.11529807500E+03  0.80276562396E+02 0.  0.
        -11    1    3    3    0    0  0.25017192526E+02 -0.54211969862E+00 -0.15894318348E+03  0.16090086821E+03  0.00000000000E+00 0.  1.
         12    1    3    3    0    0  0.92685494966E+01  0.23586413164E+02 -0.16081603387E+04  0.16083600032E+04  0.00000000000E+00 0. -1.
         13    1    5    5    0    0  0.15294396103E+02 -0.33826018388E+02  0.96877406842E+01  0.38366266325E+02  0.00000000000E+00 0. -1.
        -14    1    5    5    0    0 -0.24599042253E+02  0.17165995759E+02  0.70842917053E+02  0.76931808680E+02  0.00000000000E+00 0.  1.
          5    1    4    4  501    0  0.34096162730E+02 -0.40020569364E+02 -0.74662602990E+02  0.91412094224E+02  0.41800000000E+01 0.  1.
         -5    1    4    4    0  501 -0.59077258602E+02  0.33636298527E+02 -0.20538672231E+03  0.21638553825E+03  0.41800000000E+01 0.  1.
</event>
<event>
11    1  0.8037748E-009  0.1276282E+03  0.7561462E-02  0.1122218E+00
         22   -1    0    0    0    0  0.00000000000E+00  0.00000000000E+00  0.75691513990E+02  0.75691513990E+02  0.00000000000E+00 0. -1.
         22   -1    0    0    0    0 -0.00000000000E+00 -0.00000000000E+00 -0.30533887661E+04  0.30533887661E+04  0.00000000000E+00 0.  1.
         24    2    1    2    0    0 -0.29597818175E+02 -0.95744227751E+01 -0.18291527845E+04  0.18311084920E+04  0.78681002205E+02 0.  0.
         25    2    1    2    0    0  0.20193921931E+02 -0.14382386739E+02 -0.11944793745E+04  0.12012671991E+04  0.12508900862E+03 0.  0.
        -24    2    1    2    0    0  0.94038962437E+01  0.23956809514E+02  0.45934906901E+02  0.96704588920E+02  0.81113499860E+02 0.  0.
        -13    1    3    3    0    0 -0.34546099203E+02 -0.29943169371E+02 -0.16643856692E+04  0.16650134180E+04  0.00000000000E+00 0.  1.
         14    1    3    3    0    0  0.49482810280E+01  0.20368746596E+02 -0.16476711535E+03  0.16609507405E+03  0.00000000000E+00 0. -1.
         11    1    5    5    0    0  0.33225370100E+02 -0.17143259475E+02  0.23587289683E+02  0.44206071962E+02  0.00000000000E+00 0. -1.
        -12    1    5    5    0    0 -0.23821473856E+02  0.41100068988E+02  0.22347617218E+02  0.52498516959E+02  0.00000000000E+00 0.  1.
          5    1    4    4  501    0 -0.22337262067E+02 -0.58429824021E+02 -0.74214736913E+03  0.74479070048E+03  0.41800000000E+01 0.  1.
         -5    1    4    4    0  501  0.42531183998E+02  0.44047437282E+02 -0.45233200536E+03  0.45647649864E+03  0.41800000000E+01 0.  1.
</event>
<event>
11    1  0.8037748E-009  0.1746375E+03  0.7561462E-02  0.1074065E+00
         22   -1    0    0    0    0  0.00000000000E+00  0.00000000000E+00  0.62813274161E+02  0.62813274161E+02  0.00000000000E+00 0.  1.
         22   -1    0    0    0    0 -0.00000000000E+00 -0.00000000000E+00 -0.32280970287E+04  0.32280970287E+04  0.00000000000E+00 0. -1.
         24    2    1    2    0    0  0.92014222561E+01  0.97845111458E+01 -0.21976965904E+04  0.21992862105E+04  0.82517449897E+02 0.  0.
         25    2    1    2    0    0  0.30870897166E+02 -0.12423113559E+03 -0.92252206982E+03  0.93972468122E+03  0.12509644216E+03 0.  0.
        -24    2    1    2    0    0 -0.40072319422E+02  0.11444662445E+03 -0.45065094375E+02  0.15189941117E+03  0.79616253059E+02 0.  0.
        -11    1    3    3    0    0 -0.22955743505E+02 -0.26486128598E+02 -0.87493402471E+03  0.87563578545E+03  0.00000000000E+00 0.  1.
         12    1    3    3    0    0  0.32157165761E+02  0.36270639744E+02 -0.13227625657E+04  0.13236504250E+04  0.00000000000E+00 0. -1.
         11    1    5    5    0    0 -0.30909112815E+01  0.10609285746E+03 -0.40949903697E+02  0.11376353875E+03  0.00000000000E+00 0. -1.
        -12    1    5    5    0    0 -0.36981408141E+02  0.83537669924E+01 -0.41151906784E+01  0.38135872422E+02  0.00000000000E+00 0.  1.
          5    1    4    4  501    0 -0.11951495429E+01 -0.89786837490E+02 -0.83871055063E+03  0.84351405720E+03  0.41800000000E+01 0. -1.
         -5    1    4    4    0  501  0.32066046709E+02 -0.34444298105E+02 -0.83811519198E+02  0.96210624017E+02  0.41800000000E+01 0. -1.
</event>
<event>
11    1  0.8037748E-009  0.9205932E+03  0.7561462E-02  0.8758440E-01
         22   -1    0    0    0    0  0.00000000000E+00  0.00000000000E+00  0.35831871574E+03  0.35831871574E+03  0.00000000000E+00 0. -1.
         22   -1    0    0    0    0 -0.00000000000E+00 -0.00000000000E+00 -0.59129744325E+03  0.59129744325E+03  0.00000000000E+00 0. -1.
        -24    2    1    2    0    0  0.62676337508E+00 -0.19996093764E+03 -0.24257391092E+02  0.21717358228E+03  0.81186048093E+02 0.  0.
         25    2    1    2    0    0  0.78507587095E+01  0.38119332839E+03 -0.31264511926E+03  0.50868887761E+03  0.12508963023E+03 0.  0.
         24    2    1    2    0    0 -0.84775220846E+01 -0.18123239075E+03  0.10392378283E+03  0.22375369909E+03  0.79677583939E+02 0.  0.
        -11    1    5    5    0    0 -0.26627214295E+02 -0.99843685945E+02  0.19626476826E+02  0.10518064820E+03  0.00000000000E+00 0.  1.
         12    1    5    5    0    0  0.18149692210E+02 -0.81388704804E+02  0.84297306007E+02  0.11857305089E+03  0.00000000000E+00 0. -1.
         11    1    3    3    0    0 -0.26703060903E+02 -0.13630764104E+03  0.11208497981E+02  0.13935012341E+03  0.00000000000E+00 0. -1.
        -12    1    3    3    0    0  0.27329824278E+02 -0.63653296599E+02 -0.35465889073E+02  0.77823458872E+02  0.00000000000E+00 0.  1.
          5    1    4    4  501    0  0.21372988284E+02  0.37726966032E+03 -0.31712825721E+03  0.49333255026E+03  0.41800000000E+01 0.  1.
         -5    1    4    4    0  501 -0.13522229574E+02  0.39236680738E+01  0.44831379566E+01  0.15356327352E+02  0.41800000000E+01 0.  1.
</event>
<event>
11    1  0.8037748E-009  0.1496757E+03  0.7561462E-02  0.1097211E+00
         22   -1    0    0    0    0  0.00000000000E+00  0.00000000000E+00  0.70988399681E+03  0.70988399681E+03  0.00000000000E+00 0. -1.
         22   -1    0    0    0    0 -0.00000000000E+00 -0.00000000000E+00 -0.21792049175E+03  0.21792049175E+03  0.00000000000E+00 0. -1.
        -24    2    1    2    0    0  0.43191668034E+02 -0.70597048529E+02 -0.16046306375E+03  0.19809299677E+03  0.81504460559E+02 0.  0.
         25    2    1    2    0    0 -0.53896624287E+02  0.57498794487E+02  0.12631649359E+03  0.19445847358E+03  0.12508910391E+03 0.  0.
         24    2    1    2    0    0  0.10704956253E+02  0.13098254042E+02  0.52611007523E+03  0.53525301822E+03  0.97045463090E+02 0.  0.
        -13    1    5    5    0    0 -0.23652668473E+01 -0.24764231659E+01 -0.37065776739E+01  0.50463726585E+01  0.00000000000E+00 0.  1.
         14    1    5    5    0    0  0.13070223100E+02  0.15574677208E+02  0.52981665290E+03  0.53020664556E+03  0.00000000000E+00 0. -1.
         11    1    3    3    0    0  0.44008538731E+02 -0.58595327702E+02 -0.16841856656E+03  0.18367084001E+03  0.00000000000E+00 0. -1.
        -12    1    3    3    0    0 -0.81687069741E+00 -0.12001720828E+02  0.79555028056E+01  0.14422156754E+02  0.00000000000E+00 0.  1.
          5    1    4    4  501    0 -0.71414272175E+02  0.73142163296E+02  0.48795420838E+02  0.11335007639E+03  0.41800000000E+01 0.  1.
         -5    1    4    4    0  501  0.17517647888E+02 -0.15643368809E+02  0.77521072748E+02  0.81108397193E+02  0.41800000000E+01 0.  1.
</event>
<event>
11    1  0.8037748E-009  0.1311425E+03  0.7561462E-02  0.1117873E+00
         22   -1    0    0    0    0  0.00000000000E+00  0.00000000000E+00  0.30783928898E+03  0.30783928898E+03  0.00000000000E+00 0. -1.
         22   -1    0    0    0    0 -0.00000000000E+00 -0.00000000000E+00 -0.75707966110E+03  0.75707966110E+03  0.00000000000E+00 0.  1.
        -24    2    1    2    0    0 -0.14992065389E+02  0.15985802230E+02 -0.51567156272E+03  0.52170852333E+03  0.76041533528E+02 0.  0.
         25    2    1    2    0    0 -0.21606440517E+01 -0.51185729304E+02 -0.21179977349E+03  0.25125867660E+03  0.12508849368E+03 0.  0.
         24    2    1    2    0    0  0.17152709441E+02  0.35199927074E+02  0.27823096409E+03  0.29195175015E+03  0.79310180486E+02 0.  0.
        -11    1    5    5    0    0 -0.15765587451E+02  0.16984529316E+02  0.18893823265E+02  0.29899908717E+02  0.00000000000E+00 0.  1.
         12    1    5    5    0    0  0.32918296891E+02  0.18215397758E+02  0.25933714083E+03  0.26205184143E+03  0.00000000000E+00 0. -1.
         13    1    3    3    0    0  0.29526600624E+02  0.11511340521E+02 -0.15010082502E+03  0.15340987183E+03  0.00000000000E+00 0. -1.
        -14    1    3    3    0    0 -0.44518666012E+02  0.44744617085E+01 -0.36557073771E+03  0.36829865150E+03  0.00000000000E+00 0.  1.
          5    1    4    4  501    0  0.16701590557E+02 -0.74678394143E+02 -0.20665816768E+03  0.22041069926E+03  0.41800000000E+01 0.  1.
         -5    1    4    4    0  501 -0.18862234608E+02  0.23492664840E+02 -0.51416058051E+01  0.30847977340E+02  0.41800000000E+01 0.  1.
</event>
<event>
11    1  0.8037748E-009  0.1458224E+03  0.7561462E-02  0.1101225E+00
         22   -1    0    0    0    0  0.00000000000E+00  0.00000000000E+00  0.84102103102E+03  0.84102103102E+03  0.00000000000E+00 0.  1.
         22   -1    0    0    0    0 -0.00000000000E+00 -0.00000000000E+00 -0.30070528086E+03  0.30070528086E+03  0.00000000000E+00 0.  1.
         24    2    1    2    0    0  0.50469290836E+02  0.55262206431E+02 -0.24207313625E+03  0.26441852586E+03  0.75608813953E+02 0.  0.
         25    2    1    2    0    0 -0.57670567987E+02 -0.12269536752E+03  0.16049785203E+03  0.24452460866E+03  0.12511065546E+03 0.  0.
        -24    2    1    2    0    0  0.72012771513E+01  0.67433161093E+02  0.62189103439E+03  0.63278317736E+03  0.95220802859E+02 0.  0.
        -11    1    3    3    0    0  0.66760124614E+02  0.51049965852E+02 -0.22611487179E+03  0.24122800106E+03  0.00000000000E+00 0.  1.
         12    1    3    3    0    0 -0.16290833778E+02  0.42122405793E+01 -0.15958264463E+02  0.23190524801E+02  0.00000000000E+00 0. -1.
         13    1    5    5    0    0  0.34497772366E+02  0.42119644317E+02  0.15266292103E+03  0.16208062251E+03  0.00000000000E+00 0. -1.
        -14    1    5    5    0    0 -0.27296495215E+02  0.25313516776E+02  0.46922811336E+03  0.47070255486E+03  0.00000000000E+00 0.  1.
          5    1    4    4  501    0 -0.52295480773E+00 -0.15366474689E+02  0.11267579710E+03  0.11379679116E+03  0.41800000000E+01 0.  1.
         -5    1    4    4    0  501 -0.57147613179E+02 -0.10732889284E+03  0.47822054923E+02  0.13072781749E+03  0.41800000000E+01 0.  1.
</event>
<event>
11    1  0.8037748E-009  0.1972495E+03  0.7561462E-02  0.1056486E+00
         22   -1    0    0    0    0  0.00000000000E+00  0.00000000000E+00  0.29041492546E+03  0.29041492546E+03  0.00000000000E+00 0. -1.
         22   -1    0    0    0    0 -0.00000000000E+00 -0.00000000000E+00 -0.45753496734E+03  0.45753496734E+03  0.00000000000E+00 0. -1.
         24    2    1    2    0    0  0.33668435923E+01 -0.62715310123E+01 -0.27759028724E+03  0.28983549063E+03  0.83051648508E+02 0.  0.
         25    2    1    2    0    0 -0.13336762835E+02  0.15716913853E+03 -0.66673409206E+02  0.21206787396E+03  0.12508969710E+03 0.  0.
        -24    2    1    2    0    0  0.99699192429E+01 -0.15089760752E+03  0.17714365457E+03  0.24604652821E+03  0.79306572531E+02 0.  0.
        -11    1    3    3    0    0 -0.21833466941E+02  0.57836781924E+01 -0.18368385509E+02  0.29112691361E+02  0.00000000000E+00 0.  1.
         12    1    3    3    0    0  0.25200310533E+02 -0.12055209205E+02 -0.25922190174E+03  0.26072279927E+03  0.00000000000E+00 0. -1.
         11    1    5    5    0    0  0.19168556489E+02 -0.10976749728E+03  0.71730560801E+02  0.13252022627E+03  0.00000000000E+00 0. -1.
        -12    1    5    5    0    0 -0.91986372466E+01 -0.41130110236E+02  0.10541309377E+03  0.11352630194E+03  0.00000000000E+00 0.  1.
          5    1    4    4  501    0 -0.62690814733E+02  0.12899887889E+03 -0.38828877633E+02  0.14864724399E+03  0.41800000000E+01 0.  1.
         -5    1    4    4    0  501  0.49354051898E+02  0.28170259640E+02 -0.27844531574E+02  0.63420629967E+02  0.41800000000E+01 0.  1.
</event>
<event>
11    1  0.8037748E-009  0.1406510E+03  0.7561462E-02  0.1106834E+00
         22   -1    0    0    0    0  0.00000000000E+00  0.00000000000E+00  0.98402569004E+02  0.98402569004E+02  0.00000000000E+00 0. -1.
         22   -1    0    0    0    0 -0.00000000000E+00 -0.00000000000E+00 -0.15740282780E+04  0.15740282780E+04  0.00000000000E+00 0. -1.
        -24    2    1    2    0    0 -0.16437035427E+02 -0.46757446457E+02 -0.12089796938E+04  0.12127268821E+04  0.81352047869E+02 0.  0.
         25    2    1    2    0    0  0.60182779687E+02 -0.33034107145E+01 -0.31429445901E+03  0.34359959043E+03  0.12508713797E+03 0.  0.
         24    2    1    2    0    0 -0.43745744260E+02  0.50060857171E+02  0.47648443818E+02  0.11610437444E+03  0.82401893206E+02 0.  0.
        -13    1    5    5    0    0 -0.18970331947E+02  0.67501188476E+02  0.15267844802E+02  0.71759257415E+02  0.00000000000E+00 0.  1.
         14    1    5    5    0    0 -0.24775412313E+02 -0.17440331304E+02  0.32380599015E+02  0.44345117024E+02  0.00000000000E+00 0. -1.
         13    1    3    3    0    0  0.32835703818E+02 -0.21723147902E+02 -0.43606973484E+03  0.43784345632E+03  0.00000000000E+00 0. -1.
        -14    1    3    3    0    0 -0.49272739244E+02 -0.25034298555E+02 -0.77290995898E+03  0.77488342583E+03  0.00000000000E+00 0.  1.
          5    1    4    4  501    0 -0.33149449025E+02  0.28719244506E+01 -0.15704988636E+03  0.16059038927E+03  0.41800000000E+01 0. -1.
         -5    1    4    4    0  501  0.93332228712E+02 -0.61753351651E+01 -0.15724457266E+03  0.18300920116E+03  0.41800000000E+01 0. -1.
</event>
<event>
11    1  0.8037748E-009  0.1989901E+03  0.7561462E-02  0.1055240E+00
         22   -1    0    0    0    0  0.00000000000E+00  0.00000000000E+00  0.17227387714E+04  0.17227387714E+04  0.00000000000E+00 0.  1.
         22   -1    0    0    0    0 -0.00000000000E+00 -0.00000000000E+00 -0.14825965345E+03  0.14825965345E+03  0.00000000000E+00 0. -1.
        -24    2    1    2    0    0 -0.94118010235E+02  0.12178006322E+03 -0.46901990967E+02  0.18422501423E+03  0.89724441825E+02 0.  0.
         25    2    1    2    0    0  0.12008985029E+03 -0.10733684267E+03  0.30136650668E+03  0.36388539012E+03  0.12509210948E+03 0.  0.
         24    2    1    2    0    0 -0.25971840056E+02 -0.14443220550E+02  0.13200146022E+04  0.13228880205E+04  0.81920825027E+02 0.  0.
        -11    1    5    5    0    0 -0.13255666947E+02  0.28557133683E+02  0.88684063674E+03  0.88739931123E+03  0.00000000000E+00 0.  1.
         12    1    5    5    0    0 -0.12716173108E+02 -0.43000354233E+02  0.43317396546E+03  0.43548870924E+03  0.00000000000E+00 0. -1.
         13    1    3    3    0    0 -0.83753001731E+02  0.60889938002E+02 -0.61933631852E+02  0.12065622488E+03  0.00000000000E+00 0. -1.
        -14    1    3    3    0    0 -0.10365008503E+02  0.60890125220E+02  0.15031640886E+02  0.63568789341E+02  0.00000000000E+00 0.  1.
          5    1    4    4  501    0  0.11666283696E+03 -0.72717118973E+02  0.13094860774E+03  0.18990262554E+03  0.41800000000E+01 0.  1.
         -5    1    4    4    0  501  0.34270133339E+01 -0.34619723699E+02  0.17041789894E+03  0.17398276458E+03  0.41800000000E+01 0.  1.
</event>
<event>
11    1  0.8037748E-009  0.1394747E+03  0.7561462E-02  0.1108146E+00
         22   -1    0    0    0    0  0.00000000000E+00  0.00000000000E+00  0.21078050977E+03  0.21078050977E+03  0.00000000000E+00 0.  1.
         22   -1    0    0    0    0 -0.00000000000E+00 -0.00000000000E+00 -0.41013374528E+03  0.41013374528E+03  0.00000000000E+00 0.  1.
         24    2    1    2    0    0 -0.32069340550E+02 -0.19486141438E+02 -0.25583196308E+03  0.27035565022E+03  0.78955886201E+02 0.  0.
         25    2    1    2    0    0  0.66398429719E+02  0.66127203317E+02 -0.84565203092E+02  0.17771033412E+03  0.12509248894E+03 0.  0.
        -24    2    1    2    0    0 -0.34329089169E+02 -0.46641061878E+02  0.14104393066E+03  0.17284827071E+03  0.81420263427E+02 0.  0.
        -13    1    3    3    0    0 -0.33590533708E+02  0.76098555717E+01 -0.23105468898E+03  0.23360758369E+03  0.00000000000E+00 0.  1.
         14    1    3    3    0    0  0.15211931586E+01 -0.27095997010E+02 -0.24777274095E+02  0.36748066536E+02  0.00000000000E+00 0. -1.
         11    1    5    5    0    0 -0.13968981121E+02  0.12901737453E+02  0.89522338638E+02  0.91519595597E+02  0.00000000000E+00 0. -1.
        -12    1    5    5    0    0 -0.20360108048E+02 -0.59542799332E+02  0.51521592023E+02  0.81328675118E+02  0.00000000000E+00 0.  1.
          5    1    4    4  501    0  0.61338868794E+02  0.99427798247E+02 -0.83668130441E+02  0.14375733839E+03  0.41800000000E+01 0. -1.
         -5    1    4    4    0  501  0.50595609258E+01 -0.33300594930E+02 -0.89707265109E+00  0.33952995727E+02  0.41800000000E+01 0. -1.
</event>
<event>
11    1  0.8037748E-009  0.1550481E+03  0.7561462E-02  0.1091829E+00
         22   -1    0    0    0    0  0.00000000000E+00  0.00000000000E+00  0.17110126803E+04  0.17110126803E+04  0.00000000000E+00 0.  1.
         22   -1    0    0    0    0 -0.00000000000E+00 -0.00000000000E+00 -0.37597101020E+03  0.37597101020E+03  0.00000000000E+00 0.  1.
        -24    2    1    2    0    0  0.90752884550E+02 -0.13058788528E+02 -0.35368887327E+03  0.37426139600E+03  0.81050326644E+02 0.  0.
         25    2    1    2    0    0 -0.87247372245E+02  0.58236777911E+01  0.53751764788E+03  0.55876624924E+03  0.12509388604E+03 0.  0.
         24    2    1    2    0    0 -0.35055123046E+01  0.72351107368E+01  0.11512128955E+04  0.11539560453E+04  0.79112503249E+02 0.  0.
        -13    1    5    5    0    0 -0.16352046331E+02  0.18067122609E+02  0.10953389018E+04  0.10956099307E+04  0.00000000000E+00 0.  1.
         14    1    5    5    0    0  0.12846534026E+02 -0.10832011872E+02  0.55873993704E+02  0.58346114610E+02  0.00000000000E+00 0. -1.
         11    1    3    3    0    0  0.43306311974E+02 -0.43329116951E+02 -0.13172053004E+03  0.14526922271E+03  0.00000000000E+00 0. -1.
        -12    1    3    3    0    0  0.47446572576E+02  0.30270328423E+02 -0.22196834324E+03  0.22899217330E+03  0.00000000000E+00 0.  1.
          5    1    4    4  501    0 -0.55384183820E+02  0.30714653786E+02  0.94185775316E+02  0.11357477909E+03  0.41800000000E+01 0.  1.
         -5    1    4    4    0  501 -0.31863188425E+02 -0.24890975995E+02  0.44333187256E+03  0.44519147015E+03  0.41800000000E+01 0.  1.
</event>
<event>
11    1  0.8037748E-009  0.1545046E+03  0.7561462E-02  0.1092363E+00
         22   -1    0    0    0    0  0.00000000000E+00  0.00000000000E+00  0.16470639768E+04  0.16470639768E+04  0.00000000000E+00 0. -1.
         22   -1    0    0    0    0 -0.00000000000E+00 -0.00000000000E+00 -0.76021991275E+03  0.76021991275E+03  0.00000000000E+00 0.  1.
        -24    2    1    2    0    0 -0.82519785687E+02  0.30714232432E+00 -0.68669650613E+03  0.69581263317E+03  0.76115173055E+02 0.  0.
         25    2    1    2    0    0  0.13470121714E+03  0.71789951926E+02  0.79579903402E+02  0.21279326064E+03  0.12509914330E+03 0.  0.
         24    2    1    2    0    0 -0.52181431448E+02 -0.72097094251E+02  0.14939606667E+04  0.14986779957E+04  0.78717013570E+02 0.  0.
        -13    1    5    5    0    0 -0.41540146142E+02 -0.87037088771E-01  0.36118757454E+03  0.36356850155E+03  0.00000000000E+00 0.  1.
         14    1    5    5    0    0 -0.10641285306E+02 -0.72010057162E+02  0.11327730922E+04  0.11351094941E+04  0.00000000000E+00 0. -1.
         13    1    3    3    0    0 -0.22634979238E+02 -0.24045313545E+02 -0.94616003988E+02  0.10021331049E+03  0.00000000000E+00 0. -1.
        -14    1    3    3    0    0 -0.59884806449E+02  0.24352455869E+02 -0.59208050215E+03  0.59559932268E+03  0.00000000000E+00 0.  1.
          5    1    4    4  501    0  0.14230176480E+03  0.24491495432E+02  0.79121736506E+02  0.16470381660E+03  0.41800000000E+01 0.  1.
         -5    1    4    4    0  501 -0.76005476667E+01  0.47298456494E+02  0.45816689535E+00  0.48089444044E+02  0.41800000000E+01 0.  1.
</event>
<event>
11    1  0.8037748E-009  0.1924719E+03  0.7561462E-02  0.1059979E+00
         22   -1    0    0    0    0  0.00000000000E+00  0.00000000000E+00  0.20444009116E+04  0.20444009116E+04  0.00000000000E+00 0. -1.
         22   -1    0    0    0    0 -0.00000000000E+00 -0.00000000000E+00 -0.13419858117E+03  0.13419858117E+03  0.00000000000E+00 0. -1.
        -24    2    1    2    0    0  0.27997492924E+01 -0.42712821889E+02 -0.96058286087E+02  0.13241141520E+03  0.80457223410E+02 0.  0.
         25    2    1    2    0    0  0.14409770199E+03  0.27288567759E+02  0.60393954059E+03  0.63395492780E+03  0.12508824140E+03 0.  0.
         24    2    1    2    0    0 -0.14689745128E+03  0.15424254129E+02  0.14023210760E+04  0.14122331498E+04  0.77982693734E+02 0.  0.
        -13    1    5    5    0    0 -0.60179586525E+02  0.44579700760E+02  0.57000666306E+03  0.57490566903E+03  0.00000000000E+00 0.  1.
         14    1    5    5    0    0 -0.86717864759E+02 -0.29155446631E+02  0.83231441290E+03  0.83732748077E+03  0.00000000000E+00 0. -1.
         11    1    3    3    0    0  0.25108546523E+02 -0.32765446408E+02 -0.99519724284E+02  0.10774130642E+03  0.00000000000E+00 0. -1.
        -12    1    3    3    0    0 -0.22308797231E+02 -0.99473754807E+01  0.34614381974E+01  0.24670108780E+02  0.00000000000E+00 0.  1.
          5    1    4    4  501    0  0.14278494792E+03  0.41712950885E+02  0.35992648817E+03  0.38947665002E+03  0.41800000000E+01 0. -1.
         -5    1    4    4    0  501  0.13127540671E+01 -0.14424383126E+02  0.24401305242E+03  0.24447827777E+03  0.41800000000E+01 0. -1.
</event>
<event>
11    1  0.8037748E-009  0.1934879E+03  0.7561462E-02  0.1059227E+00
         22   -1    0    0    0    0  0.00000000000E+00  0.00000000000E+00  0.18115665983E+04  0.18115665983E+04  0.00000000000E+00 0.  1.
         22   -1    0    0    0    0 -0.00000000000E+00 -0.00000000000E+00 -0.17530441015E+03  0.17530441015E+03  0.00000000000E+00 0.  1.
        -24    2    1    2    0    0 -0.21339365503E+01  0.11852956674E+02 -0.47030489221E+02  0.91309168388E+02  0.77333376030E+02 0.  0.
         25    2    1    2    0    0  0.33391819616E+02 -0.15562897612E+03 -0.15163986274E+01  0.20245494671E+03  0.12510121564E+03 0.  0.
         24    2    1    2    0    0 -0.31257883066E+02  0.14377601945E+03  0.16848090760E+04  0.16931068934E+04  0.79879476437E+02 0.  0.
        -11    1    5    5    0    0 -0.44562273172E+01  0.12047045457E+03  0.15051926284E+04  0.15100125287E+04  0.00000000000E+00 0.  1.
         12    1    5    5    0    0 -0.26801655749E+02  0.23305564875E+02  0.17961644762E+03  0.18309436464E+03  0.00000000000E+00 0. -1.
         13    1    3    3    0    0  0.18203161400E+02 -0.24111288782E+01  0.15497286237E+02  0.24027786168E+02  0.00000000000E+00 0. -1.
        -14    1    3    3    0    0 -0.20337097950E+02  0.14264085553E+02 -0.62527775458E+02  0.67281382220E+02  0.00000000000E+00 0.  1.
          5    1    4    4  501    0 -0.14713169567E+02 -0.10585760329E+03  0.48011875704E+02  0.11723873994E+03  0.41800000000E+01 0.  1.
         -5    1    4    4    0  501  0.48104989183E+02 -0.49771372830E+02 -0.49528274331E+02  0.85216206768E+02  0.41800000000E+01 0.  1.
</event>
<event>
11    1  0.8037748E-009  0.2150102E+03  0.7561462E-02  0.1044389E+00
         22   -1    0    0    0    0  0.00000000000E+00  0.00000000000E+00  0.18437336664E+04  0.18437336664E+04  0.00000000000E+00 0.  1.
         22   -1    0    0    0    0 -0.00000000000E+00 -0.00000000000E+00 -0.12017241733E+03  0.12017241733E+03  0.00000000000E+00 0. -1.
        -24    2    1    2    0    0 -0.25006385334E+02 -0.10842291916E+03 -0.31822454663E+02  0.14165514661E+03  0.81686371168E+02 0.  0.
         25    2    1    2    0    0 -0.11199411799E+03  0.19980424972E+03  0.62738969687E+03  0.67950709551E+03  0.12509052896E+03 0.  0.
         24    2    1    2    0    0  0.13700050333E+03 -0.91381330566E+02  0.11279940069E+04  0.11427438416E+04  0.79833091652E+02 0.  0.
        -13    1    5    5    0    0  0.13232204788E+03 -0.85251685110E+02  0.11219720517E+04  0.11329599547E+04  0.00000000000E+00 0.  1.
         14    1    5    5    0    0  0.46784554495E+01 -0.61296454551E+01  0.60219551467E+01  0.97838868855E+01  0.00000000000E+00 0. -1.
         11    1    3    3    0    0 -0.15721974687E+02 -0.12014330742E+03 -0.35492942970E+02  0.12625903455E+03  0.00000000000E+00 0. -1.
        -12    1    3    3    0    0 -0.92844106471E+01  0.11720388262E+02  0.36704883071E+01  0.15396112058E+02  0.00000000000E+00 0.  1.
          5    1    4    4  501    0 -0.42823212810E+02  0.26319804118E+01  0.53247200708E+02  0.68509062608E+02  0.41800000000E+01 0.  1.
         -5    1    4    4    0  501 -0.69170905182E+02  0.19717226931E+03  0.57414249616E+03  0.61099803290E+03  0.41800000000E+01 0.  1.
</event>
<event>
11    1  0.8037748E-009  0.1446799E+03  0.7561462E-02  0.1102442E+00
         22   -1    0    0    0    0  0.00000000000E+00  0.00000000000E+00  0.92677947037E+03  0.92677947037E+03  0.00000000000E+00 0.  1.
         22   -1    0    0    0    0 -0.00000000000E+00 -0.00000000000E+00 -0.46851917253E+03  0.46851917253E+03  0.00000000000E+00 0. -1.
        -24    2    1    2    0    0 -0.27756740415E+02 -0.19294324839E+02 -0.44115685799E+03  0.44838879603E+03  0.72735352097E+02 0.  0.
         25    2    1    2    0    0  0.16281033660E+02  0.87967572070E+02  0.29018727120E+03  0.32842160387E+03  0.12509489091E+03 0.  0.
         24    2    1    2    0    0  0.11475706755E+02 -0.68673247232E+02  0.60922988463E+03  0.61848824299E+03  0.80740000379E+02 0.  0.
        -13    1    5    5    0    0  0.18505516294E+02 -0.53337066872E+02  0.59084410402E+03  0.59353521554E+03  0.00000000000E+00 0.  1.
         14    1    5    5    0    0 -0.70298095387E+01 -0.15336180359E+02  0.18385780612E+02  0.24953027449E+02  0.00000000000E+00 0. -1.
         11    1    3    3    0    0  0.75120579240E+01 -0.82507193253E+01 -0.34785613995E+03  0.34803505497E+03  0.00000000000E+00 0. -1.
        -12    1    3    3    0    0 -0.35268798339E+02 -0.11043605513E+02 -0.93300718038E+02  0.10035374106E+03  0.00000000000E+00 0.  1.
          5    1    4    4  501    0 -0.45431670295E+02  0.54125765241E+02  0.21017742264E+03  0.22177839506E+03  0.41800000000E+01 0.  1.
         -5    1    4    4    0  501  0.61712703954E+02  0.33841806829E+02  0.80009848560E+02  0.10664320881E+03  0.41800000000E+01 0.  1.
</event>
<event>
11    1  0.8037748E-009  0.4928394E+03  0.7561462E-02  0.9409666E-01
         22   -1    0    0    0    0  0.00000000000E+00  0.00000000000E+00  0.13551533305E+04  0.13551533305E+04  0.00000000000E+00 0. -1.
         22   -1    0    0    0    0 -0.00000000000E+00 -0.00000000000E+00 -0.27940328120E+04  0.27940328120E+04  0.00000000000E+00 0. -1.
        -24    2    1    2    0    0  0.31452462485E+03 -0.35844859950E+03 -0.25754674724E+04  0.26205367104E+04  0.82272784288E+02 0.  0.
         25    2    1    2    0    0 -0.29413825273E+03  0.37281851345E+03  0.11587885003E+03  0.50456547717E+03  0.12508979644E+03 0.  0.
         24    2    1    2    0    0 -0.20386372119E+02 -0.14369913955E+02  0.10207091409E+04  0.10240839550E+04  0.79238234711E+02 0.  0.
        -13    1    5    5    0    0  0.35181526081E+01  0.13104599978E+02  0.32693452526E+02  0.35397313124E+02  0.00000000000E+00 0.  1.
         14    1    5    5    0    0 -0.23904524727E+02 -0.27474513933E+02  0.98801568840E+03  0.98868664183E+03  0.00000000000E+00 0. -1.
         11    1    3    3    0    0  0.19394572950E+03 -0.26979466312E+03 -0.16617920877E+04  0.16946849410E+04  0.00000000000E+00 0. -1.
        -12    1    3    3    0    0  0.12057889535E+03 -0.88653936375E+02 -0.91367538463E+03  0.92585176941E+03  0.00000000000E+00 0.  1.
          5    1    4    4  501    0 -0.64393437441E+02  0.17900897458E+03  0.38071240503E+02  0.19405571241E+03  0.41800000000E+01 0. -1.
         -5    1    4    4    0  501 -0.22974481529E+03  0.19380953888E+03  0.77807609522E+02  0.31050976476E+03  0.41800000000E+01 0. -1.
</event>
<event>
11    1  0.8037748E-009  0.1319788E+03  0.7561462E-02  0.1116861E+00
         22   -1    0    0    0    0  0.00000000000E+00  0.00000000000E+00  0.70653758050E+03  0.70653758050E+03  0.00000000000E+00 0.  1.
         22   -1    0    0    0    0 -0.00000000000E+00 -0.00000000000E+00 -0.71520711389E+02  0.71520711389E+02  0.00000000000E+00 0.  1.
         24    2    1    2    0    0  0.12249429979E+02 -0.31172357965E+02 -0.11058790664E+02  0.88565982406E+02  0.81239595966E+02 0.  0.
         25    2    1    2    0    0 -0.50392780752E+02  0.25070202541E+02  0.29951601402E+03  0.32942859131E+03  0.12508160021E+03 0.  0.
        -24    2    1    2    0    0  0.38143350773E+02  0.61021554241E+01  0.34655964576E+03  0.36006371817E+03  0.89722581159E+02 0.  0.
        -11    1    3    3    0    0  0.60183223387E+01 -0.36744487908E+02 -0.42225840140E+02  0.56297417089E+02  0.00000000000E+00 0.  1.
         12    1    3    3    0    0  0.62311076403E+01  0.55721299427E+01  0.31167049477E+02  0.32268565317E+02  0.00000000000E+00 0. -1.
         13    1    5    5    0    0 -0.26097842074E+02 -0.10029986666E+02  0.63928605572E+02  0.69775100170E+02  0.00000000000E+00 0. -1.
        -14    1    5    5    0    0  0.64241192847E+02  0.16132142090E+02  0.28263104018E+03  0.29028861800E+03  0.00000000000E+00 0.  1.
          5    1    4    4  501    0 -0.46602335544E+02  0.34766589067E+01  0.30319936273E+03  0.30680806834E+03  0.41800000000E+01 0.  1.
         -5    1    4    4    0  501 -0.37904452082E+01  0.21593543635E+02 -0.36833487175E+01  0.22620522968E+02  0.41800000000E+01 0.  1.
</event>
<event>
11    1  0.8037748E-009  0.2805141E+03  0.7561462E-02  0.1008793E+00
         22   -1    0    0    0    0  0.00000000000E+00  0.00000000000E+00  0.10721232509E+04  0.10721232509E+04  0.00000000000E+00 0.  1.
         22   -1    0    0    0    0 -0.00000000000E+00 -0.00000000000E+00 -0.91432174304E+03  0.91432174304E+03  0.00000000000E+00 0. -1.
        -24    2    1    2    0    0 -0.39916415977E+02  0.54609060287E+02 -0.52625147821E+03  0.53444160474E+03  0.64122857310E+02 0.  0.
         25    2    1    2    0    0 -0.62039202088E+02  0.17805719858E+03 -0.33195140581E+03  0.40173670849E+03  0.12508964212E+03 0.  0.
         24    2    1    2    0    0  0.10195561806E+03 -0.23266625886E+03  0.10160043919E+04  0.10502666808E+04  0.79162113664E+02 0.  0.
        -13    1    5    5    0    0  0.80266489149E+02 -0.23044107308E+03  0.91933995513E+03  0.95117388029E+03  0.00000000000E+00 0.  1.
         14    1    5    5    0    0  0.21689128915E+02 -0.22251857800E+01  0.96664436787E+02  0.99092800466E+02  0.00000000000E+00 0. -1.
         13    1    3    3    0    0 -0.48818520034E+02  0.56422908073E+02 -0.51286273492E+03  0.51826149512E+03  0.00000000000E+00 0. -1.
        -14    1    3    3    0    0  0.89021040568E+01 -0.18138477853E+01 -0.13388743281E+02  0.16180109612E+02  0.00000000000E+00 0.  1.
          5    1    4    4  501    0 -0.78017524962E+02  0.16199633382E+03 -0.33322565013E+03  0.37866390465E+03  0.41800000000E+01 0. -1.
         -5    1    4    4    0  501  0.15978322875E+02  0.16060864753E+02  0.12742443249E+01  0.23072803841E+02  0.41800000000E+01 0. -1.
</event>
<event>
11    1  0.8037748E-009  0.1428658E+03  0.7561462E-02  0.1104400E+00
         22   -1    0    0    0    0  0.00000000000E+00  0.00000000000E+00  0.25972730475E+03  0.25972730475E+03  0.00000000000E+00 0.  1.
         22   -1    0    0    0    0 -0.00000000000E+00 -0.00000000000E+00 -0.93884933049E+03  0.93884933049E+03  0.00000000000E+00 0. -1.
         24    2    1    2    0    0  0.70437386233E+02  0.21022832802E+02 -0.86320777878E+03  0.86995748979E+03  0.79340908924E+02 0.  0.
         25    2    1    2    0    0 -0.40820104140E+02  0.53301712160E+02  0.45722350073E+02  0.14914947326E+03  0.12509068173E+03 0.  0.
        -24    2    1    2    0    0 -0.29617282093E+02 -0.74324544962E+02  0.13836340296E+03  0.17946967219E+03  0.81630941290E+02 0.  0.
        -13    1    3    3    0    0  0.97039835755E+01  0.26886800421E+01 -0.93340676882E+01  0.13730299240E+02  0.00000000000E+00 0.  1.
         14    1    3    3    0    0  0.60733402658E+02  0.18334152760E+02 -0.85387371109E+03  0.85622719055E+03  0.00000000000E+00 0. -1.
         11    1    5    5    0    0  0.11229212314E+02 -0.31940441928E+02  0.56993865806E+01  0.34333220751E+02  0.00000000000E+00 0. -1.
        -12    1    5    5    0    0 -0.40846494407E+02 -0.42384103034E+02  0.13266401638E+03  0.14513645144E+03  0.00000000000E+00 0.  1.
          5    1    4    4  501    0  0.28054681911E+02  0.49665876589E+02  0.55100739936E+02  0.79418690596E+02  0.41800000000E+01 0.  1.
         -5    1    4    4    0  501 -0.68874786052E+02  0.36358355703E+01 -0.93783898624E+01  0.69730782660E+02  0.41800000000E+01 0.  1.
</event>
<event>
11    1  0.8037748E-009  0.1414256E+03  0.7561462E-02  0.1105977E+00
         22   -1    0    0    0    0  0.00000000000E+00  0.00000000000E+00  0.28488466394E+04  0.28488466394E+04  0.00000000000E+00 0. -1.
         22   -1    0    0    0    0 -0.00000000000E+00 -0.00000000000E+00 -0.10295957703E+04  0.10295957703E+04  0.00000000000E+00 0. -1.
         24    2    1    2    0    0 -0.49632862237E+02 -0.42872547070E+02 -0.99002236433E+03  0.99520103843E+03  0.77326248482E+02 0.  0.
         25    2    1    2    0    0  0.10114270992E+03  0.26816857087E+02  0.14811596606E+03  0.22030595090E+03  0.12508949199E+03 0.  0.
        -24    2    1    2    0    0 -0.51509847678E+02  0.16055689983E+02  0.26611572674E+04  0.26629354204E+04  0.80969142101E+02 0.  0.
        -11    1    3    3    0    0 -0.42196561479E+02 -0.54970893782E+02 -0.47955898296E+03  0.48454016046E+03  0.00000000000E+00 0.  1.
         12    1    3    3    0    0 -0.74363007583E+01  0.12098346712E+02 -0.51046338137E+03  0.51066087797E+03  0.00000000000E+00 0. -1.
         11    1    5    5    0    0 -0.41928548164E+02 -0.87196152204E+01  0.24094145974E+04  0.24097951650E+04  0.00000000000E+00 0. -1.
        -12    1    5    5    0    0 -0.95812995144E+01  0.24775305203E+02  0.25174266992E+03  0.25314025541E+03  0.00000000000E+00 0.  1.
          5    1    4    4  501    0 -0.17041969254E+02  0.32006474431E+02  0.68598240332E+02  0.77704788129E+02  0.41800000000E+01 0.  1.
         -5    1    4    4    0  501  0.11818467917E+03 -0.51896173440E+01  0.79517725728E+02  0.14260116277E+03  0.41800000000E+01 0.  1.
</event>
<event>
11    1  0.8037748E-009  0.1414899E+03  0.7561462E-02  0.1105906E+00
         22   -1    0    0    0    0  0.00000000000E+00  0.00000000000E+00  0.11772935590E+04  0.11772935590E+04  0.00000000000E+00 0. -1.
         22   -1    0    0    0    0 -0.00000000000E+00 -0.00000000000E+00 -0.64673462256E+02  0.64673462256E+02  0.00000000000E+00 0. -1.
        -24    2    1    2    0    0  0.95010473815E+01 -0.86325112001E+01 -0.11064686354E+02  0.83308829646E+02  0.81566804902E+02 0.  0.
         25    2    1    2    0    0  0.57742643363E+02 -0.29167276785E+01  0.32349807967E+03  0.35162600227E+03  0.12508843976E+03 0.  0.
         24    2    1    2    0    0 -0.67243690744E+02  0.11549238879E+02  0.80018670339E+03  0.80703218930E+03  0.79668660228E+02 0.  0.
        -13    1    5    5    0    0 -0.27410978432E+01  0.11603504721E+02  0.14818109222E+02  0.19019235004E+02  0.00000000000E+00 0.  1.
         14    1    5    5    0    0 -0.64502592901E+02 -0.54265842645E-01  0.78536859417E+03  0.78801295430E+03  0.00000000000E+00 0. -1.
         13    1    3    3    0    0  0.69774595988E+00  0.83966867846E+00 -0.46022749210E+02  0.46035696343E+02  0.00000000000E+00 0. -1.
        -14    1    3    3    0    0  0.88033014216E+01 -0.94721798786E+01  0.34958062856E+02  0.37273133303E+02  0.00000000000E+00 0.  1.
          5    1    4    4  501    0  0.61697287733E+02  0.44812129429E+02  0.26565010694E+03  0.27640935942E+03  0.41800000000E+01 0.  1.
         -5    1    4    4    0  501 -0.39546443700E+01 -0.47728857107E+02  0.57847972728E+02  0.75216642849E+02  0.41800000000E+01 0.  1.
</event>
<event>
11    1  0.8037748E-009  0.1487635E+03  0.7561462E-02  0.1098149E+00
         22   -1    0    0    0    0  0.00000000000E+00  0.00000000000E+00  0.44440927511E+03  0.44440927511E+03  0.00000000000E+00 0.  1.
         22   -1    0    0    0    0 -0.00000000000E+00 -0.00000000000E+00 -0.22690802466E+03  0.22690802466E+03  0.00000000000E+00 0. -1.
         24    2    1    2    0    0  0.26687271587E+02 -0.74408035086E+02 -0.12527101095E+03  0.16837620070E+03  0.80055934381E+02 0.  0.
         25    2    1    2    0    0 -0.14180664692E+02  0.85648260311E+02  0.19018509733E+01  0.15227946727E+03  0.12509477755E+03 0.  0.
        -24    2    1    2    0    0 -0.12506606895E+02 -0.11240225225E+02  0.34087041043E+03  0.35066163179E+03  0.80549273275E+02 0.  0.
        -13    1    3    3    0    0 -0.12079097995E+02  0.11992067468E+02 -0.26883755619E+02  0.31819029003E+02  0.00000000000E+00 0.  1.
         14    1    3    3    0    0  0.38766369582E+02 -0.86400102553E+02 -0.98387255327E+02  0.13655717170E+03  0.00000000000E+00 0. -1.
         11    1    5    5    0    0  0.14134077748E+02  0.30009281962E+02  0.13474596450E+03  0.13876888739E+03  0.00000000000E+00 0. -1.
        -12    1    5    5    0    0 -0.26640684643E+02 -0.41249507187E+02  0.20612444593E+03  0.21189274441E+03  0.00000000000E+00 0.  1.
          5    1    4    4  501    0 -0.40338271945E+02 -0.98475179098E+01 -0.26193925726E+02  0.49272141595E+02  0.41800000000E+01 0. -1.
         -5    1    4    4    0  501  0.26157607252E+02  0.95495778221E+02  0.28095776699E+02  0.10300732568E+03  0.41800000000E+01 0. -1.
</event>
<event>
11    1  0.8037748E-009  0.1662159E+03  0.7561462E-02  0.1081372E+00
         22   -1    0    0    0    0  0.00000000000E+00  0.00000000000E+00  0.11105361186E+03  0.11105361186E+03  0.00000000000E+00 0.  1.
         22   -1    0    0    0    0 -0.00000000000E+00 -0.00000000000E+00 -0.42113040238E+03  0.42113040238E+03  0.00000000000E+00 0.  1.
         24    2    1    2    0    0  0.93649756584E+02  0.70055414405E+02 -0.18884602451E+03  0.23628240579E+03  0.80551327201E+02 0.  0.
         25    2    1    2    0    0 -0.36995753237E+02 -0.10055474868E+03 -0.10645927359E+03  0.19611376190E+03  0.12508831854E+03 0.  0.
        -24    2    1    2    0    0 -0.56654003347E+02  0.30499334270E+02 -0.14771492421E+02  0.99787846550E+02  0.74830019675E+02 0.  0.
        -13    1    3    3    0    0  0.51227444756E+02  0.76533630417E+02 -0.15987754210E+03  0.18450603283E+03  0.00000000000E+00 0.  1.
         14    1    3    3    0    0  0.42422311828E+02 -0.64782160118E+01 -0.28968482410E+02  0.51776372958E+02  0.00000000000E+00 0. -1.
         13    1    5    5    0    0  0.76005210016E+01 -0.15781063333E+02 -0.10638190983E+02  0.20493437653E+02  0.00000000000E+00 0. -1.
        -14    1    5    5    0    0 -0.64254524348E+02  0.46280397604E+02 -0.41333014374E+01  0.79294408897E+02  0.00000000000E+00 0.  1.
          5    1    4    4  501    0  0.20630521619E+02 -0.63101243493E+02 -0.10845528076E+03  0.12722973583E+03  0.41800000000E+01 0. -1.
         -5    1    4    4    0  501 -0.57626274856E+02 -0.37453505182E+02  0.19960071737E+01  0.68884026079E+02  0.41800000000E+01 0. -1.
</event>
<event>
11    1  0.8037748E-009  0.1498752E+03  0.7561462E-02  0.1097006E+00
         22   -1    0    0    0    0  0.00000000000E+00  0.00000000000E+00  0.64206263948E+03  0.64206263948E+03  0.00000000000E+00 0.  1.
         22   -1    0    0    0    0 -0.00000000000E+00 -0.00000000000E+00 -0.39618308481E+03  0.39618308481E+03  0.00000000000E+00 0.  1.
        -24    2    1    2    0    0  0.25415593713E+02 -0.23862872422E+02 -0.33429864929E+03  0.34560469146E+03  0.80446421666E+02 0.  0.
         25    2    1    2    0    0 -0.23918809677E+02 -0.61256933916E+02  0.49356939572E+02  0.14969212231E+03  0.12508837912E+03 0.  0.
         24    2    1    2    0    0 -0.14967840357E+01  0.85119806338E+02  0.53082126439E+03  0.54294891051E+03  0.75991334382E+02 0.  0.
        -13    1    5    5    0    0 -0.22974966969E+02  0.89161939843E+02  0.44066309298E+03  0.45017958877E+03  0.00000000000E+00 0.  1.
         14    1    5    5    0    0  0.21478182933E+02 -0.40421335041E+01  0.90158171405E+02  0.92769321742E+02  0.00000000000E+00 0. -1.
         11    1    3    3    0    0  0.31518649196E+02  0.14852511395E+02 -0.67696170899E+02  0.76136679047E+02  0.00000000000E+00 0. -1.
        -12    1    3    3    0    0 -0.61030554830E+01 -0.38715383817E+02 -0.26660247839E+03  0.26946801242E+03  0.00000000000E+00 0.  1.
          5    1    4    4  501    0  0.20188833652E+02 -0.81798263456E+02  0.63091704525E+01  0.84592097388E+02  0.41800000000E+01 0. -1.
         -5    1    4    4    0  501 -0.44107643329E+02  0.20541329540E+02  0.43047769120E+02  0.65100024927E+02  0.41800000000E+01 0. -1.
</event>
<event>
11    1  0.8037748E-009  0.1331317E+03  0.7561462E-02  0.1115480E+00
         22   -1    0    0    0    0  0.00000000000E+00  0.00000000000E+00  0.11485223181E+03  0.11485223181E+03  0.00000000000E+00 0. -1.
         22   -1    0    0    0    0 -0.00000000000E+00 -0.00000000000E+00 -0.27852677941E+04  0.27852677941E+04  0.00000000000E+00 0.  1.
        -24    2    1    2    0    0  0.52963095626E+02  0.40669582276E+01 -0.17415761652E+04  0.17442495223E+04  0.80605377921E+02 0.  0.
         25    2    1    2    0    0 -0.18843042597E+02 -0.26585904030E+02 -0.10195574850E+04  0.10277191077E+04  0.12508888249E+03 0.  0.
         24    2    1    2    0    0 -0.34120053030E+02  0.22518945802E+02  0.90718087922E+02  0.12815139598E+03  0.80757215638E+02 0.  0.
        -11    1    5    5    0    0  0.17446379440E+02  0.24155828658E+00 -0.41182584074E+01  0.17927480533E+02  0.00000000000E+00 0.  1.
         12    1    5    5    0    0 -0.51566432469E+02  0.22277387516E+02  0.94836346330E+02  0.11022391545E+03  0.00000000000E+00 0. -1.
         13    1    3    3    0    0  0.58524835023E+02 -0.23693313306E+02 -0.90793554288E+03  0.91012827636E+03  0.00000000000E+00 0. -1.
        -14    1    3    3    0    0 -0.55617393971E+01  0.27760271534E+02 -0.83364062236E+03  0.83412124590E+03  0.00000000000E+00 0.  1.
          5    1    4    4  501    0  0.42774504361E+02  0.23608433992E+02 -0.43967264445E+03  0.44239860201E+03  0.41800000000E+01 0. -1.
         -5    1    4    4    0  501 -0.61617546958E+02 -0.50194338022E+02 -0.57988484054E+03  0.58532050566E+03  0.41800000000E+01 0. -1.
</event>
<event>
11    1  0.8612569E-009  0.1856932E+03  0.7561462E-02  0.1065129E+00
         22   -1    0    0    0    0  0.00000000000E+00  0.00000000000E+00  0.11683737346E+04  0.11683737346E+04  0.00000000000E+00 0.  1.
         22   -1    0    0    0    0 -0.00000000000E+00 -0.00000000000E+00 -0.72762620247E+03  0.72762620247E+03  0.00000000000E+00 0. -1.
        -24    2    1    2    0    0  0.15081587983E+02 -0.73787319506E+02 -0.57308457525E+03  0.58369990182E+03  0.81287281778E+02 0.  0.
         25    2    1    2    0    0 -0.12205232395E+02  0.20815455626E+03 -0.40458921967E+02  0.24650323740E+03  0.12509849996E+03 0.  0.
         24    2    1    2    0    0 -0.28763555882E+01 -0.13436723676E+03  0.10542910293E+04  0.10657967978E+04  0.79563886320E+02 0.  0.
        -11    1    5    5    0    0 -0.27912388526E+02 -0.12706325916E+03  0.88283857185E+03  0.89237218536E+03  0.00000000000E+00 0.  1.
         12    1    5    5    0    0  0.25036032938E+02 -0.73039775924E+01  0.17145245749E+03  0.17342461248E+03  0.00000000000E+00 0. -1.
         11    1    3    3    0    0 -0.92127980740E+01 -0.72995818695E+02 -0.27651948840E+03  0.28614033735E+03  0.00000000000E+00 0. -1.
        -12    1    3    3    0    0  0.24294386057E+02 -0.79150081098E+00 -0.29656508685E+03  0.29755956447E+03  0.00000000000E+00 0.  1.
          5    1    4    4  501    0 -0.53117811218E+02  0.16843439739E+03 -0.34803646548E+00  0.17666137558E+03  0.41800000000E+01 0. -1.
         -5    1    4    4    0  501  0.40912578823E+02  0.39720158874E+02 -0.40110885502E+02  0.69841861821E+02  0.41800000000E+01 0. -1.
</event>
<event>
11    1  0.8037748E-009  0.1435608E+03  0.7561462E-02  0.1103646E+00
         22   -1    0    0    0    0  0.00000000000E+00  0.00000000000E+00  0.15001461481E+04  0.15001461481E+04  0.00000000000E+00 0. -1.
         22   -1    0    0    0    0 -0.00000000000E+00 -0.00000000000E+00 -0.17074299479E+03  0.17074299479E+03  0.00000000000E+00 0.  1.
         24    2    1    2    0    0  0.23960190646E+01  0.31635991055E+02 -0.12842062363E+03  0.15824277671E+03  0.86846663554E+02 0.  0.
         25    2    1    2    0    0  0.66734360479E+02 -0.14471474642E+02  0.17755248836E+03  0.22767931277E+03  0.12510029933E+03 0.  0.
        -24    2    1    2    0    0 -0.69130379544E+02 -0.17164516413E+02  0.12802712886E+04  0.12849670535E+04  0.83499257510E+02 0.  0.
        -11    1    3    3    0    0 -0.15372589633E+02  0.35499330570E+02 -0.13379989061E+03  0.13928004060E+03  0.00000000000E+00 0.  1.
         12    1    3    3    0    0  0.17768608698E+02 -0.38633395147E+01  0.53792669858E+01  0.18962736104E+02  0.00000000000E+00 0. -1.
         13    1    5    5    0    0 -0.55191102965E+02  0.25564331307E+02  0.89911527161E+03  0.90117027499E+03  0.00000000000E+00 0. -1.
        -14    1    5    5    0    0 -0.13939276579E+02 -0.42728847720E+02  0.38115601700E+03  0.38379677846E+03  0.00000000000E+00 0.  1.
          5    1    4    4  501    0 -0.32751850339E+02 -0.70912445238E+01  0.15093098314E+02  0.36989775159E+02  0.41800000000E+01 0.  1.
         -5    1    4    4    0  501  0.99486210818E+02 -0.73802301178E+01  0.16245939005E+03  0.19068953761E+03  0.41800000000E+01 0.  1.
</event>
<event>
11    1  0.8037748E-009  0.1554688E+03  0.7561462E-02  0.1091418E+00
         22   -1    0    0    0    0  0.00000000000E+00  0.00000000000E+00  0.49837454111E+03  0.49837454111E+03  0.00000000000E+00 0. -1.
         22   -1    0    0    0    0 -0.00000000000E+00 -0.00000000000E+00 -0.45033399491E+03  0.45033399491E+03  0.00000000000E+00 0.  1.
         24    2    1    2    0    0 -0.15319194677E+02  0.33536861872E+02 -0.38749713915E+03  0.39759394787E+03  0.81040210440E+02 0.  0.
         25    2    1    2    0    0 -0.68372140126E+02  0.16965377648E+02  0.61581138202E+02  0.15621866606E+03  0.12509780757E+03 0.  0.
        -24    2    1    2    0    0  0.83691334803E+02 -0.50502239520E+02  0.37395654714E+03  0.39489592209E+03  0.80898543982E+02 0.  0.
        -13    1    3    3    0    0 -0.16292084953E+02  0.13727444727E+02 -0.37150767320E+03  0.37211802700E+03  0.00000000000E+00 0.  1.
         14    1    3    3    0    0  0.97289027578E+00  0.19809417144E+02 -0.15989465946E+02  0.25475920873E+02  0.00000000000E+00 0. -1.
         11    1    5    5    0    0  0.72196151223E+02 -0.26251971379E+02  0.14249281458E+03  0.16188160013E+03  0.00000000000E+00 0. -1.
        -12    1    5    5    0    0  0.11495183580E+02 -0.24250268141E+02  0.23146373256E+03  0.23301432196E+03  0.00000000000E+00 0.  1.
          5    1    4    4  501    0  0.32719663919E+02 -0.16616044598E+02  0.17226762900E+02  0.40754178989E+02  0.41800000000E+01 0. -1.
         -5    1    4    4    0  501 -0.10109180404E+03  0.33581422247E+02  0.44354375302E+02  0.11546448707E+03  0.41800000000E+01 0. -1.
</event>
<event>
11    1  0.8037748E-009  0.2096402E+03  0.7561462E-02  0.1047908E+00
         22   -1    0    0    0    0  0.00000000000E+00  0.00000000000E+00  0.16478962166E+03  0.16478962166E+03  0.00000000000E+00 0. -1.
         22   -1    0    0    0    0 -0.00000000000E+00 -0.00000000000E+00 -0.11170483509E+04  0.11170483509E+04  0.00000000000E+00 0. -1.
        -24    2    1    2    0    0 -0.35654498506E+02  0.63827514078E+01 -0.81714312539E+03  0.82206719335E+03  0.82216788016E+02 0.  0.
         25    2    1    2    0    0  0.18423799939E+03  0.53349490231E+02 -0.16019127673E+03  0.27946367722E+03  0.12509553635E+03 0.  0.
         24    2    1    2    0    0 -0.14858350089E+03 -0.59732241638E+02  0.25075672892E+02  0.18030710198E+03  0.78973819872E+02 0.  0.
        -13    1    5    5    0    0 -0.36482315138E+02 -0.13357770330E+02 -0.28000643400E+02  0.47889720993E+02  0.00000000000E+00 0.  1.
         14    1    5    5    0    0 -0.11210118575E+03 -0.46374471308E+02  0.53076316291E+02  0.13241738098E+03  0.00000000000E+00 0. -1.
         11    1    3    3    0    0 -0.32551507864E+02 -0.34933865063E+02 -0.48668912981E+03  0.48902585276E+03  0.00000000000E+00 0. -1.
        -12    1    3    3    0    0 -0.31029906421E+01  0.41316616470E+02 -0.33045399558E+03  0.33304134059E+03  0.00000000000E+00 0.  1.
          5    1    4    4  501    0  0.64532900608E+02 -0.12256015446E+02 -0.12040046858E+03  0.13721680075E+03  0.41800000000E+01 0. -1.
         -5    1    4    4    0  501  0.11970509878E+03  0.65605505676E+02 -0.39790808150E+02  0.14224687646E+03  0.41800000000E+01 0. -1.
</event>
<event>
11    1  0.8037748E-009  0.1413460E+03  0.7561462E-02  0.1106065E+00
         22   -1    0    0    0    0  0.00000000000E+00  0.00000000000E+00  0.74392655119E+02  0.74392655119E+02  0.00000000000E+00 0. -1.
         22   -1    0    0    0    0 -0.00000000000E+00 -0.00000000000E+00 -0.23921160018E+04  0.23921160018E+04  0.00000000000E+00 0. -1.
        -24    2    1    2    0    0 -0.99388154335E+01  0.57351930595E+02 -0.20381492826E+04  0.20406078739E+04  0.81486029578E+02 0.  0.
         25    2    1    2    0    0 -0.43290653523E+02 -0.88749494507E+02 -0.27297354904E+03  0.31608970024E+03  0.12509031403E+03 0.  0.
         24    2    1    2    0    0  0.53229468957E+02  0.31397563912E+02 -0.66005150896E+01  0.10981108279E+03  0.90530236489E+02 0.  0.
        -11    1    5    5    0    0  0.48753927604E+01 -0.30552517477E+02  0.95929543277E-01  0.30939214296E+02  0.00000000000E+00 0.  1.
         12    1    5    5    0    0  0.48354076197E+02  0.61950081389E+02 -0.66964446329E+01  0.78871868493E+02  0.00000000000E+00 0. -1.
         13    1    3    3    0    0  0.21796135245E+02 -0.81248860096E+01 -0.78772298369E+03  0.78806635781E+03  0.00000000000E+00 0. -1.
        -14    1    3    3    0    0 -0.31734950678E+02  0.65476816605E+02 -0.12504262989E+04  0.12525415161E+04  0.00000000000E+00 0.  1.
          5    1    4    4  501    0 -0.13164470731E+01 -0.68891913152E+02 -0.42757855510E+02  0.81200587057E+02  0.41800000000E+01 0.  1.
         -5    1    4    4    0  501 -0.41974206450E+02 -0.19857581354E+02 -0.23021569353E+03  0.23488911318E+03  0.41800000000E+01 0.  1.
</event>
<event>
11    1  0.8037748E-009  0.1686554E+03  0.7561462E-02  0.1079208E+00
         22   -1    0    0    0    0  0.00000000000E+00  0.00000000000E+00  0.36371265216E+03  0.36371265216E+03  0.00000000000E+00 0.  1.
         22   -1    0    0    0    0 -0.00000000000E+00 -0.00000000000E+00 -0.18680052245E+03  0.18680052245E+03  0.00000000000E+00 0.  1.
        -24    2    1    2    0    0  0.29919265651E+02  0.96950598379E+02 -0.67396505263E+02  0.14564341285E+03  0.79844435013E+02 0.  0.
         25    2    1    2    0    0 -0.27864098617E+02 -0.16694935011E+03  0.12416296085E+03  0.24435412330E+03  0.12507598984E+03 0.  0.
         24    2    1    2    0    0 -0.20551670342E+01  0.69998751727E+02  0.12014567412E+03  0.16051563846E+03  0.80163821174E+02 0.  0.
        -13    1    5    5    0    0  0.19873639383E+02  0.77890538881E+02  0.76148810503E+02  0.11072731791E+03  0.00000000000E+00 0.  1.
         14    1    5    5    0    0 -0.21928806418E+02 -0.78917871547E+01  0.43996863614E+02  0.49788320551E+02  0.00000000000E+00 0. -1.
         11    1    3    3    0    0  0.12849411216E+02  0.26761265010E+02  0.17274160832E+02  0.34346314300E+02  0.00000000000E+00 0. -1.
        -12    1    3    3    0    0  0.17069854435E+02  0.70189333368E+02 -0.84670666095E+02  0.11129709855E+03  0.00000000000E+00 0.  1.
          5    1    4    4  501    0  0.96989219272E+01 -0.99529468445E+02  0.13311652276E+03  0.16654628548E+03  0.41800000000E+01 0. -1.
         -5    1    4    4    0  501 -0.37563020544E+02 -0.67419881661E+02 -0.89535619104E+01  0.77807837821E+02  0.41800000000E+01 0. -1.
</event>
<event>
11    1  0.8037748E-009  0.1333340E+03  0.7561462E-02  0.1115239E+00
         22   -1    0    0    0    0  0.00000000000E+00  0.00000000000E+00  0.62752914111E+03  0.62752914111E+03  0.00000000000E+00 0.  1.
         22   -1    0    0    0    0 -0.00000000000E+00 -0.00000000000E+00 -0.42400466508E+03  0.42400466508E+03  0.00000000000E+00 0. -1.
         24    2    1    2    0    0 -0.33274170704E+02  0.30689543478E+02 -0.36953485586E+03  0.38099989854E+03  0.80968478299E+02 0.  0.
         25    2    1    2    0    0  0.40989363625E+02 -0.48281666570E+02  0.62661917512E+02  0.15357585080E+03  0.12509108196E+03 0.  0.
        -24    2    1    2    0    0 -0.77151929217E+01  0.17592123092E+02  0.51039741437E+03  0.51695805685E+03  0.79819201623E+02 0.  0.
        -11    1    3    3    0    0  0.14201498773E+02 -0.14088409930E+02 -0.36416438284E+02  0.41549041374E+02  0.00000000000E+00 0.  1.
         12    1    3    3    0    0 -0.47475669476E+02  0.44777953408E+02 -0.33311841757E+03  0.33945085717E+03  0.00000000000E+00 0. -1.
         11    1    5    5    0    0  0.19907780457E+02 -0.15917234607E+02  0.34547205918E+03  0.34641105894E+03  0.00000000000E+00 0. -1.
        -12    1    5    5    0    0 -0.27622973379E+02  0.33509357699E+02  0.16492535519E+03  0.17054699791E+03  0.00000000000E+00 0.  1.
          5    1    4    4  501    0  0.29990193648E+02  0.37753139884E+02  0.42550385702E+02  0.64441593785E+02  0.41800000000E+01 0.  1.
         -5    1    4    4    0  501  0.10999169977E+02 -0.86034806454E+02  0.20111531810E+02  0.89134257014E+02  0.41800000000E+01 0.  1.
</event>
<event>
11    1  0.8037748E-009  0.1447694E+03  0.7561462E-02  0.1102346E+00
         22   -1    0    0    0    0  0.00000000000E+00  0.00000000000E+00  0.67471947838E+03  0.67471947838E+03  0.00000000000E+00 0. -1.
         22   -1    0    0    0    0 -0.00000000000E+00 -0.00000000000E+00 -0.35160527539E+03  0.35160527539E+03  0.00000000000E+00 0.  1.
         24    2    1    2    0    0 -0.45898948378E+01  0.64844102542E+02 -0.28502291854E+03  0.30362631565E+03  0.82006406421E+02 0.  0.
         25    2    1    2    0    0 -0.47032861513E+02 -0.11069753777E+03  0.92882644971E+02  0.19682586982E+03  0.12508877792E+03 0.  0.
        -24    2    1    2    0    0  0.51622756351E+02  0.45853435232E+02  0.51525447657E+03  0.52587256830E+03  0.79292723298E+02 0.  0.
        -11    1    3    3    0    0 -0.12995525975E+02  0.63416144584E+01 -0.19742716278E+03  0.19795601626E+03  0.00000000000E+00 0.  1.
         12    1    3    3    0    0  0.84056311370E+01  0.58502488084E+02 -0.87595755759E+02  0.10567029939E+03  0.00000000000E+00 0. -1.
         11    1    5    5    0    0  0.61641207673E+02  0.61156418698E+02  0.42936043511E+03  0.43805265582E+03  0.00000000000E+00 0. -1.
        -12    1    5    5    0    0 -0.10018451322E+02 -0.15302983465E+02  0.85894041459E+02  0.87819912480E+02  0.00000000000E+00 0.  1.
          5    1    4    4  501    0 -0.10901796500E+02 -0.71097064655E+02 -0.17411429746E+02  0.74123357016E+02  0.41800000000E+01 0.  1.
         -5    1    4    4    0  501 -0.36131065013E+02 -0.39600473120E+02  0.11029407472E+03  0.12270251280E+03  0.41800000000E+01 0.  1.
</event>
<event>
11    1  0.8037748E-009  0.2157490E+03  0.7561462E-02  0.1043914E+00
         22   -1    0    0    0    0  0.00000000000E+00  0.00000000000E+00  0.94013404133E+03  0.94013404133E+03  0.00000000000E+00 0.  1.
         22   -1    0    0    0    0 -0.00000000000E+00 -0.00000000000E+00 -0.14119293542E+04  0.14119293542E+04  0.00000000000E+00 0.  1.
        -24    2    1    2    0    0  0.17242456471E+03 -0.30341573838E+02 -0.12996980075E+04  0.13138047900E+04  0.78849691343E+02 0.  0.
         25    2    1    2    0    0 -0.17369207785E+03  0.10484562812E+03  0.38856010013E+02  0.24149086931E+03  0.12508599762E+03 0.  0.
         24    2    1    2    0    0  0.12675131421E+01 -0.74504054287E+02  0.78904668466E+03  0.79676773621E+03  0.81802776251E+02 0.  0.
        -11    1    5    5    0    0 -0.39288940130E+02 -0.42718701646E+02  0.36191626908E+03  0.36654043994E+03  0.00000000000E+00 0.  1.
         12    1    5    5    0    0  0.40556453272E+02 -0.31785352640E+02  0.42713041558E+03  0.43022729628E+03  0.00000000000E+00 0. -1.
         13    1    3    3    0    0  0.17088078833E+02 -0.69783589757E+01 -0.40509468449E+03  0.40551498534E+03  0.00000000000E+00 0. -1.
        -14    1    3    3    0    0  0.15533648587E+03 -0.23363214863E+02 -0.89460332301E+03  0.90828980463E+03  0.00000000000E+00 0.  1.
          5    1    4    4  501    0 -0.57000687436E+02 -0.26094643951E+02  0.76009174693E+01  0.63287085235E+02  0.41800000000E+01 0.  1.
         -5    1    4    4    0  501 -0.11669139041E+03  0.13094027208E+03  0.31255092544E+02  0.17820378407E+03  0.41800000000E+01 0.  1.
</event>
<event>
11    1  0.8037748E-009  0.1788755E+03  0.7561462E-02  0.1070556E+00
         22   -1    0    0    0    0  0.00000000000E+00  0.00000000000E+00  0.58688203275E+03  0.58688203275E+03  0.00000000000E+00 0.  1.
         22   -1    0    0    0    0 -0.00000000000E+00 -0.00000000000E+00 -0.10476633312E+04  0.10476633312E+04  0.00000000000E+00 0.  1.
         24    2    1    2    0    0  0.99049888044E+02 -0.80358613662E+02 -0.99954555899E+03  0.10110527760E+04  0.82873423391E+02 0.  0.
         25    2    1    2    0    0 -0.12556927434E+03  0.69371089339E+02  0.21010783444E+03  0.28350213871E+03  0.12509264513E+03 0.  0.
        -24    2    1    2    0    0  0.26519386298E+02  0.10987524323E+02  0.32865642614E+03  0.33999044916E+03  0.82185494702E+02 0.  0.
        -11    1    3    3    0    0  0.42712730848E+02 -0.85342436470E+02 -0.64641709782E+03  0.65342388478E+03  0.00000000000E+00 0.  1.
         12    1    3    3    0    0  0.56337157196E+02  0.49838228083E+01 -0.35312846116E+03  0.35762889124E+03  0.00000000000E+00 0. -1.
         11    1    5    5    0    0  0.88928428639E+01  0.37146328337E+02  0.72938641761E+02  0.82334548186E+02  0.00000000000E+00 0. -1.
        -12    1    5    5    0    0  0.17626543434E+02 -0.26158804014E+02  0.25571778438E+03  0.25765590097E+03  0.00000000000E+00 0.  1.
          5    1    4    4  501    0 -0.14264153444E+03  0.80309544383E+02  0.20463968736E+03  0.26208987830E+03  0.41800000000E+01 0.  1.
         -5    1    4    4    0  501  0.17072260094E+02 -0.10938455044E+02  0.54681470810E+01  0.21412260412E+02  0.41800000000E+01 0.  1.
</event>
<event>
11    1  0.8037748E-009  0.1643980E+03  0.7561462E-02  0.1083012E+00
         22   -1    0    0    0    0  0.00000000000E+00  0.00000000000E+00  0.28903960070E+03  0.28903960070E+03  0.00000000000E+00 0. -1.
         22   -1    0    0    0    0 -0.00000000000E+00 -0.00000000000E+00 -0.35504048135E+03  0.35504048135E+03  0.00000000000E+00 0.  1.
         24    2    1    2    0    0  0.17616937381E+02  0.10683908725E+03 -0.26212056611E+03  0.29470495510E+03  0.80117865292E+02 0.  0.
         25    2    1    2    0    0 -0.31071343849E+02 -0.93359883461E+02  0.27544724002E+02  0.16151733406E+03  0.12509053175E+03 0.  0.
        -24    2    1    2    0    0  0.13454406468E+02 -0.13479203792E+02  0.16857496146E+03  0.18785779289E+03  0.80686570953E+02 0.  0.
        -13    1    3    3    0    0 -0.23303723261E+02  0.79263052748E+02 -0.19140983945E+03  0.20847882791E+03  0.00000000000E+00 0.  1.
         14    1    3    3    0    0  0.40920660642E+02  0.27576034505E+02 -0.70710726658E+02  0.86226127194E+02  0.00000000000E+00 0. -1.
         13    1    5    5    0    0 -0.20914037840E+02  0.36872913015E+01  0.13553039112E+03  0.13718410991E+03  0.00000000000E+00 0. -1.
        -14    1    5    5    0    0  0.34368444308E+02 -0.17166495093E+02  0.33044570340E+02  0.50673682982E+02  0.00000000000E+00 0.  1.
          5    1    4    4  501    0  0.12615493998E+02 -0.26952620514E+02 -0.44806258604E+02  0.53950603809E+02  0.41800000000E+01 0. -1.
         -5    1    4    4    0  501 -0.43686837847E+02 -0.66407262948E+02  0.72350982606E+02  0.10756673025E+03  0.41800000000E+01 0. -1.
</event>
<event>
11    1  0.8037748E-009  0.3615608E+03  0.7561462E-02  0.9770521E-01
         22   -1    0    0    0    0  0.00000000000E+00  0.00000000000E+00  0.11684616203E+04  0.11684616203E+04  0.00000000000E+00 0. -1.
         22   -1    0    0    0    0 -0.00000000000E+00 -0.00000000000E+00 -0.10083679081E+04  0.10083679081E+04  0.00000000000E+00 0. -1.
        -24    2    1    2    0    0 -0.24966234102E+03 -0.13279718655E+03 -0.95794756170E+03  0.10017795355E+04  0.77021617248E+02 0.  0.
         25    2    1    2    0    0  0.16933713356E+03  0.52375223230E+02  0.63656593857E+03  0.67251904310E+03  0.12508972928E+03 0.  0.
         24    2    1    2    0    0  0.80325207461E+02  0.80421963321E+02  0.48147533530E+03  0.50253094975E+03  0.88312093263E+02 0.  0.
        -11    1    5    5    0    0  0.37540760689E+02  0.92198826265E+02  0.32953060785E+03  0.34423880343E+03  0.00000000000E+00 0.  1.
         12    1    5    5    0    0  0.42784446773E+02 -0.11776862944E+02  0.15194472745E+03  0.15829214632E+03  0.00000000000E+00 0. -1.
         11    1    3    3    0    0 -0.12417734528E+03 -0.28778126521E+02 -0.48782444999E+03  0.50420322060E+03  0.00000000000E+00 0. -1.
        -12    1    3    3    0    0 -0.12548499574E+03 -0.10401906003E+03 -0.47012311170E+03  0.49757631491E+03  0.00000000000E+00 0.  1.
          5    1    4    4  501    0  0.44981258126E+02  0.20086318050E+02  0.44042101047E+02  0.66211425147E+02  0.41800000000E+01 0.  1.
         -5    1    4    4    0  501  0.12435587544E+03  0.32288905180E+02  0.59252383753E+03  0.60630761796E+03  0.41800000000E+01 0.  1.
</event>
<event>
11    1  0.8037748E-009  0.1883683E+03  0.7561462E-02  0.1063068E+00
         22   -1    0    0    0    0  0.00000000000E+00  0.00000000000E+00  0.20851198956E+04  0.20851198956E+04  0.00000000000E+00 0. -1.
         22   -1    0    0    0    0 -0.00000000000E+00 -0.00000000000E+00 -0.24545305067E+03  0.24545305067E+03  0.00000000000E+00 0. -1.
        -24    2    1    2    0    0 -0.88561972464E+02 -0.95674935864E+02 -0.78292813664E+02  0.17186264742E+03  0.80063028849E+02 0.  0.
         25    2    1    2    0    0  0.84519863051E+02  0.13879191581E+03 -0.31106920837E+02  0.20741857181E+03  0.12509204716E+03 0.  0.
         24    2    1    2    0    0  0.40421094132E+01 -0.43116979943E+02  0.19490665795E+04  0.19512917271E+04  0.82483091412E+02 0.  0.
        -11    1    5    5    0    0 -0.25713801062E+02  0.10032552497E+02  0.35929179196E+03  0.36035044532E+03  0.00000000000E+00 0.  1.
         12    1    5    5    0    0  0.29755910475E+02 -0.53149532440E+02  0.15897747875E+04  0.15909412817E+04  0.00000000000E+00 0. -1.
         11    1    3    3    0    0 -0.98091758561E+02 -0.60719579237E+02 -0.69129620292E+02  0.13449076103E+03  0.00000000000E+00 0. -1.
        -12    1    3    3    0    0  0.95297860962E+01 -0.34955356627E+02 -0.91631933719E+01  0.37371886395E+02  0.00000000000E+00 0.  1.
          5    1    4    4  501    0  0.96284173943E+02  0.99831582098E+02 -0.65991424910E+02  0.15365327038E+03  0.41800000000E+01 0.  1.
         -5    1    4    4    0  501 -0.11764310891E+02  0.38960333709E+02  0.34884504073E+02  0.53765301430E+02  0.41800000000E+01 0.  1.
</event>
<event>
11    1  0.8037748E-009  0.2549033E+03  0.7561462E-02  0.1021319E+00
         22   -1    0    0    0    0  0.00000000000E+00  0.00000000000E+00  0.17333382907E+04  0.17333382907E+04  0.00000000000E+00 0. -1.
         22   -1    0    0    0    0 -0.00000000000E+00 -0.00000000000E+00 -0.61453340720E+03  0.61453340720E+03  0.00000000000E+00 0.  1.
        -24    2    1    2    0    0  0.10136378396E+03 -0.37646488754E+02 -0.52795540322E+03  0.54476405184E+03  0.79618399701E+02 0.  0.
         25    2    1    2    0    0 -0.20477696936E+03  0.22257500060E+03  0.32174179061E+03  0.45893919627E+03  0.12503666652E+03 0.  0.
         24    2    1    2    0    0  0.10341318540E+03 -0.18492851185E+03  0.13250184961E+04  0.13441684498E+04  0.78879433234E+02 0.  0.
        -13    1    5    5    0    0  0.31274469550E+02 -0.65916040479E+02  0.25817246790E+03  0.26828350680E+03  0.00000000000E+00 0.  1.
         14    1    5    5    0    0  0.72138715848E+02 -0.11901247137E+03  0.10668460282E+04  0.10758849430E+04  0.00000000000E+00 0. -1.
         11    1    3    3    0    0 -0.36044054756E+01  0.12735879567E+02 -0.22796109063E+02  0.26360139521E+02  0.00000000000E+00 0. -1.
        -12    1    3    3    0    0  0.10496818944E+03 -0.50382368321E+02 -0.50515929416E+03  0.51840391232E+03  0.00000000000E+00 0.  1.
          5    1    4    4  501    0 -0.69929068627E+02  0.74944628487E+02  0.33122937606E+02  0.10780247388E+03  0.41800000000E+01 0.  1.
         -5    1    4    4    0  501 -0.13484790073E+03  0.14763037211E+03  0.28861885301E+03  0.35113672239E+03  0.41800000000E+01 0.  1.
</event>
<event>
11    1  0.8037748E-009  0.1556434E+03  0.7561462E-02  0.1091248E+00
         22   -1    0    0    0    0  0.00000000000E+00  0.00000000000E+00  0.68565256960E+03  0.68565256960E+03  0.00000000000E+00 0. -1.
         22   -1    0    0    0    0 -0.00000000000E+00 -0.00000000000E+00 -0.31230078645E+04  0.31230078645E+04  0.00000000000E+00 0.  1.
         24    2    1    2    0    0  0.22212794761E+02 -0.19067661745E+01 -0.30700945043E+04  0.30712231752E+04  0.80215229576E+02 0.  0.
         25    2    1    2    0    0  0.72849438550E+02 -0.72816405371E+01  0.69659001522E+02  0.16080681701E+03  0.12508554240E+03 0.  0.
        -24    2    1    2    0    0 -0.95062233310E+02  0.91884067117E+01  0.56308020779E+03  0.57663044190E+03  0.79511578381E+02 0.  0.
        -13    1    3    3    0    0  0.22248560648E+01 -0.19716327374E+02 -0.27314722211E+04  0.27315442845E+04  0.00000000000E+00 0.  1.
         14    1    3    3    0    0  0.19987938696E+02  0.17809561200E+02 -0.33862228319E+03  0.33967889077E+03  0.00000000000E+00 0. -1.
         13    1    5    5    0    0 -0.68799252892E+02 -0.29741286082E+02  0.39822118452E+03  0.40521351544E+03  0.00000000000E+00 0. -1.
        -14    1    5    5    0    0 -0.26262980418E+02  0.38929692794E+02  0.16485902327E+03  0.17141692646E+03  0.00000000000E+00 0.  1.
          5    1    4    4  501    0  0.94324761156E+02 -0.42519918381E+01  0.90197763948E+02  0.13064589172E+03  0.41800000000E+01 0.  1.
         -5    1    4    4    0  501 -0.21475322606E+02 -0.30296486990E+01 -0.20538762427E+02  0.30160925289E+02  0.41800000000E+01 0.  1.
</event>
<event>
11    1  0.8037748E-009  0.1388992E+03  0.7561462E-02  0.1108794E+00
         22   -1    0    0    0    0  0.00000000000E+00  0.00000000000E+00  0.96135666917E+03  0.96135666917E+03  0.00000000000E+00 0. -1.
         22   -1    0    0    0    0 -0.00000000000E+00 -0.00000000000E+00 -0.17707591697E+04  0.17707591697E+04  0.00000000000E+00 0. -1.
         24    2    1    2    0    0 -0.37506557727E+02 -0.15596193686E+02 -0.17500235824E+04  0.17519319313E+04  0.70943427577E+02 0.  0.
         25    2    1    2    0    0 -0.25910294142E+02  0.35524143959E+02  0.26314492092E+03  0.29466171485E+03  0.12508784370E+03 0.  0.
        -24    2    1    2    0    0  0.63416851869E+02 -0.19927950274E+02  0.67747616093E+03  0.68552219272E+03  0.80919143519E+02 0.  0.
        -11    1    3    3    0    0 -0.12581609443E+01 -0.15683762402E+02 -0.80958803692E+02  0.82473579207E+02  0.00000000000E+00 0.  1.
         12    1    3    3    0    0 -0.36248396783E+02  0.87568716594E-01 -0.16690647787E+04  0.16694583521E+04  0.00000000000E+00 0. -1.
         13    1    5    5    0    0  0.43105648850E+02 -0.18192119302E+02  0.64798141170E+03  0.64966834622E+03  0.00000000000E+00 0. -1.
        -14    1    5    5    0    0  0.20311203019E+02 -0.17358309715E+01  0.29494749223E+02  0.35853846502E+02  0.00000000000E+00 0.  1.
          5    1    4    4  501    0 -0.75051279276E+01 -0.24198514430E+02  0.16069339975E+01  0.25728382823E+02  0.41800000000E+01 0. -1.
         -5    1    4    4    0  501 -0.18405166214E+02  0.59722658389E+02  0.26153798693E+03  0.26893333203E+03  0.41800000000E+01 0. -1.
</event>
<event>
11    1  0.8037748E-009  0.2086821E+03  0.7561462E-02  0.1048548E+00
         22   -1    0    0    0    0  0.00000000000E+00  0.00000000000E+00  0.10327598323E+04  0.10327598323E+04  0.00000000000E+00 0. -1.
         22   -1    0    0    0    0 -0.00000000000E+00 -0.00000000000E+00 -0.70040503939E+03  0.70040503939E+03  0.00000000000E+00 0. -1.
         24    2    1    2    0    0 -0.16011742040E+03 -0.42371480429E+02 -0.51741777115E+03  0.54923291518E+03  0.80639410617E+02 0.  0.
         25    2    1    2    0    0  0.16107738414E+03  0.67121391751E+02 -0.95613231040E+02  0.23503276171E+03  0.12508918504E+03 0.  0.
        -24    2    1    2    0    0 -0.95996373787E+00 -0.24749911321E+02  0.94538579508E+03  0.94889919478E+03  0.77729664010E+02 0.  0.
        -11    1    3    3    0    0  0.68601351554E+01  0.72017120064E+01 -0.32043315727E+02  0.33551455899E+02  0.00000000000E+00 0.  1.
         12    1    3    3    0    0 -0.16697755556E+03 -0.49573192436E+02 -0.48537445542E+03  0.51568145928E+03  0.00000000000E+00 0. -1.
         11    1    5    5    0    0 -0.70678632605E-01 -0.36967924225E+02  0.91968956307E+03  0.92043224892E+03  0.00000000000E+00 0. -1.
        -12    1    5    5    0    0 -0.88928510526E+00  0.12218012904E+02  0.25696232007E+02  0.28466945861E+02  0.00000000000E+00 0.  1.
          5    1    4    4  501    0  0.51981802970E+02  0.88898983342E+02 -0.52309746625E+02  0.11558079023E+03  0.41800000000E+01 0. -1.
         -5    1    4    4    0  501  0.10909558117E+03 -0.21777591591E+02 -0.43303484415E+02  0.11945197147E+03  0.41800000000E+01 0. -1.
</event>
<event>
11    1  0.8037748E-009  0.1390570E+03  0.7561462E-02  0.1108616E+00
         22   -1    0    0    0    0  0.00000000000E+00  0.00000000000E+00  0.15219401769E+03  0.15219401769E+03  0.00000000000E+00 0.  1.
         22   -1    0    0    0    0 -0.00000000000E+00 -0.00000000000E+00 -0.61844479618E+03  0.61844479618E+03  0.00000000000E+00 0.  1.
        -24    2    1    2    0    0  0.54521209974E+02 -0.27144806868E+02 -0.46991911103E+03  0.47900803743E+03  0.70109386943E+02 0.  0.
         25    2    1    2    0    0 -0.41250025638E+02  0.47702506799E+02 -0.89563239060E+02  0.16629631090E+03  0.12512312120E+03 0.  0.
         24    2    1    2    0    0 -0.13271184336E+02 -0.20557699931E+02  0.93231571604E+02  0.12533446554E+03  0.80111540664E+02 0.  0.
        -13    1    5    5    0    0  0.26101882477E+02 -0.23404902409E+02  0.72986641612E+02  0.80970041247E+02  0.00000000000E+00 0.  1.
         14    1    5    5    0    0 -0.39373066814E+02  0.28472024785E+01  0.20244929992E+02  0.44364424290E+02  0.00000000000E+00 0. -1.
         11    1    3    3    0    0  0.82925880356E+01  0.89977851017E+01 -0.11318339464E+02  0.16668292092E+02  0.00000000000E+00 0. -1.
        -12    1    3    3    0    0  0.46228621938E+02 -0.36142591970E+02 -0.45860077157E+03  0.46233974534E+03  0.00000000000E+00 0.  1.
          5    1    4    4  501    0  0.24173170344E+02  0.55888748076E+02 -0.83489081038E+01  0.61604147527E+02  0.41800000000E+01 0.  1.
         -5    1    4    4    0  501 -0.65423195982E+02 -0.81862412771E+01 -0.81214330957E+02  0.10469216337E+03  0.41800000000E+01 0.  1.
</event>
<event>
11    1  0.8037748E-009  0.1422566E+03  0.7561462E-02  0.1105064E+00
         22   -1    0    0    0    0  0.00000000000E+00  0.00000000000E+00  0.50905757852E+03  0.50905757852E+03  0.00000000000E+00 0. -1.
         22   -1    0    0    0    0 -0.00000000000E+00 -0.00000000000E+00 -0.75621688275E+03  0.75621688275E+03  0.00000000000E+00 0. -1.
        -24    2    1    2    0    0 -0.61558719425E+02  0.13549705581E+02 -0.56700779894E+03  0.57799214512E+03  0.92757777601E+02 0.  0.
         25    2    1    2    0    0  0.86739512922E+02 -0.66385883224E+02 -0.13977724700E+03  0.21706072344E+03  0.12508737062E+03 0.  0.
         24    2    1    2    0    0 -0.25180793497E+02  0.52836177643E+02  0.45962574170E+03  0.47022159271E+03  0.80167261287E+02 0.  0.
        -11    1    5    5    0    0  0.57542640088E+01 -0.16289121773E+02  0.36623394523E+02  0.40493457111E+02  0.00000000000E+00 0.  1.
         12    1    5    5    0    0 -0.30935057506E+02  0.69125299417E+02  0.42300234718E+03  0.42972813560E+03  0.00000000000E+00 0. -1.
         13    1    3    3    0    0 -0.37819009325E+02  0.53273106016E+02 -0.30356272246E+03  0.31051349046E+03  0.00000000000E+00 0. -1.
        -14    1    3    3    0    0 -0.23739710099E+02 -0.39723400435E+02 -0.26344507648E+03  0.26747865467E+03  0.00000000000E+00 0.  1.
          5    1    4    4  501    0  0.42414958733E+02 -0.44738393643E+02  0.69757894221E+01  0.62182687528E+02  0.41800000000E+01 0.  1.
         -5    1    4    4    0  501  0.44324554189E+02 -0.21647489581E+02 -0.14675303642E+03  0.15487803591E+03  0.41800000000E+01 0.  1.
</event>
<event>
11    1  0.8037748E-009  0.1276644E+03  0.7561462E-02  0.1122172E+00
         22   -1    0    0    0    0  0.00000000000E+00  0.00000000000E+00  0.37717390405E+03  0.37717390405E+03  0.00000000000E+00 0. -1.
         22   -1    0    0    0    0 -0.00000000000E+00 -0.00000000000E+00 -0.68956141026E+03  0.68956141026E+03  0.00000000000E+00 0.  1.
         24    2    1    2    0    0 -0.90089164093E+01 -0.22839116136E+02 -0.61369981890E+03  0.61967893364E+03  0.82290505442E+02 0.  0.
         25    2    1    2    0    0  0.27728732639E+02  0.39223299011E+02 -0.28152797883E+00  0.13399715207E+03  0.12509119756E+03 0.  0.
        -24    2    1    2    0    0 -0.18719816229E+02 -0.16384182875E+02  0.30159384067E+03  0.31305922859E+03  0.80177072212E+02 0.  0.
        -13    1    3    3    0    0 -0.43698824809E+01 -0.40992152653E+02 -0.14889170744E+03  0.15449334288E+03  0.00000000000E+00 0.  1.
         14    1    3    3    0    0 -0.46390339284E+01  0.18153036517E+02 -0.46480811146E+03  0.46518559076E+03  0.00000000000E+00 0. -1.
         13    1    5    5    0    0  0.16789868475E+02  0.14404258866E+01  0.23434376481E+03  0.23494887659E+03  0.00000000000E+00 0. -1.
        -14    1    5    5    0    0 -0.35509684704E+02 -0.17824608761E+02  0.67250075862E+02  0.78110351995E+02  0.00000000000E+00 0.  1.
          5    1    4    4  501    0  0.20860808959E+02  0.45106080879E+02  0.57067909223E+02  0.75788855024E+02  0.41800000000E+01 0. -1.
         -5    1    4    4    0  501  0.68679236795E+01 -0.58827818685E+01 -0.57349437202E+02  0.58208297051E+02  0.41800000000E+01 0. -1.
</event>
<event>
11    1  0.8037748E-009  0.1450829E+03  0.7561462E-02  0.1102012E+00
         22   -1    0    0    0    0  0.00000000000E+00  0.00000000000E+00  0.56953017824E+03  0.56953017824E+03  0.00000000000E+00 0.  1.
         22   -1    0    0    0    0 -0.00000000000E+00 -0.00000000000E+00 -0.15530082226E+03  0.15530082226E+03  0.00000000000E+00 0.  1.
         24    2    1    2    0    0 -0.34635175737E+02  0.22972559924E+02 -0.84293154376E+02  0.12343804956E+03  0.80026759880E+02 0.  0.
         25    2    1    2    0    0  0.25057283437E+02 -0.93182025473E+02  0.96027457634E+02  0.18487444314E+03  0.12508608949E+03 0.  0.
        -24    2    1    2    0    0  0.95778922997E+01  0.70209465550E+02  0.40249505272E+03  0.41651850780E+03  0.80400838314E+02 0.  0.
        -13    1    3    3    0    0 -0.39874540676E+02  0.42559141780E+02 -0.85077483508E+02  0.10314765021E+03  0.00000000000E+00 0.  1.
         14    1    3    3    0    0  0.52393649391E+01 -0.19586581856E+02  0.78432913158E+00  0.20290399354E+02  0.00000000000E+00 0. -1.
         11    1    5    5    0    0 -0.35115202773E+02  0.39776319037E+02  0.19362960762E+03  0.20076767162E+03  0.00000000000E+00 0. -1.
        -12    1    5    5    0    0  0.44693095073E+02  0.30433146513E+02  0.20886544510E+03  0.21575083618E+03  0.00000000000E+00 0.  1.
          5    1    4    4  501    0 -0.45145277335E+02 -0.84394452946E+01  0.16272920921E+02  0.48903994293E+02  0.41800000000E+01 0.  1.
         -5    1    4    4    0  501  0.70202560772E+02 -0.84742580179E+02  0.79754536714E+02  0.13597044885E+03  0.41800000000E+01 0.  1.
</event>
<event>
11    1  0.8037748E-009  0.1668927E+03  0.7561462E-02  0.1080768E+00
         22   -1    0    0    0    0  0.00000000000E+00  0.00000000000E+00  0.80230011057E+03  0.80230011057E+03  0.00000000000E+00 0.  1.
         22   -1    0    0    0    0 -0.00000000000E+00 -0.00000000000E+00 -0.85588028462E+02  0.85588028462E+02  0.00000000000E+00 0. -1.
        -24    2    1    2    0    0  0.12240217208E+02 -0.10615957336E+03  0.15761012879E+02  0.13574958547E+03  0.82218382952E+02 0.  0.
         25    2    1    2    0    0 -0.17686111640E+02  0.12849624059E+03  0.38151806174E+03  0.42193214077E+03  0.12508644046E+03 0.  0.
         24    2    1    2    0    0  0.54458944319E+01 -0.22336667226E+02  0.31943300749E+03  0.33020641279E+03  0.80437828831E+02 0.  0.
        -11    1    5    5    0    0  0.37105329176E+01 -0.47824330975E+02  0.27325170373E+03  0.27743004213E+03  0.00000000000E+00 0.  1.
         12    1    5    5    0    0  0.17353615144E+01  0.25487663749E+02  0.46181303764E+02  0.52776370662E+02  0.00000000000E+00 0. -1.
         13    1    3    3    0    0  0.10028522298E+02 -0.11257009711E+03 -0.57827292141E+01  0.11316376619E+03  0.00000000000E+00 0. -1.
        -14    1    3    3    0    0  0.22116949098E+01  0.64105237455E+01  0.21543742093E+02  0.22585819278E+02  0.00000000000E+00 0.  1.
          5    1    4    4  501    0  0.16950788273E+01  0.84750151011E+02  0.80062763465E+02  0.11667467541E+03  0.41800000000E+01 0.  1.
         -5    1    4    4    0  501 -0.19381190468E+02  0.43746089576E+02  0.30145529827E+03  0.30525746535E+03  0.41800000000E+01 0.  1.
</event>
<event>
11    1  0.8037748E-009  0.1341332E+03  0.7561462E-02  0.1114292E+00
         22   -1    0    0    0    0  0.00000000000E+00  0.00000000000E+00  0.33945638433E+03  0.33945638433E+03  0.00000000000E+00 0. -1.
         22   -1    0    0    0    0 -0.00000000000E+00 -0.00000000000E+00 -0.35273071903E+03  0.35273071903E+03  0.00000000000E+00 0. -1.
        -24    2    1    2    0    0  0.25961286135E+02  0.39877026404E+02 -0.29208052722E+03  0.30936921195E+03  0.90189297065E+02 0.  0.
         25    2    1    2    0    0 -0.13829711556E+02 -0.61511761933E+02  0.67858642588E+02  0.15564531006E+03  0.12508281014E+03 0.  0.
         24    2    1    2    0    0 -0.12131574579E+02  0.21634735528E+02  0.21094754994E+03  0.22717258135E+03  0.80580866270E+02 0.  0.
        -11    1    5    5    0    0 -0.27089535587E+02 -0.94064372770E+01  0.24951874930E+02  0.38012104166E+02  0.00000000000E+00 0.  1.
         12    1    5    5    0    0  0.14957961008E+02  0.31041172805E+02  0.18599567501E+03  0.18916047718E+03  0.00000000000E+00 0. -1.
         13    1    3    3    0    0  0.26354372256E+02  0.54421211492E+02 -0.28797058420E+03  0.29425036714E+03  0.00000000000E+00 0. -1.
        -14    1    3    3    0    0 -0.39308612184E+00 -0.14544185088E+02 -0.41099430196E+01  0.15118844804E+02  0.00000000000E+00 0.  1.
          5    1    4    4  501    0  0.13893074361E+02  0.30906117731E+02 -0.52157154587E+01  0.34538119755E+02  0.41800000000E+01 0. -1.
         -5    1    4    4    0  501 -0.27722785917E+02 -0.92417879664E+02  0.73074358047E+02  0.12110719031E+03  0.41800000000E+01 0. -1.
</event>
<event>
11    1  0.8037748E-009  0.1569780E+03  0.7561462E-02  0.1089955E+00
         22   -1    0    0    0    0  0.00000000000E+00  0.00000000000E+00  0.11720815584E+03  0.11720815584E+03  0.00000000000E+00 0.  1.
         22   -1    0    0    0    0 -0.00000000000E+00 -0.00000000000E+00 -0.97278002141E+03  0.97278002141E+03  0.00000000000E+00 0.  1.
        -24    2    1    2    0    0 -0.19656290874E+02  0.90625374157E+02 -0.73774956273E+03  0.74800246914E+03  0.81449053609E+02 0.  0.
         25    2    1    2    0    0  0.18145979113E+02 -0.10688182477E+03 -0.17599681225E+03  0.24161039458E+03  0.12509078233E+03 0.  0.
         24    2    1    2    0    0  0.15103117613E+01  0.16256450613E+02  0.58174509398E+02  0.10037531352E+03  0.80152210152E+02 0.  0.
        -11    1    5    5    0    0  0.14082162164E+02  0.46478326755E+02  0.40123126429E+02  0.62995296837E+02  0.00000000000E+00 0.  1.
         12    1    5    5    0    0 -0.12571850403E+02 -0.30221876142E+02  0.18051382968E+02  0.37380016682E+02  0.00000000000E+00 0. -1.
         13    1    3    3    0    0  0.21984675061E+02  0.18677050822E+01 -0.21580326991E+03  0.21692824980E+03  0.00000000000E+00 0. -1.
        -14    1    3    3    0    0 -0.41640965935E+02  0.88757669075E+02 -0.52194629282E+03  0.53107421934E+03  0.00000000000E+00 0.  1.
          5    1    4    4  501    0  0.44808697507E+02 -0.89259779477E+02 -0.18309513423E+03  0.20860591598E+03  0.41800000000E+01 0. -1.
         -5    1    4    4    0  501 -0.26662718394E+02 -0.17622045293E+02  0.70983219834E+01  0.33004478597E+02  0.41800000000E+01 0. -1.
</event>
<event>
11    1  0.8037748E-009  0.1800588E+03  0.7561462E-02  0.1069595E+00
         22   -1    0    0    0    0  0.00000000000E+00  0.00000000000E+00  0.88610656688E+02  0.88610656688E+02  0.00000000000E+00 0.  1.
         22   -1    0    0    0    0 -0.00000000000E+00 -0.00000000000E+00 -0.31729307669E+04  0.31729307669E+04  0.00000000000E+00 0. -1.
         24    2    1    2    0    0  0.12814388729E+03 -0.19921774092E+02 -0.27001807560E+04  0.27044738087E+04  0.79904532025E+02 0.  0.
         25    2    1    2    0    0 -0.12723392257E+03  0.15016882338E+02 -0.42965740951E+03  0.46547663254E+03  0.12509607544E+03 0.  0.
        -24    2    1    2    0    0 -0.90996471823E+00  0.49048917542E+01  0.45518055334E+02  0.91590982254E+02  0.79322939115E+02 0.  0.
        -11    1    3    3    0    0  0.30124713226E+02  0.20688133546E+02 -0.11948201352E+04  0.11953788741E+04  0.00000000000E+00 0.  1.
         12    1    3    3    0    0  0.98019174059E+02 -0.40609907639E+02 -0.15053606208E+04  0.15090949346E+04  0.00000000000E+00 0. -1.
         11    1    5    5    0    0  0.20808366319E+02  0.46500282722E+01 -0.15801356575E+02  0.26538533143E+02  0.00000000000E+00 0. -1.
        -12    1    5    5    0    0 -0.21718331037E+02  0.25486348199E+00  0.61319411909E+02  0.65052449110E+02  0.00000000000E+00 0.  1.
          5    1    4    4  501    0 -0.63306324644E+02  0.19669834991E+01 -0.51584596900E+02  0.81792437312E+02  0.41800000000E+01 0. -1.
         -5    1    4    4    0  501 -0.63927597923E+02  0.13049898839E+02 -0.37807281261E+03  0.38368419523E+03  0.41800000000E+01 0. -1.
</event>
<event>
11    1  0.8037748E-009  0.1660727E+03  0.7561462E-02  0.1081501E+00
         22   -1    0    0    0    0  0.00000000000E+00  0.00000000000E+00  0.19949549577E+04  0.19949549577E+04  0.00000000000E+00 0.  1.
         22   -1    0    0    0    0 -0.00000000000E+00 -0.00000000000E+00 -0.91892332739E+03  0.91892332739E+03  0.00000000000E+00 0.  1.
        -24    2    1    2    0    0 -0.10504739931E+03 -0.31396737484E+02 -0.88168316615E+03  0.89221289782E+03  0.81596190611E+02 0.  0.
         25    2    1    2    0    0  0.96655213807E+02  0.38786585464E+01  0.17128083630E+03  0.23311345138E+03  0.12508989560E+03 0.  0.
         24    2    1    2    0    0  0.83921854984E+01  0.27518078937E+02  0.17864339602E+04  0.17885519359E+04  0.82122225550E+02 0.  0.
        -13    1    5    5    0    0 -0.35781707573E+02  0.29948970191E+01  0.84617751596E+03  0.84693901110E+03  0.00000000000E+00 0.  1.
         14    1    5    5    0    0  0.44173893071E+02  0.24523181918E+02  0.94025644420E+03  0.94161292480E+03  0.00000000000E+00 0. -1.
         11    1    3    3    0    0  0.37102549212E+01  0.39882871520E+01 -0.26245369311E+03  0.26251021591E+03  0.00000000000E+00 0. -1.
        -12    1    3    3    0    0 -0.10875765423E+03 -0.35385024636E+02 -0.61922947304E+03  0.62970268191E+03  0.00000000000E+00 0.  1.
          5    1    4    4  501    0  0.47418733219E+02 -0.28230383612E+01 -0.68126862979E+01  0.48170435957E+02  0.41800000000E+01 0. -1.
         -5    1    4    4    0  501  0.49236480588E+02  0.67016969076E+01  0.17809352260E+03  0.18494301542E+03  0.41800000000E+01 0. -1.
</event>
<event>
11    1  0.8037748E-009  0.2186407E+03  0.7561462E-02  0.1042072E+00
         22   -1    0    0    0    0  0.00000000000E+00  0.00000000000E+00  0.25845613767E+04  0.25845613767E+04  0.00000000000E+00 0. -1.
         22   -1    0    0    0    0 -0.00000000000E+00 -0.00000000000E+00 -0.11992899939E+04  0.11992899939E+04  0.00000000000E+00 0.  1.
         24    2    1    2    0    0 -0.82580296167E+01 -0.12120361305E+02 -0.10453085002E+04  0.10483960111E+04  0.79052117767E+02 0.  0.
         25    2    1    2    0    0  0.18736766992E+03  0.11999186409E+02 -0.62944072410E+02  0.23422476214E+03  0.12509459917E+03 0.  0.
        -24    2    1    2    0    0 -0.17910964031E+03  0.12117489671E+00  0.24935239554E+04  0.25012305973E+04  0.80078128072E+02 0.  0.
        -11    1    3    3    0    0 -0.23060732520E+02 -0.34657561314E+02 -0.87287057428E+03  0.87386267994E+03  0.00000000000E+00 0.  1.
         12    1    3    3    0    0  0.14802702904E+02  0.22537200009E+02 -0.17243792592E+03  0.17453333118E+03  0.00000000000E+00 0. -1.
         13    1    5    5    0    0 -0.13722065668E+03  0.26579522863E+02  0.15085195133E+04  0.15149808915E+04  0.00000000000E+00 0. -1.
        -14    1    5    5    0    0 -0.41888983625E+02 -0.26458347966E+02  0.98500444210E+03  0.98624970574E+03  0.00000000000E+00 0.  1.
          5    1    4    4  501    0  0.65008746324E+01 -0.37290948476E+02 -0.11667844944E+02  0.39830732040E+02  0.41800000000E+01 0. -1.
         -5    1    4    4    0  501  0.18086679529E+03  0.49290134885E+02 -0.51276227465E+02  0.19439403010E+03  0.41800000000E+01 0. -1.
</event>
<event>
11    1  0.8037748E-009  0.1384123E+03  0.7561462E-02  0.1109344E+00
         22   -1    0    0    0    0  0.00000000000E+00  0.00000000000E+00  0.16525418160E+03  0.16525418160E+03  0.00000000000E+00 0. -1.
         22   -1    0    0    0    0 -0.00000000000E+00 -0.00000000000E+00 -0.24632049244E+04  0.24632049244E+04  0.00000000000E+00 0. -1.
        -24    2    1    2    0    0 -0.36511795171E+02  0.47243441746E+02 -0.20385522747E+04  0.20409381099E+04  0.78536219623E+02 0.  0.
         25    2    1    2    0    0  0.47762736405E+02 -0.31981272852E+02 -0.40038204368E+03  0.42338858393E+03  0.12509209128E+03 0.  0.
         24    2    1    2    0    0 -0.11250941234E+02 -0.15262168894E+02  0.14098357556E+03  0.16413241218E+03  0.81875287318E+02 0.  0.
        -11    1    5    5    0    0 -0.31745875460E+02 -0.31148626397E+02  0.39814085370E+02  0.59692536627E+02  0.00000000000E+00 0.  1.
         12    1    5    5    0    0  0.20494934225E+02  0.15886457503E+02  0.10116949019E+03  0.10443987556E+03  0.00000000000E+00 0. -1.
         11    1    3    3    0    0 -0.43341131581E+02 -0.12158537675E+01 -0.60546215739E+03  0.60701264898E+03  0.00000000000E+00 0. -1.
        -12    1    3    3    0    0  0.68293364103E+01  0.48459295514E+02 -0.14330901173E+04  0.14339254609E+04  0.00000000000E+00 0.  1.
          5    1    4    4  501    0  0.52051517715E+02 -0.96428366308E+01 -0.52278113680E+02  0.74517235353E+02  0.41800000000E+01 0. -1.
         -5    1    4    4    0  501 -0.42887813099E+01 -0.22338436221E+02 -0.34810393000E+03  0.34887134858E+03  0.41800000000E+01 0. -1.
</event>
<event>
11    1  0.8037748E-009  0.1530071E+03  0.7561462E-02  0.1093845E+00
         22   -1    0    0    0    0  0.00000000000E+00  0.00000000000E+00  0.18234284334E+04  0.18234284334E+04  0.00000000000E+00 0.  1.
         22   -1    0    0    0    0 -0.00000000000E+00 -0.00000000000E+00 -0.83369260528E+02  0.83369260528E+02  0.00000000000E+00 0.  1.
        -24    2    1    2    0    0 -0.89062698749E+02 -0.13738008302E+02 -0.27025164781E+02  0.12321615081E+03  0.79567349520E+02 0.  0.
         25    2    1    2    0    0  0.56819266708E+02  0.11226682642E+02  0.72065242594E+03  0.73371738632E+03  0.12508723556E+03 0.  0.
         24    2    1    2    0    0  0.32243432041E+02  0.25113256600E+01  0.10464319117E+04  0.10498641567E+04  0.78415918050E+02 0.  0.
        -11    1    5    5    0    0 -0.16243183643E+02 -0.22629134330E+02  0.47918797383E+03  0.47999690936E+03  0.00000000000E+00 0.  1.
         12    1    5    5    0    0  0.48486615684E+02  0.25140459990E+02  0.56724393783E+03  0.56986724738E+03  0.00000000000E+00 0. -1.
         13    1    3    3    0    0 -0.28612781883E+02 -0.13806665788E+02  0.27341195794E+02  0.41914869613E+02  0.00000000000E+00 0. -1.
        -14    1    3    3    0    0 -0.60449916866E+02  0.68657485488E-01 -0.54366360575E+02  0.81301281202E+02  0.00000000000E+00 0.  1.
          5    1    4    4  501    0 -0.37390647198E+02  0.14324686109E+02  0.29489424236E+03  0.29762954105E+03  0.41800000000E+01 0.  1.
         -5    1    4    4    0  501  0.94209913906E+02 -0.30980034670E+01  0.42575818359E+03  0.43608784527E+03  0.41800000000E+01 0.  1.
</event>
<event>
11    1  0.8037748E-009  0.1318683E+03  0.7561462E-02  0.1116994E+00
         22   -1    0    0    0    0  0.00000000000E+00  0.00000000000E+00  0.28204701147E+03  0.28204701147E+03  0.00000000000E+00 0.  1.
         22   -1    0    0    0    0 -0.00000000000E+00 -0.00000000000E+00 -0.33118361400E+03  0.33118361400E+03  0.00000000000E+00 0. -1.
        -24    2    1    2    0    0 -0.20108664844E+02 -0.48359623280E+02 -0.19949665221E+03  0.22118350362E+03  0.79876257205E+02 0.  0.
         25    2    1    2    0    0 -0.25681581403E+01  0.80309065381E+02 -0.60488829290E+02  0.16050769596E+03  0.12509068940E+03 0.  0.
         24    2    1    2    0    0  0.22676822985E+02 -0.31949442101E+02  0.21084887897E+03  0.23153942590E+03  0.87282591802E+02 0.  0.
        -11    1    5    5    0    0  0.15500225713E+02 -0.61062496734E+02  0.11520122266E+03  0.13130196954E+03  0.00000000000E+00 0.  1.
         12    1    5    5    0    0  0.71765972716E+01  0.29113054633E+02  0.95647656311E+02  0.10023745635E+03  0.00000000000E+00 0. -1.
         11    1    3    3    0    0 -0.19128390509E+02 -0.98051647584E+01 -0.17314368288E+03  0.17447283886E+03  0.00000000000E+00 0. -1.
        -12    1    3    3    0    0 -0.98027433565E+00 -0.38554458522E+02 -0.26352969331E+02  0.46710664759E+02  0.00000000000E+00 0.  1.
          5    1    4    4  501    0 -0.41295767331E+02  0.22478049459E+01  0.15944794513E+02  0.44520802987E+02  0.41800000000E+01 0.  1.
         -5    1    4    4    0  501  0.38727609191E+02  0.78061260435E+02 -0.76433623803E+02  0.11598689298E+03  0.41800000000E+01 0.  1.
</event>
<event>
11    1  0.8037748E-009  0.1502017E+03  0.7561462E-02  0.1096673E+00
         22   -1    0    0    0    0  0.00000000000E+00  0.00000000000E+00  0.67775894385E+02  0.67775894385E+02  0.00000000000E+00 0.  1.
         22   -1    0    0    0    0 -0.00000000000E+00 -0.00000000000E+00 -0.11089836279E+04  0.11089836279E+04  0.00000000000E+00 0.  1.
        -24    2    1    2    0    0 -0.19258762376E+02  0.42667617091E+01 -0.61015805847E+03  0.61578800235E+03  0.80702554689E+02 0.  0.
         25    2    1    2    0    0  0.52998636722E+02 -0.78514669584E+02 -0.41621357961E+03  0.44480838304E+03  0.12508934781E+03 0.  0.
         24    2    1    2    0    0 -0.33739874347E+02  0.74247907875E+02 -0.14836095427E+02  0.11616313689E+03  0.81379565620E+02 0.  0.
        -11    1    5    5    0    0 -0.10389399234E+02  0.52042064041E+02 -0.46813547498E+02  0.70765982473E+02  0.00000000000E+00 0.  1.
         12    1    5    5    0    0 -0.23350475113E+02  0.22205843834E+02  0.31977452071E+02  0.45397154419E+02  0.00000000000E+00 0. -1.
         13    1    3    3    0    0  0.13343129421E+02 -0.58847905909E+01 -0.20586292397E+02  0.25228263866E+02  0.00000000000E+00 0. -1.
        -14    1    3    3    0    0 -0.32601891796E+02  0.10151552300E+02 -0.58957176608E+03  0.59055973848E+03  0.00000000000E+00 0.  1.
          5    1    4    4  501    0 -0.34339794293E+02 -0.39517195624E+02 -0.22394890133E+03  0.23002480960E+03  0.41800000000E+01 0.  1.
         -5    1    4    4    0  501  0.87338431016E+02 -0.38997473960E+02 -0.19226467828E+03  0.21478357344E+03  0.41800000000E+01 0.  1.
</event>
<event>
11    1  0.8037748E-009  0.1482082E+03  0.7561462E-02  0.1098724E+00
         22   -1    0    0    0    0  0.00000000000E+00  0.00000000000E+00  0.28163851999E+03  0.28163851999E+03  0.00000000000E+00 0. -1.
         22   -1    0    0    0    0 -0.00000000000E+00 -0.00000000000E+00 -0.69246850687E+03  0.69246850687E+03  0.00000000000E+00 0.  1.
         24    2    1    2    0    0 -0.62013161793E+01 -0.32812268627E+02 -0.56823337402E+03  0.57486253674E+03  0.80390717795E+02 0.  0.
         25    2    1    2    0    0 -0.38164847707E+02  0.95358249614E+02 -0.45285700596E+02  0.16808319553E+03  0.12510561367E+03 0.  0.
        -24    2    1    2    0    0  0.44366163886E+02 -0.62545980987E+02  0.20268908774E+03  0.23116129459E+03  0.80450740157E+02 0.  0.
        -13    1    3    3    0    0  0.31843164954E+02  0.24654888018E+01 -0.29692226497E+03  0.29863505693E+03  0.00000000000E+00 0.  1.
         14    1    3    3    0    0 -0.38044481134E+02 -0.35277757429E+02 -0.27131110904E+03  0.27622747981E+03  0.00000000000E+00 0. -1.
         13    1    5    5    0    0  0.88548699478E+01 -0.44962298882E+02  0.17948132941E+03  0.18523920927E+03  0.00000000000E+00 0. -1.
        -14    1    5    5    0    0  0.35511293938E+02 -0.17583682105E+02  0.23207758324E+02  0.45922085318E+02  0.00000000000E+00 0.  1.
          5    1    4    4  501    0 -0.27995293679E+02  0.10041293484E+03  0.16060135975E+02  0.10555517192E+03  0.41800000000E+01 0.  1.
         -5    1    4    4    0  501 -0.10169554028E+02 -0.50546852282E+01 -0.61345836571E+02  0.62528023609E+02  0.41800000000E+01 0.  1.
</event>
<event>
11    1  0.8037748E-009  0.1573622E+03  0.7561462E-02  0.1089585E+00
         22   -1    0    0    0    0  0.00000000000E+00  0.00000000000E+00  0.18568325357E+04  0.18568325357E+04  0.00000000000E+00 0.  1.
         22   -1    0    0    0    0 -0.00000000000E+00 -0.00000000000E+00 -0.95007425700E+02  0.95007425700E+02  0.00000000000E+00 0.  1.
        -24    2    1    2    0    0  0.38289940669E+02 -0.92967406054E+02  0.39458155377E+02  0.14470491183E+03  0.96299051590E+02 0.  0.
         25    2    1    2    0    0 -0.10506893890E+03  0.35495822364E+02  0.13303767130E+03  0.21366115831E+03  0.12511048420E+03 0.  0.
         24    2    1    2    0    0  0.66778998227E+02  0.57471583690E+02  0.15893292834E+04  0.15934738913E+04  0.73682113053E+02 0.  0.
        -11    1    5    5    0    0  0.32141178184E+02  0.39100893968E+01  0.10317649745E+04  0.10322728838E+04  0.00000000000E+00 0.  1.
         12    1    5    5    0    0  0.34637820044E+02  0.53561494294E+02  0.55756430886E+03  0.56120100745E+03  0.00000000000E+00 0. -1.
         11    1    3    3    0    0 -0.79212659870E+01 -0.92554785602E+02  0.23567495516E+02  0.95836118648E+02  0.00000000000E+00 0. -1.
        -12    1    3    3    0    0  0.46211206656E+02 -0.41262045217E+00  0.15890659861E+02  0.48868793182E+02  0.00000000000E+00 0.  1.
          5    1    4    4  501    0 -0.85521489942E+01 -0.44283438871E+00  0.10689928679E+03  0.10732318143E+03  0.41800000000E+01 0.  1.
         -5    1    4    4    0  501 -0.96516789902E+02  0.35938656752E+02  0.26138384511E+02  0.10633797688E+03  0.41800000000E+01 0.  1.
</event>
<event>
11    1  0.8037748E-009  0.1538927E+03  0.7561462E-02  0.1092966E+00
         22   -1    0    0    0    0  0.00000000000E+00  0.00000000000E+00  0.59140020043E+02  0.59140020043E+02  0.00000000000E+00 0. -1.
         22   -1    0    0    0    0 -0.00000000000E+00 -0.00000000000E+00 -0.10388329272E+04  0.10388329272E+04  0.00000000000E+00 0. -1.
         24    2    1    2    0    0  0.76990391257E+02 -0.53109060962E+02 -0.54380023638E+03  0.55806617160E+03  0.83492886523E+02 0.  0.
         25    2    1    2    0    0 -0.10372057022E+03 -0.29186025985E+02 -0.37986165525E+03  0.41418850992E+03  0.12508982302E+03 0.  0.
        -24    2    1    2    0    0  0.26730178964E+02  0.82295086947E+02 -0.56031015540E+02  0.12571826573E+03  0.71962655815E+02 0.  0.
        -13    1    3    3    0    0  0.58355051441E+02 -0.18240750243E+02 -0.14570564706E+03  0.15801320382E+03  0.00000000000E+00 0.  1.
         14    1    3    3    0    0  0.18635339817E+02 -0.34868310719E+02 -0.39809458932E+03  0.40005296778E+03  0.00000000000E+00 0. -1.
         13    1    5    5    0    0 -0.17023247084E+01  0.83679971264E+02 -0.37232637691E+02  0.91605157112E+02  0.00000000000E+00 0. -1.
        -14    1    5    5    0    0  0.28432503672E+02 -0.13848843168E+01 -0.18798377849E+02  0.34113108615E+02  0.00000000000E+00 0.  1.
          5    1    4    4  501    0 -0.54867741358E+02  0.11518764801E+02 -0.32581628312E+03  0.33063102355E+03  0.41800000000E+01 0. -1.
         -5    1    4    4    0  501 -0.48852828863E+02 -0.40704790786E+02 -0.54045372123E+02  0.83557486371E+02  0.41800000000E+01 0. -1.
</event>
<event>
11    1  0.8037748E-009  0.1907254E+03  0.7561462E-02  0.1061283E+00
         22   -1    0    0    0    0  0.00000000000E+00  0.00000000000E+00  0.44961829657E+04  0.44961829657E+04  0.00000000000E+00 0. -1.
         22   -1    0    0    0    0 -0.00000000000E+00 -0.00000000000E+00 -0.11494913057E+03  0.11494913057E+03  0.00000000000E+00 0.  1.
         24    2    1    2    0    0 -0.23215019759E+00  0.33909609499E+01 -0.75679330360E+02  0.11100896342E+03  0.81142321921E+02 0.  0.
         25    2    1    2    0    0  0.13509936346E+03  0.47221309172E+02  0.43383374818E+03  0.47364628323E+03  0.12508952996E+03 0.  0.
        -24    2    1    2    0    0 -0.13486721326E+03 -0.50612270122E+02  0.40230794173E+04  0.40264768496E+04  0.81222259604E+02 0.  0.
        -11    1    3    3    0    0  0.15578074430E+02 -0.12137240064E+02 -0.84782149333E+02  0.87051719367E+02  0.00000000000E+00 0.  1.
         12    1    3    3    0    0 -0.15810224628E+02  0.15528201014E+02  0.91028189730E+01  0.23957244056E+02  0.00000000000E+00 0. -1.
         13    1    5    5    0    0 -0.52604123279E+02 -0.36381396359E+02  0.27050764859E+04  0.27058325141E+04  0.00000000000E+00 0. -1.
        -14    1    5    5    0    0 -0.82263089986E+02 -0.14230873763E+02  0.13180029313E+04  0.13206443355E+04  0.00000000000E+00 0.  1.
          5    1    4    4  501    0  0.13281253524E+03 -0.75961783022E+01  0.27418914380E+03  0.30478522014E+03  0.41800000000E+01 0.  1.
         -5    1    4    4    0  501  0.22868282219E+01  0.54817487474E+02  0.15964460439E+03  0.16886106309E+03  0.41800000000E+01 0.  1.
</event>
<event>
11    1  0.8037748E-009  0.2170069E+03  0.7561462E-02  0.1043109E+00
         22   -1    0    0    0    0  0.00000000000E+00  0.00000000000E+00  0.30865862633E+04  0.30865862633E+04  0.00000000000E+00 0. -1.
         22   -1    0    0    0    0 -0.00000000000E+00 -0.00000000000E+00 -0.98969803725E+03  0.98969803725E+03  0.00000000000E+00 0.  1.
         24    2    1    2    0    0 -0.46341422400E+02 -0.17171176597E+03 -0.93768357308E+03  0.95771520835E+03  0.79595722783E+02 0.  0.
         25    2    1    2    0    0  0.36744283664E+02  0.15974087815E+03  0.21536183820E+03  0.29815261370E+03  0.12508784580E+03 0.  0.
        -24    2    1    2    0    0  0.95971387358E+01  0.11970887823E+02  0.28192099610E+04  0.28204164785E+04  0.81048757634E+02 0.  0.
        -11    1    3    3    0    0 -0.46914542631E+02 -0.15397209319E+03 -0.91429040678E+03  0.92835086456E+03  0.00000000000E+00 0.  1.
         12    1    3    3    0    0  0.57312023116E+00 -0.17739672780E+02 -0.23393166300E+02  0.29364343798E+02  0.00000000000E+00 0. -1.
         13    1    5    5    0    0 -0.22821717282E+02  0.29679054680E+02  0.20270282470E+04  0.20273739643E+04  0.00000000000E+00 0. -1.
        -14    1    5    5    0    0  0.32418856018E+02 -0.17708166857E+02  0.79218171395E+03  0.79304251419E+03  0.00000000000E+00 0.  1.
          5    1    4    4  501    0  0.68797212989E+02  0.10353452276E+03  0.79507948435E+02  0.14761924056E+03  0.41800000000E+01 0. -1.
         -5    1    4    4    0  501 -0.32052929325E+02  0.56206355386E+02  0.13585388977E+03  0.15053337314E+03  0.41800000000E+01 0. -1.
</event>
<event>
11    1  0.8037748E-009  0.1340092E+03  0.7561462E-02  0.1114439E+00
         22   -1    0    0    0    0  0.00000000000E+00  0.00000000000E+00  0.60753671356E+03  0.60753671356E+03  0.00000000000E+00 0.  1.
         22   -1    0    0    0    0 -0.00000000000E+00 -0.00000000000E+00 -0.24309537216E+03  0.24309537216E+03  0.00000000000E+00 0. -1.
        -24    2    1    2    0    0  0.47847791504E+02  0.62812689538E+01 -0.19453233675E+03  0.21666421287E+03  0.82290252186E+02 0.  0.
         25    2    1    2    0    0 -0.49164844823E+02  0.38228366397E+02  0.11030158869E+03  0.17803212024E+03  0.12510158035E+03 0.  0.
         24    2    1    2    0    0  0.13170533188E+01 -0.44509635351E+02  0.44867208946E+03  0.45593575261E+03  0.67734218662E+02 0.  0.
        -11    1    5    5    0    0  0.17795110600E+02 -0.54932303557E+02  0.38616745510E+03  0.39046066039E+03  0.00000000000E+00 0.  1.
         12    1    5    5    0    0 -0.16478057281E+02  0.10422668206E+02  0.62504634364E+02  0.65475092220E+02  0.00000000000E+00 0. -1.
         11    1    3    3    0    0 -0.16526885080E+01 -0.89106512503E+01 -0.14409575400E+03  0.14438046061E+03  0.00000000000E+00 0. -1.
        -12    1    3    3    0    0  0.49500480012E+02  0.15191920204E+02 -0.50436582747E+02  0.72283752255E+02  0.00000000000E+00 0.  1.
          5    1    4    4  501    0 -0.64455244388E+02  0.65226986442E+02  0.38201026769E+02  0.99427506937E+02  0.41800000000E+01 0. -1.
         -5    1    4    4    0  501  0.15290399565E+02 -0.26998620045E+02  0.72100561924E+02  0.78604613306E+02  0.41800000000E+01 0. -1.
</event>
<event>
11    1  0.8037748E-009  0.1814672E+03  0.7561462E-02  0.1068462E+00
         22   -1    0    0    0    0  0.00000000000E+00  0.00000000000E+00  0.18530736417E+04  0.18530736417E+04  0.00000000000E+00 0.  1.
         22   -1    0    0    0    0 -0.00000000000E+00 -0.00000000000E+00 -0.56377079017E+02  0.56377079017E+02  0.00000000000E+00 0.  1.
         24    2    1    2    0    0 -0.44918170487E+02 -0.30545266724E+02  0.10809959192E+03  0.14416168658E+03  0.78399073628E+02 0.  0.
         25    2    1    2    0    0  0.78189321439E+01  0.15474033982E+03  0.25475556349E+03  0.32334718051E+03  0.12508914241E+03 0.  0.
        -24    2    1    2    0    0  0.37099238343E+02 -0.12419507310E+03  0.14338414072E+04  0.14419418536E+04  0.80587581810E+02 0.  0.
        -11    1    3    3    0    0 -0.66152868344E+02 -0.28843269550E+02  0.94433796747E+02  0.11885233762E+03  0.00000000000E+00 0.  1.
         12    1    3    3    0    0  0.21234697857E+02 -0.17019971738E+01  0.13665795177E+02  0.25309348970E+02  0.00000000000E+00 0. -1.
         13    1    5    5    0    0  0.26647046348E+02 -0.52003173394E+02  0.29294171820E+03  0.29871264685E+03  0.00000000000E+00 0. -1.
        -14    1    5    5    0    0  0.10452191995E+02 -0.72191899707E+02  0.11408996890E+04  0.11432292067E+04  0.00000000000E+00 0.  1.
          5    1    4    4  501    0 -0.88416396167E+01  0.49393953201E+02  0.19421433161E+03  0.20063553077E+03  0.41800000000E+01 0. -1.
         -5    1    4    4    0  501  0.16660571761E+02  0.10534638662E+03  0.60541231878E+02  0.12271164975E+03  0.41800000000E+01 0. -1.
</event>
<event>
11    1  0.8037748E-009  0.2713587E+03  0.7561462E-02  0.1013099E+00
         22   -1    0    0    0    0  0.00000000000E+00  0.00000000000E+00  0.51541846537E+03  0.51541846537E+03  0.00000000000E+00 0. -1.
         22   -1    0    0    0    0 -0.00000000000E+00 -0.00000000000E+00 -0.22739015266E+03  0.22739015266E+03  0.00000000000E+00 0.  1.
        -24    2    1    2    0    0 -0.23897648541E+02 -0.85092570195E+02 -0.23133842825E+02  0.12135221863E+03  0.79870790500E+02 0.  0.
         25    2    1    2    0    0  0.12829315818E+03 -0.16195564366E+03  0.68701034195E+02  0.25111226371E+03  0.12509505160E+03 0.  0.
         24    2    1    2    0    0 -0.10439550964E+03  0.24704821386E+03  0.24246112135E+03  0.37034413569E+03  0.80225563719E+02 0.  0.
        -13    1    5    5    0    0 -0.10744794084E+03  0.20388269680E+03  0.17166799579E+03  0.28737278024E+03  0.00000000000E+00 0.  1.
         14    1    5    5    0    0  0.30524312031E+01  0.43165517061E+02  0.70793125562E+02  0.82971355456E+02  0.00000000000E+00 0. -1.
         11    1    3    3    0    0 -0.30923983489E+02 -0.95674700841E+02 -0.69630499553E+01  0.10078901329E+03  0.00000000000E+00 0. -1.
        -12    1    3    3    0    0  0.70263349480E+01  0.10582130646E+02 -0.16170792869E+02  0.20563205340E+02  0.00000000000E+00 0.  1.
          5    1    4    4  501    0 -0.24664303820E+02 -0.32055072576E+02  0.14945465142E+02  0.43320836662E+02  0.41800000000E+01 0. -1.
         -5    1    4    4    0  501  0.15295746200E+03 -0.12990057109E+03  0.53755569053E+02  0.20779142704E+03  0.41800000000E+01 0. -1.
</event>
<event>
11    1  0.8037748E-009  0.1313931E+03  0.7561462E-02  0.1117569E+00
         22   -1    0    0    0    0  0.00000000000E+00  0.00000000000E+00  0.41336251026E+03  0.41336251026E+03  0.00000000000E+00 0.  1.
         22   -1    0    0    0    0 -0.00000000000E+00 -0.00000000000E+00 -0.19341455827E+03  0.19341455827E+03  0.00000000000E+00 0. -1.
         24    2    1    2    0    0 -0.35854345902E+02  0.96603600891E+01 -0.12936079574E+03  0.15311658362E+03  0.73017915799E+02 0.  0.
         25    2    1    2    0    0  0.57144082009E+02 -0.39212697407E+02  0.66965192158E+02  0.15790019044E+03  0.12508018002E+03 0.  0.
        -24    2    1    2    0    0 -0.21289736108E+02  0.29552337317E+02  0.28234355557E+03  0.29576029447E+03  0.80185253708E+02 0.  0.
        -11    1    3    3    0    0  0.11288856057E+02 -0.83308747636E+01  0.24744625112E+00  0.14032212051E+02  0.00000000000E+00 0.  1.
         12    1    3    3    0    0 -0.47143201959E+02  0.17991234853E+02 -0.12960824199E+03  0.13908437157E+03  0.00000000000E+00 0. -1.
         11    1    5    5    0    0  0.13975342167E+02  0.10102431376E+00  0.53225229661E+01  0.14954920439E+02  0.00000000000E+00 0. -1.
        -12    1    5    5    0    0 -0.35265078275E+02  0.29451313004E+02  0.27702103260E+03  0.28080537404E+03  0.00000000000E+00 0.  1.
          5    1    4    4  501    0  0.79168604754E+01 -0.77879596783E+02  0.24458859461E+02  0.82119525576E+02  0.41800000000E+01 0.  1.
         -5    1    4    4    0  501  0.49227221534E+02  0.38666899376E+02  0.42506332698E+02  0.75780664861E+02  0.41800000000E+01 0.  1.
</event>
<event>
11    1  0.8037748E-009  0.2041868E+03  0.7561462E-02  0.1051602E+00
         22   -1    0    0    0    0  0.00000000000E+00  0.00000000000E+00  0.33112530984E+03  0.33112530984E+03  0.00000000000E+00 0. -1.
         22   -1    0    0    0    0 -0.00000000000E+00 -0.00000000000E+00 -0.22311015752E+04  0.22311015752E+04  0.00000000000E+00 0. -1.
        -24    2    1    2    0    0  0.66844185570E+02  0.39696186814E+02 -0.19980490738E+04  0.20012227255E+04  0.81537496861E+02 0.  0.
         25    2    1    2    0    0 -0.21819701916E+03 -0.55647549632E+02 -0.11920313665E+03  0.28383680299E+03  0.12508938402E+03 0.  0.
         24    2    1    2    0    0  0.15135283359E+03  0.15951362818E+02  0.21727594511E+03  0.27716735652E+03  0.80316754059E+02 0.  0.
        -11    1    5    5    0    0  0.71467095744E+02 -0.16298676577E+02  0.49151487203E+02  0.88255658893E+02  0.00000000000E+00 0.  1.
         12    1    5    5    0    0  0.79885737845E+02  0.32250039395E+02  0.16812445791E+03  0.18891169762E+03  0.00000000000E+00 0. -1.
         11    1    3    3    0    0  0.85971436482E+01  0.34216506320E+02 -0.13701124457E+04  0.13705665960E+04  0.00000000000E+00 0. -1.
        -12    1    3    3    0    0  0.58247041922E+02  0.54796804935E+01 -0.62793662807E+03  0.63065612949E+03  0.00000000000E+00 0.  1.
          5    1    4    4  501    0 -0.18247433066E+03 -0.87622713681E+02 -0.12065545296E+03  0.23569011866E+03  0.41800000000E+01 0. -1.
         -5    1    4    4    0  501 -0.35722688498E+02  0.31975164049E+02  0.14523163148E+01  0.48146684332E+02  0.41800000000E+01 0. -1.
</event>
<event>
11    1  0.8037748E-009  0.1494500E+03  0.7561462E-02  0.1097442E+00
         22   -1    0    0    0    0  0.00000000000E+00  0.00000000000E+00  0.66259675269E+03  0.66259675269E+03  0.00000000000E+00 0.  1.
         22   -1    0    0    0    0 -0.00000000000E+00 -0.00000000000E+00 -0.71867623367E+03  0.71867623367E+03  0.00000000000E+00 0. -1.
         24    2    1    2    0    0 -0.71533735197E+02 -0.37418701765E+02 -0.63554125068E+03  0.64656665624E+03  0.87284163086E+02 0.  0.
         25    2    1    2    0    0  0.10013648709E+03  0.20784475114E+02  0.14669067906E+02  0.16223978760E+03  0.12508899502E+03 0.  0.
        -24    2    1    2    0    0 -0.28602751888E+02  0.16634226651E+02  0.56479270179E+03  0.57246654252E+03  0.87363215360E+02 0.  0.
        -11    1    3    3    0    0 -0.23080215117E+02 -0.11566742845E+02 -0.34852395772E+02  0.43372518499E+02  0.00000000000E+00 0.  1.
         12    1    3    3    0    0 -0.48453520080E+02 -0.25851958920E+02 -0.60068885491E+03  0.60319413774E+03  0.00000000000E+00 0. -1.
         13    1    5    5    0    0  0.25643406670E+02  0.89754482410E+01  0.77908085600E+02  0.82509470842E+02  0.00000000000E+00 0. -1.
        -14    1    5    5    0    0 -0.54246158558E+02  0.76587784104E+01  0.48688461619E+03  0.48995707168E+03  0.00000000000E+00 0.  1.
          5    1    4    4  501    0  0.72597120527E+02  0.40708782344E+02 -0.44050627168E+02  0.94262808268E+02  0.41800000000E+01 0. -1.
         -5    1    4    4    0  501  0.27539366558E+02 -0.19924307230E+02  0.58719695074E+02  0.67976979328E+02  0.41800000000E+01 0. -1.
</event>
<event>
11    1  0.8037748E-009  0.2177238E+03  0.7561462E-02  0.1042653E+00
         22   -1    0    0    0    0  0.00000000000E+00  0.00000000000E+00  0.26390377210E+04  0.26390377210E+04  0.00000000000E+00 0.  1.
         22   -1    0    0    0    0 -0.00000000000E+00 -0.00000000000E+00 -0.40987679484E+02  0.40987679484E+02  0.00000000000E+00 0.  1.
         24    2    1    2    0    0  0.26874616008E+02 -0.77872833599E+02  0.17037069889E+03  0.20538010146E+03  0.79802179402E+02 0.  0.
         25    2    1    2    0    0 -0.11588300924E+03  0.20984178379E+03  0.10036549514E+04  0.10394392726E+04  0.12509314074E+03 0.  0.
        -24    2    1    2    0    0  0.89008393233E+02 -0.13196895019E+03  0.14240243912E+04  0.14352060264E+04  0.81440614248E+02 0.  0.
        -13    1    3    3    0    0  0.41949162842E+02 -0.63772658775E+02  0.72221452959E+02  0.10508388334E+03  0.00000000000E+00 0.  1.
         14    1    3    3    0    0 -0.15074546834E+02 -0.14100174824E+02  0.98149245931E+02  0.10029621812E+03  0.00000000000E+00 0. -1.
         13    1    5    5    0    0  0.47430920780E+02 -0.80933680209E+02  0.11307556858E+04  0.11346401958E+04  0.00000000000E+00 0. -1.
        -14    1    5    5    0    0  0.41577472454E+02 -0.51035269981E+02  0.29326870534E+03  0.30056583061E+03  0.00000000000E+00 0.  1.
          5    1    4    4  501    0 -0.43369991040E+02  0.11847132119E+03  0.74565687531E+03  0.75626586474E+03  0.41800000000E+01 0.  1.
         -5    1    4    4    0  501 -0.72513018201E+02  0.91370462598E+02  0.25799807607E+03  0.28317340783E+03  0.41800000000E+01 0.  1.
</event>
<event>
11    1  0.8037748E-009  0.1574978E+03  0.7561462E-02  0.1089455E+00
         22   -1    0    0    0    0  0.00000000000E+00  0.00000000000E+00  0.55630807185E+03  0.55630807185E+03  0.00000000000E+00 0. -1.
         22   -1    0    0    0    0 -0.00000000000E+00 -0.00000000000E+00 -0.14645088033E+04  0.14645088033E+04  0.00000000000E+00 0.  1.
        -24    2    1    2    0    0 -0.20707432579E+02 -0.16481220017E+02 -0.12830094393E+04  0.12857618170E+04  0.79811028482E+02 0.  0.
         25    2    1    2    0    0 -0.75593779132E+02  0.23111352951E+02 -0.14064834319E+03  0.20415318384E+03  0.12509201394E+03 0.  0.
         24    2    1    2    0    0  0.96301211712E+02 -0.66301329344E+01  0.51545705109E+03  0.53090187428E+03  0.82722104377E+02 0.  0.
        -13    1    5    5    0    0 -0.58474785230E+01  0.17376068295E+02  0.39968982304E+02  0.43973177061E+02  0.00000000000E+00 0.  1.
         14    1    5    5    0    0  0.10214869023E+03 -0.24006201229E+02  0.47548806879E+03  0.48692869722E+03  0.00000000000E+00 0. -1.
         11    1    3    3    0    0 -0.12155231181E+02  0.39082526819E+01 -0.30596629028E+02  0.33153850334E+02  0.00000000000E+00 0. -1.
        -12    1    3    3    0    0 -0.85522013979E+01 -0.20389472699E+02 -0.12524128103E+04  0.12526079667E+04  0.00000000000E+00 0.  1.
          5    1    4    4  501    0 -0.54774841944E+02  0.72718176686E+02 -0.10704199277E+03  0.14058334591E+03  0.41800000000E+01 0. -1.
         -5    1    4    4    0  501 -0.20818937188E+02 -0.49606823735E+02 -0.33606350422E+02  0.63569837937E+02  0.41800000000E+01 0. -1.
</event>
<event>
11    1  0.8037748E-009  0.2196676E+03  0.7561462E-02  0.1041426E+00
         22   -1    0    0    0    0  0.00000000000E+00  0.00000000000E+00  0.23524185856E+04  0.23524185856E+04  0.00000000000E+00 0. -1.
         22   -1    0    0    0    0 -0.00000000000E+00 -0.00000000000E+00 -0.32567705872E+04  0.32567705872E+04  0.00000000000E+00 0. -1.
         24    2    1    2    0    0 -0.12390257548E+03  0.13012618218E+03 -0.31461949933E+04  0.31523352122E+04  0.79935489409E+02 0.  0.
         25    2    1    2    0    0  0.13362734140E+03 -0.18640732746E+03  0.54081873169E+02  0.26678932007E+03  0.12509090374E+03 0.  0.
        -24    2    1    2    0    0 -0.97247659214E+01  0.56281145279E+02  0.21877611185E+04  0.21900646406E+04  0.82597093182E+02 0.  0.
        -11    1    3    3    0    0  0.94908960731E+01 -0.34509324804E+00 -0.10849910446E+03  0.10891396543E+03  0.00000000000E+00 0.  1.
         12    1    3    3    0    0 -0.13339347155E+03  0.13047127542E+03 -0.30376958888E+04  0.30434212467E+04  0.00000000000E+00 0. -1.
         13    1    5    5    0    0 -0.40712820978E+02  0.51361291964E+02  0.17227066236E+04  0.17239529075E+04  0.00000000000E+00 0. -1.
        -14    1    5    5    0    0  0.30988055057E+02  0.49198533156E+01  0.46505449486E+03  0.46611173307E+03  0.00000000000E+00 0.  1.
          5    1    4    4  501    0  0.14569379203E+03 -0.11055221701E+03  0.25392427310E+02  0.18469088089E+03  0.41800000000E+01 0.  1.
         -5    1    4    4    0  501 -0.12066450625E+02 -0.75855110449E+02  0.28689445859E+02  0.82098439179E+02  0.41800000000E+01 0.  1.
</event>
<event>
11    1  0.8037748E-009  0.1557116E+03  0.7561462E-02  0.1091181E+00
         22   -1    0    0    0    0  0.00000000000E+00  0.00000000000E+00  0.17038508781E+04  0.17038508781E+04  0.00000000000E+00 0.  1.
         22   -1    0    0    0    0 -0.00000000000E+00 -0.00000000000E+00 -0.11068055098E+04  0.11068055098E+04  0.00000000000E+00 0. -1.
        -24    2    1    2    0    0  0.70315889427E+02  0.59467541296E+02 -0.10573930937E+04  0.10646910096E+04  0.83702320507E+02 0.  0.
         25    2    1    2    0    0 -0.15677847018E+03 -0.21212606474E+02  0.19258285623E+03  0.27886364059E+03  0.12508920875E+03 0.  0.
         24    2    1    2    0    0  0.86462580756E+02 -0.38254934823E+02  0.14618556058E+04  0.14671017378E+04  0.80165322199E+02 0.  0.
        -13    1    5    5    0    0  0.20312244588E+02 -0.31996849031E+02  0.97458348440E+03  0.97532012883E+03  0.00000000000E+00 0.  1.
         14    1    5    5    0    0  0.66150336168E+02 -0.62580857922E+01  0.48727212138E+03  0.49178160893E+03  0.00000000000E+00 0. -1.
         13    1    3    3    0    0  0.67499365646E+02  0.45791423725E+02 -0.10356079987E+04  0.10388151644E+04  0.00000000000E+00 0. -1.
        -14    1    3    3    0    0  0.28165237808E+01  0.13676117571E+02 -0.21785095038E+02  0.25875845181E+02  0.00000000000E+00 0.  1.
          5    1    4    4  501    0  0.62928102838E+01 -0.37031557850E+02  0.36327123675E+02  0.52422018777E+02  0.41800000000E+01 0. -1.
         -5    1    4    4    0  501 -0.16307128047E+03  0.15818951377E+02  0.15625573255E+03  0.22644162182E+03  0.41800000000E+01 0. -1.
</event>
<event>
11    1  0.8037748E-009  0.3935175E+03  0.7561462E-02  0.9669081E-01
         22   -1    0    0    0    0  0.00000000000E+00  0.00000000000E+00  0.40435620754E+03  0.40435620754E+03  0.00000000000E+00 0. -1.
         22   -1    0    0    0    0 -0.00000000000E+00 -0.00000000000E+00 -0.25167416315E+04  0.25167416315E+04  0.00000000000E+00 0.  1.
        -24    2    1    2    0    0 -0.32207208890E+03  0.22663514113E+03 -0.22592769390E+04  0.22947256864E+04  0.79622677735E+02 0.  0.
         25    2    1    2    0    0  0.19197928009E+03 -0.17846767123E+03 -0.12109590597E+03  0.31467673664E+03  0.12510186442E+03 0.  0.
         24    2    1    2    0    0  0.13009280880E+03 -0.48167469899E+02  0.26798742111E+03  0.31169541597E+03  0.78054662918E+02 0.  0.
        -11    1    5    5    0    0  0.83108880978E+02  0.69007257743E+01  0.17499032433E+03  0.19384612383E+03  0.00000000000E+00 0.  1.
         12    1    5    5    0    0  0.46983927824E+02 -0.55068195673E+02  0.92997096782E+02  0.11784929214E+03  0.00000000000E+00 0. -1.
         13    1    3    3    0    0 -0.13464485757E+02  0.33521333821E+02 -0.15199552764E+03  0.15622935902E+03  0.00000000000E+00 0. -1.
        -14    1    3    3    0    0 -0.30860760314E+03  0.19311380731E+03 -0.21072814114E+04  0.21384963274E+04  0.00000000000E+00 0.  1.
          5    1    4    4  501    0  0.19786893136E+03 -0.12538060740E+03 -0.81500141850E+02  0.24805676010E+03  0.41800000000E+01 0.  1.
         -5    1    4    4    0  501 -0.58896512685E+01 -0.53087063833E+02 -0.39595764121E+02  0.66619976545E+02  0.41800000000E+01 0.  1.
</event>
<event>
11    1  0.8037748E-009  0.2439522E+03  0.7561462E-02  0.1027171E+00
         22   -1    0    0    0    0  0.00000000000E+00  0.00000000000E+00  0.22159104529E+04  0.22159104529E+04  0.00000000000E+00 0.  1.
         22   -1    0    0    0    0 -0.00000000000E+00 -0.00000000000E+00 -0.43091984342E+03  0.43091984342E+03  0.00000000000E+00 0. -1.
         24    2    1    2    0    0 -0.36553318067E+02 -0.12085729051E+03 -0.21480929848E+03  0.26276570768E+03  0.83427529556E+02 0.  0.
         25    2    1    2    0    0  0.24665664825E+02  0.32622451747E+03 -0.21282202031E+02  0.35089880794E+03  0.12508481312E+03 0.  0.
        -24    2    1    2    0    0  0.11887653242E+02 -0.20536722696E+03  0.20210821100E+04  0.20331657807E+04  0.81689547806E+02 0.  0.
        -11    1    3    3    0    0 -0.22112241540E+02 -0.28383687643E+02 -0.96288597113E+01  0.37246474859E+02  0.00000000000E+00 0.  1.
         12    1    3    3    0    0 -0.14441076527E+02 -0.92473602865E+02 -0.20518043877E+03  0.22551923282E+03  0.00000000000E+00 0. -1.
         11    1    5    5    0    0 -0.10352809523E+02  0.26195290072E+01  0.16240769070E+03  0.16275841175E+03  0.00000000000E+00 0. -1.
        -12    1    5    5    0    0  0.22240462765E+02 -0.20798675597E+03  0.18586744193E+04  0.18704073689E+04  0.00000000000E+00 0.  1.
          5    1    4    4  501    0  0.19768787302E+02  0.31412504346E+03  0.11898287776E+02  0.31499903100E+03  0.41800000000E+01 0.  1.
         -5    1    4    4    0  501  0.48968775227E+01  0.12099474015E+02 -0.33180489807E+02  0.35899776945E+02  0.41800000000E+01 0.  1.
</event>
<event>
11    1  0.8037748E-009  0.1545282E+03  0.7561462E-02  0.1092340E+00
         22   -1    0    0    0    0  0.00000000000E+00  0.00000000000E+00  0.13072389738E+04  0.13072389738E+04  0.00000000000E+00 0. -1.
         22   -1    0    0    0    0 -0.00000000000E+00 -0.00000000000E+00 -0.11419988706E+04  0.11419988706E+04  0.00000000000E+00 0. -1.
         24    2    1    2    0    0  0.36868646293E+02 -0.15549925856E+02 -0.10762794487E+04  0.10811040194E+04  0.93847492176E+02 0.  0.
         25    2    1    2    0    0 -0.10436432572E+03  0.73323318274E+02  0.72313312276E+02  0.19273820051E+03  0.12510226744E+03 0.  0.
        -24    2    1    2    0    0  0.67495679428E+02 -0.57773392419E+02  0.11692062396E+04  0.11753956244E+04  0.81352391141E+02 0.  0.
        -13    1    3    3    0    0 -0.59770573219E+01 -0.47445626228E+01 -0.54842648395E+01  0.93975129445E+01  0.00000000000E+00 0.  1.
         14    1    3    3    0    0  0.42845703615E+02 -0.10805363233E+02 -0.10707951838E+04  0.10717065064E+04  0.00000000000E+00 0. -1.
         11    1    5    5    0    0  0.63939155727E+02 -0.24285638125E+02  0.42850106953E+03  0.43392530975E+03  0.00000000000E+00 0. -1.
        -12    1    5    5    0    0  0.35565237008E+01 -0.33487754293E+02  0.74070517008E+03  0.74147031467E+03  0.00000000000E+00 0.  1.
          5    1    4    4  501    0 -0.12702580543E+03  0.56409573934E+02  0.83325531803E+02  0.16210555797E+03  0.41800000000E+01 0. -1.
         -5    1    4    4    0  501  0.22661479705E+02  0.16913744341E+02 -0.11012219527E+02  0.30632642540E+02  0.41800000000E+01 0. -1.
</event>
<event>
11    1  0.8037748E-009  0.1580514E+03  0.7561462E-02  0.1088924E+00
         22   -1    0    0    0    0  0.00000000000E+00  0.00000000000E+00  0.40538103596E+03  0.40538103596E+03  0.00000000000E+00 0.  1.
         22   -1    0    0    0    0 -0.00000000000E+00 -0.00000000000E+00 -0.18874074870E+04  0.18874074870E+04  0.00000000000E+00 0. -1.
         24    2    1    2    0    0  0.90585440727E+02  0.17795797858E+02 -0.10724518350E+04  0.10794357078E+04  0.80660376906E+02 0.  0.
         25    2    1    2    0    0 -0.92761356510E+02 -0.67869721812E+02 -0.79686565087E+03  0.81477312492E+03  0.12509760653E+03 0.  0.
        -24    2    1    2    0    0  0.21759157825E+01  0.50073923954E+02  0.38729103487E+03  0.39857969019E+03  0.79745164583E+02 0.  0.
        -13    1    3    3    0    0 -0.10681879874E+02 -0.98026466001E+01 -0.23245174978E+03  0.23290343581E+03  0.00000000000E+00 0.  1.
         14    1    3    3    0    0  0.10126732060E+03  0.27598444458E+02 -0.84000008523E+03  0.84653227201E+03  0.00000000000E+00 0. -1.
         13    1    5    5    0    0  0.46486768568E+00  0.47064989916E+02  0.92664822645E+02  0.10393314550E+03  0.00000000000E+00 0. -1.
        -14    1    5    5    0    0  0.17110480969E+01  0.30089340379E+01  0.29462621222E+03  0.29464654469E+03  0.00000000000E+00 0.  1.
          5    1    4    4  501    0 -0.12722658693E+02 -0.72435949854E+02 -0.21220659398E+03  0.22462845725E+03  0.41800000000E+01 0. -1.
         -5    1    4    4    0  501 -0.80038697817E+02  0.45662280415E+01 -0.58465905689E+03  0.59014466767E+03  0.41800000000E+01 0. -1.
</event>
<event>
11    1  0.8037748E-009  0.1555985E+03  0.7561462E-02  0.1091292E+00
         22   -1    0    0    0    0  0.00000000000E+00  0.00000000000E+00  0.88570295566E+03  0.88570295566E+03  0.00000000000E+00 0. -1.
         22   -1    0    0    0    0 -0.00000000000E+00 -0.00000000000E+00 -0.12457137523E+03  0.12457137523E+03  0.00000000000E+00 0.  1.
        -24    2    1    2    0    0 -0.35154184502E+02 -0.42944208273E+02 -0.56937947281E+02  0.11253140304E+03  0.79632688755E+02 0.  0.
         25    2    1    2    0    0  0.12228669030E+03  0.45170985099E+02  0.20485903824E+03  0.27314832537E+03  0.12509328353E+03 0.  0.
         24    2    1    2    0    0 -0.87132505794E+02 -0.22267768260E+01  0.61321048947E+03  0.62459460248E+03  0.80587101615E+02 0.  0.
        -13    1    5    5    0    0 -0.40975847025E+02  0.11520982922E+01  0.85079909203E+02  0.94440130876E+02  0.00000000000E+00 0.  1.
         14    1    5    5    0    0 -0.46156658770E+02 -0.33788751182E+01  0.52813058027E+03  0.53015447160E+03  0.00000000000E+00 0. -1.
         13    1    3    3    0    0  0.37079391861E+01 -0.55758883666E+02 -0.36922493363E+02  0.66978148951E+02  0.00000000000E+00 0. -1.
        -14    1    3    3    0    0 -0.38862123688E+02  0.12814675393E+02 -0.20015453918E+02  0.45553254093E+02  0.00000000000E+00 0.  1.
          5    1    4    4  501    0  0.10852160605E+03 -0.18729167525E+02  0.15789686581E+03  0.19255288450E+03  0.41800000000E+01 0. -1.
         -5    1    4    4    0  501  0.13765084244E+02  0.63900152624E+02  0.46962172433E+02  0.80595440872E+02  0.41800000000E+01 0. -1.
</event>
<event>
11    1  0.8037748E-009  0.1530614E+03  0.7561462E-02  0.1093791E+00
         22   -1    0    0    0    0  0.00000000000E+00  0.00000000000E+00  0.18433446574E+03  0.18433446574E+03  0.00000000000E+00 0. -1.
         22   -1    0    0    0    0 -0.00000000000E+00 -0.00000000000E+00 -0.76183338750E+03  0.76183338750E+03  0.00000000000E+00 0.  1.
         24    2    1    2    0    0  0.31816028307E+02  0.44530601938E+02 -0.59751869485E+03  0.60542678904E+03  0.80732719671E+02 0.  0.
         25    2    1    2    0    0 -0.55879724019E+01 -0.12271596748E+03 -0.75572228163E+02  0.19091239890E+03  0.12508376503E+03 0.  0.
        -24    2    1    2    0    0 -0.26228055905E+02  0.78185365544E+02  0.95592001258E+02  0.14982866530E+03  0.80684174025E+02 0.  0.
        -11    1    3    3    0    0  0.25297977435E+01  0.62824675108E+02 -0.40033448746E+03  0.40524195431E+03  0.00000000000E+00 0.  1.
         12    1    3    3    0    0  0.29286230564E+02 -0.18294073169E+02 -0.19718420739E+03  0.20018483473E+03  0.00000000000E+00 0. -1.
         13    1    5    5    0    0 -0.28567874904E+02  0.94136942603E+02  0.88067191098E+02  0.13203680391E+03  0.00000000000E+00 0. -1.
        -14    1    5    5    0    0  0.23398189989E+01 -0.15951577059E+02  0.75248101597E+01  0.17791861385E+02  0.00000000000E+00 0.  1.
          5    1    4    4  501    0 -0.19191878755E+02  0.15783110250E+02 -0.39894307584E+02  0.47185410425E+02  0.41800000000E+01 0. -1.
         -5    1    4    4    0  501  0.13603906354E+02 -0.13849907773E+03 -0.35677920579E+02  0.14372698848E+03  0.41800000000E+01 0. -1.
</event>
<event>
11    1  0.8037748E-009  0.2280436E+03  0.7561462E-02  0.1036293E+00
         22   -1    0    0    0    0  0.00000000000E+00  0.00000000000E+00  0.45308880681E+03  0.45308880681E+03  0.00000000000E+00 0.  1.
         22   -1    0    0    0    0 -0.00000000000E+00 -0.00000000000E+00 -0.15225977604E+04  0.15225977604E+04  0.00000000000E+00 0.  1.
         24    2    1    2    0    0  0.19427134239E+03  0.43468028865E+02 -0.12920599053E+04  0.13097387350E+04  0.79786785274E+02 0.  0.
         25    2    1    2    0    0 -0.11219678813E+03 -0.12579994441E+03 -0.15639935989E+03  0.26176701579E+03  0.12508982973E+03 0.  0.
        -24    2    1    2    0    0 -0.82074554264E+02  0.82331915541E+02  0.37895031159E+03  0.40418081643E+03  0.79019092234E+02 0.  0.
        -11    1    3    3    0    0  0.12104798609E+03  0.41724867410E+02 -0.10195183595E+04  0.10275267708E+04  0.00000000000E+00 0.  1.
         12    1    3    3    0    0  0.73223356297E+02  0.17431614550E+01 -0.27254154583E+03  0.28221196418E+03  0.00000000000E+00 0. -1.
         11    1    5    5    0    0 -0.53181861072E+02  0.24268272729E+01  0.18334961695E+03  0.19092218800E+03  0.00000000000E+00 0. -1.
        -12    1    5    5    0    0 -0.28892693192E+02  0.79905088268E+02  0.19560069465E+03  0.21325862842E+03  0.00000000000E+00 0.  1.
          5    1    4    4  501    0 -0.12300577914E+03 -0.85289969942E+02 -0.69274920093E+02  0.16498875000E+03  0.41800000000E+01 0. -1.
         -5    1    4    4    0  501  0.10808991012E+02 -0.40509974464E+02 -0.87124439799E+02  0.96778265784E+02  0.41800000000E+01 0. -1.
</event>
<event>
11    1  0.8037748E-009  0.1278022E+03  0.7561462E-02  0.1121999E+00
         22   -1    0    0    0    0  0.00000000000E+00  0.00000000000E+00  0.11451535910E+04  0.11451535910E+04  0.00000000000E+00 0. -1.
         22   -1    0    0    0    0 -0.00000000000E+00 -0.00000000000E+00 -0.41305996943E+03  0.41305996943E+03  0.00000000000E+00 0. -1.
        -24    2    1    2    0    0  0.22159995736E+02  0.61473658323E+01 -0.35968555311E+03  0.36934972497E+03  0.80725873786E+02 0.  0.
         25    2    1    2    0    0 -0.95680422485E+01 -0.29322499299E+02  0.41864721253E+02  0.13546544731E+03  0.12508747392E+03 0.  0.
         24    2    1    2    0    0 -0.12591953488E+02  0.23175133467E+02  0.10499144534E+04  0.10533983882E+04  0.81438077792E+02 0.  0.
        -13    1    5    5    0    0  0.15373874074E+02 -0.34842904799E+01  0.43937938584E+02  0.46680174927E+02  0.00000000000E+00 0.  1.
         14    1    5    5    0    0 -0.27965827562E+02  0.26659423947E+02  0.10059765149E+04  0.10067182132E+04  0.00000000000E+00 0. -1.
         11    1    3    3    0    0  0.28516542828E+02 -0.33318469186E+02 -0.19748320902E+03  0.20229417058E+03  0.00000000000E+00 0. -1.
        -12    1    3    3    0    0 -0.63565470917E+01  0.39465835018E+02 -0.16220234409E+03  0.16705555439E+03  0.00000000000E+00 0.  1.
          5    1    4    4  501    0 -0.60290783323E+02 -0.44420685370E+02  0.17315597868E+02  0.76977127590E+02  0.41800000000E+01 0.  1.
         -5    1    4    4    0  501  0.50722741074E+02  0.15098186071E+02  0.24549123384E+02  0.58488319720E+02  0.41800000000E+01 0.  1.
</event>
<event>
11    1  0.8037748E-009  0.1874166E+03  0.7561462E-02  0.1063797E+00
         22   -1    0    0    0    0  0.00000000000E+00  0.00000000000E+00  0.51150778111E+03  0.51150778111E+03  0.00000000000E+00 0.  1.
         22   -1    0    0    0    0 -0.00000000000E+00 -0.00000000000E+00 -0.79282192396E+03  0.79282192396E+03  0.00000000000E+00 0.  1.
        -24    2    1    2    0    0  0.13512335810E+03  0.40293383660E+02 -0.39064560686E+03  0.42292380077E+03  0.79866591434E+02 0.  0.
         25    2    1    2    0    0 -0.11123947046E+03  0.99510183403E+02 -0.34601440145E+03  0.39705126576E+03  0.12508894930E+03 0.  0.
         24    2    1    2    0    0 -0.23883887644E+02 -0.13980356706E+03  0.45534586547E+03  0.48435463855E+03  0.84522666991E+02 0.  0.
        -13    1    5    5    0    0 -0.63069489178E+01 -0.31648091526E+02  0.24560659397E+03  0.24771753733E+03  0.00000000000E+00 0.  1.
         14    1    5    5    0    0 -0.17576938726E+02 -0.10815547554E+03  0.20973927150E+03  0.23663710122E+03  0.00000000000E+00 0. -1.
         13    1    3    3    0    0  0.23629352043E+02  0.25083783548E+02 -0.18799662792E+03  0.19112894753E+03  0.00000000000E+00 0. -1.
        -14    1    3    3    0    0  0.11149400606E+03  0.15209600112E+02 -0.20264897894E+03  0.23179485324E+03  0.00000000000E+00 0.  1.
          5    1    4    4  501    0 -0.71744646621E+02  0.46369737246E+01 -0.62139407212E+02  0.95118737233E+02  0.41800000000E+01 0. -1.
         -5    1    4    4    0  501 -0.39494823838E+02  0.94873209679E+02 -0.28387499424E+03  0.30193252852E+03  0.41800000000E+01 0. -1.
</event>
<event>
11    1  0.8037748E-009  0.1316039E+03  0.7561462E-02  0.1117314E+00
         22   -1    0    0    0    0  0.00000000000E+00  0.00000000000E+00  0.53429172354E+03  0.53429172354E+03  0.00000000000E+00 0. -1.
         22   -1    0    0    0    0 -0.00000000000E+00 -0.00000000000E+00 -0.31799886234E+03  0.31799886234E+03  0.00000000000E+00 0.  1.
         24    2    1    2    0    0 -0.33323930225E+02 -0.26207156589E+02 -0.28063812125E+03  0.29526799485E+03  0.81413354560E+02 0.  0.
         25    2    1    2    0    0  0.10345512551E+02  0.88540951631E+00  0.12985754854E+03  0.18060830752E+03  0.12509422150E+03 0.  0.
        -24    2    1    2    0    0  0.22978417674E+02  0.25321747073E+02  0.36707343391E+03  0.37641428351E+03  0.75997423623E+02 0.  0.
        -11    1    3    3    0    0 -0.57174612259E+02 -0.30134518804E+02 -0.16661441131E+03  0.17871034544E+03  0.00000000000E+00 0.  1.
         12    1    3    3    0    0  0.23850682034E+02  0.39273622143E+01 -0.11402370994E+03  0.11655764941E+03  0.00000000000E+00 0. -1.
         13    1    5    5    0    0 -0.96048492986E+01 -0.78778468254E+01  0.25183625186E+03  0.25214244258E+03  0.00000000000E+00 0. -1.
        -14    1    5    5    0    0  0.32583266973E+02  0.33199593898E+02  0.11523718205E+03  0.12427184093E+03  0.00000000000E+00 0.  1.
          5    1    4    4  501    0  0.32410592843E+02 -0.47094765699E+02  0.23820878651E+02  0.62074714211E+02  0.41800000000E+01 0.  1.
         -5    1    4    4    0  501 -0.22065080292E+02  0.47980175216E+02  0.10603666989E+03  0.11853359331E+03  0.41800000000E+01 0.  1.
</event>
<event>
11    1  0.8037748E-009  0.2199880E+03  0.7561462E-02  0.1041225E+00
         22   -1    0    0    0    0  0.00000000000E+00  0.00000000000E+00  0.86289410930E+03  0.86289410930E+03  0.00000000000E+00 0. -1.
         22   -1    0    0    0    0 -0.00000000000E+00 -0.00000000000E+00 -0.48701040012E+03  0.48701040012E+03  0.00000000000E+00 0.  1.
         24    2    1    2    0    0  0.10210758516E+03 -0.14683054046E+03 -0.42429901985E+03  0.46744902918E+03  0.80583931876E+02 0.  0.
         25    2    1    2    0    0 -0.11579347811E+03  0.20124749383E+03  0.47992542301E+03  0.54761746464E+03  0.12509113712E+03 0.  0.
        -24    2    1    2    0    0  0.13685892957E+02 -0.54416953371E+02  0.32025730602E+03  0.33483801560E+03  0.80020285906E+02 0.  0.
        -13    1    3    3    0    0  0.55244675666E+02 -0.83222797167E+02 -0.32807796088E+03  0.34294774612E+03  0.00000000000E+00 0.  1.
         14    1    3    3    0    0  0.46862909490E+02 -0.63607743292E+02 -0.96221058972E+02  0.12450128305E+03  0.00000000000E+00 0. -1.
         13    1    5    5    0    0  0.40473123380E+02 -0.42658910731E+02  0.27297981763E+03  0.27924153920E+03  0.00000000000E+00 0. -1.
        -14    1    5    5    0    0 -0.26787230423E+02 -0.11758042640E+02  0.47277488382E+02  0.55596476401E+02  0.00000000000E+00 0.  1.
          5    1    4    4  501    0 -0.12112143872E+03  0.20566185390E+03  0.48315738709E+03  0.53891162000E+03  0.41800000000E+01 0. -1.
         -5    1    4    4    0  501  0.53279606109E+01 -0.44143600716E+01 -0.32319640838E+01  0.87058446433E+01  0.41800000000E+01 0. -1.
</event>
<event>
11    1  0.8037748E-009  0.2913851E+03  0.7561462E-02  0.1003905E+00
         22   -1    0    0    0    0  0.00000000000E+00  0.00000000000E+00  0.39270312741E+03  0.39270312741E+03  0.00000000000E+00 0.  1.
         22   -1    0    0    0    0 -0.00000000000E+00 -0.00000000000E+00 -0.75268497541E+03  0.75268497541E+03  0.00000000000E+00 0.  1.
         24    2    1    2    0    0 -0.10334728997E+03 -0.24137462104E+03 -0.35292552543E+03  0.44734139929E+03  0.81335914536E+02 0.  0.
         25    2    1    2    0    0  0.22312153949E+02  0.27119581809E+03 -0.27392196901E+03  0.40586395474E+03  0.12508917095E+03 0.  0.
        -24    2    1    2    0    0  0.81035136017E+02 -0.29821197054E+02  0.26686564644E+03  0.29218274879E+03  0.81838184097E+02 0.  0.
        -11    1    3    3    0    0 -0.11715534743E+03 -0.22081098150E+03 -0.31682275787E+03  0.40355857677E+03  0.00000000000E+00 0.  1.
         12    1    3    3    0    0  0.13808057465E+02 -0.20563639535E+02 -0.36102767560E+02  0.43782822515E+02  0.00000000000E+00 0. -1.
         11    1    5    5    0    0  0.73085413142E+02  0.13704449594E+02  0.17814507085E+03  0.19304133190E+03  0.00000000000E+00 0. -1.
        -12    1    5    5    0    0  0.79497228752E+01 -0.43525646648E+02  0.88720575591E+02  0.99141416891E+02  0.00000000000E+00 0.  1.
          5    1    4    4  501    0 -0.14890950319E+02  0.25990974432E+03 -0.23955146291E+03  0.35380388830E+03  0.41800000000E+01 0. -1.
         -5    1    4    4    0  501  0.37203104268E+02  0.11286073769E+02 -0.34370506099E+02  0.52060066440E+02  0.41800000000E+01 0. -1.
</event>
<event>
11    1  0.8037748E-009  0.1478133E+03  0.7561462E-02  0.1099134E+00
         22   -1    0    0    0    0  0.00000000000E+00  0.00000000000E+00  0.16701202040E+04  0.16701202040E+04  0.00000000000E+00 0. -1.
         22   -1    0    0    0    0 -0.00000000000E+00 -0.00000000000E+00 -0.89324805146E+03  0.89324805146E+03  0.00000000000E+00 0.  1.
        -24    2    1    2    0    0 -0.13454149650E+02 -0.78580937785E+02 -0.82806193482E+03  0.83579452146E+03  0.80684176121E+02 0.  0.
         25    2    1    2    0    0  0.45647242912E+02  0.50184062025E+02  0.24372526363E+02  0.14437094164E+03  0.12508732103E+03 0.  0.
         24    2    1    2    0    0 -0.32193093261E+02  0.28396875759E+02  0.15805615610E+04  0.15832027923E+04  0.80705983522E+02 0.  0.
        -13    1    5    5    0    0  0.22586935179E+02  0.10852079384E+02  0.21940143824E+03  0.22082782517E+03  0.00000000000E+00 0.  1.
         14    1    5    5    0    0 -0.54780028440E+02  0.17544796376E+02  0.13611601227E+04  0.13623749671E+04  0.00000000000E+00 0. -1.
         13    1    3    3    0    0 -0.37497527291E+02 -0.13444536149E+02 -0.20169482497E+03  0.20559091061E+03  0.00000000000E+00 0. -1.
        -14    1    3    3    0    0  0.24043377641E+02 -0.65136401635E+02 -0.62636710985E+03  0.63020361085E+03  0.00000000000E+00 0.  1.
          5    1    4    4  501    0  0.43823862329E+02  0.35911231720E+02  0.73564189171E+02  0.92947887558E+02  0.41800000000E+01 0.  1.
         -5    1    4    4    0  501  0.18233805824E+01  0.14272830305E+02 -0.49191662808E+02  0.51423054086E+02  0.41800000000E+01 0.  1.
</event>
<event>
11    1  0.8037748E-009  0.2197907E+03  0.7561462E-02  0.1041349E+00
         22   -1    0    0    0    0  0.00000000000E+00  0.00000000000E+00  0.76130135322E+03  0.76130135322E+03  0.00000000000E+00 0.  1.
         22   -1    0    0    0    0 -0.00000000000E+00 -0.00000000000E+00 -0.17262657568E+04  0.17262657568E+04  0.00000000000E+00 0. -1.
         24    2    1    2    0    0  0.12646515664E+03 -0.12927622934E+03 -0.15675926134E+04  0.15800109067E+04  0.79887947942E+02 0.  0.
         25    2    1    2    0    0 -0.17667579740E+03  0.76168327926E+02 -0.58984855020E+02  0.23694282793E+03  0.12508692586E+03 0.  0.
        -24    2    1    2    0    0  0.50210640757E+02  0.53107901414E+02  0.66161306489E+03  0.67061337539E+03  0.81540750398E+02 0.  0.
        -11    1    3    3    0    0  0.51158213456E+01 -0.46963007760E+02 -0.26357965284E+03  0.26777962789E+03  0.00000000000E+00 0.  1.
         12    1    3    3    0    0  0.12134933530E+03 -0.82313221580E+02 -0.13040129606E+04  0.13122312788E+04  0.00000000000E+00 0. -1.
         13    1    5    5    0    0  0.35860451520E+02 -0.13055850833E+02  0.16202251048E+03  0.16645636403E+03  0.00000000000E+00 0. -1.
        -14    1    5    5    0    0  0.14350189237E+02  0.66163752247E+02  0.49959055441E+03  0.50415701136E+03  0.00000000000E+00 0.  1.
          5    1    4    4  501    0 -0.11057229797E+03  0.53671577286E+02 -0.97633487515E+02  0.15702433433E+03  0.41800000000E+01 0.  1.
         -5    1    4    4    0  501 -0.66103499431E+02  0.22496750640E+02  0.38648632495E+02  0.79918493605E+02  0.41800000000E+01 0.  1.
</event>
<event>
11    1  0.8037748E-009  0.1420393E+03  0.7561462E-02  0.1105302E+00
         22   -1    0    0    0    0  0.00000000000E+00  0.00000000000E+00  0.27659382684E+03  0.27659382684E+03  0.00000000000E+00 0. -1.
         22   -1    0    0    0    0 -0.00000000000E+00 -0.00000000000E+00 -0.82415264411E+03  0.82415264411E+03  0.00000000000E+00 0.  1.
        -24    2    1    2    0    0  0.88895999642E+02 -0.72780899149E+01 -0.47731743525E+03  0.49207086934E+03  0.79663900970E+02 0.  0.
         25    2    1    2    0    0 -0.20782630174E+02  0.38493704153E+02 -0.31412754358E+03  0.34093896859E+03  0.12509829611E+03 0.  0.
         24    2    1    2    0    0 -0.68113369468E+02 -0.31215614238E+02  0.24388616156E+03  0.26773663301E+03  0.81170186552E+02 0.  0.
        -11    1    5    5    0    0 -0.13533256706E+02  0.31754083371E+01 -0.15285284288E+01  0.13984586313E+02  0.00000000000E+00 0.  1.
         12    1    5    5    0    0 -0.54580112762E+02 -0.34391022575E+02  0.24541468999E+03  0.25375204670E+03  0.00000000000E+00 0. -1.
         13    1    3    3    0    0  0.37308952367E+01  0.26498762692E+02 -0.13988332510E+03  0.14241997277E+03  0.00000000000E+00 0. -1.
        -14    1    3    3    0    0  0.85165104405E+02 -0.33776852607E+02 -0.33743411015E+03  0.34965089657E+03  0.00000000000E+00 0.  1.
          5    1    4    4  501    0 -0.52280037513E+02  0.32234595256E+02 -0.29886325429E+03  0.30513765519E+03  0.41800000000E+01 0.  1.
         -5    1    4    4    0  501  0.31497407339E+02  0.62591088966E+01 -0.15264289295E+02  0.35801313397E+02  0.41800000000E+01 0.  1.
</event>
<event>
11    1  0.8037748E-009  0.1330312E+03  0.7561462E-02  0.1115600E+00
         22   -1    0    0    0    0  0.00000000000E+00  0.00000000000E+00  0.12762653007E+03  0.12762653007E+03  0.00000000000E+00 0. -1.
         22   -1    0    0    0    0 -0.00000000000E+00 -0.00000000000E+00 -0.10521388468E+04  0.10521388468E+04  0.00000000000E+00 0.  1.
        -24    2    1    2    0    0 -0.22177188625E+02  0.42132831818E+02 -0.90753042482E+03  0.91259204013E+03  0.83341205379E+02 0.  0.
         25    2    1    2    0    0  0.20495404021E+02 -0.52128011865E+01 -0.87386231261E+02  0.15405158482E+03  0.12509317523E+03 0.  0.
         24    2    1    2    0    0  0.16817846043E+01 -0.36920030631E+02  0.70404339322E+02  0.11312175195E+03  0.80460193304E+02 0.  0.
        -13    1    5    5    0    0  0.48416195781E+01  0.11075293237E+02 -0.12428192533E+02  0.17336763540E+02  0.00000000000E+00 0.  1.
         14    1    5    5    0    0 -0.31598349739E+01 -0.47995323869E+02  0.82832531854E+02  0.95784988405E+02  0.00000000000E+00 0. -1.
         11    1    3    3    0    0  0.29509687018E+02  0.26087736912E+01 -0.35779713629E+03  0.35902147298E+03  0.00000000000E+00 0. -1.
        -12    1    3    3    0    0 -0.51686875643E+02  0.39524058127E+02 -0.54973328853E+03  0.55357056714E+03  0.00000000000E+00 0.  1.
          5    1    4    4  501    0  0.43859202466E+02 -0.35825289069E+02 -0.98549749758E+02  0.11373920413E+03  0.41800000000E+01 0. -1.
         -5    1    4    4    0  501 -0.23363798445E+02  0.30612487883E+02  0.11163518497E+02  0.40312380696E+02  0.41800000000E+01 0. -1.
</event>
<event>
11    1  0.8037748E-009  0.1638227E+03  0.7561462E-02  0.1083536E+00
         22   -1    0    0    0    0  0.00000000000E+00  0.00000000000E+00  0.14209411564E+04  0.14209411564E+04  0.00000000000E+00 0. -1.
         22   -1    0    0    0    0 -0.00000000000E+00 -0.00000000000E+00 -0.20357792353E+03  0.20357792353E+03  0.00000000000E+00 0. -1.
        -24    2    1    2    0    0  0.23913556134E+02  0.15492733286E+02 -0.15277126491E+03  0.17483704045E+03  0.80106481506E+02 0.  0.
         25    2    1    2    0    0  0.27505192312E+02 -0.10770189291E+03  0.15731991623E+03  0.22968393381E+03  0.12509564366E+03 0.  0.
         24    2    1    2    0    0 -0.51418748446E+02  0.92209159626E+02  0.12128145816E+04  0.12199981057E+04  0.79559737533E+02 0.  0.
        -13    1    5    5    0    0 -0.88077760643E+01  0.13610817947E+02  0.64366131793E+03  0.64386545449E+03  0.00000000000E+00 0.  1.
         14    1    5    5    0    0 -0.42610972382E+02  0.78598341679E+02  0.56915326366E+03  0.57613265124E+03  0.00000000000E+00 0. -1.
         13    1    3    3    0    0  0.33979770480E+02  0.76196573200E+01 -0.15742955097E+03  0.16123506907E+03  0.00000000000E+00 0. -1.
        -14    1    3    3    0    0 -0.10066214346E+02  0.78730759663E+01  0.46582860585E+01  0.13601971380E+02  0.00000000000E+00 0.  1.
          5    1    4    4  501    0  0.47329742309E+02  0.82060033254E+01  0.60096301045E+02  0.77048561290E+02  0.41800000000E+01 0.  1.
         -5    1    4    4    0  501 -0.19824549996E+02 -0.11590789624E+03  0.97223615190E+02  0.15263537252E+03  0.41800000000E+01 0.  1.
</event>
<event>
11    1  0.8037748E-009  0.1798609E+03  0.7561462E-02  0.1069755E+00
         22   -1    0    0    0    0  0.00000000000E+00  0.00000000000E+00  0.13449234337E+04  0.13449234337E+04  0.00000000000E+00 0. -1.
         22   -1    0    0    0    0 -0.00000000000E+00 -0.00000000000E+00 -0.31003728596E+03  0.31003728596E+03  0.00000000000E+00 0.  1.
        -24    2    1    2    0    0  0.11647573837E+03  0.50594222574E+02 -0.23400979902E+03  0.27806293068E+03  0.80199965056E+02 0.  0.
         25    2    1    2    0    0 -0.10745947863E+03 -0.12594329617E+03  0.15869909556E+03  0.26123139273E+03  0.12508870540E+03 0.  0.
         24    2    1    2    0    0 -0.90162597401E+01  0.75349073591E+02  0.11101968512E+04  0.11156663963E+04  0.80097961673E+02 0.  0.
        -13    1    5    5    0    0  0.17818966584E+02  0.60745381068E+02  0.41519280041E+03  0.41999116467E+03  0.00000000000E+00 0.  1.
         14    1    5    5    0    0 -0.26835226325E+02  0.14603692522E+02  0.69500405080E+03  0.69567523158E+03  0.00000000000E+00 0. -1.
         13    1    3    3    0    0  0.33570941116E+02 -0.18505320601E+02 -0.36192517099E+02  0.52719572000E+02  0.00000000000E+00 0. -1.
        -14    1    3    3    0    0  0.82904797254E+02  0.69099543175E+02 -0.19781728192E+03  0.22534335868E+03  0.00000000000E+00 0.  1.
          5    1    4    4  501    0 -0.10662387491E+03 -0.13130727733E+03  0.88963857300E+02  0.19116038315E+03  0.41800000000E+01 0.  1.
         -5    1    4    4    0  501 -0.83560371886E+00  0.53639811639E+01  0.69735238265E+02  0.70071009578E+02  0.41800000000E+01 0.  1.
</event>
<event>
11    1  0.8037748E-009  0.1488621E+03  0.7561462E-02  0.1098047E+00
         22   -1    0    0    0    0  0.00000000000E+00  0.00000000000E+00  0.79210308365E+02  0.79210308365E+02  0.00000000000E+00 0. -1.
         22   -1    0    0    0    0 -0.00000000000E+00 -0.00000000000E+00 -0.85674289305E+03  0.85674289305E+03  0.00000000000E+00 0. -1.
         24    2    1    2    0    0 -0.94872251661E+01 -0.75500600454E+02 -0.53965637988E+03  0.55090237957E+03  0.80461639041E+02 0.  0.
         25    2    1    2    0    0 -0.19408480517E+02  0.10288448712E+03 -0.24564247303E+03  0.29487273484E+03  0.12509116031E+03 0.  0.
        -24    2    1    2    0    0  0.28895705684E+02 -0.27383886671E+02  0.77662682269E+01  0.90178087010E+02  0.80541501094E+02 0.  0.
        -11    1    3    3    0    0  0.13850110835E+02  0.10890667093E+02 -0.47199695494E+02  0.50380983065E+02  0.00000000000E+00 0.  1.
         12    1    3    3    0    0 -0.23337336001E+02 -0.86391267547E+02 -0.49245668439E+03  0.50052139650E+03  0.00000000000E+00 0. -1.
         13    1    5    5    0    0  0.37086946020E+02 -0.88831003983E+01  0.37975560128E+02  0.53819087737E+02  0.00000000000E+00 0. -1.
        -14    1    5    5    0    0 -0.81912403367E+01 -0.18500786272E+02 -0.30209291901E+02  0.36358999273E+02  0.00000000000E+00 0.  1.
          5    1    4    4  501    0  0.41768731426E+02  0.69575508336E+01 -0.33670532220E+02  0.54260589552E+02  0.41800000000E+01 0.  1.
         -5    1    4    4    0  501 -0.61177211944E+02  0.95926936291E+02 -0.21197194081E+03  0.24061214529E+03  0.41800000000E+01 0.  1.
</event>
<event>
11    1  0.8037748E-009  0.1472779E+03  0.7561462E-02  0.1099693E+00
         22   -1    0    0    0    0  0.00000000000E+00  0.00000000000E+00  0.50611593757E+03  0.50611593757E+03  0.00000000000E+00 0.  1.
         22   -1    0    0    0    0 -0.00000000000E+00 -0.00000000000E+00 -0.34289849549E+04  0.34289849549E+04  0.00000000000E+00 0. -1.
        -24    2    1    2    0    0  0.68758976949E+02  0.28451523771E+02 -0.27263567639E+04  0.27285255644E+04  0.79330105519E+02 0.  0.
         25    2    1    2    0    0 -0.11040731506E+03 -0.14612140356E+02 -0.68713320121E+03  0.70725522118E+03  0.12511843118E+03 0.  0.
         24    2    1    2    0    0  0.41648338116E+02 -0.13839383415E+02  0.49062094780E+03  0.49932010683E+03  0.81765164171E+02 0.  0.
        -11    1    5    5    0    0  0.39696050241E+02 -0.97857161608E+01  0.49267899566E+03  0.49437246021E+03  0.00000000000E+00 0.  1.
         12    1    5    5    0    0  0.19522878742E+01 -0.40536672547E+01 -0.20580478637E+01  0.49476466289E+01  0.00000000000E+00 0. -1.
         11    1    3    3    0    0  0.44290608373E+02  0.53409638634E+02 -0.21427884184E+04  0.21439114845E+04  0.00000000000E+00 0. -1.
        -12    1    3    3    0    0  0.24468368576E+02 -0.24958114862E+02 -0.58356834549E+03  0.58461407990E+03  0.00000000000E+00 0.  1.
          5    1    4    4  501    0 -0.10677820566E+03 -0.50202240961E+02 -0.61928942779E+03  0.63044327102E+03  0.41800000000E+01 0. -1.
         -5    1    4    4    0  501 -0.36291094042E+01  0.35590100606E+02 -0.67843773422E+02  0.76811950166E+02  0.41800000000E+01 0. -1.
</event>
<event>
11    1  0.8037748E-009  0.1286064E+03  0.7561462E-02  0.1120993E+00
         22   -1    0    0    0    0  0.00000000000E+00  0.00000000000E+00  0.51077751083E+03  0.51077751083E+03  0.00000000000E+00 0. -1.
         22   -1    0    0    0    0 -0.00000000000E+00 -0.00000000000E+00 -0.23386208808E+04  0.23386208808E+04  0.00000000000E+00 0.  1.
        -24    2    1    2    0    0  0.14557871363E+02 -0.27913649426E+02 -0.21296884225E+04  0.21315708811E+04  0.83848322029E+02 0.  0.
         25    2    1    2    0    0 -0.28290645866E+01 -0.50242518474E+01 -0.18470482682E+03  0.22315181424E+03  0.12509041704E+03 0.  0.
         24    2    1    2    0    0 -0.11728806777E+02  0.32937901273E+02  0.48654987935E+03  0.49467569621E+03  0.82163185610E+02 0.  0.
        -13    1    5    5    0    0 -0.28812794751E+02 -0.25636330248E+01  0.63302110046E+02  0.69598178797E+02  0.00000000000E+00 0.  1.
         14    1    5    5    0    0  0.17083987975E+02  0.35501534298E+02  0.42324776931E+03  0.42507751741E+03  0.00000000000E+00 0. -1.
         13    1    3    3    0    0  0.31931506029E+02 -0.17162230973E+02 -0.37166844209E+03  0.37343218139E+03  0.00000000000E+00 0. -1.
        -14    1    3    3    0    0 -0.17373634666E+02 -0.10751418452E+02 -0.17580199804E+04  0.17581386997E+04  0.00000000000E+00 0.  1.
          5    1    4    4  501    0 -0.77617056421E+01 -0.55302183662E+02 -0.37329095029E+02  0.67301629460E+02  0.41800000000E+01 0.  1.
         -5    1    4    4    0  501  0.49326410555E+01  0.50277931815E+02 -0.14737573179E+03  0.15585018478E+03  0.41800000000E+01 0.  1.
</event>
<event>
11    1  0.8037748E-009  0.1970703E+03  0.7561462E-02  0.1056615E+00
         22   -1    0    0    0    0  0.00000000000E+00  0.00000000000E+00  0.55350231823E+03  0.55350231823E+03  0.00000000000E+00 0. -1.
         22   -1    0    0    0    0 -0.00000000000E+00 -0.00000000000E+00 -0.58700298461E+03  0.58700298461E+03  0.00000000000E+00 0. -1.
        -24    2    1    2    0    0  0.97686287370E+02 -0.35623625647E+02 -0.49932760297E+03  0.51628346682E+03  0.80055665490E+02 0.  0.
         25    2    1    2    0    0 -0.14129834407E+03 -0.10920756369E+03  0.14870564568E+03  0.26391296112E+03  0.12508064593E+03 0.  0.
         24    2    1    2    0    0  0.43612056704E+02  0.14483118934E+03  0.31712129092E+03  0.36030887490E+03  0.79865432351E+02 0.  0.
        -13    1    5    5    0    0 -0.95830423669E+01  0.56913020600E+02  0.17954056331E+03  0.18858881327E+03  0.00000000000E+00 0.  1.
         14    1    5    5    0    0  0.53195099071E+02  0.87918168738E+02  0.13758072760E+03  0.17172006163E+03  0.00000000000E+00 0. -1.
         13    1    3    3    0    0  0.74526528676E+02 -0.55096506181E+02 -0.44033935264E+03  0.44998730422E+03  0.00000000000E+00 0. -1.
        -14    1    3    3    0    0  0.23159758694E+02  0.19472880533E+02 -0.58988250330E+02  0.66296162605E+02  0.00000000000E+00 0.  1.
          5    1    4    4  501    0  0.15079834568E+02  0.11827128625E+02  0.19512888023E+02  0.27667807667E+02  0.41800000000E+01 0.  1.
         -5    1    4    4    0  501 -0.15637817864E+03 -0.12103469232E+03  0.12919275765E+03  0.23624515345E+03  0.41800000000E+01 0. -1.
</event>
<event>
11    1  0.8037748E-009  0.1527069E+03  0.7561462E-02  0.1094145E+00
         22   -1    0    0    0    0  0.00000000000E+00  0.00000000000E+00  0.15210772704E+04  0.15210772704E+04  0.00000000000E+00 0.  1.
         22   -1    0    0    0    0 -0.00000000000E+00 -0.00000000000E+00 -0.55890004830E+03  0.55890004830E+03  0.00000000000E+00 0. -1.
        -24    2    1    2    0    0 -0.88500903159E+02 -0.17828036834E+02 -0.52947928103E+03  0.54290111321E+03  0.79013042780E+02 0.  0.
         25    2    1    2    0    0  0.90797617387E+01 -0.79297454106E-01  0.17443123356E+03  0.21484945876E+03  0.12510630012E+03 0.  0.
         24    2    1    2    0    0  0.79421141420E+02  0.17907334288E+02  0.13172252696E+04  0.13222267468E+04  0.81072613236E+02 0.  0.
        -11    1    5    5    0    0  0.62874704907E+02 -0.25533289089E+02  0.84402225993E+03  0.84674597881E+03  0.00000000000E+00 0.  1.
         12    1    5    5    0    0  0.16546436513E+02  0.43440623378E+02  0.47320300968E+03  0.47548076796E+03  0.00000000000E+00 0. -1.
         11    1    3    3    0    0 -0.40416405996E+02 -0.48057044088E+02 -0.29954548800E+03  0.30605630976E+03  0.00000000000E+00 0. -1.
        -12    1    3    3    0    0 -0.48084497163E+02  0.30229007254E+02 -0.22993379303E+03  0.23684480345E+03  0.00000000000E+00 0.  1.
          5    1    4    4  501    0 -0.41364288776E+01 -0.47594110163E+02  0.18752729797E+02  0.51492199807E+02  0.41800000000E+01 0.  1.
         -5    1    4    4    0  501  0.13216190616E+02  0.47514812709E+02  0.15567850376E+03  0.16335725896E+03  0.41800000000E+01 0.  1.
</event>
<event>
11    1  0.8037748E-009  0.1737211E+03  0.7561462E-02  0.1074838E+00
         22   -1    0    0    0    0  0.00000000000E+00  0.00000000000E+00  0.14079670861E+03  0.14079670861E+03  0.00000000000E+00 0. -1.
         22   -1    0    0    0    0 -0.00000000000E+00 -0.00000000000E+00 -0.16179454074E+04  0.16179454074E+04  0.00000000000E+00 0. -1.
         24    2    1    2    0    0  0.54018472058E+02 -0.50592730940E+02 -0.14193430097E+04  0.14236592492E+04  0.82422443093E+02 0.  0.
         25    2    1    2    0    0 -0.15249477753E+03  0.38145306828E+02 -0.31009767227E+02  0.20326976564E+03  0.12508904968E+03 0.  0.
        -24    2    1    2    0    0  0.98476305476E+02  0.12447424112E+02 -0.26795921913E+02  0.13181310115E+03  0.82487278389E+02 0.  0.
        -11    1    3    3    0    0  0.83702194856E+01  0.21738670989E+02 -0.20799007009E+03  0.20929046717E+03  0.00000000000E+00 0.  1.
         12    1    3    3    0    0  0.45648252572E+02 -0.72331401929E+02 -0.12113529396E+04  0.12143687821E+04  0.00000000000E+00 0. -1.
         13    1    5    5    0    0  0.10501461113E+03 -0.92030684342E+01 -0.15558898083E+02  0.10655911190E+03  0.00000000000E+00 0. -1.
        -14    1    5    5    0    0 -0.65383056557E+01  0.21650492546E+02 -0.11237023830E+02  0.25253989247E+02  0.00000000000E+00 0.  1.
          5    1    4    4  501    0 -0.16583997624E+03  0.83371694895E+01 -0.15349559858E+02  0.16680973444E+03  0.41800000000E+01 0.  1.
         -5    1    4    4    0  501  0.13345198710E+02  0.29808137338E+02 -0.15660207368E+02  0.36460031199E+02  0.41800000000E+01 0.  1.
</event>
<event>
11    1  0.8037748E-009  0.5045624E+03  0.7561462E-02  0.9383384E-01
         22   -1    0    0    0    0  0.00000000000E+00  0.00000000000E+00  0.50359276030E+03  0.50359276030E+03  0.00000000000E+00 0.  1.
         22   -1    0    0    0    0 -0.00000000000E+00 -0.00000000000E+00 -0.24311858973E+04  0.24311858973E+04  0.00000000000E+00 0.  1.
         24    2    1    2    0    0  0.56147169216E+02  0.46456272195E+03 -0.14374307514E+04  0.15138413645E+04  0.80854712073E+02 0.  0.
         25    2    1    2    0    0  0.23361312296E+02 -0.53694369132E+03 -0.86492832639E+03  0.10259639445E+04  0.12508687768E+03 0.  0.
        -24    2    1    2    0    0 -0.79508481513E+02  0.72380969377E+02  0.37476594078E+03  0.39497334868E+03  0.63196775568E+02 0.  0.
        -13    1    3    3    0    0  0.51365786513E+02  0.39138120576E+03 -0.12921542146E+04  0.13511033293E+04  0.00000000000E+00 0.  1.
         14    1    3    3    0    0  0.47813827037E+01  0.73181516191E+02 -0.14527653681E+03  0.16273803514E+03  0.00000000000E+00 0. -1.
         11    1    5    5    0    0 -0.17792625113E+02  0.11907186482E+02  0.18237850740E+02  0.28124327510E+02  0.00000000000E+00 0. -1.
        -12    1    5    5    0    0 -0.61715856400E+02  0.60473782895E+02  0.35652809004E+03  0.36684902117E+03  0.00000000000E+00 0.  1.
          5    1    4    4  501    0  0.51105331315E+01 -0.47710000086E+03 -0.68007185733E+03  0.83076213918E+03  0.41800000000E+01 0.  1.
         -5    1    4    4    0  501  0.18250779165E+02 -0.59843690464E+02 -0.18485646906E+03  0.19520180527E+03  0.41800000000E+01 0.  1.
</event>
<event>
11    1  0.8037748E-009  0.1364057E+03  0.7561462E-02  0.1111640E+00
         22   -1    0    0    0    0  0.00000000000E+00  0.00000000000E+00  0.95904169960E+03  0.95904169960E+03  0.00000000000E+00 0. -1.
         22   -1    0    0    0    0 -0.00000000000E+00 -0.00000000000E+00 -0.48141043609E+03  0.48141043609E+03  0.00000000000E+00 0.  1.
         24    2    1    2    0    0  0.32545302069E+02  0.46046400502E+02 -0.43681103142E+03  0.44764530488E+03  0.80018586158E+02 0.  0.
         25    2    1    2    0    0 -0.35502052256E+02  0.11733473561E+02  0.80953666686E+02  0.15361805271E+03  0.12508772862E+03 0.  0.
        -24    2    1    2    0    0  0.29567501870E+01 -0.57779874063E+02  0.83348862824E+03  0.83918877809E+03  0.78659110418E+02 0.  0.
        -11    1    3    3    0    0  0.16725329114E+01  0.40031437167E+02 -0.38467734179E+03  0.38675828448E+03  0.00000000000E+00 0.  1.
         12    1    3    3    0    0  0.30872769157E+02  0.60149633350E+01 -0.52133689626E+02  0.60887020402E+02  0.00000000000E+00 0. -1.
         11    1    5    5    0    0 -0.29069754323E+02 -0.52595233853E+02  0.65702587609E+03  0.65976837685E+03  0.00000000000E+00 0. -1.
        -12    1    5    5    0    0  0.32026504510E+02 -0.51846402099E+01  0.17646275216E+03  0.17942040125E+03  0.00000000000E+00 0.  1.
          5    1    4    4  501    0 -0.56926459441E+02  0.15821046474E+02 -0.99318451620E+01  0.60058648373E+02  0.41800000000E+01 0. -1.
         -5    1    4    4    0  501  0.21424407185E+02 -0.40875729134E+01  0.90885511848E+02  0.93559404334E+02  0.41800000000E+01 0. -1.
</event>
<event>
11    1  0.8037748E-009  0.2067911E+03  0.7561462E-02  0.1049823E+00
         22   -1    0    0    0    0  0.00000000000E+00  0.00000000000E+00  0.20806435151E+03  0.20806435151E+03  0.00000000000E+00 0.  1.
         22   -1    0    0    0    0 -0.00000000000E+00 -0.00000000000E+00 -0.18000693568E+04  0.18000693568E+04  0.00000000000E+00 0.  1.
         24    2    1    2    0    0  0.43593250621E+02 -0.16030353477E+03 -0.16800561961E+04  0.16901308908E+04  0.79724595856E+02 0.  0.
         25    2    1    2    0    0 -0.36248453982E+02  0.13361539411E+03 -0.10999655835E+02  0.18694598250E+03  0.12514305408E+03 0.  0.
        -24    2    1    2    0    0 -0.73447966389E+01  0.26688140659E+02  0.99050846644E+02  0.13105683502E+03  0.81231895794E+02 0.  0.
        -11    1    3    3    0    0  0.42943128335E+02 -0.16663972343E+03 -0.16637351788E+04  0.16726110292E+04  0.00000000000E+00 0.  1.
         12    1    3    3    0    0  0.65012228623E+00  0.63361886538E+01 -0.16321017253E+02  0.17519861581E+02  0.00000000000E+00 0. -1.
         13    1    5    5    0    0 -0.32235265176E+02  0.46414947151E+01  0.71741772526E+01  0.33348532403E+02  0.00000000000E+00 0. -1.
        -14    1    5    5    0    0  0.24890468537E+02  0.22046645944E+02  0.91876669392E+02  0.97708302615E+02  0.00000000000E+00 0.  1.
          5    1    4    4  501    0  0.32502272268E+02  0.88547439456E+02 -0.35804702432E+02  0.10097769978E+03  0.41800000000E+01 0. -1.
         -5    1    4    4    0  501 -0.68750726251E+02  0.45067954657E+02  0.24805046597E+02  0.85968282719E+02  0.41800000000E+01 0. -1.
</event>
<event>
11    1  0.8037748E-009  0.1444772E+03  0.7561462E-02  0.1102659E+00
         22   -1    0    0    0    0  0.00000000000E+00  0.00000000000E+00  0.48079058019E+03  0.48079058019E+03  0.00000000000E+00 0. -1.
         22   -1    0    0    0    0 -0.00000000000E+00 -0.00000000000E+00 -0.20658485312E+03  0.20658485312E+03  0.00000000000E+00 0.  1.
        -24    2    1    2    0    0  0.43562213553E+02 -0.37932216799E+02 -0.47571700876E+02  0.10979764509E+03  0.80348843308E+02 0.  0.
         25    2    1    2    0    0 -0.81076872910E+02  0.52305569170E+02 -0.72175857571E+02  0.17368407054E+03  0.12508984793E+03 0.  0.
         24    2    1    2    0    0  0.37514659357E+02 -0.14373352370E+02  0.39395328552E+03  0.40389371768E+03  0.79479563962E+02 0.  0.
        -13    1    5    5    0    0 -0.17130599552E+02 -0.25744781837E+02  0.99412434851E+02  0.10411091891E+03  0.00000000000E+00 0.  1.
         14    1    5    5    0    0  0.54645258908E+02  0.11371429467E+02  0.29454085066E+03  0.29978279877E+03  0.00000000000E+00 0. -1.
         11    1    3    3    0    0  0.13890277929E+01 -0.21169024519E+02  0.19499941508E+02  0.28815008522E+02  0.00000000000E+00 0. -1.
        -12    1    3    3    0    0  0.42173185760E+02 -0.16763192280E+02 -0.67071642384E+02  0.80982636563E+02  0.00000000000E+00 0.  1.
          5    1    4    4  501    0 -0.78016672614E+02 -0.12549001258E+02 -0.36825101877E+01  0.79215604016E+02  0.41800000000E+01 0.  1.
         -5    1    4    4    0  501 -0.30602002962E+01  0.64854570428E+02 -0.68493347383E+02  0.94468466522E+02  0.41800000000E+01 0.  1.
</event>
<event>
11    1  0.8037748E-009  0.1654976E+03  0.7561462E-02  0.1082018E+00
         22   -1    0    0    0    0  0.00000000000E+00  0.00000000000E+00  0.11666350203E+03  0.11666350203E+03  0.00000000000E+00 0.  1.
         22   -1    0    0    0    0 -0.00000000000E+00 -0.00000000000E+00 -0.11408885281E+04  0.11408885281E+04  0.00000000000E+00 0. -1.
         24    2    1    2    0    0  0.51116002000E+02 -0.87757175148E+02 -0.74519530357E+03  0.75639974669E+03  0.80686856948E+02 0.  0.
         25    2    1    2    0    0 -0.13828876980E+03  0.80585520464E+02 -0.32330316488E+03  0.38182546369E+03  0.12509171971E+03 0.  0.
        -24    2    1    2    0    0  0.87172767798E+02  0.71716546837E+01  0.44273442380E+02  0.11932681975E+03  0.68031082119E+02 0.  0.
        -11    1    3    3    0    0 -0.13423053119E+02 -0.41799169769E+01 -0.26593653619E+02  0.30081098281E+02  0.00000000000E+00 0.  1.
         12    1    3    3    0    0  0.64539055120E+02 -0.83577258171E+02 -0.71860164995E+03  0.72631864841E+03  0.00000000000E+00 0. -1.
         11    1    5    5    0    0 -0.98684131968E+01 -0.73827650146E+01  0.20164394924E+01  0.12488267554E+02  0.00000000000E+00 0. -1.
        -12    1    5    5    0    0  0.97041180995E+02  0.14554419698E+02  0.42257002888E+02  0.10683855219E+03  0.00000000000E+00 0.  1.
          5    1    4    4  501    0 -0.11912414455E+03  0.40376304803E+02 -0.12081908405E+03  0.17445782091E+03  0.41800000000E+01 0.  1.
         -5    1    4    4    0  501 -0.19164625250E+02  0.40209215661E+02 -0.20248408082E+03  0.20736764278E+03  0.41800000000E+01 0.  1.
</event>
<event>
11    1  0.8037748E-009  0.2867095E+03  0.7561462E-02  0.1005978E+00
         22   -1    0    0    0    0  0.00000000000E+00  0.00000000000E+00  0.18618497589E+04  0.18618497589E+04  0.00000000000E+00 0. -1.
         22   -1    0    0    0    0 -0.00000000000E+00 -0.00000000000E+00 -0.20391518334E+03  0.20391518334E+03  0.00000000000E+00 0.  1.
        -24    2    1    2    0    0  0.13038926602E+03  0.65300472691E+02  0.11018923458E+03  0.19971519042E+03  0.80492095534E+02 0.  0.
         25    2    1    2    0    0  0.12498867916E+03 -0.14006032377E+03 -0.60285068862E+02  0.23349725661E+03  0.12509042770E+03 0.  0.
         24    2    1    2    0    0 -0.25537794518E+03  0.74759851080E+02  0.16080304098E+04  0.16325524952E+04  0.93053320250E+02 0.  0.
        -11    1    5    5    0    0 -0.60084478374E+02  0.60380283584E+02  0.54916380004E+03  0.55573087233E+03  0.00000000000E+00 0.  1.
         12    1    5    5    0    0 -0.19529346681E+03  0.14379567497E+02  0.10588666098E+04  0.10768216229E+04  0.00000000000E+00 0. -1.
         11    1    3    3    0    0  0.13896972422E+03  0.54077485402E+02  0.11047552488E+03  0.18558502168E+03  0.00000000000E+00 0. -1.
        -12    1    3    3    0    0 -0.85804581973E+01  0.11222987289E+02 -0.28629030040E+00  0.14130168743E+02  0.00000000000E+00 0.  1.
          5    1    4    4  501    0  0.54159103707E+02 -0.13220285359E+03 -0.73778961208E+02  0.16084654341E+03  0.41800000000E+01 0. -1.
         -5    1    4    4    0  501  0.70829575457E+02 -0.78574701817E+01  0.13493892346E+02  0.72650713194E+02  0.41800000000E+01 0. -1.
</event>
<event>
11    1  0.8037748E-009  0.1876224E+03  0.7561462E-02  0.1063639E+00
         22   -1    0    0    0    0  0.00000000000E+00  0.00000000000E+00  0.13919212085E+04  0.13919212085E+04  0.00000000000E+00 0.  1.
         22   -1    0    0    0    0 -0.00000000000E+00 -0.00000000000E+00 -0.41491641356E+03  0.41491641356E+03  0.00000000000E+00 0. -1.
        -24    2    1    2    0    0 -0.23265266827E+02  0.13543459965E+03 -0.34045102888E+03  0.37568488207E+03  0.79676998735E+02 0.  0.
         25    2    1    2    0    0  0.97803504887E+02 -0.15586870287E+03  0.17422324891E+03  0.28259043072E+03  0.12507211109E+03 0.  0.
         24    2    1    2    0    0 -0.74538238060E+02  0.20434103217E+02  0.11432325749E+04  0.11485623093E+04  0.79000990258E+02 0.  0.
        -11    1    5    5    0    0 -0.86908854777E+02  0.23342364640E+02  0.79131599003E+03  0.79641635537E+03  0.00000000000E+00 0.  1.
         12    1    5    5    0    0  0.12370616716E+02 -0.29082614233E+01  0.35191658491E+03  0.35214595395E+03  0.00000000000E+00 0. -1.
         11    1    3    3    0    0 -0.75917277965E+01  0.14039592587E+03 -0.31938314732E+03  0.34896166713E+03  0.00000000000E+00 0. -1.
        -12    1    3    3    0    0 -0.15673539030E+02 -0.49613262144E+01 -0.21067881554E+02  0.26723214940E+02  0.00000000000E+00 0.  1.
          5    1    4    4  501    0  0.54219257121E+02 -0.27324816573E+02  0.12340702687E+03  0.13759774753E+03  0.41800000000E+01 0.  1.
         -5    1    4    4    0  501  0.43584247766E+02 -0.12854388630E+03  0.50816222040E+02  0.14499268319E+03  0.41800000000E+01 0.  1.
</event>
<event>
11    1  0.8037748E-009  0.1481443E+03  0.7561462E-02  0.1098790E+00
         22   -1    0    0    0    0  0.00000000000E+00  0.00000000000E+00  0.70807557109E+02  0.70807557109E+02  0.00000000000E+00 0.  1.
         22   -1    0    0    0    0 -0.00000000000E+00 -0.00000000000E+00 -0.29974534616E+04  0.29974534616E+04  0.00000000000E+00 0.  1.
        -24    2    1    2    0    0 -0.23084649062E+02 -0.82507323453E+02 -0.23429260208E+04  0.23458853162E+04  0.80840698078E+02 0.  0.
         25    2    1    2    0    0 -0.25014126388E+02  0.53216122419E+02 -0.60244082695E+03  0.61809415722E+03  0.12509106684E+03 0.  0.
         24    2    1    2    0    0  0.48098775450E+02  0.29291201034E+02  0.18720943284E+02  0.10428154525E+03  0.85747888044E+02 0.  0.
        -11    1    5    5    0    0  0.22994700092E+02  0.42413163758E+02  0.44755674207E+02  0.65808077513E+02  0.00000000000E+00 0.  1.
         12    1    5    5    0    0  0.25104075358E+02 -0.13121962724E+02 -0.26034730923E+02  0.38473467735E+02  0.00000000000E+00 0. -1.
         11    1    3    3    0    0  0.26727082913E+02 -0.23819481782E+02 -0.46211297193E+03  0.46349768446E+03  0.00000000000E+00 0. -1.
        -12    1    3    3    0    0 -0.49811731975E+02 -0.58687841671E+02 -0.18808130489E+04  0.18823876318E+04  0.00000000000E+00 0.  1.
          5    1    4    4  501    0  0.91407328653E+01  0.44178289614E+02 -0.56361611999E+03  0.56543423790E+03  0.41800000000E+01 0. -1.
         -5    1    4    4    0  501 -0.34154859253E+02  0.90378328047E+01 -0.38824706959E+02  0.52659919321E+02  0.41800000000E+01 0. -1.
</event>
<event>
11    1  0.8037748E-009  0.1354101E+03  0.7561462E-02  0.1112795E+00
         22   -1    0    0    0    0  0.00000000000E+00  0.00000000000E+00  0.86443254452E+03  0.86443254452E+03  0.00000000000E+00 0.  1.
         22   -1    0    0    0    0 -0.00000000000E+00 -0.00000000000E+00 -0.47649309020E+03  0.47649309020E+03  0.00000000000E+00 0. -1.
         24    2    1    2    0    0  0.22259776828E+02 -0.28878144064E+02 -0.45327222685E+03  0.46183313004E+03  0.80651618079E+02 0.  0.
         25    2    1    2    0    0 -0.31559580215E+02  0.72045121529E+02  0.35965539989E+03  0.38882617291E+03  0.12508908598E+03 0.  0.
        -24    2    1    2    0    0  0.92998033877E+01 -0.43166977465E+02  0.48155628128E+03  0.49026633177E+03  0.80713999647E+02 0.  0.
        -13    1    3    3    0    0  0.11832164225E+02 -0.21834903558E+02 -0.32645329202E+02  0.41018052640E+02  0.00000000000E+00 0.  1.
         14    1    3    3    0    0  0.10427612603E+02 -0.70432405059E+01 -0.42062689765E+03  0.42081507740E+03  0.00000000000E+00 0. -1.
         11    1    5    5    0    0  0.35647581309E+02 -0.52963893867E+02  0.34170266403E+03  0.34761564221E+03  0.00000000000E+00 0. -1.
        -12    1    5    5    0    0 -0.26347777921E+02  0.97969164025E+01  0.13985361726E+03  0.14265068956E+03  0.00000000000E+00 0.  1.
          5    1    4    4  501    0 -0.60909278584E+02  0.43436680426E+02  0.95044763421E+02  0.12102753768E+03  0.41800000000E+01 0. -1.
         -5    1    4    4    0  501  0.29349698368E+02  0.28608441103E+02  0.26461063647E+03  0.26779863522E+03  0.41800000000E+01 0. -1.
</event>
<event>
11    1  0.8037748E-009  0.1369746E+03  0.7561462E-02  0.1110985E+00
         22   -1    0    0    0    0  0.00000000000E+00  0.00000000000E+00  0.12181202857E+04  0.12181202857E+04  0.00000000000E+00 0. -1.
         22   -1    0    0    0    0 -0.00000000000E+00 -0.00000000000E+00 -0.98676086558E+02  0.98676086558E+02  0.00000000000E+00 0.  1.
        -24    2    1    2    0    0 -0.16535812255E+01  0.54608391838E+02 -0.51934541823E+02  0.10903875903E+03  0.78787331132E+02 0.  0.
         25    2    1    2    0    0 -0.16186919898E+02 -0.69628474782E+02  0.30522028877E+03  0.33751168648E+03  0.12507826734E+03 0.  0.
         24    2    1    2    0    0  0.17840501124E+02  0.15020082944E+02  0.86615845216E+03  0.87024592670E+03  0.80954445990E+02 0.  0.
        -11    1    5    5    0    0 -0.31084694669E+02 -0.17193941661E+01  0.40579808042E+03  0.40699053630E+03  0.00000000000E+00 0.  1.
         12    1    5    5    0    0  0.48925195793E+02  0.16739477111E+02  0.46036037173E+03  0.46325539041E+03  0.00000000000E+00 0. -1.
         13    1    3    3    0    0 -0.71461199591E+01  0.63896252173E+02 -0.91837134034E+01  0.64947199047E+02  0.00000000000E+00 0. -1.
        -14    1    3    3    0    0  0.54925387336E+01 -0.92878603348E+01 -0.42750828420E+02  0.44091559985E+02  0.00000000000E+00 0.  1.
          5    1    4    4  501    0  0.35978759399E+01 -0.10261706745E+03  0.24787697284E+03  0.26833500202E+03  0.41800000000E+01 0.  1.
         -5    1    4    4    0  501 -0.19784795838E+02  0.32988592665E+02  0.57343315926E+02  0.69176684466E+02  0.41800000000E+01 0.  1.
</event>
<event>
11    1  0.8037748E-009  0.1647246E+03  0.7561462E-02  0.1082716E+00
         22   -1    0    0    0    0  0.00000000000E+00  0.00000000000E+00  0.24939943198E+04  0.24939943198E+04  0.00000000000E+00 0. -1.
         22   -1    0    0    0    0 -0.00000000000E+00 -0.00000000000E+00 -0.62316001559E+02  0.62316001559E+02  0.00000000000E+00 0.  1.
        -24    2    1    2    0    0  0.69760893064E+02  0.75778344517E+02  0.35022717590E+02  0.13524385805E+03  0.80345321546E+02 0.  0.
         25    2    1    2    0    0 -0.93009059336E+02 -0.12014531084E+03  0.89122706338E+03  0.91269829332E+03  0.12508763043E+03 0.  0.
         24    2    1    2    0    0  0.23248166273E+02  0.44366966319E+02  0.15054285373E+04  0.15083681700E+04  0.79690341216E+02 0.  0.
        -13    1    5    5    0    0  0.31881087327E+02  0.23729634262E+02  0.28747274396E+03  0.29020695683E+03  0.00000000000E+00 0.  1.
         14    1    5    5    0    0 -0.86329210541E+01  0.20637332057E+02  0.12179557934E+04  0.12181612132E+04  0.00000000000E+00 0. -1.
         13    1    3    3    0    0  0.26278371771E+02 -0.14740321820E+02  0.10080300092E+02  0.31771722652E+02  0.00000000000E+00 0. -1.
        -14    1    3    3    0    0  0.43482521292E+02  0.90518666337E+02  0.24942417498E+02  0.10347213540E+03  0.00000000000E+00 0.  1.
          5    1    4    4  501    0 -0.39834147815E+02 -0.90896826137E+02  0.77662898862E+03  0.78295533123E+03  0.41800000000E+01 0.  1.
         -5    1    4    4    0  501 -0.53174911522E+02 -0.29248484700E+02  0.11459807476E+03  0.12974296209E+03  0.41800000000E+01 0.  1.
</event>
<event>
11    1  0.8037748E-009  0.1295420E+03  0.7561462E-02  0.1119833E+00
         22   -1    0    0    0    0  0.00000000000E+00  0.00000000000E+00  0.17413975115E+03  0.17413975115E+03  0.00000000000E+00 0.  1.
         22   -1    0    0    0    0 -0.00000000000E+00 -0.00000000000E+00 -0.27528343828E+03  0.27528343828E+03  0.00000000000E+00 0.  1.
        -24    2    1    2    0    0  0.13747242031E+02 -0.17606398744E+02 -0.15274316407E+03  0.17417991407E+03  0.80679590693E+02 0.  0.
         25    2    1    2    0    0 -0.44484921341E+02  0.22791277628E+02 -0.47925260244E+02  0.14298077585E+03  0.12509324974E+03 0.  0.
         24    2    1    2    0    0  0.30737679310E+02 -0.51848788840E+01  0.99524737189E+02  0.13226249951E+03  0.81341917638E+02 0.  0.
        -11    1    5    5    0    0 -0.54196275946E+01 -0.29679938178E+01  0.95628994033E+02  0.95828418803E+02  0.00000000000E+00 0.  1.
         12    1    5    5    0    0  0.36157306905E+02 -0.22168850662E+01  0.38957431555E+01  0.36434080704E+02  0.00000000000E+00 0. -1.
         13    1    3    3    0    0  0.41450115835E+02 -0.19816719668E+02 -0.50699897290E+02  0.68419982946E+02  0.00000000000E+00 0. -1.
        -14    1    3    3    0    0 -0.27702873804E+02  0.22103209241E+01 -0.10204326678E+03  0.10575993113E+03  0.00000000000E+00 0.  1.
          5    1    4    4  501    0 -0.35701629691E+02 -0.43129518519E+02 -0.51586506621E+02  0.76245667389E+02  0.41800000000E+01 0. -1.
         -5    1    4    4    0  501 -0.87832916498E+01  0.65920796146E+02  0.36612463770E+01  0.66735108465E+02  0.41800000000E+01 0. -1.
</event>
<event>
11    1  0.8037748E-009  0.1493830E+03  0.7561462E-02  0.1097511E+00
         22   -1    0    0    0    0  0.00000000000E+00  0.00000000000E+00  0.22857981106E+04  0.22857981106E+04  0.00000000000E+00 0. -1.
         22   -1    0    0    0    0 -0.00000000000E+00 -0.00000000000E+00 -0.70567593576E+02  0.70567593576E+02  0.00000000000E+00 0. -1.
        -24    2    1    2    0    0  0.31089849859E+01 -0.97495905440E+01  0.12351274910E+02  0.81088759044E+02  0.79486555769E+02 0.  0.
         25    2    1    2    0    0  0.22712839052E+02 -0.68264698977E+02  0.11715920590E+03  0.18587566706E+03  0.12509013508E+03 0.  0.
         24    2    1    2    0    0 -0.25821824037E+02  0.78014289521E+02  0.20857200362E+04  0.20894012780E+04  0.92825833497E+02 0.  0.
        -11    1    5    5    0    0 -0.20703038635E+01  0.48378242441E+02  0.35755420831E+03  0.36081817080E+03  0.00000000000E+00 0.  1.
         12    1    5    5    0    0 -0.23751520174E+02  0.29636047080E+02  0.17281658279E+04  0.17285831072E+04  0.00000000000E+00 0. -1.
         11    1    3    3    0    0  0.86244964144E+01 -0.10575693440E+02 -0.32835894829E+02  0.35558729158E+02  0.00000000000E+00 0. -1.
        -12    1    3    3    0    0 -0.55155114285E+01  0.82610289590E+00  0.45187169740E+02  0.45530029886E+02  0.00000000000E+00 0.  1.
          5    1    4    4  501    0 -0.39466987773E+02  0.25252170740E+01  0.69813067349E+02  0.80345233946E+02  0.41800000000E+01 0.  1.
         -5    1    4    4    0  501  0.62179826824E+02 -0.70789916051E+02  0.47346138550E+02  0.10553043312E+03  0.41800000000E+01 0.  1.
</event>
<event>
11    1  0.8037748E-009  0.1715100E+03  0.7561462E-02  0.1076725E+00
         22   -1    0    0    0    0  0.00000000000E+00  0.00000000000E+00  0.93131020235E+03  0.93131020235E+03  0.00000000000E+00 0. -1.
         22   -1    0    0    0    0 -0.00000000000E+00 -0.00000000000E+00 -0.26684429950E+03  0.26684429950E+03  0.00000000000E+00 0. -1.
        -24    2    1    2    0    0  0.83704332551E+02  0.82765493545E+02 -0.20860738222E+03  0.25268132155E+03  0.80462836959E+02 0.  0.
         25    2    1    2    0    0 -0.98394369928E+02 -0.61687929644E+02  0.18344148333E+03  0.25057150432E+03  0.12509375793E+03 0.  0.
         24    2    1    2    0    0  0.14690037377E+02 -0.21077563901E+02  0.68963180173E+03  0.69490167598E+03  0.81463221240E+02 0.  0.
        -13    1    5    5    0    0 -0.11590376001E+02 -0.17222262916E+02  0.43246456363E+02  0.47970815542E+02  0.00000000000E+00 0.  1.
         14    1    5    5    0    0  0.26280413378E+02 -0.38553009853E+01  0.64638534537E+03  0.64693086044E+03  0.00000000000E+00 0. -1.
         11    1    3    3    0    0  0.58866757974E+02  0.36462810894E+02 -0.17998917368E+03  0.19284951235E+03  0.00000000000E+00 0. -1.
        -12    1    3    3    0    0  0.24837574577E+02  0.46302682651E+02 -0.28618208547E+02  0.59831809199E+02  0.00000000000E+00 0.  1.
          5    1    4    4  501    0 -0.69421623776E+02 -0.71119370029E+02  0.19403238588E+03  0.21804441248E+03  0.41800000000E+01 0.  1.
         -5    1    4    4    0  501 -0.28972746152E+02  0.94314403856E+01 -0.10590902546E+02  0.32527091848E+02  0.41800000000E+01 0.  1.
</event>
<event>
11    1  0.8037748E-009  0.1363510E+03  0.7561462E-02  0.1111703E+00
         22   -1    0    0    0    0  0.00000000000E+00  0.00000000000E+00  0.15569335233E+03  0.15569335233E+03  0.00000000000E+00 0. -1.
         22   -1    0    0    0    0 -0.00000000000E+00 -0.00000000000E+00 -0.11036826289E+04  0.11036826289E+04  0.00000000000E+00 0. -1.
         24    2    1    2    0    0  0.66156610054E+01 -0.35637771063E+01 -0.73670951370E+03  0.74116042334E+03  0.80755173658E+02 0.  0.
         25    2    1    2    0    0  0.45217701150E+02  0.20401326137E+02 -0.33428944473E+03  0.36035895994E+03  0.12509313549E+03 0.  0.
        -24    2    1    2    0    0 -0.51833362155E+02 -0.16837549031E+02  0.12300968191E+03  0.15785659790E+03  0.82565871694E+02 0.  0.
        -13    1    3    3    0    0  0.26928231510E+02  0.29736137705E+02 -0.29188093545E+03  0.29462492769E+03  0.00000000000E+00 0.  1.
         14    1    3    3    0    0 -0.20312570505E+02 -0.33299914811E+02 -0.44482857825E+03  0.44653549565E+03  0.00000000000E+00 0. -1.
         13    1    5    5    0    0 -0.58973099626E+02 -0.28115258656E+02  0.12791715760E+03  0.14363527929E+03  0.00000000000E+00 0. -1.
        -14    1    5    5    0    0  0.71397374709E+01  0.11277709625E+02 -0.49074756866E+01  0.14221318615E+02  0.00000000000E+00 0.  1.
          5    1    4    4  501    0 -0.61736205189E+01 -0.29205736383E+02 -0.15998212925E+02  0.34124827395E+02  0.41800000000E+01 0. -1.
         -5    1    4    4    0  501  0.51391321669E+02  0.49607062520E+02 -0.31829123180E+03  0.32623413254E+03  0.41800000000E+01 0. -1.
</event>
<event>
11    1  0.8037748E-009  0.1963187E+03  0.7561462E-02  0.1057158E+00
         22   -1    0    0    0    0  0.00000000000E+00  0.00000000000E+00  0.10914073092E+04  0.10914073092E+04  0.00000000000E+00 0. -1.
         22   -1    0    0    0    0 -0.00000000000E+00 -0.00000000000E+00 -0.17568078256E+04  0.17568078256E+04  0.00000000000E+00 0. -1.
         24    2    1    2    0    0 -0.87993019346E+01 -0.12567262803E+03 -0.16498116943E+04  0.16579272758E+04  0.10475298648E+03 0.  0.
         25    2    1    2    0    0  0.15943831949E+03  0.11741983406E+03  0.48904874975E+02  0.23926316086E+03  0.12508868134E+03 0.  0.
        -24    2    1    2    0    0 -0.15063901755E+03  0.82527939751E+01  0.93550630291E+03  0.95102469808E+03  0.80719956364E+02 0.  0.
        -13    1    3    3    0    0 -0.50964791232E+02 -0.74437235411E+02 -0.69802775509E+03  0.70383311860E+03  0.00000000000E+00 0.  1.
         14    1    3    3    0    0  0.42165489298E+02 -0.51235392623E+02 -0.95178393921E+03  0.95409415724E+03  0.00000000000E+00 0. -1.
         11    1    5    5    0    0 -0.13774622744E+03  0.21445529204E+02  0.90258841548E+03  0.91329063373E+03  0.00000000000E+00 0. -1.
        -12    1    5    5    0    0 -0.12892790109E+02 -0.13192735229E+02  0.32917887434E+02  0.37734064355E+02  0.00000000000E+00 0.  1.
          5    1    4    4  501    0  0.17527501489E+02  0.93765197746E+01 -0.36266244723E+02  0.41567359043E+02  0.41800000000E+01 0. -1.
         -5    1    4    4    0  501  0.14191081800E+03  0.10804331428E+03  0.85171119697E+02  0.19769580182E+03  0.41800000000E+01 0. -1.
</event>
<event>
11    1  0.8037748E-009  0.1458333E+03  0.7561462E-02  0.1101214E+00
         22   -1    0    0    0    0  0.00000000000E+00  0.00000000000E+00  0.98570962679E+03  0.98570962679E+03  0.00000000000E+00 0.  1.
         22   -1    0    0    0    0 -0.00000000000E+00 -0.00000000000E+00 -0.58090015095E+03  0.58090015095E+03  0.00000000000E+00 0. -1.
         24    2    1    2    0    0 -0.60374450070E+02 -0.83637858757E+02 -0.41563940362E+03  0.43566127224E+03  0.80026649620E+02 0.  0.
         25    2    1    2    0    0 -0.51892919327E+01  0.59532429648E+01 -0.12529446689E+03  0.17722053466E+03  0.12508415015E+03 0.  0.
        -24    2    1    2    0    0  0.65563742003E+02  0.77684615792E+02  0.94574334636E+03  0.95372797083E+03  0.69520222763E+02 0.  0.
        -11    1    3    3    0    0 -0.55411447903E+01 -0.28088730424E+01  0.21750020473E+01  0.65821491370E+01  0.00000000000E+00 0.  1.
         12    1    3    3    0    0 -0.54833305280E+02 -0.80828985715E+02 -0.41781440567E+03  0.42907912311E+03  0.00000000000E+00 0. -1.
         11    1    5    5    0    0  0.34744217529E+02 -0.37855328370E+01  0.21683817990E+03  0.21963671636E+03  0.00000000000E+00 0. -1.
        -12    1    5    5    0    0  0.30819524474E+02  0.81470148629E+02  0.72890516646E+03  0.73409125448E+03  0.00000000000E+00 0.  1.
          5    1    4    4  501    0 -0.32076357199E+02  0.44653940754E+02 -0.11679179759E+03  0.12915364300E+03  0.41800000000E+01 0.  1.
         -5    1    4    4    0  501  0.26887065267E+02 -0.38700697789E+02 -0.85026692971E+01  0.48066891653E+02  0.41800000000E+01 0.  1.
</event>
<event>
11    1  0.8037748E-009  0.1854486E+03  0.7561462E-02  0.1065319E+00
         22   -1    0    0    0    0  0.00000000000E+00  0.00000000000E+00  0.42648599672E+03  0.42648599672E+03  0.00000000000E+00 0.  1.
         22   -1    0    0    0    0 -0.00000000000E+00 -0.00000000000E+00 -0.38222856323E+03  0.38222856323E+03  0.00000000000E+00 0.  1.
         24    2    1    2    0    0 -0.33293947546E+02 -0.54525304068E+02 -0.25031214711E+03  0.27046636533E+03  0.80089874880E+02 0.  0.
         25    2    1    2    0    0  0.10149615382E+03  0.16140558018E+03  0.24249937320E+02  0.22932309033E+03  0.12509112576E+03 0.  0.
        -24    2    1    2    0    0 -0.68202206271E+02 -0.10688027611E+03  0.27031964328E+03  0.30892510429E+03  0.79291084980E+02 0.  0.
        -11    1    3    3    0    0  0.18842796231E+02 -0.32430420366E+02 -0.15613298496E+03  0.16057488012E+03  0.00000000000E+00 0.  1.
         12    1    3    3    0    0 -0.52136743778E+02 -0.22094883703E+02 -0.94179162149E+02  0.10989148521E+03  0.00000000000E+00 0. -1.
         11    1    5    5    0    0 -0.79203418323E+02 -0.56404490520E+02  0.16254039676E+03  0.18940440492E+03  0.00000000000E+00 0. -1.
        -12    1    5    5    0    0  0.11001212052E+02 -0.50475785590E+02  0.10777924652E+03  0.11952069937E+03  0.00000000000E+00 0.  1.
          5    1    4    4  501    0  0.62350800566E+02  0.10778755082E+01  0.13089309818E+02  0.63855983105E+02  0.41800000000E+01 0.  1.
         -5    1    4    4    0  501  0.39145353251E+02  0.16032770467E+03  0.11160627502E+02  0.16546710722E+03  0.41800000000E+01 0.  1.
</event>
<event>
11    1  0.8037748E-009  0.1569862E+03  0.7561462E-02  0.1089947E+00
         22   -1    0    0    0    0  0.00000000000E+00  0.00000000000E+00  0.13934984951E+04  0.13934984951E+04  0.00000000000E+00 0.  1.
         22   -1    0    0    0    0 -0.00000000000E+00 -0.00000000000E+00 -0.12677091747E+04  0.12677091747E+04  0.00000000000E+00 0. -1.
         24    2    1    2    0    0  0.56412394706E+02  0.77194068174E+02 -0.12207129431E+04  0.12284632850E+04  0.99200154355E+02 0.  0.
         25    2    1    2    0    0 -0.46818848867E+02 -0.52904643609E+02  0.84242915216E+02  0.16653955333E+03  0.12509055974E+03 0.  0.
        -24    2    1    2    0    0 -0.95935458395E+01 -0.24289424566E+02  0.12622593484E+04  0.12662048315E+04  0.96405395645E+02 0.  0.
        -11    1    3    3    0    0  0.35063412740E+02  0.80367368084E+01 -0.84943798182E+03  0.85019933957E+03  0.00000000000E+00 0.  1.
         12    1    3    3    0    0  0.21348981966E+02  0.69157331366E+02 -0.37127496132E+03  0.37826394543E+03  0.00000000000E+00 0. -1.
         13    1    5    5    0    0  0.19169590453E+02  0.21365275542E+02  0.15526041858E+03  0.15789156334E+03  0.00000000000E+00 0. -1.
        -14    1    5    5    0    0 -0.28763136293E+02 -0.45654700108E+02  0.11069989298E+04  0.11083132681E+04  0.00000000000E+00 0.  1.
          5    1    4    4  501    0 -0.36357860764E+02 -0.74702010450E+02  0.47216234389E+01  0.83318968624E+02  0.41800000000E+01 0.  1.
         -5    1    4    4    0  501 -0.10460988102E+02  0.21797366841E+02  0.79521291777E+02  0.83220584708E+02  0.41800000000E+01 0.  1.
</event>
<event>
11    1  0.8037748E-009  0.1628182E+03  0.7561462E-02  0.1084456E+00
         22   -1    0    0    0    0  0.00000000000E+00  0.00000000000E+00  0.40583205205E+03  0.40583205205E+03  0.00000000000E+00 0.  1.
         22   -1    0    0    0    0 -0.00000000000E+00 -0.00000000000E+00 -0.37602806237E+03  0.37602806237E+03  0.00000000000E+00 0. -1.
        -24    2    1    2    0    0  0.10152935392E+02  0.24612620800E+01 -0.29852576559E+03  0.30898624792E+03  0.79029923285E+02 0.  0.
         25    2    1    2    0    0 -0.11199142319E+03 -0.89658905057E+01  0.66842664320E+02  0.18094098512E+03  0.12509689150E+03 0.  0.
         24    2    1    2    0    0  0.10183848780E+03  0.65046284258E+01  0.26148709095E+03  0.29193288139E+03  0.80224190333E+02 0.  0.
        -13    1    5    5    0    0  0.96265325511E+02 -0.13544721896E+02  0.24983751031E+03  0.26808441571E+03  0.00000000000E+00 0.  1.
         14    1    5    5    0    0  0.55731622879E+01  0.20049350322E+02  0.11649580635E+02  0.23848465678E+02  0.00000000000E+00 0. -1.
         11    1    3    3    0    0  0.22720263446E+02  0.36647655762E+02 -0.15157456372E+03  0.15758841776E+03  0.00000000000E+00 0. -1.
        -12    1    3    3    0    0 -0.12567328055E+02 -0.34186393682E+02 -0.14695120187E+03  0.15139783016E+03  0.00000000000E+00 0.  1.
          5    1    4    4  501    0 -0.26087330022E+01  0.98592002852E+01  0.68975961754E+02  0.69851020164E+02  0.41800000000E+01 0.  1.
         -5    1    4    4    0  501 -0.10938269019E+03 -0.18825090791E+02 -0.21332974341E+01  0.11108996496E+03  0.41800000000E+01 0.  1.
</event>
<event>
11    1  0.8037748E-009  0.8172914E+03  0.7561462E-02  0.8875328E-01
         22   -1    0    0    0    0  0.00000000000E+00  0.00000000000E+00  0.80410554832E+03  0.80410554832E+03  0.00000000000E+00 0.  1.
         22   -1    0    0    0    0 -0.00000000000E+00 -0.00000000000E+00 -0.20767335913E+03  0.20767335913E+03  0.00000000000E+00 0.  1.
        -24    2    1    2    0    0  0.55653945128E+02  0.22433732481E+03  0.83015552150E+02  0.25958905055E+03  0.84085054284E+02 0.  0.
         25    2    1    2    0    0 -0.13159354355E+03 -0.33412055478E+03  0.43652965434E+03  0.57892789169E+03  0.12508380724E+03 0.  0.
         24    2    1    2    0    0  0.75939598419E+02  0.10978322996E+03  0.76886982699E+02  0.17326196521E+03  0.79302712999E+02 0.  0.
        -13    1    5    5    0    0  0.55284450559E+02  0.11714514367E+03  0.50692915799E+02  0.13910113900E+03  0.00000000000E+00 0.  1.
         14    1    5    5    0    0  0.20655147860E+02 -0.73619137019E+01  0.26194066900E+02  0.34160826208E+02  0.00000000000E+00 0. -1.
         13    1    3    3    0    0  0.68048264640E+02  0.17227202677E+03  0.89433112807E+02  0.20568543749E+03  0.00000000000E+00 0. -1.
        -14    1    3    3    0    0 -0.12394319512E+02  0.52065298041E+02 -0.64175606564E+01  0.53903613061E+02  0.00000000000E+00 0.  1.
          5    1    4    4  501    0 -0.92887548658E+02 -0.10013734366E+03  0.21257648056E+03  0.25270895666E+03  0.41800000000E+01 0. -1.
         -5    1    4    4    0  501 -0.38705994889E+02 -0.23398321112E+03  0.22395317378E+03  0.32621893503E+03  0.41800000000E+01 0. -1.
</event>
<event>
11    1  0.8037748E-009  0.1427158E+03  0.7561462E-02  0.1104563E+00
         22   -1    0    0    0    0  0.00000000000E+00  0.00000000000E+00  0.22924253012E+04  0.22924253012E+04  0.00000000000E+00 0.  1.
         22   -1    0    0    0    0 -0.00000000000E+00 -0.00000000000E+00 -0.15588910429E+03  0.15588910429E+03  0.00000000000E+00 0. -1.
         24    2    1    2    0    0  0.66277836663E+01 -0.26686105749E+02 -0.13110763065E+03  0.15676470443E+03  0.81424111798E+02 0.  0.
         25    2    1    2    0    0  0.32757899548E+02  0.80055706601E+02  0.54712644664E+03  0.56787029694E+03  0.12508928567E+03 0.  0.
        -24    2    1    2    0    0 -0.39385683215E+02 -0.53369600853E+02  0.17205173810E+04  0.17236794042E+04  0.80567262480E+02 0.  0.
        -13    1    3    3    0    0 -0.29414764515E+02 -0.25233691312E+02 -0.28801384841E+02  0.48285477294E+02  0.00000000000E+00 0.  1.
         14    1    3    3    0    0  0.36042548181E+02 -0.14524144365E+01 -0.10230624581E+03  0.10847922713E+03  0.00000000000E+00 0. -1.
         13    1    5    5    0    0 -0.44222989438E+01 -0.46749544059E+02  0.41022212442E+03  0.41290103894E+03  0.00000000000E+00 0. -1.
        -14    1    5    5    0    0 -0.34963384271E+02 -0.66200567935E+01  0.13102952565E+04  0.13107783652E+04  0.00000000000E+00 0.  1.
          5    1    4    4  501    0  0.37874777758E+02  0.66441027973E+02  0.13307675800E+03  0.15354414644E+03  0.41800000000E+01 0.  1.
         -5    1    4    4    0  501 -0.51168782098E+01  0.13614678629E+02  0.41404968865E+03  0.41432615050E+03  0.41800000000E+01 0.  1.
</event>
<event>
11    1  0.8037748E-009  0.2597121E+03  0.7561462E-02  0.1018849E+00
         22   -1    0    0    0    0  0.00000000000E+00  0.00000000000E+00  0.23628128576E+04  0.23628128576E+04  0.00000000000E+00 0. -1.
         22   -1    0    0    0    0 -0.00000000000E+00 -0.00000000000E+00 -0.20732012806E+03  0.20732012806E+03  0.00000000000E+00 0. -1.
         24    2    1    2    0    0  0.17413002177E+03 -0.14174316871E+03 -0.10041581260E+03  0.25867645210E+03  0.80111054755E+02 0.  0.
         25    2    1    2    0    0 -0.26739259511E+03  0.89653703388E+02  0.95364701558E+03  0.10023110106E+04  0.12509254682E+03 0.  0.
        -24    2    1    2    0    0  0.93262573347E+02  0.52089465325E+02  0.13022615266E+04  0.13091455230E+04  0.81028986448E+02 0.  0.
        -13    1    3    3    0    0  0.88241760252E+02 -0.11986307767E+03 -0.73811702325E+02  0.16613829492E+03  0.00000000000E+00 0.  1.
         14    1    3    3    0    0  0.85888261514E+02 -0.21880091046E+02 -0.26604110278E+02  0.92538157178E+02  0.00000000000E+00 0. -1.
         13    1    5    5    0    0  0.60450570529E+02  0.71839049929E+02  0.10170075430E+04  0.10213322001E+04  0.00000000000E+00 0. -1.
        -14    1    5    5    0    0  0.32812002819E+02 -0.19749584604E+02  0.28525398363E+03  0.28781332283E+03  0.00000000000E+00 0.  1.
          5    1    4    4  501    0 -0.25510220326E+03  0.58954298420E+02  0.91265257035E+03  0.94947613450E+03  0.41800000000E+01 0. -1.
         -5    1    4    4    0  501 -0.12290391852E+02  0.30699404968E+02  0.40994445230E+02  0.52834876142E+02  0.41800000000E+01 0. -1.
</event>
<event>
11    1  0.8037748E-009  0.1384004E+03  0.7561462E-02  0.1109358E+00
         22   -1    0    0    0    0  0.00000000000E+00  0.00000000000E+00  0.16589110740E+03  0.16589110740E+03  0.00000000000E+00 0. -1.
         22   -1    0    0    0    0 -0.00000000000E+00 -0.00000000000E+00 -0.81721686187E+03  0.81721686187E+03  0.00000000000E+00 0. -1.
        -24    2    1    2    0    0  0.86353685389E+01  0.18447344628E+01 -0.62221996324E+03  0.62739697865E+03  0.79945691119E+02 0.  0.
         25    2    1    2    0    0 -0.63802652087E+02  0.17413284967E+02 -0.14339553074E+03  0.20145531343E+03  0.12509182294E+03 0.  0.
         24    2    1    2    0    0  0.55167283549E+02 -0.19258019429E+02  0.11428973951E+03  0.15425567720E+03  0.85547465791E+02 0.  0.
        -13    1    5    5    0    0  0.52563304031E+02  0.25050254362E+02  0.75231421961E+02  0.95132449903E+02  0.00000000000E+00 0.  1.
         14    1    5    5    0    0  0.26039795177E+01 -0.44308273792E+02  0.39058317552E+02  0.59123227295E+02  0.00000000000E+00 0. -1.
         13    1    3    3    0    0  0.20653435661E+02 -0.66940283912E+01 -0.60190445749E+03  0.60229589934E+03  0.00000000000E+00 0. -1.
        -14    1    3    3    0    0 -0.12018067123E+02  0.85387628540E+01 -0.20315505756E+02  0.25101079311E+02  0.00000000000E+00 0.  1.
          5    1    4    4  501    0  0.15683193549E+02  0.48524792932E+02 -0.29497474948E+02  0.59060913618E+02  0.41800000000E+01 0. -1.
         -5    1    4    4    0  501 -0.79485845636E+02 -0.31111507966E+02 -0.11389805579E+03  0.14239439981E+03  0.41800000000E+01 0. -1.
</event>
<event>
11    1  0.8037748E-009  0.3248998E+03  0.7561462E-02  0.9901711E-01
         22   -1    0    0    0    0  0.00000000000E+00  0.00000000000E+00  0.25922740548E+03  0.25922740548E+03  0.00000000000E+00 0. -1.
         22   -1    0    0    0    0 -0.00000000000E+00 -0.00000000000E+00 -0.30971060745E+04  0.30971060745E+04  0.00000000000E+00 0. -1.
         24    2    1    2    0    0 -0.65732635982E+02  0.28359643270E+03 -0.25434599925E+04  0.25613449092E+04  0.80940065956E+02 0.  0.
         25    2    1    2    0    0  0.88279818549E+02 -0.36027982548E+03 -0.45414980862E+03  0.59957878359E+03  0.12509112698E+03 0.  0.
        -24    2    1    2    0    0 -0.22547182567E+02  0.76683392786E+02  0.15973113210E+03  0.19540978721E+03  0.79260533719E+02 0.  0.
        -11    1    3    3    0    0  0.15120466417E+02  0.10444633120E+03 -0.91539698174E+03  0.92146041629E+03  0.00000000000E+00 0.  1.
         12    1    3    3    0    0 -0.80853102399E+02  0.17915010149E+03 -0.16280630108E+04  0.16398844929E+04  0.00000000000E+00 0. -1.
         11    1    5    5    0    0 -0.51171737740E+02  0.61267051456E+02  0.11899828685E+03  0.14329267466E+03  0.00000000000E+00 0. -1.
        -12    1    5    5    0    0  0.28624555172E+02  0.15416341330E+02  0.40732845253E+02  0.52117112557E+02  0.00000000000E+00 0.  1.
          5    1    4    4  501    0  0.10705047935E+03 -0.19471369635E+03 -0.22532557071E+03  0.31648430276E+03  0.41800000000E+01 0. -1.
         -5    1    4    4    0  501 -0.18770660805E+02 -0.16556612913E+03 -0.22882423791E+03  0.28309448083E+03  0.41800000000E+01 0. -1.
</event>
<event>
11    1  0.8037748E-009  0.1289836E+03  0.7561462E-02  0.1120524E+00
         22   -1    0    0    0    0  0.00000000000E+00  0.00000000000E+00  0.62287004751E+03  0.62287004751E+03  0.00000000000E+00 0. -1.
         22   -1    0    0    0    0 -0.00000000000E+00 -0.00000000000E+00 -0.10981994846E+04  0.10981994846E+04  0.00000000000E+00 0. -1.
         24    2    1    2    0    0  0.30878513178E+02 -0.85730004138E+01 -0.97325046866E+03  0.97538519739E+03  0.55971685934E+02 0.  0.
         25    2    1    2    0    0  0.17553313589E+00 -0.54891056099E+00 -0.87809186736E+02  0.15283564480E+03  0.12509176204E+03 0.  0.
        -24    2    1    2    0    0 -0.31054046314E+02  0.91219109747E+01  0.58573021828E+03  0.59284868996E+03  0.85686157124E+02 0.  0.
        -13    1    3    3    0    0  0.20417552637E+02 -0.28975659292E+02 -0.77555127711E+03  0.77636090107E+03  0.00000000000E+00 0.  1.
         14    1    3    3    0    0  0.10460960541E+02  0.20402658878E+02 -0.19769919156E+03  0.19902429632E+03  0.00000000000E+00 0. -1.
         11    1    5    5    0    0  0.15667743112E+02 -0.54998122205E+01  0.41248731152E+03  0.41282139997E+03  0.00000000000E+00 0. -1.
        -12    1    5    5    0    0 -0.46721789426E+02  0.14621723195E+02  0.17324290676E+03  0.18002728998E+03  0.00000000000E+00 0.  1.
          5    1    4    4  501    0  0.45730682676E+02 -0.32232448491E+02 -0.97083320815E+01  0.56938125939E+02  0.41800000000E+01 0.  1.
         -5    1    4    4    0  501 -0.45555149540E+02  0.31683537930E+02 -0.78100854655E+02  0.95897518858E+02  0.41800000000E+01 0.  1.
</event>
<event>
11    1  0.8037748E-009  0.1543034E+03  0.7561462E-02  0.1092561E+00
         22   -1    0    0    0    0  0.00000000000E+00  0.00000000000E+00  0.31332335475E+03  0.31332335475E+03  0.00000000000E+00 0.  1.
         22   -1    0    0    0    0 -0.00000000000E+00 -0.00000000000E+00 -0.14751410050E+04  0.14751410050E+04  0.00000000000E+00 0. -1.
        -24    2    1    2    0    0 -0.78760350277E+02  0.43741472669E+02 -0.13902264493E+04  0.13955695373E+04  0.82269336582E+02 0.  0.
         25    2    1    2    0    0  0.54649519424E+02 -0.10779864120E+03  0.42571820111E+02  0.17907373009E+03  0.12509166209E+03 0.  0.
         24    2    1    2    0    0  0.24110830853E+02  0.64057168530E+02  0.18583697894E+03  0.21382109242E+03  0.80619004080E+02 0.  0.
        -11    1    5    5    0    0  0.25101183774E+02  0.56745182908E+02  0.19348678467E+03  0.20319257135E+03  0.00000000000E+00 0.  1.
         12    1    5    5    0    0 -0.99035292080E+00  0.73119856213E+01 -0.76498057256E+01  0.10628521076E+02  0.00000000000E+00 0. -1.
         13    1    3    3    0    0 -0.36751231265E+02  0.33041569112E+02 -0.11740314773E+04  0.11750711927E+04  0.00000000000E+00 0. -1.
        -14    1    3    3    0    0 -0.42009119012E+02  0.10699903557E+02 -0.21619497206E+03  0.22049834457E+03  0.00000000000E+00 0.  1.
          5    1    4    4  501    0  0.38799001654E+02  0.11492214187E+02 -0.17765296242E+02  0.44390445671E+02  0.41800000000E+01 0.  1.
         -5    1    4    4    0  501  0.15850517770E+02 -0.11929085539E+03  0.60337116354E+02  0.13468328442E+03  0.41800000000E+01 0.  1.
</event>
<event>
11    1  0.8037748E-009  0.1531844E+03  0.7561462E-02  0.1093669E+00
         22   -1    0    0    0    0  0.00000000000E+00  0.00000000000E+00  0.42959689522E+03  0.42959689522E+03  0.00000000000E+00 0.  1.
         22   -1    0    0    0    0 -0.00000000000E+00 -0.00000000000E+00 -0.19650649763E+04  0.19650649763E+04  0.00000000000E+00 0. -1.
        -24    2    1    2    0    0 -0.81591204645E+02  0.17665548686E+02 -0.15460168938E+04  0.15499585479E+04  0.72346858427E+02 0.  0.
         25    2    1    2    0    0  0.14981271287E+03  0.15756366258E+01 -0.38699230437E+03  0.43342471106E+03  0.12509038713E+03 0.  0.
         24    2    1    2    0    0 -0.68221508225E+02 -0.19241185312E+02  0.39754111704E+03  0.41127861262E+03  0.78017690693E+02 0.  0.
        -13    1    5    5    0    0 -0.16677494555E+02 -0.44411877272E+01  0.29550463253E+03  0.29600819384E+03  0.00000000000E+00 0.  1.
         14    1    5    5    0    0 -0.51544013671E+02 -0.14799997585E+02  0.10203648451E+03  0.11527041878E+03  0.00000000000E+00 0. -1.
         13    1    3    3    0    0 -0.68876563843E+02  0.88181433366E+00 -0.14511107473E+04  0.14527446986E+04  0.00000000000E+00 0. -1.
        -14    1    3    3    0    0 -0.12714640802E+02  0.16783734353E+02 -0.94906146519E+02  0.97213849202E+02  0.00000000000E+00 0.  1.
          5    1    4    4  501    0  0.16481826278E+03  0.36953771600E+01 -0.38330795772E+03  0.41727829851E+03  0.41800000000E+01 0. -1.
         -5    1    4    4    0  501 -0.15005549909E+02 -0.21197405342E+01 -0.36843466465E+01  0.16146412550E+02  0.41800000000E+01 0. -1.
</event>
<event>
11    1  0.8037748E-009  0.1305320E+03  0.7561462E-02  0.1118617E+00
         22   -1    0    0    0    0  0.00000000000E+00  0.00000000000E+00  0.68107104491E+03  0.68107104491E+03  0.00000000000E+00 0.  1.
         22   -1    0    0    0    0 -0.00000000000E+00 -0.00000000000E+00 -0.15278226204E+03  0.15278226204E+03  0.00000000000E+00 0. -1.
         24    2    1    2    0    0 -0.86860458251E+01 -0.37041687695E+02 -0.69273409344E+02  0.11166382665E+03  0.78882640172E+02 0.  0.
         25    2    1    2    0    0  0.17799905368E+02  0.31238707542E+02  0.11404418176E+02  0.13065252277E+03  0.12508927800E+03 0.  0.
        -24    2    1    2    0    0 -0.91138595433E+01  0.58029801529E+01  0.58615777404E+03  0.59153695754E+03  0.78856192279E+02 0.  0.
        -13    1    3    3    0    0  0.23658355605E+02  0.12210948390E+02 -0.33270878964E+02  0.42611928348E+02  0.00000000000E+00 0.  1.
         14    1    3    3    0    0 -0.32344401430E+02 -0.49252636085E+02 -0.36002530380E+02  0.69051898301E+02  0.00000000000E+00 0. -1.
         11    1    5    5    0    0 -0.23826719422E+02  0.32573051751E+02  0.19190878022E+03  0.19610633897E+03  0.00000000000E+00 0. -1.
        -12    1    5    5    0    0  0.14712859879E+02 -0.26770071598E+02  0.39424899381E+03  0.39543061857E+03  0.00000000000E+00 0.  1.
          5    1    4    4  501    0  0.22456607088E+02  0.67745782587E+02 -0.27809458567E+02  0.76711333231E+02  0.41800000000E+01 0.  1.
         -5    1    4    4    0  501 -0.46567017200E+01 -0.36507075045E+02  0.39213876743E+02  0.53941189535E+02  0.41800000000E+01 0.  1.
</event>
<event>
11    1  0.8037748E-009  0.1370462E+03  0.7561462E-02  0.1110902E+00
         22   -1    0    0    0    0  0.00000000000E+00  0.00000000000E+00  0.97816520095E+02  0.97816520095E+02  0.00000000000E+00 0.  1.
         22   -1    0    0    0    0 -0.00000000000E+00 -0.00000000000E+00 -0.90949398338E+03  0.90949398338E+03  0.00000000000E+00 0.  1.
         24    2    1    2    0    0  0.26022602730E+02 -0.42743325414E+02 -0.62667905320E+03  0.63384774037E+03  0.80821745379E+02 0.  0.
         25    2    1    2    0    0 -0.55519097806E+02  0.81587027579E+02 -0.22118283051E+03  0.27259553357E+03  0.12509063563E+03 0.  0.
        -24    2    1    2    0    0  0.29496495076E+02 -0.38843702165E+02  0.36184420424E+02  0.10086722954E+03  0.80535764062E+02 0.  0.
        -13    1    3    3    0    0  0.43463896759E+02 -0.57304943847E+02 -0.44949342455E+03  0.45521127581E+03  0.00000000000E+00 0.  1.
         14    1    3    3    0    0 -0.17441294028E+02  0.14561618432E+02 -0.17718562865E+03  0.17863646456E+03  0.00000000000E+00 0. -1.
         13    1    5    5    0    0 -0.36419377707E+01  0.15922142751E+02 -0.12399290048E+02  0.20506602210E+02  0.00000000000E+00 0. -1.
        -14    1    5    5    0    0  0.33138432846E+02 -0.54765844916E+02  0.48583710472E+02  0.80360627325E+02  0.00000000000E+00 0.  1.
          5    1    4    4  501    0  0.38070628921E+02  0.11828685642E+02 -0.37312772191E+02  0.54763180688E+02  0.41800000000E+01 0. -1.
         -5    1    4    4    0  501 -0.93589726727E+02  0.69758341937E+02 -0.18387005831E+03  0.21783235288E+03  0.41800000000E+01 0. -1.
</event>
<event>
11    1  0.8037748E-009  0.2817767E+03  0.7561462E-02  0.1008213E+00
         22   -1    0    0    0    0  0.00000000000E+00  0.00000000000E+00  0.12030016200E+04  0.12030016200E+04  0.00000000000E+00 0.  1.
         22   -1    0    0    0    0 -0.00000000000E+00 -0.00000000000E+00 -0.88331787444E+03  0.88331787444E+03  0.00000000000E+00 0. -1.
         24    2    1    2    0    0 -0.99303584330E+02  0.21666557187E+03 -0.15429260104E+03  0.29499776497E+03  0.80076855003E+02 0.  0.
         25    2    1    2    0    0  0.42985383035E+01 -0.44623324500E+03 -0.55883284002E+03  0.72600540080E+03  0.12508841882E+03 0.  0.
        -24    2    1    2    0    0  0.95005046026E+02  0.22956767313E+03  0.10328091866E+04  0.10653163286E+04  0.80478499229E+02 0.  0.
        -11    1    3    3    0    0 -0.10786411987E+03  0.15463579394E+03 -0.12170238099E+03  0.22440669923E+03  0.00000000000E+00 0.  1.
         12    1    3    3    0    0  0.85605355402E+01  0.62029777929E+02 -0.32590220052E+02  0.70591065735E+02  0.00000000000E+00 0. -1.
         11    1    5    5    0    0  0.51530653467E+02  0.40160612632E+02  0.31226403987E+03  0.31902525550E+03  0.00000000000E+00 0. -1.
        -12    1    5    5    0    0  0.43474392560E+02  0.18940706050E+03  0.72054514672E+03  0.74629107313E+03  0.00000000000E+00 0.  1.
          5    1    4    4  501    0  0.24663732227E+02 -0.10987021939E+02 -0.26352077596E+02  0.37959435349E+02  0.41800000000E+01 0. -1.
         -5    1    4    4    0  501 -0.20365193923E+02 -0.43524622306E+03 -0.53248076243E+03  0.68804596545E+03  0.41800000000E+01 0. -1.
</event>
<event>
11    1  0.8037748E-009  0.1311732E+03  0.7561462E-02  0.1117836E+00
         22   -1    0    0    0    0  0.00000000000E+00  0.00000000000E+00  0.47262090377E+03  0.47262090377E+03  0.00000000000E+00 0. -1.
         22   -1    0    0    0    0 -0.00000000000E+00 -0.00000000000E+00 -0.17302087814E+03  0.17302087814E+03  0.00000000000E+00 0. -1.
        -24    2    1    2    0    0 -0.57514243941E+02  0.11884334742E+01 -0.61792095326E+02  0.11542092896E+03  0.78704683253E+02 0.  0.
         25    2    1    2    0    0  0.46381928221E+01 -0.12543301423E+02 -0.28425439034E+02  0.12898167508E+03  0.12509764058E+03 0.  0.
         24    2    1    2    0    0  0.52876051118E+02  0.11354867949E+02  0.38981755999E+03  0.40123917787E+03  0.78168650863E+02 0.  0.
        -11    1    5    5    0    0 -0.12831430991E+02  0.19268015003E+02  0.50855377629E+02  0.55876394455E+02  0.00000000000E+00 0.  1.
         12    1    5    5    0    0  0.65707482110E+02 -0.79131470539E+01  0.33896218236E+03  0.34536278342E+03  0.00000000000E+00 0. -1.
         13    1    3    3    0    0 -0.61037845799E+02 -0.28600668624E+02 -0.44952840240E+02  0.81020828873E+02  0.00000000000E+00 0. -1.
        -14    1    3    3    0    0  0.35236018589E+01  0.29789102098E+02 -0.16839255086E+02  0.34400100083E+02  0.00000000000E+00 0.  1.
          5    1    4    4  501    0 -0.50816249626E+02 -0.16618189182E+01 -0.46983382497E+02  0.69353900388E+02  0.41800000000E+01 0.  1.
         -5    1    4    4    0  501  0.55454442448E+02 -0.10881482505E+02  0.18557943463E+02  0.59627774688E+02  0.41800000000E+01 0.  1.
</event>
<event>
11    1  0.8037748E-009  0.3122766E+03  0.7561462E-02  0.9951253E-01
         22   -1    0    0    0    0  0.00000000000E+00  0.00000000000E+00  0.17680607530E+03  0.17680607530E+03  0.00000000000E+00 0. -1.
         22   -1    0    0    0    0 -0.00000000000E+00 -0.00000000000E+00 -0.18208420823E+04  0.18208420823E+04  0.00000000000E+00 0. -1.
        -24    2    1    2    0    0  0.38848441421E+02 -0.10625196793E+03 -0.75692961240E+03  0.76953409918E+03  0.80259638654E+02 0.  0.
         25    2    1    2    0    0 -0.15414526207E+03  0.34962460278E+03 -0.85476224751E+03  0.94459713521E+03  0.12508846221E+03 0.  0.
         24    2    1    2    0    0  0.11529682065E+03 -0.24337263485E+03 -0.32344147052E+02  0.28351692318E+03  0.82535481055E+02 0.  0.
        -13    1    5    5    0    0  0.26163904867E+02 -0.60214742716E+01 -0.11236118652E+02  0.29104268289E+02  0.00000000000E+00 0.  1.
         14    1    5    5    0    0  0.89132915786E+02 -0.23735116058E+03 -0.21108028400E+02  0.25441265489E+03  0.00000000000E+00 0. -1.
         13    1    3    3    0    0  0.44508459318E+02 -0.11067986818E+03 -0.75040406538E+03  0.75982714976E+03  0.00000000000E+00 0. -1.
        -14    1    3    3    0    0 -0.56600178976E+01  0.44279002561E+01 -0.65255470132E+01  0.97069494230E+01  0.00000000000E+00 0.  1.
          5    1    4    4  501    0  0.36035158261E+01  0.11224695947E+03 -0.31045779183E+03  0.33017249756E+03  0.41800000000E+01 0.  1.
         -5    1    4    4    0  501 -0.15774877790E+03  0.23737764330E+03 -0.54430445569E+03  0.61442463765E+03  0.41800000000E+01 0.  1.
</event>
<event>
11    1  0.8037748E-009  0.1448933E+03  0.7561462E-02  0.1102214E+00
         22   -1    0    0    0    0  0.00000000000E+00  0.00000000000E+00  0.26537879710E+04  0.26537879710E+04  0.00000000000E+00 0. -1.
         22   -1    0    0    0    0 -0.00000000000E+00 -0.00000000000E+00 -0.74317484575E+03  0.74317484575E+03  0.00000000000E+00 0.  1.
         24    2    1    2    0    0  0.16837885184E+02  0.10834181747E+02 -0.71366844219E+03  0.71850709689E+03  0.80801664747E+02 0.  0.
         25    2    1    2    0    0 -0.87020636712E+02 -0.28123686260E+02  0.20576729928E+03  0.25759221995E+03  0.12510010945E+03 0.  0.
        -24    2    1    2    0    0  0.70182751528E+02  0.17289504512E+02  0.24185142682E+04  0.24208634999E+04  0.78385421209E+02 0.  0.
        -13    1    3    3    0    0  0.18178658011E+02  0.16394014605E+02 -0.71217571031E+03  0.71259628801E+03  0.00000000000E+00 0.  1.
         14    1    3    3    0    0 -0.13407728268E+01 -0.55598328575E+01 -0.14927318809E+01  0.59108088825E+01  0.00000000000E+00 0. -1.
         13    1    5    5    0    0  0.84975966464E+02  0.22862633270E+02  0.18028635530E+04  0.18050098631E+04  0.00000000000E+00 0. -1.
        -14    1    5    5    0    0 -0.14793214937E+02 -0.55731287575E+01  0.61565071516E+03  0.61585363687E+03  0.00000000000E+00 0.  1.
          5    1    4    4  501    0 -0.54920652747E+00 -0.59893345631E+02  0.58460811526E+02  0.83801273039E+02  0.41800000000E+01 0.  1.
         -5    1    4    4    0  501 -0.86471430184E+02  0.31769659372E+02  0.14730648775E+03  0.17379094691E+03  0.41800000000E+01 0.  1.
</event>
<event>
11    1  0.8037748E-009  0.1262646E+03  0.7561462E-02  0.1123946E+00
         22   -1    0    0    0    0  0.00000000000E+00  0.00000000000E+00  0.96518447202E+03  0.96518447202E+03  0.00000000000E+00 0.  1.
         22   -1    0    0    0    0 -0.00000000000E+00 -0.00000000000E+00 -0.62967707458E+02  0.62967707458E+02  0.00000000000E+00 0. -1.
        -24    2    1    2    0    0  0.88172141320E+01 -0.47596360229E+02 -0.62233971463E+00  0.73520575582E+02  0.55332910235E+02 0.  0.
         25    2    1    2    0    0 -0.34534448874E+01  0.23632896494E+02  0.16291073024E+03  0.20678157203E+03  0.12509305506E+03 0.  0.
         24    2    1    2    0    0 -0.53637692446E+01  0.23963463735E+02  0.73992837403E+03  0.74785003187E+03  0.10574806781E+03 0.  0.
        -11    1    5    5    0    0 -0.18063352131E+02  0.57762296443E+02  0.61010299652E+03  0.61309740983E+03  0.00000000000E+00 0.  1.
         12    1    5    5    0    0  0.12699582886E+02 -0.33798832709E+02  0.12982537751E+03  0.13475262203E+03  0.00000000000E+00 0. -1.
         11    1    3    3    0    0  0.24032028646E+02 -0.35703480618E+02 -0.18831858347E+02  0.46977822617E+02  0.00000000000E+00 0. -1.
        -12    1    3    3    0    0 -0.15214814514E+02 -0.11892879612E+02  0.18209518632E+02  0.26542752965E+02  0.00000000000E+00 0.  1.
          5    1    4    4  501    0 -0.49885832128E+02 -0.13674308572E+02  0.27366439511E+02  0.58668367742E+02  0.41800000000E+01 0. -1.
         -5    1    4    4    0  501  0.46432387241E+02  0.37307205066E+02  0.13554429073E+03  0.14811320429E+03  0.41800000000E+01 0. -1.
</event>
<event>
11    1  0.8037748E-009  0.1792095E+03  0.7561462E-02  0.1070284E+00
         22   -1    0    0    0    0  0.00000000000E+00  0.00000000000E+00  0.38960694688E+03  0.38960694688E+03  0.00000000000E+00 0.  1.
         22   -1    0    0    0    0 -0.00000000000E+00 -0.00000000000E+00 -0.21967604296E+04  0.21967604296E+04  0.00000000000E+00 0.  1.
        -24    2    1    2    0    0  0.99832915959E+02  0.88859443675E+02 -0.20521012834E+04  0.20579846602E+04  0.79489448949E+02 0.  0.
         25    2    1    2    0    0  0.66331560414E+01 -0.81154035508E+02 -0.85464670141E+02  0.17199407699E+03  0.12509107258E+03 0.  0.
         24    2    1    2    0    0 -0.10646607200E+03 -0.77054081677E+01  0.33041247082E+03  0.35638863929E+03  0.80287380944E+02 0.  0.
        -13    1    5    5    0    0 -0.52131581594E+02 -0.12360233486E+02  0.26889131593E+03  0.27417698108E+03  0.00000000000E+00 0.  1.
         14    1    5    5    0    0 -0.54334490406E+02  0.46548253183E+01  0.61521154885E+02  0.82211658204E+02  0.00000000000E+00 0. -1.
         13    1    3    3    0    0  0.63521300148E+02  0.71389852486E+01 -0.69161958228E+03  0.69456717982E+03  0.00000000000E+00 0. -1.
        -14    1    3    3    0    0  0.36311615811E+02  0.81720458427E+02 -0.13604817011E+04  0.13634174804E+04  0.00000000000E+00 0.  1.
          5    1    4    4  501    0  0.39432873929E+02 -0.89178672744E+02 -0.95471105807E+02  0.13652835479E+03  0.41800000000E+01 0. -1.
         -5    1    4    4    0  501 -0.32799717888E+02  0.80246372362E+01  0.10006435666E+02  0.35465722198E+02  0.41800000000E+01 0. -1.
</event>
<event>
11    1  0.8037748E-009  0.1843366E+03  0.7561462E-02  0.1066188E+00
         22   -1    0    0    0    0  0.00000000000E+00  0.00000000000E+00  0.13441984600E+04  0.13441984600E+04  0.00000000000E+00 0. -1.
         22   -1    0    0    0    0 -0.00000000000E+00 -0.00000000000E+00 -0.40829372281E+03  0.40829372281E+03  0.00000000000E+00 0.  1.
         24    2    1    2    0    0 -0.85529274232E+02  0.10145285742E+03 -0.32105465065E+03  0.35867406166E+03  0.89235950002E+02 0.  0.
         25    2    1    2    0    0  0.13865454463E+03 -0.89039742648E+02  0.92760317884E+02  0.22672596623E+03  0.12508808366E+03 0.  0.
        -24    2    1    2    0    0 -0.53125270400E+02 -0.12413114768E+02  0.11641990700E+04  0.11670921549E+04  0.61386022871E+02 0.  0.
        -13    1    3    3    0    0 -0.82776155583E+02  0.10393130029E+03 -0.32626460001E+03  0.35228141638E+03  0.00000000000E+00 0.  1.
         14    1    3    3    0    0 -0.27531186487E+01 -0.24784428721E+01  0.52099493524E+01  0.63926452755E+01  0.00000000000E+00 0. -1.
         11    1    5    5    0    0 -0.52073822397E+02 -0.27410833556E+02  0.10769964089E+04  0.10786029397E+04  0.00000000000E+00 0. -1.
        -12    1    5    5    0    0 -0.10514480036E+01  0.14997718788E+02  0.87202661083E+02  0.88489215228E+02  0.00000000000E+00 0.  1.
          5    1    4    4  501    0  0.85452290478E+01 -0.28178193449E+02  0.76536602144E+02  0.82111846851E+02  0.41800000000E+01 0. -1.
         -5    1    4    4    0  501  0.13010931558E+03 -0.60861549199E+02  0.16223715740E+02  0.14461411938E+03  0.41800000000E+01 0. -1.
</event>
<event>
11    1  0.8037748E-009  0.1473237E+03  0.7561462E-02  0.1099645E+00
         22   -1    0    0    0    0  0.00000000000E+00  0.00000000000E+00  0.30129670140E+03  0.30129670140E+03  0.00000000000E+00 0.  1.
         22   -1    0    0    0    0 -0.00000000000E+00 -0.00000000000E+00 -0.50938432416E+03  0.50938432416E+03  0.00000000000E+00 0. -1.
        -24    2    1    2    0    0  0.76670660508E+02  0.30995971256E+01 -0.26679584065E+03  0.28931913047E+03  0.81471105202E+02 0.  0.
         25    2    1    2    0    0 -0.79828275077E+02 -0.88687065695E+01 -0.20063333964E+03  0.24970658514E+03  0.12509370180E+03 0.  0.
         24    2    1    2    0    0  0.31576145691E+01  0.57691094439E+01  0.25934155754E+03  0.27165530995E+03  0.80593491066E+02 0.  0.
        -11    1    5    5    0    0 -0.31419690634E+02  0.25939321344E+02  0.13712674474E+03  0.14305170211E+03  0.00000000000E+00 0.  1.
         12    1    5    5    0    0  0.34577305203E+02 -0.20170211900E+02  0.12221481279E+03  0.12860360784E+03  0.00000000000E+00 0. -1.
         11    1    3    3    0    0  0.74728707549E+02  0.25402974128E+02 -0.24744265245E+03  0.25972592685E+03  0.00000000000E+00 0. -1.
        -12    1    3    3    0    0  0.19419529589E+01 -0.22303377002E+02 -0.19353188200E+02  0.29593203620E+02  0.00000000000E+00 0.  1.
          5    1    4    4  501    0 -0.21437254766E+02 -0.34208802998E+02 -0.17713711905E+03  0.18172734918E+03  0.41800000000E+01 0. -1.
         -5    1    4    4    0  501 -0.58391020311E+02  0.25340096429E+02 -0.23496220585E+02  0.67979235960E+02  0.41800000000E+01 0. -1.
</event>
<event>
11    1  0.8037748E-009  0.1649717E+03  0.7561462E-02  0.1082492E+00
         22   -1    0    0    0    0  0.00000000000E+00  0.00000000000E+00  0.27243124845E+03  0.27243124845E+03  0.00000000000E+00 0. -1.
         22   -1    0    0    0    0 -0.00000000000E+00 -0.00000000000E+00 -0.58547727234E+03  0.58547727234E+03  0.00000000000E+00 0. -1.
        -24    2    1    2    0    0  0.13113404698E+00 -0.29248655696E+02 -0.47491853092E+03  0.48340377590E+03  0.85300049716E+02 0.  0.
         25    2    1    2    0    0 -0.78177874725E+02 -0.51584086336E+02 -0.63492662725E+01  0.15639970888E+03  0.12509139737E+03 0.  0.
         24    2    1    2    0    0  0.78046740678E+02  0.80832742032E+02  0.16822177330E+03  0.21810503601E+03  0.81523099839E+02 0.  0.
        -13    1    5    5    0    0  0.47677988571E+02  0.25979844004E+01  0.29968926847E+02  0.56374432977E+02  0.00000000000E+00 0.  1.
         14    1    5    5    0    0  0.30368752107E+02  0.78234757632E+02  0.13825284645E+03  0.16173060303E+03  0.00000000000E+00 0. -1.
         13    1    3    3    0    0  0.80888122692E+01  0.41800691074E+01 -0.40868894543E+03  0.40879035700E+03  0.00000000000E+00 0. -1.
        -14    1    3    3    0    0 -0.79576782222E+01 -0.33428724803E+02 -0.66229585498E+02  0.74613418899E+02  0.00000000000E+00 0.  1.
          5    1    4    4  501    0  0.17034297830E+02 -0.62786910139E+00  0.36218812637E+02  0.40247190101E+02  0.41800000000E+01 0.  1.
         -5    1    4    4    0  501 -0.95212172554E+02 -0.50956217235E+02 -0.42568078910E+02  0.11615251878E+03  0.41800000000E+01 0.  1.
</event>
<event>
11    1  0.8037748E-009  0.1392074E+03  0.7561462E-02  0.1108447E+00
         22   -1    0    0    0    0  0.00000000000E+00  0.00000000000E+00  0.62544665238E+03  0.62544665238E+03  0.00000000000E+00 0.  1.
         22   -1    0    0    0    0 -0.00000000000E+00 -0.00000000000E+00 -0.35616106947E+03  0.35616106947E+03  0.00000000000E+00 0. -1.
         24    2    1    2    0    0  0.24407133984E+02 -0.21130467784E+02 -0.31974322138E+03  0.33112385835E+03  0.79781433235E+02 0.  0.
         25    2    1    2    0    0 -0.43799803070E+02 -0.39132883773E+02  0.16934069757E+03  0.21857275876E+03  0.12509186095E+03 0.  0.
        -24    2    1    2    0    0  0.19392669085E+02  0.60263351556E+02  0.41968810672E+03  0.43191110475E+03  0.80008426574E+02 0.  0.
        -13    1    3    3    0    0  0.31475662399E+02  0.67901918936E+01 -0.47643942941E+02  0.57504515721E+02  0.00000000000E+00 0.  1.
         14    1    3    3    0    0 -0.70685284145E+01 -0.27920659677E+02 -0.27209927844E+03  0.27361934263E+03  0.00000000000E+00 0. -1.
         13    1    5    5    0    0  0.19227079884E+02 -0.10226697841E+02  0.38256632155E+02  0.44020857028E+02  0.00000000000E+00 0. -1.
        -14    1    5    5    0    0  0.16558920099E+00  0.70490049397E+02  0.38143147457E+03  0.38789024772E+03  0.00000000000E+00 0.  1.
          5    1    4    4  501    0  0.77607289513E+01 -0.74291098748E+02  0.80184447547E+02  0.10966500944E+03  0.41800000000E+01 0.  1.
         -5    1    4    4    0  501 -0.51560532021E+02  0.35158214976E+02  0.89156250027E+02  0.10890774932E+03  0.41800000000E+01 0.  1.
</event>
<event>
11    1  0.8037748E-009  0.1823239E+03  0.7561462E-02  0.1067778E+00
         22   -1    0    0    0    0  0.00000000000E+00  0.00000000000E+00  0.71830766063E+03  0.71830766063E+03  0.00000000000E+00 0.  1.
         22   -1    0    0    0    0 -0.00000000000E+00 -0.00000000000E+00 -0.10786103858E+04  0.10786103858E+04  0.00000000000E+00 0. -1.
         24    2    1    2    0    0 -0.32191989236E+02  0.12952395163E+03 -0.10095806975E+04  0.10215421846E+04  0.80513799745E+02 0.  0.
         25    2    1    2    0    0 -0.51427711941E+02 -0.12736207741E+03  0.93893616977E+02  0.20815236160E+03  0.12508191722E+03 0.  0.
        -24    2    1    2    0    0  0.83619701177E+02 -0.21618742175E+01  0.55538435529E+03  0.56722350028E+03  0.79333404304E+02 0.  0.
        -11    1    3    3    0    0 -0.17663741610E+01  0.23859584604E+02 -0.48357394754E+03  0.48416542896E+03  0.00000000000E+00 0.  1.
         12    1    3    3    0    0 -0.30425615075E+02  0.10566436702E+03 -0.52600674993E+03  0.53737675562E+03  0.00000000000E+00 0. -1.
         13    1    5    5    0    0 -0.32440908159E+01 -0.27748450599E+01  0.24159105448E+03  0.24162876794E+03  0.00000000000E+00 0. -1.
        -14    1    5    5    0    0  0.86863791993E+02  0.61297084248E+00  0.31379330081E+03  0.32559473234E+03  0.00000000000E+00 0.  1.
          5    1    4    4  501    0 -0.53107043585E+01 -0.12950435254E+03  0.96619077413E+02  0.16171672587E+03  0.41800000000E+01 0.  1.
         -5    1    4    4    0  501 -0.46117007583E+02  0.21422751292E+01 -0.27254604352E+01  0.46435635731E+02  0.41800000000E+01 0.  1.
</event>
<event>
11    1  0.8037748E-009  0.1737943E+03  0.7561462E-02  0.1074776E+00
         22   -1    0    0    0    0  0.00000000000E+00  0.00000000000E+00  0.12759577434E+04  0.12759577434E+04  0.00000000000E+00 0.  1.
         22   -1    0    0    0    0 -0.00000000000E+00 -0.00000000000E+00 -0.44013183736E+03  0.44013183736E+03  0.00000000000E+00 0. -1.
        -24    2    1    2    0    0  0.11215850607E+02  0.11939602840E+03 -0.40752960583E+03  0.43220842878E+03  0.79640061376E+02 0.  0.
         25    2    1    2    0    0 -0.61704506340E+02 -0.15798217577E+03  0.70021320132E+03  0.73123942190E+03  0.12508697323E+03 0.  0.
         24    2    1    2    0    0  0.50488655733E+02  0.38586147372E+02  0.54314231057E+03  0.55264173010E+03  0.79820531130E+02 0.  0.
        -11    1    5    5    0    0  0.19470614895E+01  0.50239021962E+02  0.22042132106E+03  0.22608252731E+03  0.00000000000E+00 0.  1.
         12    1    5    5    0    0  0.48541594243E+02 -0.11652874590E+02  0.32272098951E+03  0.32655920279E+03  0.00000000000E+00 0. -1.
         11    1    3    3    0    0 -0.21721808644E+02  0.98922315820E+02 -0.33481702376E+03  0.34979980123E+03  0.00000000000E+00 0. -1.
        -12    1    3    3    0    0  0.32937659250E+02  0.20473712579E+02 -0.72712582068E+02  0.82408627550E+02  0.00000000000E+00 0.  1.
          5    1    4    4  501    0 -0.99468502008E+02 -0.99216848870E+02  0.45183911457E+03  0.47319554504E+03  0.41800000000E+01 0.  1.
         -5    1    4    4    0  501  0.37763995668E+02 -0.58765326900E+02  0.24837408676E+03  0.25804387686E+03  0.41800000000E+01 0.  1.
</event>
<event>
11    1  0.8037748E-009  0.1623444E+03  0.7561462E-02  0.1084893E+00
         22   -1    0    0    0    0  0.00000000000E+00  0.00000000000E+00  0.33198350288E+03  0.33198350288E+03  0.00000000000E+00 0. -1.
         22   -1    0    0    0    0 -0.00000000000E+00 -0.00000000000E+00 -0.11664157173E+04  0.11664157173E+04  0.00000000000E+00 0.  1.
         24    2    1    2    0    0 -0.59719316737E+02  0.21330411084E+02 -0.83641309352E+03  0.84267299193E+03  0.80557588651E+02 0.  0.
         25    2    1    2    0    0  0.16062607290E+03 -0.21764179420E+02 -0.27926847348E+03  0.34628103345E+03  0.12508100992E+03 0.  0.
        -24    2    1    2    0    0 -0.10090675617E+03  0.43376833651E+00  0.28124935255E+03  0.30944519484E+03  0.80453518926E+02 0.  0.
        -13    1    3    3    0    0 -0.55250953900E+02  0.20298828499E+02 -0.83599878375E+03  0.83806842011E+03  0.00000000000E+00 0.  1.
         14    1    3    3    0    0 -0.44683628368E+01  0.10315825851E+01 -0.41430976468E+00  0.46045718208E+01  0.00000000000E+00 0. -1.
         11    1    5    5    0    0 -0.10278686112E+03 -0.16154966566E+02  0.26989055498E+03  0.28925254265E+03  0.00000000000E+00 0. -1.
        -12    1    5    5    0    0  0.18801049510E+01  0.16588734903E+02  0.11358797567E+02  0.20192652190E+02  0.00000000000E+00 0.  1.
          5    1    4    4  501    0  0.16944900235E+03  0.39068979509E+01 -0.19893609214E+03  0.26138337630E+03  0.41800000000E+01 0.  1.
         -5    1    4    4    0  501 -0.88229294461E+01 -0.25671077371E+02 -0.80332381340E+02  0.84897657148E+02  0.41800000000E+01 0.  1.
</event>
<event>
11    1  0.8037748E-009  0.2282109E+03  0.7561462E-02  0.1036192E+00
         22   -1    0    0    0    0  0.00000000000E+00  0.00000000000E+00  0.14650830798E+04  0.14650830798E+04  0.00000000000E+00 0.  1.
         22   -1    0    0    0    0 -0.00000000000E+00 -0.00000000000E+00 -0.36496097964E+03  0.36496097964E+03  0.00000000000E+00 0.  1.
         24    2    1    2    0    0 -0.93019301960E+02 -0.18201021282E+03 -0.26934872736E+03  0.34597569820E+03  0.73281230273E+02 0.  0.
         25    2    1    2    0    0  0.33859876347E+02  0.13381055932E+03  0.10327272727E+03  0.21298826184E+03  0.12508791498E+03 0.  0.
        -24    2    1    2    0    0  0.59159425613E+02  0.48199653498E+02  0.12661981002E+04  0.12710800994E+04  0.81018181874E+02 0.  0.
        -11    1    3    3    0    0 -0.88051218240E+02 -0.16208832603E+03 -0.26807108058E+03  0.32540397464E+03  0.00000000000E+00 0.  1.
         12    1    3    3    0    0 -0.49680837195E+01 -0.19921886789E+02 -0.12776467798E+01  0.20571723564E+02  0.00000000000E+00 0. -1.
         13    1    5    5    0    0  0.65668602243E+02  0.31702173182E+02  0.56862587234E+03  0.57328245725E+03  0.00000000000E+00 0. -1.
        -14    1    5    5    0    0 -0.65091766305E+01  0.16497480316E+02  0.69757222787E+03  0.69779764211E+03  0.00000000000E+00 0.  1.
          5    1    4    4  501    0  0.62852241418E+02  0.44536456734E+02  0.54275049889E+01  0.77335828954E+02  0.41800000000E+01 0.  1.
         -5    1    4    4    0  501 -0.28992365071E+02  0.89274102584E+02  0.97845222283E+02  0.13565243289E+03  0.41800000000E+01 0.  1.
</event>
<event>
11    1  0.8037748E-009  0.2098856E+03  0.7561462E-02  0.1047745E+00
         22   -1    0    0    0    0  0.00000000000E+00  0.00000000000E+00  0.29103791842E+03  0.29103791842E+03  0.00000000000E+00 0. -1.
         22   -1    0    0    0    0 -0.00000000000E+00 -0.00000000000E+00 -0.14253043909E+04  0.14253043909E+04  0.00000000000E+00 0.  1.
        -24    2    1    2    0    0 -0.15463658849E+02 -0.25505369441E+02 -0.51168528800E+03  0.51874645345E+03  0.79914957251E+02 0.  0.
         25    2    1    2    0    0  0.16429138243E+03 -0.53450669497E+02 -0.86541209602E+03  0.89131016751E+03  0.12508831428E+03 0.  0.
         24    2    1    2    0    0 -0.14882772358E+03  0.78956038938E+02  0.24283091154E+03  0.30628568835E+03  0.80376140083E+02 0.  0.
        -11    1    5    5    0    0 -0.56417124929E+02  0.15101730728E+02  0.30060012124E+02  0.65685299612E+02  0.00000000000E+00 0.  1.
         12    1    5    5    0    0 -0.92410598650E+02  0.63854308210E+02  0.21277089942E+03  0.24060038873E+03  0.00000000000E+00 0. -1.
         13    1    3    3    0    0  0.23462123684E+02  0.48220234241E+01 -0.63748580070E+02  0.68099960489E+02  0.00000000000E+00 0. -1.
        -14    1    3    3    0    0 -0.38925782533E+02 -0.30327392865E+02 -0.44793670793E+03  0.45064649296E+03  0.00000000000E+00 0.  1.
          5    1    4    4  501    0 -0.95257549861E+01 -0.23869564937E+02 -0.43571912244E+02  0.50759039342E+02  0.41800000000E+01 0.  1.
         -5    1    4    4    0  501  0.17381713741E+03 -0.29581104560E+02 -0.82184018377E+03  0.84055112817E+03  0.41800000000E+01 0.  1.
</event>
<event>
11    1  0.8037748E-009  0.1666853E+03  0.7561462E-02  0.1080953E+00
         22   -1    0    0    0    0  0.00000000000E+00  0.00000000000E+00  0.20187090872E+03  0.20187090872E+03  0.00000000000E+00 0.  1.
         22   -1    0    0    0    0 -0.00000000000E+00 -0.00000000000E+00 -0.25594252818E+04  0.25594252818E+04  0.00000000000E+00 0. -1.
         24    2    1    2    0    0 -0.15762866158E+02  0.11711995618E+02 -0.13737934929E+04  0.13765521076E+04  0.84861681769E+02 0.  0.
         25    2    1    2    0    0  0.12498849898E+03 -0.23144288486E+02 -0.11532944143E+04  0.11670017729E+04  0.12508936353E+03 0.  0.
        -24    2    1    2    0    0 -0.10922563282E+03  0.11432292868E+02  0.16953353405E+03  0.21774231011E+03  0.81296729684E+02 0.  0.
        -11    1    3    3    0    0  0.89090347205E+01  0.28803701939E+02 -0.18992563439E+03  0.19230385005E+03  0.00000000000E+00 0.  1.
         12    1    3    3    0    0 -0.24671900878E+02 -0.17091706321E+02 -0.11838678585E+04  0.11842482575E+04  0.00000000000E+00 0. -1.
         11    1    5    5    0    0 -0.38435305324E+02  0.85439733976E+01  0.64030020290E+01  0.39890733407E+02  0.00000000000E+00 0. -1.
        -12    1    5    5    0    0 -0.70790327497E+02  0.28883194706E+01  0.16313053203E+03  0.17785157670E+03  0.00000000000E+00 0.  1.
          5    1    4    4  501    0 -0.23488444048E+02  0.37995312406E+01 -0.96410663056E+02  0.99391306422E+02  0.41800000000E+01 0.  1.
         -5    1    4    4    0  501  0.14847694303E+03 -0.26943819727E+02 -0.10568837512E+04  0.10676104665E+04  0.41800000000E+01 0.  1.
</event>
<event>
11    1  0.8037748E-009  0.1557504E+03  0.7561462E-02  0.1091144E+00
         22   -1    0    0    0    0  0.00000000000E+00  0.00000000000E+00  0.11062863913E+04  0.11062863913E+04  0.00000000000E+00 0. -1.
         22   -1    0    0    0    0 -0.00000000000E+00 -0.00000000000E+00 -0.85002247762E+03  0.85002247762E+03  0.00000000000E+00 0.  1.
         24    2    1    2    0    0  0.19830174436E+02  0.89690781409E+02 -0.72199840552E+03  0.73214911211E+03  0.79516996327E+02 0.  0.
         25    2    1    2    0    0 -0.24004310901E+01 -0.10474474570E+03 -0.66351400504E+02  0.17614314127E+03  0.12508666615E+03 0.  0.
        -24    2    1    2    0    0 -0.17429743346E+02  0.15053964293E+02  0.10446137197E+04  0.10480166156E+04  0.81182419677E+02 0.  0.
        -13    1    3    3    0    0 -0.28197164301E+02  0.47025553193E+02 -0.40608784432E+03  0.40977288836E+03  0.00000000000E+00 0.  1.
         14    1    3    3    0    0  0.48027338737E+02  0.42665228215E+02 -0.31591056120E+03  0.32237622375E+03  0.00000000000E+00 0. -1.
         11    1    5    5    0    0  0.13440705060E+02  0.10062416133E+02  0.89558279606E+03  0.89574016845E+03  0.00000000000E+00 0. -1.
        -12    1    5    5    0    0 -0.30870448406E+02  0.49915481594E+01  0.14903092366E+03  0.15227644711E+03  0.00000000000E+00 0.  1.
          5    1    4    4  501    0 -0.55000885113E+02 -0.94002146908E+02 -0.39104377938E+02  0.11579346165E+03  0.41800000000E+01 0.  1.
         -5    1    4    4    0  501  0.52600454023E+02 -0.10742598793E+02 -0.27247022566E+02  0.60349679626E+02  0.41800000000E+01 0.  1.
</event>
<event>
11    1  0.8037748E-009  0.1367942E+03  0.7561462E-02  0.1111192E+00
         22   -1    0    0    0    0  0.00000000000E+00  0.00000000000E+00  0.17597767533E+03  0.17597767533E+03  0.00000000000E+00 0.  1.
         22   -1    0    0    0    0 -0.00000000000E+00 -0.00000000000E+00 -0.33183490151E+04  0.33183490151E+04  0.00000000000E+00 0. -1.
        -24    2    1    2    0    0 -0.31536812949E+02  0.71293413301E+01 -0.27255504411E+04  0.27269642913E+04  0.81631127318E+02 0.  0.
         25    2    1    2    0    0 -0.24171819824E+02 -0.13360095123E+00 -0.57059851017E+03  0.58464936079E+03  0.12509164857E+03 0.  0.
         24    2    1    2    0    0  0.55708632773E+02 -0.69957403788E+01  0.15377761154E+03  0.18271303830E+03  0.81142519079E+02 0.  0.
        -13    1    5    5    0    0  0.33719389144E+02 -0.35551080331E+02  0.13152606831E+03  0.14035662849E+03  0.00000000000E+00 0.  1.
         14    1    5    5    0    0  0.21989243629E+02  0.28555339952E+02  0.22251543234E+02  0.42356409804E+02  0.00000000000E+00 0. -1.
         11    1    3    3    0    0 -0.20872036838E+02 -0.23750043549E+02 -0.22794296331E+04  0.22796489113E+04  0.00000000000E+00 0. -1.
        -12    1    3    3    0    0 -0.10664776111E+02  0.30879384879E+02 -0.44612080799E+03  0.44731538000E+03  0.00000000000E+00 0.  1.
          5    1    4    4  501    0  0.37476383931E+02  0.27815326656E+02 -0.36869727485E+03  0.37166291802E+03  0.41800000000E+01 0. -1.
         -5    1    4    4    0  501 -0.61648203755E+02 -0.27948927608E+02 -0.20190123532E+03  0.21298644277E+03  0.41800000000E+01 0. -1.
</event>
<event>
11    1  0.8037748E-009  0.2920816E+03  0.7561462E-02  0.1003599E+00
         22   -1    0    0    0    0  0.00000000000E+00  0.00000000000E+00  0.34119373462E+03  0.34119373462E+03  0.00000000000E+00 0.  1.
         22   -1    0    0    0    0 -0.00000000000E+00 -0.00000000000E+00 -0.70305168907E+03  0.70305168907E+03  0.00000000000E+00 0.  1.
        -24    2    1    2    0    0 -0.25466093624E+03  0.23359037793E+03 -0.41855757136E+03  0.54875185861E+03  0.80755833724E+02 0.  0.
         25    2    1    2    0    0  0.62619294622E+02 -0.17077277587E+03 -0.81928239924E+02  0.23546540388E+03  0.12508878002E+03 0.  0.
         24    2    1    2    0    0  0.19204164162E+03 -0.62817602051E+02  0.13862785684E+03  0.26002816120E+03  0.87011026202E+02 0.  0.
        -13    1    5    5    0    0  0.18016146780E+03 -0.42328919972E+02  0.89679161146E+02  0.20565078140E+03  0.00000000000E+00 0.  1.
         14    1    5    5    0    0  0.11880173815E+02 -0.20488682080E+02  0.48948695697E+02  0.54377379798E+02  0.00000000000E+00 0. -1.
         11    1    3    3    0    0 -0.40084457505E+02  0.18517780949E+02 -0.22398853800E+02  0.49511418847E+02  0.00000000000E+00 0. -1.
        -12    1    3    3    0    0 -0.21457647874E+03  0.21507259698E+03 -0.39615871756E+03  0.49924043977E+03  0.00000000000E+00 0.  1.
          5    1    4    4  501    0  0.37113971285E+02 -0.36682295394E+02 -0.83900120221E+02  0.98892569150E+02  0.41800000000E+01 0.  1.
         -5    1    4    4    0  501  0.25505323336E+02 -0.13409048048E+03  0.19718802973E+01  0.13657283473E+03  0.41800000000E+01 0.  1.
</event>
<event>
11    1  0.8037748E-009  0.1947551E+03  0.7561462E-02  0.1058296E+00
         22   -1    0    0    0    0  0.00000000000E+00  0.00000000000E+00  0.22278701518E+03  0.22278701518E+03  0.00000000000E+00 0.  1.
         22   -1    0    0    0    0 -0.00000000000E+00 -0.00000000000E+00 -0.13117217310E+04  0.13117217310E+04  0.00000000000E+00 0.  1.
        -24    2    1    2    0    0 -0.34541904746E+02 -0.85355203089E+01 -0.78851530542E+03  0.79339132583E+03  0.80295770317E+02 0.  0.
         25    2    1    2    0    0  0.49937052592E+02  0.15615807862E+03 -0.46297504889E+03  0.50682564765E+03  0.12508911415E+03 0.  0.
         24    2    1    2    0    0 -0.15395147845E+02 -0.14762255831E+03  0.16255563850E+03  0.23429177270E+03  0.80242562551E+02 0.  0.
        -11    1    5    5    0    0 -0.33694533303E+02 -0.12515428527E+03  0.15894346859E+03  0.20509008485E+03  0.00000000000E+00 0.  1.
         12    1    5    5    0    0  0.18299385458E+02 -0.22468273043E+02  0.36121699109E+01  0.29201687847E+02  0.00000000000E+00 0. -1.
         11    1    3    3    0    0  0.59669413778E+00  0.33079910536E+02 -0.32897609264E+03  0.33063560917E+03  0.00000000000E+00 0. -1.
        -12    1    3    3    0    0 -0.35138598884E+02 -0.41615430845E+02 -0.45953921278E+03  0.46275571666E+03  0.00000000000E+00 0.  1.
          5    1    4    4  501    0  0.63791257439E+02  0.17209249101E+03 -0.42867196288E+03  0.46632850454E+03  0.41800000000E+01 0. -1.
         -5    1    4    4    0  501 -0.13854204847E+02 -0.15934412388E+02 -0.34303086008E+02  0.40497143106E+02  0.41800000000E+01 0. -1.
</event>
<event>
11    1  0.8037748E-009  0.1344207E+03  0.7561462E-02  0.1113954E+00
         22   -1    0    0    0    0  0.00000000000E+00  0.00000000000E+00  0.15603544161E+03  0.15603544161E+03  0.00000000000E+00 0.  1.
         22   -1    0    0    0    0 -0.00000000000E+00 -0.00000000000E+00 -0.30905272048E+03  0.30905272048E+03  0.00000000000E+00 0. -1.
         24    2    1    2    0    0  0.25833184234E+02 -0.43721699849E+02 -0.22081378646E+03  0.23842119465E+03  0.74209145803E+02 0.  0.
         25    2    1    2    0    0 -0.21460646455E+02  0.28506627633E+02  0.17442639910E+02  0.13126078348E+03  0.12510779523E+03 0.  0.
        -24    2    1    2    0    0 -0.43725377791E+01  0.15215072216E+02  0.50353867681E+02  0.95406183962E+02  0.79474589893E+02 0.  0.
        -13    1    3    3    0    0  0.47340104081E+02 -0.23032683351E+02 -0.90182435005E+02  0.10442442981E+03  0.00000000000E+00 0.  1.
         14    1    3    3    0    0 -0.21506919847E+02 -0.20689016498E+02 -0.13063135146E+03  0.13399676484E+03  0.00000000000E+00 0. -1.
         13    1    5    5    0    0 -0.16802582392E+02 -0.57753948175E+01 -0.16495837005E+02  0.24244475635E+02  0.00000000000E+00 0. -1.
        -14    1    5    5    0    0  0.12430044613E+02  0.20990467034E+02  0.66849704686E+02  0.71161708327E+02  0.00000000000E+00 0.  1.
          5    1    4    4  501    0 -0.13774884900E+02 -0.49429767083E+02  0.34713496156E+01  0.51600116240E+02  0.41800000000E+01 0.  1.
         -5    1    4    4    0  501 -0.76857615554E+01  0.77936394715E+02  0.13971290294E+02  0.79660667236E+02  0.41800000000E+01 0.  1.
</event>
<event>
11    1  0.8037748E-009  0.1464774E+03  0.7561462E-02  0.1100534E+00
         22   -1    0    0    0    0  0.00000000000E+00  0.00000000000E+00  0.20714610745E+03  0.20714610745E+03  0.00000000000E+00 0.  1.
         22   -1    0    0    0    0 -0.00000000000E+00 -0.00000000000E+00 -0.12897250812E+04  0.12897250812E+04  0.00000000000E+00 0. -1.
        -24    2    1    2    0    0  0.41822070118E+02 -0.64359188622E+02 -0.12108588541E+04  0.12161841368E+04  0.83865960117E+02 0.  0.
         25    2    1    2    0    0 -0.37725676863E+02  0.47750497706E+02  0.13120596442E+02  0.13972509304E+03  0.12509042668E+03 0.  0.
         24    2    1    2    0    0 -0.40963932549E+01  0.16608690916E+02  0.11515928391E+03  0.14096195886E+03  0.79473166055E+02 0.  0.
        -11    1    5    5    0    0 -0.20974417041E+02 -0.21930472864E+02  0.18493446311E+02  0.35537014037E+02  0.00000000000E+00 0.  1.
         12    1    5    5    0    0  0.16878023786E+02  0.38539163780E+02  0.96665837596E+02  0.10542494482E+03  0.00000000000E+00 0. -1.
         11    1    3    3    0    0 -0.84493750946E+01  0.98367914687E+01 -0.43056047300E+03  0.43075570260E+03  0.00000000000E+00 0. -1.
        -12    1    3    3    0    0  0.50271445213E+02 -0.74195980090E+02 -0.78029838111E+03  0.78542843419E+03  0.00000000000E+00 0.  1.
          5    1    4    4  501    0  0.32244315586E+02 -0.11576753943E+02 -0.22530030371E+02  0.41216401929E+02  0.41800000000E+01 0. -1.
         -5    1    4    4    0  501 -0.69969992449E+02  0.59327251649E+02  0.35650626813E+02  0.98508691108E+02  0.41800000000E+01 0. -1.
</event>
<event>
11    1  0.8037748E-009  0.1473197E+03  0.7561462E-02  0.1099649E+00
         22   -1    0    0    0    0  0.00000000000E+00  0.00000000000E+00  0.50200374716E+03  0.50200374716E+03  0.00000000000E+00 0. -1.
         22   -1    0    0    0    0 -0.00000000000E+00 -0.00000000000E+00 -0.54864167744E+03  0.54864167744E+03  0.00000000000E+00 0.  1.
        -24    2    1    2    0    0 -0.99326346558E+01 -0.27937674822E+02 -0.33480268602E+03  0.34566975577E+03  0.80719084367E+02 0.  0.
         25    2    1    2    0    0  0.10744221759E+02  0.10485021850E+03 -0.16861142066E+03  0.23491994549E+03  0.12509421645E+03 0.  0.
         24    2    1    2    0    0 -0.81158710363E+00 -0.76912543683E+02  0.45677617639E+03  0.47005572334E+03  0.79948168691E+02 0.  0.
        -11    1    5    5    0    0  0.12968791239E+02 -0.72226800049E+02  0.20289159579E+03  0.21575425798E+03  0.00000000000E+00 0.  1.
         12    1    5    5    0    0 -0.13780378343E+02 -0.46857436332E+01  0.25388458060E+03  0.25430146536E+03  0.00000000000E+00 0. -1.
         13    1    3    3    0    0 -0.16630242699E+02 -0.19477447726E+01 -0.94790043454E+01  0.19240847312E+02  0.00000000000E+00 0. -1.
        -14    1    3    3    0    0  0.66976080429E+01 -0.25989930049E+02 -0.32532368167E+03  0.32642890845E+03  0.00000000000E+00 0.  1.
          5    1    4    4  501    0  0.37137062698E+02  0.49243451653E+02 -0.16136574255E+03  0.17280177726E+03  0.41800000000E+01 0. -1.
         -5    1    4    4    0  501 -0.26392840939E+02  0.55606766852E+02 -0.72456781092E+01  0.62118168226E+02  0.41800000000E+01 0. -1.
</event>
<event>
11    1  0.8037748E-009  0.1994033E+03  0.7561462E-02  0.1054946E+00
         22   -1    0    0    0    0  0.00000000000E+00  0.00000000000E+00  0.17083122210E+04  0.17083122210E+04  0.00000000000E+00 0. -1.
         22   -1    0    0    0    0 -0.00000000000E+00 -0.00000000000E+00 -0.16812039001E+03  0.16812039001E+03  0.00000000000E+00 0. -1.
        -24    2    1    2    0    0  0.22404331378E+02  0.40160923513E+02 -0.10334851151E+03  0.13885566090E+03  0.80530279334E+02 0.  0.
         25    2    1    2    0    0 -0.58443466470E+02  0.11492088583E+03  0.15273070251E+03  0.23579249657E+03  0.12509590390E+03 0.  0.
         24    2    1    2    0    0  0.36039135092E+02 -0.15508180934E+03  0.14908096400E+04  0.15017844535E+04  0.86567750197E+02 0.  0.
        -13    1    5    5    0    0  0.37797452976E+02 -0.35536495697E+02  0.70790606354E+03  0.70980453984E+03  0.00000000000E+00 0.  1.
         14    1    5    5    0    0 -0.17583178839E+01 -0.11954531365E+03  0.78290357641E+03  0.79197991367E+03  0.00000000000E+00 0. -1.
         13    1    3    3    0    0  0.42891432144E+02  0.36569488961E+02 -0.10372770020E+03  0.11805269274E+03  0.00000000000E+00 0. -1.
        -14    1    3    3    0    0 -0.20487100767E+02  0.35914345517E+01  0.37918869232E+00  0.20802968154E+02  0.00000000000E+00 0.  1.
          5    1    4    4  501    0  0.33986997138E+02  0.14367998688E+02  0.60316335758E+02  0.70831406311E+02  0.41800000000E+01 0. -1.
         -5    1    4    4    0  501 -0.92430463608E+02  0.10055288714E+03  0.92414366755E+02  0.16496109025E+03  0.41800000000E+01 0. -1.
</event>
<event>
11    1  0.8037748E-009  0.1307010E+03  0.7561462E-02  0.1118411E+00
         22   -1    0    0    0    0  0.00000000000E+00  0.00000000000E+00  0.18757409996E+03  0.18757409996E+03  0.00000000000E+00 0. -1.
         22   -1    0    0    0    0 -0.00000000000E+00 -0.00000000000E+00 -0.86208751107E+03  0.86208751107E+03  0.00000000000E+00 0.  1.
        -24    2    1    2    0    0 -0.32073988412E+02 -0.24416716133E+02 -0.77664653061E+03  0.78456410755E+03  0.10361509824E+03 0.  0.
         25    2    1    2    0    0  0.88266395449E+01 -0.11365623724E+02 -0.33959428664E+01  0.12596138952E+03  0.12509057619E+03 0.  0.
         24    2    1    2    0    0  0.23247348867E+02  0.35782339856E+02  0.10552906237E+03  0.13913611396E+03  0.80010375120E+02 0.  0.
        -11    1    5    5    0    0 -0.51582157053E+01 -0.28043846061E+01 -0.11371119638E+02  0.12797426464E+02  0.00000000000E+00 0.  1.
         12    1    5    5    0    0  0.28405564572E+02  0.38586724462E+02  0.11690018201E+03  0.12633868749E+03  0.00000000000E+00 0. -1.
         13    1    3    3    0    0  0.96074530673E+01 -0.10097827018E+02 -0.11282504523E+02  0.17932210495E+02  0.00000000000E+00 0. -1.
        -14    1    3    3    0    0 -0.41681441479E+02 -0.14318889115E+02 -0.76536402609E+03  0.76663189706E+03  0.00000000000E+00 0.  1.
          5    1    4    4  501    0  0.99118915354E+01  0.12818193195E+02  0.57717916330E+02  0.60094774615E+02  0.41800000000E+01 0. -1.
         -5    1    4    4    0  501 -0.10852519904E+01 -0.24183816918E+02 -0.61113859196E+02  0.65866614901E+02  0.41800000000E+01 0. -1.
</event>
<event>
11    1  0.8037748E-009  0.1342478E+03  0.7561462E-02  0.1114157E+00
         22   -1    0    0    0    0  0.00000000000E+00  0.00000000000E+00  0.47390924396E+03  0.47390924396E+03  0.00000000000E+00 0. -1.
         22   -1    0    0    0    0 -0.00000000000E+00 -0.00000000000E+00 -0.21925876601E+04  0.21925876601E+04  0.00000000000E+00 0.  1.
        -24    2    1    2    0    0 -0.41623729484E+01  0.13128952288E+02 -0.21164587397E+04  0.21180355739E+04  0.80544404027E+02 0.  0.
         25    2    1    2    0    0  0.21370368471E+02  0.33358623201E+02 -0.76314968558E+01  0.13143404904E+03  0.12508868498E+03 0.  0.
         24    2    1    2    0    0 -0.17207995522E+02 -0.46487575489E+02  0.40541182042E+03  0.41702728105E+03  0.84236566992E+02 0.  0.
        -13    1    5    5    0    0 -0.18595508343E+02 -0.45728135630E+02  0.99128268649E+02  0.11073964495E+03  0.00000000000E+00 0.  1.
         14    1    5    5    0    0  0.13875128213E+01 -0.75943985908E+00  0.30628355177E+03  0.30628763610E+03  0.00000000000E+00 0. -1.
         11    1    3    3    0    0  0.27006583656E+02  0.19545613665E+02 -0.43494716526E+03  0.43622290534E+03  0.00000000000E+00 0. -1.
        -12    1    3    3    0    0 -0.31168956604E+02 -0.64166613765E+01 -0.16815115744E+04  0.16818126686E+04  0.00000000000E+00 0.  1.
          5    1    4    4  501    0  0.62200325780E+02  0.16186246159E+02  0.31938949616E+02  0.71891891020E+02  0.41800000000E+01 0.  1.
         -5    1    4    4    0  501 -0.40829957310E+02  0.17172377042E+02 -0.39570446472E+02  0.59542158016E+02  0.41800000000E+01 0.  1.
</event>
<event>
11    1  0.8037748E-009  0.1372768E+03  0.7561462E-02  0.1110638E+00
         22   -1    0    0    0    0  0.00000000000E+00  0.00000000000E+00  0.42923340991E+03  0.42923340991E+03  0.00000000000E+00 0. -1.
         22   -1    0    0    0    0 -0.00000000000E+00 -0.00000000000E+00 -0.24137879491E+04  0.24137879491E+04  0.00000000000E+00 0.  1.
        -24    2    1    2    0    0  0.54101816401E+01 -0.41427513168E+01 -0.23320902813E+04  0.23335569990E+04  0.82442435047E+02 0.  0.
         25    2    1    2    0    0  0.39548254422E+02  0.38663661089E+02 -0.11531416121E+02  0.13725829913E+03  0.12509166242E+03 0.  0.
         24    2    1    2    0    0 -0.44958436063E+02 -0.34520909772E+02  0.35906715821E+03  0.37220606087E+03  0.79969828416E+02 0.  0.
        -13    1    5    5    0    0 -0.42282843716E+02 -0.35826323061E+02  0.11047879965E+03  0.12359987649E+03  0.00000000000E+00 0.  1.
         14    1    5    5    0    0 -0.26755923470E+01  0.13054132885E+01  0.24858835856E+03  0.24860618438E+03  0.00000000000E+00 0. -1.
         13    1    3    3    0    0 -0.25765631874E+02 -0.28125045705E+02 -0.15592443081E+04  0.15597107739E+04  0.00000000000E+00 0. -1.
        -14    1    3    3    0    0  0.31175813514E+02  0.23982294388E+02 -0.77284597327E+03  0.77384622516E+03  0.00000000000E+00 0.  1.
          5    1    4    4  501    0  0.38206755884E+01  0.55702365000E+01 -0.64613558002E+02  0.65099995194E+02  0.41800000000E+01 0. -1.
         -5    1    4    4    0  501  0.35727578834E+02  0.33093424589E+02  0.53082141881E+02  0.72158303937E+02  0.41800000000E+01 0. -1.
</event>
<event>
11    1  0.8037748E-009  0.2305005E+03  0.7561462E-02  0.1034832E+00
         22   -1    0    0    0    0  0.00000000000E+00  0.00000000000E+00  0.37462277245E+03  0.37462277245E+03  0.00000000000E+00 0.  1.
         22   -1    0    0    0    0 -0.00000000000E+00 -0.00000000000E+00 -0.98797211297E+03  0.98797211297E+03  0.00000000000E+00 0. -1.
        -24    2    1    2    0    0 -0.11497388200E+03 -0.29334490735E+02 -0.76761612576E+03  0.78114891446E+03  0.82943379136E+02 0.  0.
         25    2    1    2    0    0  0.28546308716E+03  0.48635665488E+02 -0.30309808841E+02  0.31688971510E+03  0.12508319207E+03 0.  0.
         24    2    1    2    0    0 -0.17048920516E+03 -0.19301174754E+02  0.18457659408E+03  0.26455625586E+03  0.80513284654E+02 0.  0.
        -11    1    5    5    0    0 -0.16417160543E+03 -0.39086311201E+02  0.16438488237E+03  0.23558956960E+03  0.00000000000E+00 0.  1.
         12    1    5    5    0    0 -0.63175997275E+01  0.19785136448E+02  0.20191711717E+02  0.28966686256E+02  0.00000000000E+00 0. -1.
         13    1    3    3    0    0 -0.33085942095E+02 -0.21838419783E+02 -0.49024679338E+03  0.49184704386E+03  0.00000000000E+00 0. -1.
        -14    1    3    3    0    0 -0.81887939903E+02 -0.74960709519E+01 -0.27736933239E+03  0.28930187060E+03  0.00000000000E+00 0.  1.
          5    1    4    4  501    0  0.24864530328E+03  0.37966768894E+02 -0.70438620455E+02  0.26123750503E+03  0.41800000000E+01 0.  1.
         -5    1    4    4    0  501  0.36817783875E+02  0.10668896594E+02  0.40128811614E+02  0.55652210070E+02  0.41800000000E+01 0.  1.
</event>
<event>
11    1  0.8037748E-009  0.1700211E+03  0.7561462E-02  0.1078013E+00
         22   -1    0    0    0    0  0.00000000000E+00  0.00000000000E+00  0.41168478207E+03  0.41168478207E+03  0.00000000000E+00 0. -1.
         22   -1    0    0    0    0 -0.00000000000E+00 -0.00000000000E+00 -0.72091219627E+03  0.72091219627E+03  0.00000000000E+00 0.  1.
        -24    2    1    2    0    0  0.46107500508E+02 -0.65146847130E+02 -0.54141661172E+03  0.55321160889E+03  0.80877212327E+02 0.  0.
         25    2    1    2    0    0 -0.42311910489E+02  0.17502763064E+03 -0.84205584541E+02  0.23486442791E+03  0.12508297155E+03 0.  0.
         24    2    1    2    0    0 -0.37955900192E+01 -0.10988078351E+03  0.31639478206E+03  0.34452094154E+03  0.80627712105E+02 0.  0.
        -11    1    5    5    0    0 -0.29687250814E+02 -0.65848136206E+02  0.10779317564E+03  0.12975622766E+03  0.00000000000E+00 0.  1.
         12    1    5    5    0    0  0.25891660795E+02 -0.44032647301E+02  0.20860160642E+03  0.21476471388E+03  0.00000000000E+00 0. -1.
         11    1    3    3    0    0  0.50308046047E+01 -0.12357176195E+02 -0.78732593404E+01  0.15491836919E+02  0.00000000000E+00 0. -1.
        -12    1    3    3    0    0  0.41076695903E+02 -0.52789670936E+02 -0.53354335238E+03  0.53771977197E+03  0.00000000000E+00 0.  1.
          5    1    4    4  501    0 -0.53090844301E+02  0.13577259159E+03 -0.11327696380E+03  0.18466720690E+03  0.41800000000E+01 0. -1.
         -5    1    4    4    0  501  0.10778933812E+02  0.39255039048E+02  0.29071379261E+02  0.50197221008E+02  0.41800000000E+01 0. -1.
</event>
<event>
11    1  0.8037748E-009  0.1489602E+03  0.7561462E-02  0.1097946E+00
         22   -1    0    0    0    0  0.00000000000E+00  0.00000000000E+00  0.74720899506E+03  0.74720899506E+03  0.00000000000E+00 0. -1.
         22   -1    0    0    0    0 -0.00000000000E+00 -0.00000000000E+00 -0.19222371300E+04  0.19222371300E+04  0.00000000000E+00 0. -1.
        -24    2    1    2    0    0 -0.29740863645E+02 -0.75881130511E+02 -0.18337956085E+04  0.18373754569E+04  0.80621157350E+02 0.  0.
         25    2    1    2    0    0  0.33233725661E+02  0.52246622633E+02 -0.26171111971E+02  0.14200911552E+03  0.12508985447E+03 0.  0.
         24    2    1    2    0    0 -0.34928620156E+01  0.23634507878E+02  0.68493858556E+03  0.69006155259E+03  0.80456760619E+02 0.  0.
        -13    1    5    5    0    0 -0.18884626833E+02  0.16152006379E+02  0.60717160422E+02  0.65605563868E+02  0.00000000000E+00 0.  1.
         14    1    5    5    0    0  0.15391764817E+02  0.74825014998E+01  0.62422142513E+03  0.62445598872E+03  0.00000000000E+00 0. -1.
         13    1    3    3    0    0 -0.31931643434E+02 -0.71631558940E+02 -0.18287263172E+04  0.18304072370E+04  0.00000000000E+00 0. -1.
        -14    1    3    3    0    0  0.21907797893E+01 -0.42495715709E+01 -0.50692913483E+01  0.69682199589E+01  0.00000000000E+00 0.  1.
          5    1    4    4  501    0  0.19753449644E+02  0.66666362733E+02 -0.66885097904E+02  0.96569619521E+02  0.41800000000E+01 0. -1.
         -5    1    4    4    0  501  0.13480276017E+02 -0.14419740100E+02  0.40713985933E+02  0.45439495998E+02  0.41800000000E+01 0. -1.
</event>
<event>
11    1  0.8037748E-009  0.1676689E+03  0.7561462E-02  0.1080078E+00
         22   -1    0    0    0    0  0.00000000000E+00  0.00000000000E+00  0.47414122775E+03  0.47414122775E+03  0.00000000000E+00 0. -1.
         22   -1    0    0    0    0 -0.00000000000E+00 -0.00000000000E+00 -0.52886358203E+03  0.52886358203E+03  0.00000000000E+00 0.  1.
        -24    2    1    2    0    0 -0.10432760913E+03 -0.22235728832E+02 -0.39104137551E+03  0.41134497356E+03  0.70090314950E+02 0.  0.
         25    2    1    2    0    0  0.15734157961E+03 -0.97429509721E+01 -0.37197660430E+02  0.20465072113E+03  0.12508778497E+03 0.  0.
         24    2    1    2    0    0 -0.53013970476E+02  0.31978679804E+02  0.37351668167E+03  0.38700911509E+03  0.80176222499E+02 0.  0.
        -11    1    5    5    0    0  0.18489528537E+02 -0.20410511799E+01  0.38454100538E+02  0.42717050502E+02  0.00000000000E+00 0.  1.
         12    1    5    5    0    0 -0.71503499013E+02  0.34019730984E+02  0.33506258113E+03  0.34429206459E+03  0.00000000000E+00 0. -1.
         11    1    3    3    0    0 -0.23386488039E+02 -0.35696941179E+02 -0.95044166606E+02  0.10418537824E+03  0.00000000000E+00 0. -1.
        -12    1    3    3    0    0 -0.80941121093E+02  0.13461212348E+02 -0.29599720890E+03  0.30715959532E+03  0.00000000000E+00 0.  1.
          5    1    4    4  501    0  0.10019047553E+03 -0.19270493460E+02  0.38590021954E+02  0.10916109884E+03  0.41800000000E+01 0. -1.
         -5    1    4    4    0  501  0.57151104074E+02  0.95275424881E+01 -0.75787682384E+02  0.95489622283E+02  0.41800000000E+01 0. -1.
</event>
<event>
11    1  0.8037748E-009  0.1638742E+03  0.7561462E-02  0.1083489E+00
         22   -1    0    0    0    0  0.00000000000E+00  0.00000000000E+00  0.46392661948E+03  0.46392661948E+03  0.00000000000E+00 0. -1.
         22   -1    0    0    0    0 -0.00000000000E+00 -0.00000000000E+00 -0.94659002012E+02  0.94659002012E+02  0.00000000000E+00 0. -1.
         24    2    1    2    0    0 -0.40631220825E+02 -0.62297533624E+01  0.44738224499E+02  0.10155933391E+03  0.81382330029E+02 0.  0.
         25    2    1    2    0    0  0.12730712281E+03 -0.36059067431E+02  0.12398948285E+03  0.22029104080E+03  0.12508953168E+03 0.  0.
        -24    2    1    2    0    0 -0.86675901984E+02  0.42288820794E+02  0.20053991011E+03  0.23673524678E+03  0.80785302933E+02 0.  0.
        -13    1    3    3    0    0 -0.51658488271E+02  0.25362335564E+02  0.25327328533E+02  0.62875440725E+02  0.00000000000E+00 0.  1.
         14    1    3    3    0    0  0.11027267446E+02 -0.31592088926E+02  0.19410895967E+02  0.38683893189E+02  0.00000000000E+00 0. -1.
         11    1    5    5    0    0 -0.83267499026E+02  0.36806368302E+00  0.12323641341E+03  0.14873071457E+03  0.00000000000E+00 0. -1.
        -12    1    5    5    0    0 -0.34084029581E+01  0.41920757111E+02  0.77303496703E+02  0.88004532213E+02  0.00000000000E+00 0.  1.
          5    1    4    4  501    0 -0.17734867121E+02 -0.30690782392E+02  0.14905460128E+02  0.38679384396E+02  0.41800000000E+01 0.  1.
         -5    1    4    4    0  501  0.14504198993E+03 -0.53682850391E+01  0.10908402273E+03  0.18161165640E+03  0.41800000000E+01 0.  1.
</event>
<event>
11    1  0.8037748E-009  0.1444809E+03  0.7561462E-02  0.1102655E+00
         22   -1    0    0    0    0  0.00000000000E+00  0.00000000000E+00  0.41126462386E+03  0.41126462386E+03  0.00000000000E+00 0.  1.
         22   -1    0    0    0    0 -0.00000000000E+00 -0.00000000000E+00 -0.39038402360E+03  0.39038402360E+03  0.00000000000E+00 0. -1.
        -24    2    1    2    0    0  0.62701331466E+01  0.43417832171E+02 -0.32260825208E+03  0.33549741295E+03  0.80981522982E+02 0.  0.
         25    2    1    2    0    0  0.21805948434E+02  0.31194939471E+02  0.33654220788E+02  0.13501446473E+03  0.12509066902E+03 0.  0.
         24    2    1    2    0    0 -0.28076081581E+02 -0.74612771641E+02  0.30983463154E+03  0.33113676978E+03  0.85432601204E+02 0.  0.
        -13    1    5    5    0    0 -0.16611675250E+02 -0.15043097540E+02  0.22888411156E+03  0.22997864914E+03  0.00000000000E+00 0.  1.
         14    1    5    5    0    0 -0.11464406331E+02 -0.59569674102E+02  0.80950519988E+02  0.10115812064E+03  0.00000000000E+00 0. -1.
         11    1    3    3    0    0  0.12090613836E+02 -0.37343461551E+01 -0.23898831357E+03  0.23932309188E+03  0.00000000000E+00 0. -1.
        -12    1    3    3    0    0 -0.58204806897E+01  0.47152178326E+02 -0.83619938507E+02  0.96174321065E+02  0.00000000000E+00 0.  1.
          5    1    4    4  501    0 -0.20476146760E+02 -0.21609160824E+02 -0.29685874371E+02  0.42248691753E+02  0.41800000000E+01 0.  1.
         -5    1    4    4    0  501  0.42282095194E+02  0.52804100295E+02  0.63340095159E+02  0.92765772981E+02  0.41800000000E+01 0.  1.
</event>
<event>
11    1  0.8037748E-009  0.1410603E+03  0.7561462E-02  0.1106380E+00
         22   -1    0    0    0    0  0.00000000000E+00  0.00000000000E+00  0.99286247094E+03  0.99286247094E+03  0.00000000000E+00 0.  1.
         22   -1    0    0    0    0 -0.00000000000E+00 -0.00000000000E+00 -0.64653020237E+03  0.64653020237E+03  0.00000000000E+00 0. -1.
        -24    2    1    2    0    0  0.25894048302E+01  0.64592378010E+02 -0.58494253852E+03  0.59424773042E+03  0.82423973578E+02 0.  0.
         25    2    1    2    0    0 -0.16433097618E+02 -0.76263968995E+02  0.43800934481E+02  0.15379268477E+03  0.12508968129E+03 0.  0.
         24    2    1    2    0    0  0.13843692788E+02  0.11671590985E+02  0.88747387261E+03  0.89135225812E+03  0.81062319314E+02 0.  0.
        -13    1    5    5    0    0  0.42054489273E+02  0.77118724761E+01  0.73483562141E+03  0.73607842214E+03  0.00000000000E+00 0.  1.
         14    1    5    5    0    0 -0.28210796485E+02  0.39597185090E+01  0.15263825120E+03  0.15527383598E+03  0.00000000000E+00 0. -1.
         11    1    3    3    0    0  0.17820127467E+02  0.16277725217E+02 -0.44083915385E+03  0.44149935543E+03  0.00000000000E+00 0. -1.
        -12    1    3    3    0    0 -0.15230722637E+02  0.48314652794E+02 -0.14410338468E+03  0.15274837499E+03  0.00000000000E+00 0.  1.
          5    1    4    4  501    0  0.50173518798E+02 -0.23500747411E+02 -0.48763348053E+01  0.55775605408E+02  0.41800000000E+01 0. -1.
         -5    1    4    4    0  501 -0.66606616417E+02 -0.52763221584E+02  0.48677269286E+02  0.98017079367E+02  0.41800000000E+01 0. -1.
</event>
<event>
11    1  0.8037748E-009  0.1323044E+03  0.7561462E-02  0.1116470E+00
         22   -1    0    0    0    0  0.00000000000E+00  0.00000000000E+00  0.17295364135E+04  0.17295364135E+04  0.00000000000E+00 0. -1.
         22   -1    0    0    0    0 -0.00000000000E+00 -0.00000000000E+00 -0.55422329813E+02  0.55422329813E+02  0.00000000000E+00 0.  1.
        -24    2    1    2    0    0 -0.54066612208E+02  0.30583563639E+02  0.36739578068E+02  0.11203596581E+03  0.85695438139E+02 0.  0.
         25    2    1    2    0    0  0.60128766437E+02  0.14297514676E+02  0.29519033289E+03  0.32650390075E+03  0.12509027577E+03 0.  0.
         24    2    1    2    0    0 -0.60621542290E+01 -0.44881078316E+02  0.13421841728E+04  0.13464188768E+04  0.96614580968E+02 0.  0.
        -11    1    5    5    0    0  0.69332591131E+01 -0.29550331774E+02  0.11112706906E+03  0.11519773291E+03  0.00000000000E+00 0.  1.
         12    1    5    5    0    0 -0.12995413342E+02 -0.15330746542E+02  0.12310571037E+04  0.12312211439E+04  0.00000000000E+00 0. -1.
         11    1    3    3    0    0 -0.14914380053E+02  0.12802088828E+02  0.60006766548E+02  0.63143837722E+02  0.00000000000E+00 0. -1.
        -12    1    3    3    0    0 -0.39152232154E+02  0.17781474811E+02 -0.23267188481E+02  0.48892128087E+02  0.00000000000E+00 0.  1.
          5    1    4    4  501    0  0.98298688814E+02 -0.38464851916E+00  0.20518172796E+03  0.22755173931E+03  0.41800000000E+01 0. -1.
         -5    1    4    4    0  501 -0.38169922377E+02  0.14682163196E+02  0.90008604931E+02  0.98952161432E+02  0.41800000000E+01 0. -1.
</event>
<event>
11    1  0.8037748E-009  0.1345828E+03  0.7561462E-02  0.1113763E+00
         22   -1    0    0    0    0  0.00000000000E+00  0.00000000000E+00  0.29010181529E+03  0.29010181529E+03  0.00000000000E+00 0. -1.
         22   -1    0    0    0    0 -0.00000000000E+00 -0.00000000000E+00 -0.83693935804E+03  0.83693935804E+03  0.00000000000E+00 0.  1.
         24    2    1    2    0    0  0.37358199569E+02  0.34574281084E+02 -0.77576255784E+03  0.78152420413E+03  0.79884413397E+02 0.  0.
         25    2    1    2    0    0  0.11451830660E+02 -0.27927399085E+02  0.40173713089E+02  0.13481453635E+03  0.12509975197E+03 0.  0.
        -24    2    1    2    0    0 -0.48810030230E+02 -0.66468819990E+01  0.18875130199E+03  0.21070243285E+03  0.79635802955E+02 0.  0.
        -11    1    3    3    0    0  0.21323902575E+02  0.60162837977E+02 -0.48038371396E+03  0.48460580736E+03  0.00000000000E+00 0.  1.
         12    1    3    3    0    0  0.16034296994E+02 -0.25588556893E+02 -0.29537884388E+03  0.29691839676E+03  0.00000000000E+00 0. -1.
         11    1    5    5    0    0 -0.19788468767E+02 -0.40496272395E+00  0.17805077650E+03  0.17914749929E+03  0.00000000000E+00 0. -1.
        -12    1    5    5    0    0 -0.29021561462E+02 -0.62419192751E+01  0.10700525499E+02  0.31554933559E+02  0.00000000000E+00 0.  1.
          5    1    4    4  501    0  0.20102597404E+01 -0.25915381227E+02  0.84889356899E+02  0.88878138162E+02  0.41800000000E+01 0. -1.
         -5    1    4    4    0  501  0.94415709201E+01 -0.20120178578E+01 -0.44715643810E+02  0.45936398190E+02  0.41800000000E+01 0. -1.
</event>
<event>
11    1  0.8037748E-009  0.1381163E+03  0.7561462E-02  0.1109680E+00
         22   -1    0    0    0    0  0.00000000000E+00  0.00000000000E+00  0.20385355037E+03  0.20385355037E+03  0.00000000000E+00 0. -1.
         22   -1    0    0    0    0 -0.00000000000E+00 -0.00000000000E+00 -0.44024268224E+03  0.44024268224E+03  0.00000000000E+00 0.  1.
         24    2    1    2    0    0 -0.16293051628E+02  0.52246724478E+02 -0.25639280751E+03  0.27419243297E+03  0.80305882776E+02 0.  0.
         25    2    1    2    0    0  0.68532480827E+02 -0.51708484849E+02 -0.12419552196E+03  0.19606537848E+03  0.12508651659E+03 0.  0.
        -24    2    1    2    0    0 -0.52239429198E+02 -0.53823962837E+00  0.14419919759E+03  0.17383842116E+03  0.81836058188E+02 0.  0.
        -13    1    3    3    0    0  0.23097336657E+02  0.44999639386E+02 -0.91967038154E+02  0.10495899491E+03  0.00000000000E+00 0.  1.
         14    1    3    3    0    0 -0.39390388285E+02  0.72470850918E+01 -0.16442576935E+03  0.16923343806E+03  0.00000000000E+00 0. -1.
         13    1    5    5    0    0 -0.52225233180E+02 -0.27103712756E+02  0.13217174004E+03  0.14467707175E+03  0.00000000000E+00 0. -1.
        -14    1    5    5    0    0 -0.14196018511E-01  0.26565473128E+02  0.12027457555E+02  0.29161349407E+02  0.00000000000E+00 0.  1.
          5    1    4    4  501    0  0.65409715280E+02 -0.44615804682E+02 -0.14952671294E+03  0.16924748495E+03  0.41800000000E+01 0. -1.
         -5    1    4    4    0  501  0.31227655465E+01 -0.70926801673E+01  0.25331190984E+02  0.26817893528E+02  0.41800000000E+01 0. -1.
</event>
<event>
11    1  0.8037748E-009  0.1709231E+03  0.7561462E-02  0.1077231E+00
         22   -1    0    0    0    0  0.00000000000E+00  0.00000000000E+00  0.75431310143E+03  0.75431310143E+03  0.00000000000E+00 0. -1.
         22   -1    0    0    0    0 -0.00000000000E+00 -0.00000000000E+00 -0.93285532938E+03  0.93285532938E+03  0.00000000000E+00 0.  1.
         24    2    1    2    0    0  0.45195391167E+02  0.10511400891E+03 -0.85173449402E+03  0.86309700494E+03  0.79957572415E+02 0.  0.
         25    2    1    2    0    0 -0.12429998965E+03 -0.14981999272E+03  0.12577834003E+03  0.26336992513E+03  0.12508800500E+03 0.  0.
        -24    2    1    2    0    0  0.79104598487E+02  0.44705983818E+02  0.54741392604E+03  0.56070150074E+03  0.80423902020E+02 0.  0.
        -13    1    3    3    0    0  0.40140784365E+02  0.33331815513E+02 -0.17682388226E+03  0.18436099867E+03  0.00000000000E+00 0.  1.
         14    1    3    3    0    0  0.50546068021E+01  0.71782193393E+02 -0.67491061176E+03  0.67873600627E+03  0.00000000000E+00 0. -1.
         11    1    5    5    0    0  0.46386818400E+02  0.63969646082E+02  0.43304172143E+03  0.44019198657E+03  0.00000000000E+00 0. -1.
        -12    1    5    5    0    0  0.32717780086E+02 -0.19263662265E+02  0.11437220461E+03  0.12050951417E+03  0.00000000000E+00 0.  1.
          5    1    4    4  501    0 -0.40782738966E+02 -0.14116241804E+03  0.86742308527E+02  0.17068028753E+03  0.41800000000E+01 0.  1.
         -5    1    4    4    0  501 -0.83517250688E+02 -0.86575746851E+01  0.39036031501E+02  0.92689637594E+02  0.41800000000E+01 0.  1.
</event>
<event>
11    1  0.8037748E-009  0.1402936E+03  0.7561462E-02  0.1107231E+00
         22   -1    0    0    0    0  0.00000000000E+00  0.00000000000E+00  0.39414556895E+03  0.39414556895E+03  0.00000000000E+00 0. -1.
         22   -1    0    0    0    0 -0.00000000000E+00 -0.00000000000E+00 -0.11528860587E+04  0.11528860587E+04  0.00000000000E+00 0. -1.
        -24    2    1    2    0    0  0.85649140138E+01  0.63702713478E+02 -0.10497904018E+04  0.10547950997E+04  0.80008881774E+02 0.  0.
         25    2    1    2    0    0  0.27832333308E+02 -0.52166478441E+02 -0.45890173912E+02  0.14577160401E+03  0.12508985660E+03 0.  0.
         24    2    1    2    0    0 -0.36397247322E+02 -0.11536235037E+02  0.33694008596E+03  0.34646492396E+03  0.71073748142E+02 0.  0.
        -13    1    5    5    0    0 -0.39997034832E+02  0.19755511456E+02  0.13757217427E+03  0.14462415483E+03  0.00000000000E+00 0.  1.
         14    1    5    5    0    0  0.35997875096E+01 -0.31291746493E+02  0.19936791169E+03  0.20184076912E+03  0.00000000000E+00 0. -1.
         13    1    3    3    0    0  0.27780285740E+02  0.61344905579E+02 -0.98167204713E+03  0.98397914096E+03  0.00000000000E+00 0. -1.
        -14    1    3    3    0    0 -0.19215371727E+02  0.23578078990E+01 -0.68118354648E+02  0.70815958714E+02  0.00000000000E+00 0.  1.
          5    1    4    4  501    0 -0.39308992687E+02  0.38997794911E+01  0.11154183210E+02  0.41258858312E+02  0.41800000000E+01 0.  1.
         -5    1    4    4    0  501  0.67141325995E+02 -0.56066257932E+02 -0.57044357122E+02  0.10451274570E+03  0.41800000000E+01 0.  1.
</event>
<event>
11    1  0.8037748E-009  0.1456123E+03  0.7561462E-02  0.1101448E+00
         22   -1    0    0    0    0  0.00000000000E+00  0.00000000000E+00  0.12562191580E+04  0.12562191580E+04  0.00000000000E+00 0.  1.
         22   -1    0    0    0    0 -0.00000000000E+00 -0.00000000000E+00 -0.65364562579E+03  0.65364562579E+03  0.00000000000E+00 0.  1.
        -24    2    1    2    0    0  0.14747889587E+02 -0.43309384694E+02 -0.62724336415E+03  0.63384459920E+03  0.78940072299E+02 0.  0.
         25    2    1    2    0    0  0.41972343524E+02 -0.13065490987E+02  0.19961129716E+03  0.23963362776E+03  0.12508885212E+03 0.  0.
         24    2    1    2    0    0 -0.56720233111E+02  0.56374875681E+02  0.10302055992E+04  0.10363865568E+04  0.79863677999E+02 0.  0.
        -13    1    5    5    0    0  0.21188423509E+01  0.51731858318E+01  0.53883342548E+03  0.53886242378E+03  0.00000000000E+00 0.  1.
         14    1    5    5    0    0 -0.58839075462E+02  0.51201689849E+02  0.49137217370E+03  0.49752413301E+03  0.00000000000E+00 0. -1.
         11    1    3    3    0    0 -0.14241218482E+02 -0.27656278572E+02 -0.83536310723E+02  0.89140323409E+02  0.00000000000E+00 0. -1.
        -12    1    3    3    0    0  0.28989108069E+02 -0.15653106121E+02 -0.54370705343E+03  0.54470427579E+03  0.00000000000E+00 0.  1.
          5    1    4    4  501    0  0.74335674354E+02  0.10125252681E+02  0.65516571752E+02  0.99690555208E+02  0.41800000000E+01 0.  1.
         -5    1    4    4    0  501 -0.32363330829E+02 -0.23190743668E+02  0.13409472541E+03  0.13994307256E+03  0.41800000000E+01 0.  1.
</event>
<event>
11    1  0.8037748E-009  0.1466460E+03  0.7561462E-02  0.1100356E+00
         22   -1    0    0    0    0  0.00000000000E+00  0.00000000000E+00  0.13831953311E+04  0.13831953311E+04  0.00000000000E+00 0.  1.
         22   -1    0    0    0    0 -0.00000000000E+00 -0.00000000000E+00 -0.10673008522E+04  0.10673008522E+04  0.00000000000E+00 0. -1.
         24    2    1    2    0    0  0.14751348521E+02 -0.74720029099E+02 -0.10435686147E+04  0.10493112847E+04  0.78854508253E+02 0.  0.
         25    2    1    2    0    0 -0.34037356913E+02  0.13785159737E+03  0.48862749899E+03  0.52399068729E+03  0.12509117888E+03 0.  0.
        -24    2    1    2    0    0  0.19286008393E+02 -0.63131568272E+02  0.87083559462E+03  0.87719421131E+03  0.82204053806E+02 0.  0.
        -13    1    3    3    0    0  0.33446708203E+02 -0.92242779453E+00 -0.30545770164E+03  0.30728478754E+03  0.00000000000E+00 0.  1.
         14    1    3    3    0    0 -0.18695359682E+02 -0.73797601304E+02 -0.73811091311E+03  0.74202649716E+03  0.00000000000E+00 0. -1.
         11    1    5    5    0    0 -0.31473810312E+02 -0.26561103694E+02  0.42496233356E+03  0.42695325027E+03  0.00000000000E+00 0. -1.
        -12    1    5    5    0    0  0.50759818705E+02 -0.36570464579E+02  0.44587326106E+03  0.45024096105E+03  0.00000000000E+00 0.  1.
          5    1    4    4  501    0  0.21572779911E+02  0.98895414156E+02  0.39789341847E+03  0.41058778920E+03  0.41800000000E+01 0. -1.
         -5    1    4    4    0  501 -0.55610136825E+02  0.38956183215E+02  0.90734080519E+02  0.11340289809E+03  0.41800000000E+01 0. -1.
</event>
<event>
11    1  0.8037748E-009  0.2373402E+03  0.7561462E-02  0.1030868E+00
         22   -1    0    0    0    0  0.00000000000E+00  0.00000000000E+00  0.80435961691E+03  0.80435961691E+03  0.00000000000E+00 0. -1.
         22   -1    0    0    0    0 -0.00000000000E+00 -0.00000000000E+00 -0.12607855977E+04  0.12607855977E+04  0.00000000000E+00 0. -1.
         24    2    1    2    0    0 -0.58325037718E+02 -0.15884616069E+02 -0.11648468278E+04  0.11692002634E+04  0.80665932324E+02 0.  0.
         25    2    1    2    0    0  0.22660841951E+03  0.10253115954E+03  0.18744124435E+03  0.33562692606E+03  0.12508876425E+03 0.  0.
        -24    2    1    2    0    0 -0.16828338179E+03 -0.86646543469E+02  0.52097960273E+03  0.56031802510E+03  0.81912286683E+02 0.  0.
        -13    1    3    3    0    0 -0.11674577284E+02  0.10871633844E+02 -0.39931252630E+02  0.42999919928E+02  0.00000000000E+00 0.  1.
         14    1    3    3    0    0 -0.46650460434E+02 -0.26756249913E+02 -0.11249155752E+04  0.11262003435E+04  0.00000000000E+00 0. -1.
         11    1    5    5    0    0 -0.12686193653E+03 -0.88409092816E+02  0.46897872370E+03  0.49381288148E+03  0.00000000000E+00 0. -1.
        -12    1    5    5    0    0 -0.41421445266E+02  0.17625493473E+01  0.52000879026E+02  0.66505143618E+02  0.00000000000E+00 0.  1.
          5    1    4    4  501    0  0.69643562944E+02 -0.13616395807E+02  0.10066152830E+02  0.71794372530E+02  0.41800000000E+01 0.  1.
         -5    1    4    4    0  501  0.15696485657E+03  0.11614755534E+03  0.17737509152E+03  0.26383255353E+03  0.41800000000E+01 0.  1.
</event>
<event>
11    1  0.8037748E-009  0.1456364E+03  0.7561462E-02  0.1101423E+00
         22   -1    0    0    0    0  0.00000000000E+00  0.00000000000E+00  0.43459864414E+03  0.43459864414E+03  0.00000000000E+00 0.  1.
         22   -1    0    0    0    0 -0.00000000000E+00 -0.00000000000E+00 -0.38012187769E+03  0.38012187769E+03  0.00000000000E+00 0.  1.
         24    2    1    2    0    0 -0.39091706318E+02 -0.63547144046E+02 -0.33464515608E+03  0.35182366651E+03  0.78905708351E+02 0.  0.
         25    2    1    2    0    0  0.37268015853E+02  0.63947707830E+02  0.13448928040E+03  0.19802430422E+03  0.12509214274E+03 0.  0.
        -24    2    1    2    0    0  0.18236904648E+01 -0.40056378370E+00  0.25463264213E+03  0.26487255111E+03  0.72912273285E+02 0.  0.
        -11    1    3    3    0    0  0.19112036924E+02 -0.32057897652E+02 -0.17628652016E+03  0.18019410631E+03  0.00000000000E+00 0.  1.
         12    1    3    3    0    0 -0.58203743242E+02 -0.31489246394E+02 -0.15835863592E+03  0.17162956020E+03  0.00000000000E+00 0. -1.
         11    1    5    5    0    0 -0.76047525721E+00  0.34023039815E+02  0.81291276766E+02  0.88127278632E+02  0.00000000000E+00 0. -1.
        -12    1    5    5    0    0  0.25841657220E+01 -0.34423603599E+02  0.17334136536E+03  0.17674527248E+03  0.00000000000E+00 0.  1.
          5    1    4    4  501    0  0.18896571929E+02  0.85095605970E+02  0.14380070645E+03  0.16820956620E+03  0.41800000000E+01 0.  1.
         -5    1    4    4    0  501  0.18371443924E+02 -0.21147898140E+02 -0.93114260496E+01  0.29814738011E+02  0.41800000000E+01 0.  1.
</event>
<event>
11    1  0.8037748E-009  0.1488102E+03  0.7561462E-02  0.1098101E+00
         22   -1    0    0    0    0  0.00000000000E+00  0.00000000000E+00  0.40840890738E+03  0.40840890738E+03  0.00000000000E+00 0. -1.
         22   -1    0    0    0    0 -0.00000000000E+00 -0.00000000000E+00 -0.99177927773E+03  0.99177927773E+03  0.00000000000E+00 0. -1.
        -24    2    1    2    0    0 -0.36699635037E+02  0.24761768525E+02 -0.94239677201E+03  0.94690262340E+03  0.80949947027E+02 0.  0.
         25    2    1    2    0    0  0.25826890764E+02 -0.98007164412E+02  0.16238939818E+03  0.22867398253E+03  0.12509612736E+03 0.  0.
         24    2    1    2    0    0  0.10872744274E+02  0.73245395887E+02  0.19663700348E+03  0.22461157917E+03  0.79379756710E+02 0.  0.
        -11    1    5    5    0    0 -0.19420747498E+02  0.82925227368E+00  0.90710932507E+02  0.92770288180E+02  0.00000000000E+00 0.  1.
         12    1    5    5    0    0  0.30293491771E+02  0.72416143613E+02  0.10592607097E+03  0.13184129099E+03  0.00000000000E+00 0. -1.
         11    1    3    3    0    0 -0.26273146951E+02  0.69821575628E+00 -0.86067017679E+03  0.86107137856E+03  0.00000000000E+00 0. -1.
        -12    1    3    3    0    0 -0.10426488086E+02  0.24063552768E+02 -0.81726595214E+02  0.85831244841E+02  0.00000000000E+00 0.  1.
          5    1    4    4  501    0 -0.42401298757E+02 -0.43557707733E+01  0.27943800788E+02  0.51138745368E+02  0.41800000000E+01 0. -1.
         -5    1    4    4    0  501  0.68228189521E+02 -0.93651393638E+02  0.13444559739E+03  0.17753523716E+03  0.41800000000E+01 0. -1.
</event>
<event>
11    1  0.8037748E-009  0.1286949E+03  0.7561462E-02  0.1120883E+00
         22   -1    0    0    0    0  0.00000000000E+00  0.00000000000E+00  0.58385833439E+03  0.58385833439E+03  0.00000000000E+00 0. -1.
         22   -1    0    0    0    0 -0.00000000000E+00 -0.00000000000E+00 -0.18922132476E+03  0.18922132476E+03  0.00000000000E+00 0. -1.
         24    2    1    2    0    0 -0.21281616970E+02 -0.10073671456E+02 -0.14567715871E+03  0.16727541789E+03  0.78770837134E+02 0.  0.
         25    2    1    2    0    0  0.21607031839E+01 -0.16745849822E+02  0.11188814366E+03  0.16867621988E+03  0.12509044063E+03 0.  0.
        -24    2    1    2    0    0  0.19120913786E+02  0.26819521278E+02  0.42842602468E+03  0.43712802139E+03  0.80294161639E+02 0.  0.
        -13    1    3    3    0    0  0.23957559519E+02  0.15378951379E+02 -0.35681020765E+02  0.45646599506E+02  0.00000000000E+00 0.  1.
         14    1    3    3    0    0 -0.45239176489E+02 -0.25452622835E+02 -0.10999613794E+03  0.12162881838E+03  0.00000000000E+00 0. -1.
         13    1    5    5    0    0 -0.31028125692E+02  0.17992194286E+02  0.17681762670E+03  0.18041878159E+03  0.00000000000E+00 0. -1.
        -14    1    5    5    0    0  0.50149039478E+02  0.88273269919E+01  0.25160839798E+03  0.25670923979E+03  0.00000000000E+00 0.  1.
          5    1    4    4  501    0  0.55688743044E+02  0.34216548673E+01  0.18216847347E+02  0.58841054980E+02  0.41800000000E+01 0.  1.
         -5    1    4    4    0  501 -0.53528039860E+02 -0.20167504689E+02  0.93671296311E+02  0.10983516490E+03  0.41800000000E+01 0.  1.
</event>
<event>
11    1  0.8222605E-009  0.1676883E+03  0.7561462E-02  0.1080061E+00
         22   -1    0    0    0    0  0.00000000000E+00  0.00000000000E+00  0.21783278844E+04  0.21783278844E+04  0.00000000000E+00 0.  1.
         22   -1    0    0    0    0 -0.00000000000E+00 -0.00000000000E+00 -0.17667942963E+04  0.17667942963E+04  0.00000000000E+00 0.  1.
        -24    2    1    2    0    0 -0.60690191993E+01 -0.41540243713E+02 -0.16318129789E+04  0.16343333770E+04  0.80433599862E+02 0.  0.
         25    2    1    2    0    0  0.98181498194E+02  0.10384906671E+03 -0.62914752059E+02  0.20007362573E+03  0.12508778694E+03 0.  0.
         24    2    1    2    0    0 -0.92112478995E+02 -0.62308822994E+02  0.21062613192E+04  0.21107151780E+04  0.80091946074E+02 0.  0.
        -13    1    5    5    0    0 -0.78627590758E+02 -0.77316896859E+02  0.19559112806E+04  0.19590173910E+04  0.00000000000E+00 0.  1.
         14    1    5    5    0    0 -0.13484888237E+02  0.15008073865E+02  0.15035003854E+03  0.15169778700E+03  0.00000000000E+00 0. -1.
         11    1    3    3    0    0 -0.19902816397E+02  0.69171615672E+01 -0.13175670933E+03  0.13343087978E+03  0.00000000000E+00 0. -1.
        -12    1    3    3    0    0  0.13833797198E+02 -0.48457405280E+02 -0.15000562696E+04  0.15009024972E+04  0.00000000000E+00 0.  1.
          5    1    4    4  501    0  0.78464413339E+02  0.10452044401E+03  0.33534786096E+01  0.13080483782E+03  0.41800000000E+01 0. -1.
         -5    1    4    4    0  501  0.19717084855E+02 -0.67137730705E+00 -0.66268230669E+02  0.69268787911E+02  0.41800000000E+01 0. -1.
</event>
<event>
11    1  0.8037748E-009  0.1368482E+03  0.7561462E-02  0.1111130E+00
         22   -1    0    0    0    0  0.00000000000E+00  0.00000000000E+00  0.48648082144E+02  0.48648082144E+02  0.00000000000E+00 0.  1.
         22   -1    0    0    0    0 -0.00000000000E+00 -0.00000000000E+00 -0.91751262366E+03  0.91751262366E+03  0.00000000000E+00 0.  1.
         24    2    1    2    0    0 -0.15153429916E+02  0.57953470012E+02 -0.54526391543E+03  0.55444214755E+03  0.80654363683E+02 0.  0.
         25    2    1    2    0    0  0.52087786228E+02 -0.23201138287E+02 -0.26631981397E+03  0.29970732976E+03  0.12508720920E+03 0.  0.
        -24    2    1    2    0    0 -0.36934356312E+02 -0.34752331725E+02 -0.57280812120E+02  0.11201122851E+03  0.81814134706E+02 0.  0.
        -13    1    3    3    0    0  0.35976146857E+01  0.42409156248E+02 -0.50888985470E+03  0.51066658749E+03  0.00000000000E+00 0.  1.
         14    1    3    3    0    0 -0.18751044602E+02  0.15544313764E+02 -0.36374060734E+02  0.43775560057E+02  0.00000000000E+00 0. -1.
         13    1    5    5    0    0 -0.30296260259E+02 -0.28357602538E+02 -0.78546189269E+02  0.88834232456E+02  0.00000000000E+00 0. -1.
        -14    1    5    5    0    0 -0.66380960525E+01 -0.63947291867E+01  0.21265377149E+02  0.23176996049E+02  0.00000000000E+00 0.  1.
          5    1    4    4  501    0  0.91651271533E+02 -0.16282450160E+02 -0.15008532140E+03  0.17665828556E+03  0.41800000000E+01 0. -1.
         -5    1    4    4    0  501 -0.39563485305E+02 -0.69186881272E+01 -0.11623449257E+03  0.12304904420E+03  0.41800000000E+01 0. -1.
</event>
<event>
11    1  0.8037748E-009  0.1617428E+03  0.7561462E-02  0.1085449E+00
         22   -1    0    0    0    0  0.00000000000E+00  0.00000000000E+00  0.27683392419E+04  0.27683392419E+04  0.00000000000E+00 0. -1.
         22   -1    0    0    0    0 -0.00000000000E+00 -0.00000000000E+00 -0.97397571341E+03  0.97397571341E+03  0.00000000000E+00 0.  1.
        -24    2    1    2    0    0  0.41990355615E+02  0.90598574745E+01 -0.95209531216E+03  0.95652801314E+03  0.81333175806E+02 0.  0.
         25    2    1    2    0    0 -0.68454263216E+02 -0.10619634207E+03  0.42421376602E+03  0.45996573478E+03  0.12509000226E+03 0.  0.
         24    2    1    2    0    0  0.26463907601E+02  0.97136484600E+02  0.23222450746E+04  0.23258212074E+04  0.80537364492E+02 0.  0.
        -13    1    5    5    0    0  0.31595951858E+02  0.34656839299E+02  0.43224343176E+03  0.43478015708E+03  0.00000000000E+00 0.  1.
         14    1    5    5    0    0 -0.51320442574E+01  0.62479645301E+02  0.18900016429E+04  0.18910410503E+04  0.00000000000E+00 0. -1.
         13    1    3    3    0    0  0.34722427370E+01  0.37087036738E+02 -0.24342188923E+03  0.24625539775E+03  0.00000000000E+00 0. -1.
        -14    1    3    3    0    0  0.38518112878E+02 -0.28027179263E+02 -0.70867342293E+03  0.71027261539E+03  0.00000000000E+00 0.  1.
          5    1    4    4  501    0  0.10834018673E+02 -0.71300884978E+02  0.93998680494E+02  0.11855132430E+03  0.41800000000E+01 0. -1.
         -5    1    4    4    0  501 -0.79288281889E+02 -0.34895457097E+02  0.33021508553E+03  0.34141441048E+03  0.41800000000E+01 0. -1.
</event>
<event>
11    1  0.8037748E-009  0.1877560E+03  0.7561462E-02  0.1063536E+00
         22   -1    0    0    0    0  0.00000000000E+00  0.00000000000E+00  0.21583730581E+03  0.21583730581E+03  0.00000000000E+00 0.  1.
         22   -1    0    0    0    0 -0.00000000000E+00 -0.00000000000E+00 -0.57880398655E+03  0.57880398655E+03  0.00000000000E+00 0.  1.
        -24    2    1    2    0    0  0.62902739672E+01 -0.91833313854E+02 -0.39593626985E+03  0.41439072826E+03  0.80506029612E+02 0.  0.
         25    2    1    2    0    0  0.13503044069E+03  0.50212439147E+02 -0.44684616941E+02  0.19594438059E+03  0.12507188467E+03 0.  0.
         24    2    1    2    0    0 -0.14132071465E+03  0.41620874707E+02  0.77654206048E+02  0.18430618352E+03  0.78960445576E+02 0.  0.
        -11    1    5    5    0    0 -0.10070764468E+03  0.22147773239E+02  0.10776530951E+02  0.10367587557E+03  0.00000000000E+00 0.  1.
         12    1    5    5    0    0 -0.40613069975E+02  0.19473101468E+02  0.66877675097E+02  0.80630307949E+02  0.00000000000E+00 0. -1.
         13    1    3    3    0    0 -0.15809180361E+02 -0.65990950856E+02 -0.35378517952E+03  0.36023421413E+03  0.00000000000E+00 0. -1.
        -14    1    3    3    0    0  0.22099454328E+02 -0.25842362998E+02 -0.42151090325E+02  0.54156514128E+02  0.00000000000E+00 0.  1.
          5    1    4    4  501    0  0.13948383534E+03  0.64490497585E+00 -0.22720225047E+02  0.14138542093E+03  0.41800000000E+01 0.  1.
         -5    1    4    4    0  501 -0.44533946554E+01  0.49567534171E+02 -0.21964391894E+02  0.54558959658E+02  0.41800000000E+01 0.  1.
</event>
<event>
11    1  0.8037748E-009  0.1494158E+03  0.7561462E-02  0.1097477E+00
         22   -1    0    0    0    0  0.00000000000E+00  0.00000000000E+00  0.11417789568E+04  0.11417789568E+04  0.00000000000E+00 0.  1.
         22   -1    0    0    0    0 -0.00000000000E+00 -0.00000000000E+00 -0.90020212856E+03  0.90020212856E+03  0.00000000000E+00 0.  1.
        -24    2    1    2    0    0 -0.19879812115E+02 -0.10976586943E+02 -0.85664986007E+03  0.86067121293E+03  0.79939111897E+02 0.  0.
         25    2    1    2    0    0  0.96106421192E+02  0.34960389585E+02  0.13279079827E+03  0.20914045895E+03  0.12509061688E+03 0.  0.
         24    2    1    2    0    0 -0.76226609077E+02 -0.23983802643E+02  0.96543589007E+03  0.97216941351E+03  0.81616125927E+02 0.  0.
        -13    1    5    5    0    0 -0.80856573514E+02 -0.32546018645E+02  0.94952618792E+03  0.95351822760E+03  0.00000000000E+00 0.  1.
         14    1    5    5    0    0  0.46299644372E+01  0.85622160024E+01  0.15909702145E+02  0.18651185911E+02  0.00000000000E+00 0. -1.
         13    1    3    3    0    0 -0.12560688254E+02 -0.20419405961E+00 -0.18167942277E+02  0.22088157714E+02  0.00000000000E+00 0. -1.
        -14    1    3    3    0    0 -0.73191238613E+01 -0.10772392883E+02 -0.83848191780E+03  0.83858305521E+03  0.00000000000E+00 0.  1.
          5    1    4    4  501    0  0.10024179028E+03  0.71916885733E+02  0.93291726193E+02  0.15472967895E+03  0.41800000000E+01 0.  1.
         -5    1    4    4    0  501 -0.41353690895E+01 -0.36956496148E+02  0.39499072079E+02  0.54410779999E+02  0.41800000000E+01 0.  1.
</event>
<event>
11    1  0.8037748E-009  0.1985230E+03  0.7561462E-02  0.1055573E+00
         22   -1    0    0    0    0  0.00000000000E+00  0.00000000000E+00  0.14505789735E+04  0.14505789735E+04  0.00000000000E+00 0.  1.
         22   -1    0    0    0    0 -0.00000000000E+00 -0.00000000000E+00 -0.10047144554E+04  0.10047144554E+04  0.00000000000E+00 0. -1.
        -24    2    1    2    0    0 -0.49802690011E+02 -0.16573485734E+03 -0.78112179609E+03  0.80400309654E+03  0.79507031427E+02 0.  0.
         25    2    1    2    0    0  0.66931878337E+02  0.83677003255E+02 -0.17747109793E+03  0.24212497588E+03  0.12508715414E+03 0.  0.
         24    2    1    2    0    0 -0.17129188326E+02  0.82057854090E+02  0.14044574121E+04  0.14091653565E+04  0.78863672421E+02 0.  0.
        -11    1    5    5    0    0 -0.22288378020E+02  0.96529927188E+02  0.11583479309E+04  0.11625767620E+04  0.00000000000E+00 0.  1.
         12    1    5    5    0    0  0.51591896942E+01 -0.14472073098E+02  0.24610948130E+03  0.24658859447E+03  0.00000000000E+00 0. -1.
         13    1    3    3    0    0 -0.70627090135E+02 -0.13756440331E+03 -0.66309882426E+03  0.68089074135E+03  0.00000000000E+00 0. -1.
        -14    1    3    3    0    0  0.20824400123E+02 -0.28170454036E+02 -0.11802297183E+03  0.12311235519E+03  0.00000000000E+00 0.  1.
          5    1    4    4  501    0  0.56757407781E+02  0.10033204606E+03 -0.18722791122E+03  0.21990835806E+03  0.41800000000E+01 0. -1.
         -5    1    4    4    0  501  0.10174470557E+02 -0.16655042800E+02  0.97568132902E+01  0.22216617820E+02  0.41800000000E+01 0. -1.
</event>
<event>
11    1  0.8037748E-009  0.6551519E+03  0.7561462E-02  0.9101137E-01
         22   -1    0    0    0    0  0.00000000000E+00  0.00000000000E+00  0.18781459061E+04  0.18781459061E+04  0.00000000000E+00 0.  1.
         22   -1    0    0    0    0 -0.00000000000E+00 -0.00000000000E+00 -0.27251499379E+03  0.27251499379E+03  0.00000000000E+00 0.  1.
         24    2    1    2    0    0 -0.12534204292E+03 -0.64229615524E+03  0.62397394384E+03  0.90768680264E+03  0.79352821856E+02 0.  0.
         25    2    1    2    0    0  0.41380331299E+02  0.63073448557E+03  0.82832047095E+03  0.10494285482E+04  0.12508857670E+03 0.  0.
        -24    2    1    2    0    0  0.83961711623E+02  0.11561669671E+02  0.15333649757E+03  0.19354554913E+03  0.82246926246E+02 0.  0.
        -13    1    3    3    0    0 -0.11298880860E+03 -0.61639120273E+03  0.61393964728E+03  0.87728357797E+03  0.00000000000E+00 0.  1.
         14    1    3    3    0    0 -0.12353234325E+02 -0.25904952515E+02  0.10034296555E+02  0.30403224672E+02  0.00000000000E+00 0. -1.
         13    1    5    5    0    0  0.32678118872E+02 -0.25876395519E+02  0.10731608284E+03  0.11512683847E+03  0.00000000000E+00 0. -1.
        -14    1    5    5    0    0  0.51283592751E+02  0.37438065191E+02  0.46020414722E+02  0.78418710662E+02  0.00000000000E+00 0.  1.
          5    1    4    4  501    0  0.65784259766E+02  0.53630647006E+03  0.64235803632E+03  0.83940068971E+03  0.41800000000E+01 0. -1.
         -5    1    4    4    0  501 -0.24403928467E+02  0.94428015514E+02  0.18596243463E+03  0.21002785846E+03  0.41800000000E+01 0. -1.
</event>
<event>
11    1  0.8037748E-009  0.1907872E+03  0.7561462E-02  0.1061237E+00
         22   -1    0    0    0    0  0.00000000000E+00  0.00000000000E+00  0.16723694422E+04  0.16723694422E+04  0.00000000000E+00 0.  1.
         22   -1    0    0    0    0 -0.00000000000E+00 -0.00000000000E+00 -0.22842982145E+03  0.22842982145E+03  0.00000000000E+00 0. -1.
        -24    2    1    2    0    0 -0.20344626126E+02 -0.14702604344E+03 -0.17803822575E+03  0.24523204427E+03  0.80066125450E+02 0.  0.
         25    2    1    2    0    0 -0.49046643945E+02  0.88793723261E+02  0.46254806518E+03  0.48978444788E+03  0.12509274245E+03 0.  0.
         24    2    1    2    0    0  0.69391270070E+02  0.58232320179E+02  0.11594297813E+04  0.11657827715E+04  0.81030247573E+02 0.  0.
        -13    1    5    5    0    0  0.28853910552E+02 -0.13732687483E+02  0.52914282223E+03  0.53010683940E+03  0.00000000000E+00 0.  1.
         14    1    5    5    0    0  0.40537359519E+02  0.71965007661E+02  0.63028695905E+03  0.63567593206E+03  0.00000000000E+00 0. -1.
         13    1    3    3    0    0 -0.41391196729E+02 -0.13394705721E+03 -0.13006878068E+03  0.19124051090E+03  0.00000000000E+00 0. -1.
        -14    1    3    3    0    0  0.21046570603E+02 -0.13078986233E+02 -0.47969445069E+02  0.53991533367E+02  0.00000000000E+00 0.  1.
          5    1    4    4  501    0 -0.64901874879E+01  0.96191003103E+02  0.41206065284E+03  0.42320950560E+03  0.41800000000E+01 0. -1.
         -5    1    4    4    0  501 -0.42556456457E+02 -0.73972798416E+01  0.50487412338E+02  0.66574942281E+02  0.41800000000E+01 0. -1.
</event>
<event>
11    1  0.8037748E-009  0.1529318E+03  0.7561462E-02  0.1093920E+00
         22   -1    0    0    0    0  0.00000000000E+00  0.00000000000E+00  0.19478338406E+04  0.19478338406E+04  0.00000000000E+00 0.  1.
         22   -1    0    0    0    0 -0.00000000000E+00 -0.00000000000E+00 -0.11204812823E+04  0.11204812823E+04  0.00000000000E+00 0.  1.
         24    2    1    2    0    0  0.75111495470E+02 -0.46422256100E+02 -0.10706987519E+04  0.10788396431E+04  0.98500739225E+02 0.  0.
         25    2    1    2    0    0 -0.30536649799E+02  0.97053030972E+02  0.10356508956E+03  0.19162240188E+03  0.12506653960E+03 0.  0.
        -24    2    1    2    0    0 -0.44574845671E+02 -0.50630774872E+02  0.17944862207E+04  0.17978530779E+04  0.86859089304E+02 0.  0.
        -11    1    3    3    0    0  0.57625558467E+02  0.12416257502E+02 -0.75043748471E+03  0.75274915270E+03  0.00000000000E+00 0.  1.
         12    1    3    3    0    0  0.17485937003E+02 -0.58838513602E+02 -0.32026126720E+03  0.32609049042E+03  0.00000000000E+00 0. -1.
         13    1    5    5    0    0 -0.19945523636E+01 -0.96523750468E+01  0.19186810545E+02  0.21570356559E+02  0.00000000000E+00 0. -1.
        -14    1    5    5    0    0 -0.42580293307E+02 -0.40978399826E+02  0.17752994101E+04  0.17762827214E+04  0.00000000000E+00 0.  1.
          5    1    4    4  501    0  0.20639987157E+02  0.44386478458E+02 -0.15633301702E+02  0.51556193245E+02  0.41800000000E+01 0.  1.
         -5    1    4    4    0  501 -0.51176636956E+02  0.52666552514E+02  0.11919839126E+03  0.14006620864E+03  0.41800000000E+01 0.  1.
</event>
<event>
11    1  0.8037748E-009  0.2460804E+03  0.7561462E-02  0.1026008E+00
         22   -1    0    0    0    0  0.00000000000E+00  0.00000000000E+00  0.52074677468E+03  0.52074677468E+03  0.00000000000E+00 0.  1.
         22   -1    0    0    0    0 -0.00000000000E+00 -0.00000000000E+00 -0.10961270981E+04  0.10961270981E+04  0.00000000000E+00 0.  1.
         24    2    1    2    0    0 -0.22258106350E+02  0.17554884202E+03 -0.95257132219E+03  0.97231665380E+03  0.81821342947E+02 0.  0.
         25    2    1    2    0    0  0.22584881672E+03 -0.98234278761E+02  0.12855171133E+03  0.30469029605E+03  0.12511183990E+03 0.  0.
        -24    2    1    2    0    0 -0.20359071037E+03 -0.77314563258E+02  0.24863928743E+03  0.33986692294E+03  0.79128446298E+02 0.  0.
        -13    1    3    3    0    0 -0.16124241013E+02  0.18415345046E+02 -0.45033074148E+02  0.51255183627E+02  0.00000000000E+00 0.  1.
         14    1    3    3    0    0 -0.61338653372E+01  0.15713349697E+03 -0.90753824804E+03  0.92106147017E+03  0.00000000000E+00 0. -1.
         13    1    5    5    0    0 -0.66427243129E+01  0.68973389081E+01  0.38977888497E+02  0.40136951329E+02  0.00000000000E+00 0. -1.
        -14    1    5    5    0    0 -0.19694798606E+03 -0.84211902166E+02  0.20966139893E+03  0.29972997161E+03  0.00000000000E+00 0.  1.
          5    1    4    4  501    0  0.34915030242E+02 -0.16633732030E+02  0.83588373484E+02  0.92196686273E+02  0.41800000000E+01 0. -1.
         -5    1    4    4    0  501  0.19093378648E+03 -0.81600546731E+02  0.44963337848E+02  0.21249360978E+03  0.41800000000E+01 0. -1.
</event>
<event>
11    1  0.8037748E-009  0.1507743E+03  0.7561462E-02  0.1096090E+00
         22   -1    0    0    0    0  0.00000000000E+00  0.00000000000E+00  0.73997431618E+03  0.73997431618E+03  0.00000000000E+00 0. -1.
         22   -1    0    0    0    0 -0.00000000000E+00 -0.00000000000E+00 -0.14569868191E+03  0.14569868191E+03  0.00000000000E+00 0.  1.
        -24    2    1    2    0    0  0.20958703307E+02 -0.38505995411E+01 -0.89264895446E+02  0.11662321485E+03  0.71962895449E+02 0.  0.
         25    2    1    2    0    0 -0.65220063247E+02  0.72983002534E+02  0.13499465941E+03  0.20845321874E+03  0.12509600724E+03 0.  0.
         24    2    1    2    0    0  0.44261359939E+02 -0.69132402993E+02  0.54854587030E+03  0.56059656450E+03  0.81409945167E+02 0.  0.
        -11    1    5    5    0    0  0.36729137951E+02  0.55141068772E+01  0.12290977442E+03  0.12839878347E+03  0.00000000000E+00 0.  1.
         12    1    5    5    0    0  0.75322219886E+01 -0.74646509870E+02  0.42563609589E+03  0.43219778103E+03  0.00000000000E+00 0. -1.
         13    1    3    3    0    0 -0.76513100076E+00 -0.35965115824E+02 -0.37714627002E+02  0.52119747424E+02  0.00000000000E+00 0. -1.
        -14    1    3    3    0    0  0.21723834308E+02  0.32114516283E+02 -0.51550268444E+02  0.64503467424E+02  0.00000000000E+00 0.  1.
          5    1    4    4  501    0 -0.47194625117E+01 -0.26377551984E+02 -0.37122115348E+01  0.27373371907E+02  0.41800000000E+01 0.  1.
         -5    1    4    4    0  501 -0.60500600735E+02  0.99360554518E+02  0.13870687094E+03  0.18107984684E+03  0.41800000000E+01 0.  1.
</event>
<event>
11    1  0.8037748E-009  0.1301019E+03  0.7561462E-02  0.1119144E+00
         22   -1    0    0    0    0  0.00000000000E+00  0.00000000000E+00  0.30961330939E+04  0.30961330939E+04  0.00000000000E+00 0. -1.
         22   -1    0    0    0    0 -0.00000000000E+00 -0.00000000000E+00 -0.96739444989E+02  0.96739444989E+02  0.00000000000E+00 0. -1.
         24    2    1    2    0    0  0.88757265799E+01 -0.43408225601E+01 -0.51401368676E+02  0.90157573117E+02  0.73407533849E+02 0.  0.
         25    2    1    2    0    0 -0.12622365522E+02  0.39839457929E+02  0.14624894660E+03  0.19692266879E+03  0.12507308496E+03 0.  0.
        -24    2    1    2    0    0  0.37466389425E+01 -0.35498635369E+02  0.29045460710E+04  0.29057922970E+04  0.77245092444E+02 0.  0.
        -13    1    3    3    0    0  0.29567240500E+02 -0.27505754239E+02 -0.17018557246E+02  0.43822591409E+02  0.00000000000E+00 0.  1.
         14    1    3    3    0    0 -0.20691513920E+02  0.23164931679E+02 -0.34382811430E+02  0.46334981708E+02  0.00000000000E+00 0. -1.
         11    1    5    5    0    0  0.14787314843E+02 -0.37424225728E+02  0.28396846924E+04  0.28399697867E+04  0.00000000000E+00 0. -1.
        -12    1    5    5    0    0 -0.11040675901E+02  0.19255903593E+01  0.64861378674E+02  0.65822510329E+02  0.00000000000E+00 0.  1.
          5    1    4    4  501    0  0.10010222211E+02  0.22920423181E+02 -0.17429542257E+02  0.30770305341E+02  0.41800000000E+01 0. -1.
         -5    1    4    4    0  501 -0.22632587734E+02  0.16919034748E+02  0.16367848886E+03  0.16615236345E+03  0.41800000000E+01 0. -1.
</event>
<event>
11    1  0.8037748E-009  0.2243442E+03  0.7561462E-02  0.1038530E+00
         22   -1    0    0    0    0  0.00000000000E+00  0.00000000000E+00  0.18426619458E+04  0.18426619458E+04  0.00000000000E+00 0.  1.
         22   -1    0    0    0    0 -0.00000000000E+00 -0.00000000000E+00 -0.20699428455E+03  0.20699428455E+03  0.00000000000E+00 0.  1.
         24    2    1    2    0    0  0.99067165916E+02 -0.14552884315E+03 -0.62160810143E+02  0.20314218714E+03  0.80061440950E+02 0.  0.
         25    2    1    2    0    0 -0.14870650707E+03  0.16151994477E+03  0.14604133689E+03  0.29185198391E+03  0.12508873101E+03 0.  0.
        -24    2    1    2    0    0  0.49639341155E+02 -0.15991101625E+02  0.15517871345E+04  0.15546620593E+04  0.78810077452E+02 0.  0.
        -11    1    3    3    0    0  0.41239076291E+02 -0.12048917479E+03 -0.58147754178E+02  0.13999808560E+03  0.00000000000E+00 0.  1.
         12    1    3    3    0    0  0.57828089624E+02 -0.25039668356E+02 -0.40130559651E+01  0.63144101539E+02  0.00000000000E+00 0. -1.
         13    1    5    5    0    0  0.58615873019E+02  0.16294113769E+02  0.95735626198E+03  0.95928740795E+03  0.00000000000E+00 0. -1.
        -14    1    5    5    0    0 -0.89765318639E+01 -0.32285215393E+02  0.59443087256E+03  0.59537465138E+03  0.00000000000E+00 0.  1.
          5    1    4    4  501    0 -0.13069580605E+02  0.79507213935E+02  0.70366021622E+01  0.80988870686E+02  0.41800000000E+01 0.  1.
         -5    1    4    4    0  501 -0.13563692647E+03  0.82012730839E+02  0.13900473473E+03  0.21086311322E+03  0.41800000000E+01 0.  1.
</event>
<event>
11    1  0.8037748E-009  0.1468417E+03  0.7561462E-02  0.1100150E+00
         22   -1    0    0    0    0  0.00000000000E+00  0.00000000000E+00  0.12538943945E+03  0.12538943945E+03  0.00000000000E+00 0.  1.
         22   -1    0    0    0    0 -0.00000000000E+00 -0.00000000000E+00 -0.65908049635E+03  0.65908049635E+03  0.00000000000E+00 0.  1.
         24    2    1    2    0    0 -0.63598663083E+01  0.40197083462E+02 -0.27548013315E+03  0.28710187920E+03  0.69870822678E+02 0.  0.
         25    2    1    2    0    0  0.55134093674E+02 -0.96170751146E+02 -0.32878777850E+03  0.36883326152E+03  0.12509192559E+03 0.  0.
        -24    2    1    2    0    0 -0.48774227366E+02  0.55973667684E+02  0.70576854745E+02  0.12853479509E+03  0.77640996856E+02 0.  0.
        -11    1    3    3    0    0  0.10545754948E+02  0.12645487712E+02 -0.23368855256E+03  0.23426792547E+03  0.00000000000E+00 0.  1.
         12    1    3    3    0    0 -0.16905621256E+02  0.27551595751E+02 -0.41791580589E+02  0.52833953729E+02  0.00000000000E+00 0. -1.
         11    1    5    5    0    0 -0.30402436102E+02  0.50519221796E+02  0.38243528773E+01  0.59085747577E+02  0.00000000000E+00 0. -1.
        -12    1    5    5    0    0 -0.18371791263E+02  0.54544458883E+01  0.66752501868E+02  0.69449047508E+02  0.00000000000E+00 0.  1.
          5    1    4    4  501    0  0.38603388586E+02 -0.86796738831E+01 -0.23908764978E+03  0.24237560732E+03  0.41800000000E+01 0.  1.
         -5    1    4    4    0  501  0.16530705088E+02 -0.87491077263E+02 -0.89700128723E+02  0.12645765419E+03  0.41800000000E+01 0.  1.
</event>
<event>
11    1  0.8037748E-009  0.1350323E+03  0.7561462E-02  0.1113236E+00
         22   -1    0    0    0    0  0.00000000000E+00  0.00000000000E+00  0.16914992874E+03  0.16914992874E+03  0.00000000000E+00 0. -1.
         22   -1    0    0    0    0 -0.00000000000E+00 -0.00000000000E+00 -0.22047771473E+03  0.22047771473E+03  0.00000000000E+00 0.  1.
        -24    2    1    2    0    0 -0.85333178836E+02 -0.40496978004E+02 -0.50302061620E+02  0.13360263851E+03  0.79985067198E+02 0.  0.
         25    2    1    2    0    0  0.43175742157E+01 -0.23426429557E+01 -0.39883340444E+02  0.13138472222E+03  0.12508850852E+03 0.  0.
         24    2    1    2    0    0  0.81015604620E+02  0.42839620959E+02  0.38857616069E+02  0.12464028275E+03  0.75010162254E+02 0.  0.
        -11    1    5    5    0    0  0.32356029248E+02  0.20331835018E+02 -0.21550897517E+02  0.43871828406E+02  0.00000000000E+00 0.  1.
         12    1    5    5    0    0  0.48659575372E+02  0.22507785942E+02  0.60408513586E+02  0.80768454343E+02  0.00000000000E+00 0. -1.
         11    1    3    3    0    0 -0.12925353863E+02 -0.20179023696E+02  0.19577179187E+02  0.30943880086E+02  0.00000000000E+00 0. -1.
        -12    1    3    3    0    0 -0.72407824973E+02 -0.20317954307E+02 -0.69879240807E+02  0.10265875842E+03  0.00000000000E+00 0.  1.
          5    1    4    4  501    0  0.46358876557E+02 -0.74734407976E+01  0.25326666825E+02  0.53515513689E+02  0.41800000000E+01 0.  1.
         -5    1    4    4    0  501 -0.42041302341E+02  0.51307978419E+01 -0.65210007269E+02  0.77869208530E+02  0.41800000000E+01 0.  1.
</event>
<event>
11    1  0.8037748E-009  0.1903677E+03  0.7561462E-02  0.1061552E+00
         22   -1    0    0    0    0  0.00000000000E+00  0.00000000000E+00  0.60367508680E+03  0.60367508680E+03  0.00000000000E+00 0. -1.
         22   -1    0    0    0    0 -0.00000000000E+00 -0.00000000000E+00 -0.20769156250E+03  0.20769156250E+03  0.00000000000E+00 0.  1.
        -24    2    1    2    0    0 -0.10155420386E+03 -0.11598937880E+03 -0.12154086104E+03  0.21174670307E+03  0.79358005555E+02 0.  0.
         25    2    1    2    0    0  0.60103457835E+02  0.79301836594E+02  0.15266358913E+03  0.22103518412E+03  0.12509665958E+03 0.  0.
         24    2    1    2    0    0  0.41450746020E+02  0.36687542203E+02  0.36486079621E+03  0.37858476211E+03  0.84491901347E+02 0.  0.
        -13    1    5    5    0    0 -0.13103407829E+02  0.42576049104E+02  0.19737932587E+03  0.20234381022E+03  0.00000000000E+00 0.  1.
         14    1    5    5    0    0  0.54554153849E+02 -0.58885069008E+01  0.16748147033E+03  0.17624095188E+03  0.00000000000E+00 0. -1.
         13    1    3    3    0    0 -0.48223070200E+02 -0.93930423477E+01 -0.60177211087E+02  0.77685201153E+02  0.00000000000E+00 0. -1.
        -14    1    3    3    0    0 -0.53331133656E+02 -0.10659633645E+03 -0.61363649949E+02  0.13406150192E+03  0.00000000000E+00 0.  1.
          5    1    4    4  501    0  0.98680667797E+02  0.47123422277E+02  0.10424674385E+03  0.15114015723E+03  0.41800000000E+01 0.  1.
         -5    1    4    4    0  501 -0.38577209961E+02  0.32178414317E+02  0.48416845286E+02  0.69895026889E+02  0.41800000000E+01 0.  1.
</event>
<event>
11    1  0.8037748E-009  0.2391429E+03  0.7561462E-02  0.1029847E+00
         22   -1    0    0    0    0  0.00000000000E+00  0.00000000000E+00  0.35598410081E+03  0.35598410081E+03  0.00000000000E+00 0.  1.
         22   -1    0    0    0    0 -0.00000000000E+00 -0.00000000000E+00 -0.69266225251E+03  0.69266225251E+03  0.00000000000E+00 0. -1.
         24    2    1    2    0    0 -0.62463325618E+02 -0.17105440957E+03 -0.36407249500E+03  0.41673094177E+03  0.89188665968E+02 0.  0.
         25    2    1    2    0    0  0.27457893130E+02  0.27504290205E+03 -0.20321597244E+03  0.36516627146E+03  0.12508853062E+03 0.  0.
        -24    2    1    2    0    0  0.35005432488E+02 -0.10398849249E+03  0.23061031573E+03  0.26674914009E+03  0.77038945652E+02 0.  0.
        -13    1    3    3    0    0 -0.28807392059E+02 -0.10967905783E+03 -0.13045427910E+03  0.17285161411E+03  0.00000000000E+00 0.  1.
         14    1    3    3    0    0 -0.33655933559E+02 -0.61375351739E+02 -0.23361821589E+03  0.24387932766E+03  0.00000000000E+00 0. -1.
         11    1    5    5    0    0 -0.10351169708E+02 -0.45876280495E+01 -0.26532569190E+00  0.11325345167E+02  0.00000000000E+00 0. -1.
        -12    1    5    5    0    0  0.45356602196E+02 -0.99400864438E+02  0.23087564142E+03  0.25542379492E+03  0.00000000000E+00 0.  1.
          5    1    4    4  501    0  0.41599048455E+02  0.28321679723E+03 -0.19517789085E+03  0.34648826321E+03  0.41800000000E+01 0. -1.
         -5    1    4    4    0  501 -0.14141155325E+02 -0.81738951815E+01 -0.80380815871E+01  0.18678008244E+02  0.41800000000E+01 0. -1.
</event>
<event>
11    1  0.8037748E-009  0.1500901E+03  0.7561462E-02  0.1096787E+00
         22   -1    0    0    0    0  0.00000000000E+00  0.00000000000E+00  0.22325942938E+03  0.22325942938E+03  0.00000000000E+00 0.  1.
         22   -1    0    0    0    0 -0.00000000000E+00 -0.00000000000E+00 -0.56420699483E+03  0.56420699483E+03  0.00000000000E+00 0.  1.
        -24    2    1    2    0    0  0.20435373587E+02 -0.10553372424E+03 -0.38744585176E+03  0.41018933770E+03  0.81154379261E+02 0.  0.
         25    2    1    2    0    0  0.88149813903E+01  0.24586654658E+02 -0.11866749143E+03  0.17439177098E+03  0.12509320038E+03 0.  0.
         24    2    1    2    0    0 -0.29250354977E+02  0.80947069583E+02  0.16516577773E+03  0.20288531552E+03  0.80465556474E+02 0.  0.
        -11    1    5    5    0    0 -0.34353652844E+02  0.21370463645E+02  0.12362513442E+03  0.13007706962E+03  0.00000000000E+00 0.  1.
         12    1    5    5    0    0  0.51032978669E+01  0.59576605938E+02  0.41540643312E+02  0.72808245900E+02  0.00000000000E+00 0. -1.
         13    1    3    3    0    0 -0.98278295354E+01 -0.54043585240E+02 -0.80298028540E+02  0.97288584770E+02  0.00000000000E+00 0. -1.
        -14    1    3    3    0    0  0.30263203122E+02 -0.51490139000E+02 -0.30714782322E+03  0.31290075293E+03  0.00000000000E+00 0.  1.
          5    1    4    4  501    0  0.26263951545E+01  0.65278418822E+02 -0.21700258679E+02  0.68967699266E+02  0.41800000000E+01 0. -1.
         -5    1    4    4    0  501  0.61885862357E+01 -0.40691764164E+02 -0.96967232749E+02  0.10542407172E+03  0.41800000000E+01 0. -1.
</event>
<event>
11    1  0.8037748E-009  0.1456189E+03  0.7561462E-02  0.1101441E+00
         22   -1    0    0    0    0  0.00000000000E+00  0.00000000000E+00  0.10049046833E+04  0.10049046833E+04  0.00000000000E+00 0. -1.
         22   -1    0    0    0    0 -0.00000000000E+00 -0.00000000000E+00 -0.35750869225E+02  0.35750869225E+02  0.00000000000E+00 0.  1.
         24    2    1    2    0    0  0.29235265795E+02  0.57745730822E+02  0.15822499351E+03  0.18748206974E+03  0.76974721225E+02 0.  0.
         25    2    1    2    0    0 -0.89383632955E+02 -0.34800909078E+02  0.56194983229E+03  0.58363950756E+03  0.12508766391E+03 0.  0.
        -24    2    1    2    0    0  0.60148367159E+02 -0.22944821744E+02  0.24897898823E+03  0.26953397518E+03  0.80707721319E+02 0.  0.
        -13    1    3    3    0    0  0.17714598882E+02 -0.44360778839E+01  0.13166596458E+01  0.18308997601E+02  0.00000000000E+00 0.  1.
         14    1    3    3    0    0  0.11520666914E+02  0.62181808706E+02  0.15690833387E+03  0.16917307214E+03  0.00000000000E+00 0. -1.
         11    1    5    5    0    0  0.46041844604E+02 -0.50469875698E+02  0.20242554717E+03  0.21364260332E+03  0.00000000000E+00 0. -1.
        -12    1    5    5    0    0  0.14106522555E+02  0.27525053954E+02  0.46553441061E+02  0.55891371860E+02  0.00000000000E+00 0.  1.
          5    1    4    4  501    0 -0.33268451687E+02 -0.56613693141E+01  0.23174776002E+02  0.41150742677E+02  0.41800000000E+01 0.  1.
         -5    1    4    4    0  501 -0.56115181268E+02 -0.29139539764E+02  0.53877505629E+03  0.54248876488E+03  0.41800000000E+01 0.  1.
</event>
<event>
11    1  0.8037748E-009  0.1487059E+03  0.7561462E-02  0.1098208E+00
         22   -1    0    0    0    0  0.00000000000E+00  0.00000000000E+00  0.12627180773E+04  0.12627180773E+04  0.00000000000E+00 0. -1.
         22   -1    0    0    0    0 -0.00000000000E+00 -0.00000000000E+00 -0.82424409702E+03  0.82424409702E+03  0.00000000000E+00 0. -1.
        -24    2    1    2    0    0 -0.36375898053E+02  0.68336857806E+02 -0.62507169752E+03  0.63530932402E+03  0.83127480772E+02 0.  0.
         25    2    1    2    0    0  0.74236501999E+02 -0.73572913190E+02 -0.15781755601E+03  0.22688863819E+03  0.12509213152E+03 0.  0.
         24    2    1    2    0    0 -0.37860603946E+02  0.52360553847E+01  0.12213632338E+04  0.12247642121E+04  0.82815365383E+02 0.  0.
        -11    1    5    5    0    0 -0.10179827894E+02 -0.32778078796E+02  0.26055228109E+03  0.26280320114E+03  0.00000000000E+00 0.  1.
         12    1    5    5    0    0 -0.27680776052E+02  0.38014134181E+02  0.96081095267E+03  0.96196101092E+03  0.00000000000E+00 0. -1.
         13    1    3    3    0    0 -0.48417428683E+02  0.94447214789E+01 -0.36867382585E+03  0.37195946020E+03  0.00000000000E+00 0. -1.
        -14    1    3    3    0    0  0.12041530630E+02  0.58892136327E+02 -0.25639787167E+03  0.26334986382E+03  0.00000000000E+00 0.  1.
          5    1    4    4  501    0  0.68279318321E+02 -0.20662213726E+02 -0.13126641980E+02  0.72655168544E+02  0.41800000000E+01 0.  1.
         -5    1    4    4    0  501  0.59571836775E+01 -0.52910699464E+02 -0.14469091403E+03  0.15423346965E+03  0.41800000000E+01 0.  1.
</event>
<event>
11    1  0.8037748E-009  0.1728541E+03  0.7561462E-02  0.1075574E+00
         22   -1    0    0    0    0  0.00000000000E+00  0.00000000000E+00  0.27464000206E+03  0.27464000206E+03  0.00000000000E+00 0.  1.
         22   -1    0    0    0    0 -0.00000000000E+00 -0.00000000000E+00 -0.99737879685E+03  0.99737879685E+03  0.00000000000E+00 0.  1.
         24    2    1    2    0    0  0.26877228702E+00  0.68197492812E+02 -0.69121996753E+03  0.69932294341E+03  0.81342273166E+02 0.  0.
         25    2    1    2    0    0  0.11720457701E+03 -0.42558367361E+02 -0.25312007929E+03  0.30865225695E+03  0.12509321995E+03 0.  0.
        -24    2    1    2    0    0 -0.11747334930E+03 -0.25639125451E+02  0.22160125203E+03  0.26404359855E+03  0.78450968658E+02 0.  0.
        -11    1    3    3    0    0  0.68084203199E+01 -0.17912633772E+02 -0.15751461885E+03  0.15867599751E+03  0.00000000000E+00 0.  1.
         12    1    3    3    0    0 -0.65396480329E+01  0.86110126584E+02 -0.53370534868E+03  0.54064694589E+03  0.00000000000E+00 0. -1.
         11    1    5    5    0    0 -0.69263778168E+02  0.12466017188E+02  0.64936664264E+02  0.95758252472E+02  0.00000000000E+00 0. -1.
        -12    1    5    5    0    0 -0.48209571129E+02 -0.38105142639E+02  0.15666458776E+03  0.16828534607E+03  0.00000000000E+00 0.  1.
          5    1    4    4  501    0  0.46147370174E+02  0.86530240272E+01 -0.73491845239E+01  0.47706786854E+02  0.41800000000E+01 0.  1.
         -5    1    4    4    0  501  0.71057206837E+02 -0.51211391388E+02 -0.24577089477E+03  0.26094547010E+03  0.41800000000E+01 0.  1.
</event>
<event>
11    1  0.8037748E-009  0.1395464E+03  0.7561462E-02  0.1108066E+00
         22   -1    0    0    0    0  0.00000000000E+00  0.00000000000E+00  0.34562080313E+03  0.34562080313E+03  0.00000000000E+00 0. -1.
         22   -1    0    0    0    0 -0.00000000000E+00 -0.00000000000E+00 -0.26460351105E+03  0.26460351105E+03  0.00000000000E+00 0. -1.
        -24    2    1    2    0    0 -0.28746265947E+02 -0.16760500157E+02 -0.20462205341E+03  0.22215149575E+03  0.79836333524E+02 0.  0.
         25    2    1    2    0    0 -0.11591195166E+02 -0.39150251172E+02  0.71360315443E+02  0.14968337640E+03  0.12508285485E+03 0.  0.
         24    2    1    2    0    0  0.40337461113E+02  0.55910751329E+02  0.21427903005E+03  0.23838944203E+03  0.78491403792E+02 0.  0.
        -13    1    5    5    0    0 -0.95994599246E+01 -0.13085221323E+02  0.60064809407E+02  0.62218598321E+02  0.00000000000E+00 0.  1.
         14    1    5    5    0    0  0.49936921037E+02  0.68995972652E+02  0.15421422064E+03  0.17617084371E+03  0.00000000000E+00 0. -1.
         11    1    3    3    0    0 -0.55587848968E+02 -0.20483040322E+02 -0.13412789472E+03  0.14662829207E+03  0.00000000000E+00 0. -1.
        -12    1    3    3    0    0  0.26841583021E+02  0.37225401651E+01 -0.70494158692E+02  0.75523203680E+02  0.00000000000E+00 0.  1.
          5    1    4    4  501    0 -0.38271064536E+02 -0.42643138090E+02 -0.14796741791E+02  0.59325606398E+02  0.41800000000E+01 0. -1.
         -5    1    4    4    0  501  0.26679869370E+02  0.34928869179E+01  0.86157057234E+02  0.90357770003E+02  0.41800000000E+01 0. -1.
</event>
<event>
11    1  0.8037748E-009  0.1439889E+03  0.7561462E-02  0.1103184E+00
         22   -1    0    0    0    0  0.00000000000E+00  0.00000000000E+00  0.16455383551E+04  0.16455383551E+04  0.00000000000E+00 0. -1.
         22   -1    0    0    0    0 -0.00000000000E+00 -0.00000000000E+00 -0.23733166058E+03  0.23733166058E+03  0.00000000000E+00 0. -1.
        -24    2    1    2    0    0 -0.38994034090E+01 -0.28796246981E+02 -0.19248491756E+03  0.21052552576E+03  0.80163110715E+02 0.  0.
         25    2    1    2    0    0  0.74940159526E+02  0.27465966791E+02  0.12937201905E+03  0.19687895169E+03  0.12511512883E+03 0.  0.
         24    2    1    2    0    0 -0.71040756117E+02  0.13302801906E+01  0.14713195931E+04  0.14754655383E+04  0.84667886482E+02 0.  0.
        -11    1    5    5    0    0 -0.30903971594E+01 -0.19229733782E+02  0.80029608576E+02  0.82365474956E+02  0.00000000000E+00 0.  1.
         12    1    5    5    0    0 -0.67950358957E+02  0.20560013973E+02  0.13912899845E+04  0.13931000633E+04  0.00000000000E+00 0. -1.
         13    1    3    3    0    0  0.23784491041E+02 -0.45160820691E+02 -0.94571276491E+02  0.10746593915E+03  0.00000000000E+00 0. -1.
        -14    1    3    3    0    0 -0.27683894450E+02  0.16364573710E+02 -0.97913641070E+02  0.10305958661E+03  0.00000000000E+00 0.  1.
          5    1    4    4  501    0  0.38127816474E+02 -0.29885933612E+02  0.11804557361E+03  0.12766804325E+03  0.41800000000E+01 0. -1.
         -5    1    4    4    0  501  0.36812343052E+02  0.57351900403E+02  0.11326445442E+02  0.69210908440E+02  0.41800000000E+01 0. -1.
</event>
<event>
11    1  0.8037748E-009  0.1801530E+03  0.7561462E-02  0.1069519E+00
         22   -1    0    0    0    0  0.00000000000E+00  0.00000000000E+00  0.24836318392E+04  0.24836318392E+04  0.00000000000E+00 0. -1.
         22   -1    0    0    0    0 -0.00000000000E+00 -0.00000000000E+00 -0.57365129720E+02  0.57365129720E+02  0.00000000000E+00 0. -1.
        -24    2    1    2    0    0 -0.43996233450E+02  0.12969044575E+03  0.86480297357E+02  0.17648806941E+03  0.70099333352E+02 0.  0.
         25    2    1    2    0    0  0.54783643896E+02 -0.84110704499E+02  0.56403326147E+03  0.58639258823E+03  0.12508752628E+03 0.  0.
         24    2    1    2    0    0 -0.10787410446E+02 -0.45579741256E+02  0.17757531506E+04  0.17781163113E+04  0.78768542944E+02 0.  0.
        -13    1    5    5    0    0 -0.11367161888E+02 -0.36263419611E+02  0.30829637791E+03  0.31062985144E+03  0.00000000000E+00 0.  1.
         14    1    5    5    0    0  0.57975144215E+00 -0.93163216443E+01  0.14674567727E+04  0.14674864598E+04  0.00000000000E+00 0. -1.
         13    1    3    3    0    0 -0.43447880273E+02  0.79441473676E+02  0.19279665115E+02  0.92576301109E+02  0.00000000000E+00 0. -1.
        -14    1    3    3    0    0 -0.54835317673E+00  0.50248972079E+02  0.67200632242E+02  0.83911768304E+02  0.00000000000E+00 0.  1.
          5    1    4    4  501    0 -0.32105605788E+00 -0.32420727038E+02  0.43920666781E+03  0.44042158901E+03  0.41800000000E+01 0. -1.
         -5    1    4    4    0  501  0.55104699954E+02 -0.51689977461E+02  0.12482659366E+03  0.14597099922E+03  0.41800000000E+01 0. -1.
</event>
<event>
11    1  0.8037748E-009  0.1673618E+03  0.7561462E-02  0.1080351E+00
         22   -1    0    0    0    0  0.00000000000E+00  0.00000000000E+00  0.19216479383E+03  0.19216479383E+03  0.00000000000E+00 0. -1.
         22   -1    0    0    0    0 -0.00000000000E+00 -0.00000000000E+00 -0.83536195442E+03  0.83536195442E+03  0.00000000000E+00 0.  1.
        -24    2    1    2    0    0  0.95862368226E+02 -0.44110995139E+02 -0.43377177867E+03  0.45371680050E+03  0.81028424326E+02 0.  0.
         25    2    1    2    0    0 -0.19803587536E+03  0.26841199853E+02 -0.31934590451E+03  0.39694757626E+03  0.12508762382E+03 0.  0.
         24    2    1    2    0    0  0.10217350713E+03  0.17269795286E+02  0.10992052260E+03  0.17686237150E+03  0.91978833292E+02 0.  0.
        -11    1    5    5    0    0 -0.17457462475E+02  0.22395445549E+01  0.18631016319E+02  0.25629930257E+02  0.00000000000E+00 0.  1.
         12    1    5    5    0    0  0.11963096961E+03  0.15030250731E+02  0.91289506277E+02  0.15123244124E+03  0.00000000000E+00 0. -1.
         13    1    3    3    0    0  0.42118607510E+02  0.22215337584E+02 -0.16188013224E+03  0.16873848268E+03  0.00000000000E+00 0. -1.
        -14    1    3    3    0    0  0.53743760717E+02 -0.66326332723E+02 -0.27189164643E+03  0.28497831782E+03  0.00000000000E+00 0.  1.
          5    1    4    4  501    0 -0.59146737584E+01  0.10139739302E+01 -0.11507273106E+03  0.11530488863E+03  0.41800000000E+01 0.  1.
         -5    1    4    4    0  501 -0.19212120160E+03  0.25827225923E+02 -0.20427317345E+03  0.28164268763E+03  0.41800000000E+01 0.  1.
</event>
<event>
11    1  0.8037748E-009  0.1667208E+03  0.7561462E-02  0.1080921E+00
         22   -1    0    0    0    0  0.00000000000E+00  0.00000000000E+00  0.40428567771E+03  0.40428567771E+03  0.00000000000E+00 0. -1.
         22   -1    0    0    0    0 -0.00000000000E+00 -0.00000000000E+00 -0.54103234862E+03  0.54103234862E+03  0.00000000000E+00 0. -1.
         24    2    1    2    0    0 -0.92450329271E+02  0.72444430101E+02 -0.35693737885E+03  0.38461036604E+03  0.82009648243E+02 0.  0.
         25    2    1    2    0    0  0.10043402491E+03 -0.11590782836E+02 -0.12341875850E+03  0.20273338149E+03  0.12508914587E+03 0.  0.
        -24    2    1    2    0    0 -0.79836956365E+01 -0.60853647265E+02  0.34360946644E+03  0.35797427880E+03  0.79443143659E+02 0.  0.
        -11    1    3    3    0    0 -0.73652754272E+01  0.36896756860E+02 -0.41709487944E+02  0.56172051177E+02  0.00000000000E+00 0.  1.
         12    1    3    3    0    0 -0.85085053844E+02  0.35547673241E+02 -0.31522789091E+03  0.32843831486E+03  0.00000000000E+00 0. -1.
         13    1    5    5    0    0 -0.18578875298E+02 -0.58989078679E+02  0.34144484238E+03  0.34700067204E+03  0.00000000000E+00 0. -1.
        -14    1    5    5    0    0  0.10595179662E+02 -0.18645685858E+01  0.21646240677E+01  0.10973606765E+02  0.00000000000E+00 0.  1.
          5    1    4    4  501    0  0.10066982482E+03 -0.26010969101E+02 -0.30257267310E+02  0.10836954724E+03  0.41800000000E+01 0.  1.
         -5    1    4    4    0  501 -0.23579991559E+00  0.14420186264E+02 -0.93161491188E+02  0.94363834247E+02  0.41800000000E+01 0.  1.
</event>
<event>
11    1  0.8037748E-009  0.1347853E+03  0.7561462E-02  0.1113525E+00
         22   -1    0    0    0    0  0.00000000000E+00  0.00000000000E+00  0.20754781313E+03  0.20754781313E+03  0.00000000000E+00 0. -1.
         22   -1    0    0    0    0 -0.00000000000E+00 -0.00000000000E+00 -0.10701872366E+04  0.10701872366E+04  0.00000000000E+00 0. -1.
         24    2    1    2    0    0 -0.30751908795E+02 -0.24290757026E+02 -0.94616772404E+03  0.95041961145E+03  0.80798236673E+02 0.  0.
         25    2    1    2    0    0  0.10711095761E+02  0.68847916147E+02 -0.59259271463E+02  0.15495433564E+03  0.12507766286E+03 0.  0.
        -24    2    1    2    0    0  0.20040813034E+02 -0.44557159122E+02  0.14278757200E+03  0.17236110268E+03  0.83265145067E+02 0.  0.
        -13    1    3    3    0    0 -0.28103117116E+02  0.48549122745E+01 -0.10681303928E+03  0.11055487653E+03  0.00000000000E+00 0.  1.
         14    1    3    3    0    0 -0.26487916794E+01 -0.29145669300E+02 -0.83935468476E+03  0.83986473492E+03  0.00000000000E+00 0. -1.
         11    1    5    5    0    0  0.37087042329E+02 -0.13791072425E+02  0.12840161260E+03  0.13436002570E+03  0.00000000000E+00 0. -1.
        -12    1    5    5    0    0 -0.17046229295E+02 -0.30766086696E+02  0.14385959398E+02  0.38001076979E+02  0.00000000000E+00 0.  1.
          5    1    4    4  501    0 -0.51155796941E+02  0.57099379813E+02 -0.48823988217E+02  0.90986311944E+02  0.41800000000E+01 0. -1.
         -5    1    4    4    0  501  0.61866892702E+02  0.11748536334E+02 -0.10435283246E+02  0.63968023692E+02  0.41800000000E+01 0. -1.
</event>
<event>
11    1  0.8037748E-009  0.1278849E+03  0.7561462E-02  0.1121895E+00
         22   -1    0    0    0    0  0.00000000000E+00  0.00000000000E+00  0.57977925568E+03  0.57977925568E+03  0.00000000000E+00 0. -1.
         22   -1    0    0    0    0 -0.00000000000E+00 -0.00000000000E+00 -0.87765307240E+03  0.87765307240E+03  0.00000000000E+00 0.  1.
         24    2    1    2    0    0  0.21674369340E+01 -0.36097482251E+02 -0.74646369173E+03  0.75110195633E+03  0.75089145209E+02 0.  0.
         25    2    1    2    0    0 -0.23472561407E+02  0.19365030176E+02 -0.92534700897E+02  0.15854727634E+03  0.12509437411E+03 0.  0.
        -24    2    1    2    0    0  0.21305124473E+02  0.16732452076E+02  0.54112457590E+03  0.54778309541E+03  0.80725644548E+02 0.  0.
        -13    1    3    3    0    0  0.96806914698E+01 -0.55480350754E+02 -0.64937939450E+03  0.65181698590E+03  0.00000000000E+00 0.  1.
         14    1    3    3    0    0 -0.75132545358E+01  0.19382868503E+02 -0.97084297226E+02  0.99284970429E+02  0.00000000000E+00 0. -1.
         13    1    5    5    0    0  0.40688817750E+02  0.20330056076E+02  0.50116492398E+03  0.50322477294E+03  0.00000000000E+00 0. -1.
        -14    1    5    5    0    0 -0.19383693278E+02 -0.35976040000E+01  0.39959651922E+02  0.44558322470E+02  0.00000000000E+00 0.  1.
          5    1    4    4  501    0 -0.35792507969E+02 -0.19642489328E+02  0.14782069542E+02  0.43622390967E+02  0.41800000000E+01 0.  1.
         -5    1    4    4    0  501  0.12319946563E+02  0.39007519503E+02 -0.10731677044E+03  0.11492488538E+03  0.41800000000E+01 0.  1.
</event>
<event>
11    1  0.8037748E-009  0.2650218E+03  0.7561462E-02  0.1016188E+00
         22   -1    0    0    0    0  0.00000000000E+00  0.00000000000E+00  0.73894713064E+03  0.73894713064E+03  0.00000000000E+00 0.  1.
         22   -1    0    0    0    0 -0.00000000000E+00 -0.00000000000E+00 -0.41768049723E+03  0.41768049723E+03  0.00000000000E+00 0.  1.
        -24    2    1    2    0    0 -0.10446219130E+03 -0.16230033002E+03 -0.17111764382E+03  0.26863997220E+03  0.75049584311E+02 0.  0.
         25    2    1    2    0    0  0.23360513186E+03  0.32306597308E+03  0.87871260549E+02  0.42698058668E+03  0.12509229543E+03 0.  0.
         24    2    1    2    0    0 -0.12914294056E+03 -0.16076564306E+03  0.40451301668E+03  0.46100706898E+03  0.79832611790E+02 0.  0.
        -11    1    5    5    0    0 -0.63176033655E+02 -0.85079452961E+02  0.28977859222E+03  0.30854717152E+03  0.00000000000E+00 0.  1.
         12    1    5    5    0    0 -0.65966906904E+02 -0.75686190102E+02  0.11473442446E+03  0.15245989746E+03  0.00000000000E+00 0. -1.
         11    1    3    3    0    0 -0.29964098266E+02 -0.28003701951E+02 -0.32817367559E+01  0.41143946140E+02  0.00000000000E+00 0. -1.
        -12    1    3    3    0    0 -0.74498093032E+02 -0.13429662806E+03 -0.16783590706E+03  0.22749602606E+03  0.00000000000E+00 0.  1.
          5    1    4    4  501    0  0.16026375168E+03  0.29817007274E+03  0.86460207432E+02  0.34940335180E+03  0.41800000000E+01 0.  1.
         -5    1    4    4    0  501  0.73341380181E+02  0.24895900343E+02  0.14110531167E+01  0.77577234880E+02  0.41800000000E+01 0.  1.
</event>
<event>
11    1  0.8037748E-009  0.1936583E+03  0.7561462E-02  0.1059101E+00
         22   -1    0    0    0    0  0.00000000000E+00  0.00000000000E+00  0.97819809410E+03  0.97819809410E+03  0.00000000000E+00 0.  1.
         22   -1    0    0    0    0 -0.00000000000E+00 -0.00000000000E+00 -0.18346703817E+04  0.18346703817E+04  0.00000000000E+00 0.  1.
        -24    2    1    2    0    0  0.18579335914E+01 -0.22294092903E+02 -0.17836419644E+04  0.17863086781E+04  0.94971352226E+02 0.  0.
         25    2    1    2    0    0 -0.12826425107E+03 -0.58698507336E+02  0.19227894763E+03  0.26928734653E+03  0.12508896206E+03 0.  0.
         24    2    1    2    0    0  0.12640631748E+03  0.80992600239E+02  0.73489072916E+03  0.75727245120E+03  0.10420567715E+03 0.  0.
        -13    1    5    5    0    0 -0.68578018578E+01  0.28402731812E+02  0.24877437601E+03  0.25048440027E+03  0.00000000000E+00 0.  1.
         14    1    5    5    0    0  0.13326411934E+03  0.52589868427E+02  0.48611635315E+03  0.50678805093E+03  0.00000000000E+00 0. -1.
         13    1    3    3    0    0  0.10896525474E+02  0.26616381123E+02 -0.21951253352E+03  0.22138861395E+03  0.00000000000E+00 0. -1.
        -14    1    3    3    0    0 -0.90385918825E+01 -0.48910474027E+02 -0.15641294309E+04  0.15649200642E+04  0.00000000000E+00 0.  1.
          5    1    4    4  501    0 -0.13301748591E+03 -0.75668923409E+02  0.19801023600E+03  0.25028975906E+03  0.41800000000E+01 0.  1.
         -5    1    4    4    0  501  0.47532348428E+01  0.16970416073E+02 -0.57312883678E+01  0.18997587466E+02  0.41800000000E+01 0.  1.
</event>
<event>
11    1  0.8037748E-009  0.1455801E+03  0.7561462E-02  0.1101483E+00
         22   -1    0    0    0    0  0.00000000000E+00  0.00000000000E+00  0.22770227275E+03  0.22770227275E+03  0.00000000000E+00 0.  1.
         22   -1    0    0    0    0 -0.00000000000E+00 -0.00000000000E+00 -0.15791319970E+04  0.15791319970E+04  0.00000000000E+00 0.  1.
        -24    2    1    2    0    0  0.72768178073E+02  0.20008351877E+02 -0.13321211800E+04  0.13368263264E+04  0.82838679804E+02 0.  0.
         25    2    1    2    0    0 -0.53072862193E+02 -0.49490426343E+02 -0.21254068399E+03  0.25707447301E+03  0.12509081230E+03 0.  0.
         24    2    1    2    0    0 -0.19695315880E+02  0.29482074465E+02  0.19323213975E+03  0.21293347032E+03  0.82127369172E+02 0.  0.
        -11    1    5    5    0    0 -0.34654825670E+01 -0.99440868367E+01  0.15592346459E+03  0.15627866534E+03  0.00000000000E+00 0.  1.
         12    1    5    5    0    0 -0.16229833313E+02  0.39426161302E+02  0.37308675162E+02  0.56654804975E+02  0.00000000000E+00 0. -1.
         13    1    3    3    0    0 -0.47618609864E+01 -0.21026608528E+02 -0.40206044405E+03  0.40263804372E+03  0.00000000000E+00 0. -1.
        -14    1    3    3    0    0  0.77530039060E+02  0.41034960405E+02 -0.93006073594E+03  0.93418828266E+03  0.00000000000E+00 0.  1.
          5    1    4    4  501    0 -0.26939974413E+02 -0.83950329012E+02 -0.85811301775E+02  0.12310350066E+03  0.41800000000E+01 0. -1.
         -5    1    4    4    0  501 -0.26132887780E+02  0.34459902669E+02 -0.12672938222E+03  0.13397097235E+03  0.41800000000E+01 0. -1.
</event>
<event>
11    1  0.8037748E-009  0.1426688E+03  0.7561462E-02  0.1104614E+00
         22   -1    0    0    0    0  0.00000000000E+00  0.00000000000E+00  0.17336724839E+03  0.17336724839E+03  0.00000000000E+00 0. -1.
         22   -1    0    0    0    0 -0.00000000000E+00 -0.00000000000E+00 -0.70709652498E+03  0.70709652498E+03  0.00000000000E+00 0. -1.
         24    2    1    2    0    0 -0.17097214072E+02 -0.24253072476E+02 -0.59400371010E+03  0.60008964889E+03  0.79916536702E+02 0.  0.
         25    2    1    2    0    0  0.42942492209E+02 -0.44825524215E+02 -0.58760341932E+01  0.13977199909E+03  0.12509316006E+03 0.  0.
        -24    2    1    2    0    0 -0.25845278138E+02  0.69078596691E+02  0.66150467708E+02  0.14060212539E+03  0.99765937885E+02 0.  0.
        -13    1    3    3    0    0 -0.20720685237E+02  0.10751866218E+02 -0.52648599727E+02  0.57591878569E+02  0.00000000000E+00 0.  1.
         14    1    3    3    0    0  0.36234711656E+01 -0.35004938694E+02 -0.54135511038E+03  0.54249777033E+03  0.00000000000E+00 0. -1.
         11    1    5    5    0    0 -0.57605442673E+02  0.66533589169E+02  0.63710575092E+02  0.10864687244E+03  0.00000000000E+00 0. -1.
        -12    1    5    5    0    0  0.31760164535E+02  0.25450075223E+01  0.24398926160E+01  0.31955252942E+02  0.00000000000E+00 0.  1.
          5    1    4    4  501    0 -0.28204011413E+01  0.27450185928E+02 -0.38986907221E+02  0.47947040626E+02  0.41800000000E+01 0.  1.
         -5    1    4    4    0  501  0.45762893351E+02 -0.72275710143E+02  0.33110873028E+02  0.91824958466E+02  0.41800000000E+01 0.  1.
</event>
<event>
11    1  0.8037748E-009  0.1283041E+03  0.7561462E-02  0.1121370E+00
         22   -1    0    0    0    0  0.00000000000E+00  0.00000000000E+00  0.13567389194E+04  0.13567389194E+04  0.00000000000E+00 0.  1.
         22   -1    0    0    0    0 -0.00000000000E+00 -0.00000000000E+00 -0.10642099357E+03  0.10642099357E+03  0.00000000000E+00 0. -1.
        -24    2    1    2    0    0 -0.27673540045E+02  0.29573856262E+01 -0.72592320611E+02  0.11136523019E+03  0.79737058739E+02 0.  0.
         25    2    1    2    0    0  0.40703051355E+02 -0.37077874902E+01  0.32654226572E+03  0.35206248543E+03  0.12509059224E+03 0.  0.
         24    2    1    2    0    0 -0.13029511311E+02  0.75040186400E+00  0.99636798074E+03  0.99973219737E+03  0.80901063921E+02 0.  0.
        -13    1    5    5    0    0 -0.17963409396E+02  0.28876281851E+02  0.84561725408E+03  0.84630081185E+03  0.00000000000E+00 0.  1.
         14    1    5    5    0    0  0.49338980854E+01 -0.28125879987E+02  0.15075072666E+03  0.15343138552E+03  0.00000000000E+00 0. -1.
         11    1    3    3    0    0 -0.34248187432E+02 -0.23643233599E+02 -0.96551799448E+01  0.42721930401E+02  0.00000000000E+00 0. -1.
        -12    1    3    3    0    0  0.65746473872E+01  0.26600619225E+02 -0.62937140666E+02  0.68643299794E+02  0.00000000000E+00 0.  1.
          5    1    4    4  501    0 -0.24343861419E+02  0.34166980814E+02  0.49867152203E+02  0.65300929822E+02  0.41800000000E+01 0. -1.
         -5    1    4    4    0  501  0.65046912774E+02 -0.37874768304E+02  0.27667511351E+03  0.28676155561E+03  0.41800000000E+01 0. -1.
</event>
<event>
11    1  0.8037748E-009  0.1457437E+03  0.7561462E-02  0.1101309E+00
         22   -1    0    0    0    0  0.00000000000E+00  0.00000000000E+00  0.38590241026E+04  0.38590241026E+04  0.00000000000E+00 0.  1.
         22   -1    0    0    0    0 -0.00000000000E+00 -0.00000000000E+00 -0.31196972447E+03  0.31196972447E+03  0.00000000000E+00 0. -1.
         24    2    1    2    0    0  0.11714903115E+02 -0.77854996122E+02 -0.28309568680E+03  0.30827568232E+03  0.93231373732E+02 0.  0.
         25    2    1    2    0    0 -0.32745904811E+01 -0.57731766503E+01  0.24034552391E+03  0.27103030787E+03  0.12508958553E+03 0.  0.
        -24    2    1    2    0    0 -0.84403126337E+01  0.83628172772E+02  0.35898045411E+04  0.35916878369E+04  0.80373905693E+02 0.  0.
        -11    1    3    3    0    0 -0.35906612611E+02 -0.68848014499E+01 -0.84940030566E+02  0.92474288928E+02  0.00000000000E+00 0.  1.
         12    1    3    3    0    0  0.47621515725E+02 -0.70970194672E+02 -0.19815565624E+03  0.21580139339E+03  0.00000000000E+00 0. -1.
         13    1    5    5    0    0 -0.33222903278E+01 -0.15890630926E+02  0.40679962955E+03  0.40712343137E+03  0.00000000000E+00 0. -1.
        -14    1    5    5    0    0 -0.51180223059E+01  0.99518803698E+02  0.31830049115E+04  0.31845644056E+04  0.00000000000E+00 0.  1.
          5    1    4    4  501    0  0.32806980594E+01  0.52472653338E+02  0.17671288063E+03  0.18441544651E+03  0.41800000000E+01 0.  1.
         -5    1    4    4    0  501 -0.65552885405E+01 -0.58245829988E+02  0.63632643278E+02  0.86614861366E+02  0.41800000000E+01 0.  1.
</event>
<event>
11    1  0.8037748E-009  0.1563401E+03  0.7561462E-02  0.1090571E+00
         22   -1    0    0    0    0  0.00000000000E+00  0.00000000000E+00  0.38677750577E+03  0.38677750577E+03  0.00000000000E+00 0.  1.
         22   -1    0    0    0    0 -0.00000000000E+00 -0.00000000000E+00 -0.94471446599E+03  0.94471446599E+03  0.00000000000E+00 0. -1.
         24    2    1    2    0    0  0.19782671432E+02  0.89865036337E+02 -0.82492097866E+03  0.83397262986E+03  0.80923713962E+02 0.  0.
         25    2    1    2    0    0 -0.10444880538E+02 -0.12146639007E+03 -0.39173197535E+02  0.17901402267E+03  0.12509317113E+03 0.  0.
        -24    2    1    2    0    0 -0.93377908933E+01  0.31601353729E+02  0.30615721598E+03  0.31850531923E+03  0.81409812611E+02 0.  0.
        -11    1    3    3    0    0  0.25094263854E+01 -0.34210613710E+01 -0.68868497012E+00  0.42982750814E+01  0.00000000000E+00 0.  1.
         12    1    3    3    0    0  0.17273245046E+02  0.93286097708E+02 -0.82423229369E+03  0.82967435478E+03  0.00000000000E+00 0. -1.
         13    1    5    5    0    0  0.42110152535E+01 -0.13069368643E+02  0.64249519902E+01  0.15159850074E+02  0.00000000000E+00 0. -1.
        -14    1    5    5    0    0 -0.13548806147E+02  0.44670722372E+02  0.29973226399E+03  0.30334546916E+03  0.00000000000E+00 0.  1.
          5    1    4    4  501    0  0.22536424825E+00 -0.83510791302E+02 -0.84442907474E+02  0.11883677914E+03  0.41800000000E+01 0. -1.
         -5    1    4    4    0  501 -0.10670244787E+02 -0.37955598764E+02  0.45269709939E+02  0.60177243534E+02  0.41800000000E+01 0. -1.
</event>
<event>
11    1  0.8037748E-009  0.1865716E+03  0.7561462E-02  0.1064448E+00
         22   -1    0    0    0    0  0.00000000000E+00  0.00000000000E+00  0.47792478180E+03  0.47792478180E+03  0.00000000000E+00 0.  1.
         22   -1    0    0    0    0 -0.00000000000E+00 -0.00000000000E+00 -0.13808344948E+04  0.13808344948E+04  0.00000000000E+00 0. -1.
        -24    2    1    2    0    0 -0.13268073454E+03  0.25174460711E+02 -0.12170211825E+04  0.12266343512E+04  0.72479941847E+02 0.  0.
         25    2    1    2    0    0  0.20233001046E+03 -0.10102237281E+03 -0.33635062443E+02  0.26061786650E+03  0.12508957580E+03 0.  0.
         24    2    1    2    0    0 -0.69649275919E+02  0.75847912102E+02  0.34774653195E+03  0.37150705895E+03  0.80535190833E+02 0.  0.
        -11    1    5    5    0    0 -0.67702826086E+02  0.86609617450E+02  0.34183204630E+03  0.35907387314E+03  0.00000000000E+00 0.  1.
         12    1    5    5    0    0 -0.19464498327E+01 -0.10761705348E+02  0.59144856517E+01  0.12433185814E+02  0.00000000000E+00 0. -1.
         11    1    3    3    0    0 -0.10460198441E+03 -0.11328532683E+02 -0.93147017178E+03  0.93739350953E+03  0.00000000000E+00 0. -1.
        -12    1    3    3    0    0 -0.28078750131E+02  0.36502993394E+02 -0.28555101075E+03  0.28924084165E+03  0.00000000000E+00 0.  1.
          5    1    4    4  501    0  0.18694536296E+03 -0.37933247360E+02 -0.89170708896E+01  0.19100912685E+03  0.41800000000E+01 0.  1.
         -5    1    4    4    0  501  0.15384647494E+02 -0.63089125453E+02 -0.24717991553E+02  0.69608739648E+02  0.41800000000E+01 0.  1.
</event>
<event>
11    1  0.8037748E-009  0.2934579E+03  0.7561462E-02  0.1002999E+00
         22   -1    0    0    0    0  0.00000000000E+00  0.00000000000E+00  0.22235672106E+04  0.22235672106E+04  0.00000000000E+00 0.  1.
         22   -1    0    0    0    0 -0.00000000000E+00 -0.00000000000E+00 -0.13464464934E+04  0.13464464934E+04  0.00000000000E+00 0. -1.
         24    2    1    2    0    0  0.82669825831E+02 -0.10822871365E+03 -0.11087118130E+04  0.11199877341E+04  0.81134985635E+02 0.  0.
         25    2    1    2    0    0  0.11434987421E+03  0.28541603203E+03 -0.99255262944E+02  0.34646193890E+03  0.12508422288E+03 0.  0.
        -24    2    1    2    0    0 -0.19701970004E+03 -0.17718731838E+03  0.20850877930E+04  0.21035640309E+04  0.84725554409E+02 0.  0.
        -11    1    3    3    0    0  0.22060974713E+02 -0.93190486414E+02 -0.70506674969E+03  0.71154077527E+03  0.00000000000E+00 0.  1.
         12    1    3    3    0    0  0.60608851118E+02 -0.15038227232E+02 -0.40364506326E+03  0.40844695887E+03  0.00000000000E+00 0. -1.
         13    1    5    5    0    0 -0.61389389100E+01 -0.18811926695E+02  0.56405807344E+02  0.59776167985E+02  0.00000000000E+00 0. -1.
        -14    1    5    5    0    0 -0.19088076113E+03 -0.15837539169E+03  0.20286819857E+04  0.20437878629E+04  0.00000000000E+00 0.  1.
          5    1    4    4  501    0 -0.26040902660E+02  0.66304811444E+02 -0.27660439946E+02  0.76531228724E+02  0.41800000000E+01 0. -1.
         -5    1    4    4    0  501  0.14039077687E+03  0.21911122058E+03 -0.71594822997E+02  0.26993071018E+03  0.41800000000E+01 0. -1.
</event>
<event>
11    1  0.8037748E-009  0.1412572E+03  0.7561462E-02  0.1106163E+00
         22   -1    0    0    0    0  0.00000000000E+00  0.00000000000E+00  0.22320026871E+03  0.22320026871E+03  0.00000000000E+00 0.  1.
         22   -1    0    0    0    0 -0.00000000000E+00 -0.00000000000E+00 -0.12968668612E+04  0.12968668612E+04  0.00000000000E+00 0. -1.
        -24    2    1    2    0    0 -0.44593827491E+02 -0.53386420078E+02 -0.11615661784E+04  0.11663728899E+04  0.79693237693E+02 0.  0.
         25    2    1    2    0    0  0.11557964135E+02  0.54564037329E+01 -0.87126463127E+02  0.15297766676E+03  0.12509111508E+03 0.  0.
         24    2    1    2    0    0  0.33035863356E+02  0.47930016345E+02  0.17502604909E+03  0.20071657324E+03  0.79147774309E+02 0.  0.
        -11    1    5    5    0    0  0.57995900174E+02  0.37408166206E+02  0.10516216245E+03  0.12578543535E+03  0.00000000000E+00 0.  1.
         12    1    5    5    0    0 -0.24960036818E+02  0.10521850139E+02  0.69863886638E+02  0.74931137883E+02  0.00000000000E+00 0. -1.
         11    1    3    3    0    0 -0.30792406321E+01 -0.27886023748E+02 -0.89187841356E+03  0.89231957091E+03  0.00000000000E+00 0. -1.
        -12    1    3    3    0    0 -0.41514586859E+02 -0.25500396330E+02 -0.26968776486E+03  0.27405331899E+03  0.00000000000E+00 0.  1.
          5    1    4    4  501    0 -0.36471843923E+02 -0.36471436617E+02 -0.69591212468E+02  0.86722375088E+02  0.41800000000E+01 0.  1.
         -5    1    4    4    0  501  0.48029808058E+02  0.41927840350E+02 -0.17535250659E+02  0.66255291669E+02  0.41800000000E+01 0.  1.
</event>
<event>
11    1  0.8037748E-009  0.1315462E+03  0.7561462E-02  0.1117384E+00
         22   -1    0    0    0    0  0.00000000000E+00  0.00000000000E+00  0.12442209794E+04  0.12442209794E+04  0.00000000000E+00 0. -1.
         22   -1    0    0    0    0 -0.00000000000E+00 -0.00000000000E+00 -0.24881349026E+03  0.24881349026E+03  0.00000000000E+00 0. -1.
        -24    2    1    2    0    0  0.42222568523E+02  0.14637751815E+01 -0.21171500977E+03  0.23663081575E+03  0.96881420656E+02 0.  0.
         25    2    1    2    0    0 -0.15708300627E+02  0.46737277194E+02  0.18046302645E+03  0.22504483393E+03  0.12508856693E+03 0.  0.
         24    2    1    2    0    0 -0.26514267896E+02 -0.48201052376E+02  0.10266594725E+04  0.10313588200E+04  0.81516840715E+02 0.  0.
        -13    1    5    5    0    0 -0.15689997921E+02  0.17466248069E+02  0.12097226393E+03  0.12322960073E+03  0.00000000000E+00 0.  1.
         14    1    5    5    0    0 -0.10824269975E+02 -0.65667300445E+02  0.90568720854E+03  0.90812921927E+03  0.00000000000E+00 0. -1.
         13    1    3    3    0    0  0.49128402541E+02  0.30247877477E+02 -0.19340011326E+03  0.20182204498E+03  0.00000000000E+00 0. -1.
        -14    1    3    3    0    0 -0.69058340185E+01 -0.28784102296E+02 -0.18314896507E+02  0.34808770770E+02  0.00000000000E+00 0.  1.
          5    1    4    4  501    0  0.49245223575E+01 -0.23166444088E+02 -0.60104819944E+01  0.24789783096E+02  0.41800000000E+01 0. -1.
         -5    1    4    4    0  501 -0.20632822984E+02  0.69903721283E+02  0.18647350845E+03  0.20025505084E+03  0.41800000000E+01 0. -1.
</event>
<event>
11    1  0.8037748E-009  0.1466257E+03  0.7561462E-02  0.1100377E+00
         22   -1    0    0    0    0  0.00000000000E+00  0.00000000000E+00  0.64897592946E+03  0.64897592946E+03  0.00000000000E+00 0.  1.
         22   -1    0    0    0    0 -0.00000000000E+00 -0.00000000000E+00 -0.21664917106E+03  0.21664917106E+03  0.00000000000E+00 0. -1.
        -24    2    1    2    0    0 -0.50191368081E+02 -0.58279905234E+02 -0.17330424832E+03  0.20550268865E+03  0.79254474785E+02 0.  0.
         25    2    1    2    0    0  0.37657075346E+02  0.60782834743E+02  0.19864712350E+03  0.24540020782E+03  0.12509186224E+03 0.  0.
         24    2    1    2    0    0  0.12534292735E+02 -0.25029295085E+01  0.40698388323E+03  0.41472220405E+03  0.78709924268E+02 0.  0.
        -13    1    5    5    0    0 -0.31650187908E+02  0.18969889873E+01  0.23363941979E+03  0.23578106676E+03  0.00000000000E+00 0.  1.
         14    1    5    5    0    0  0.44184480642E+02 -0.43999184959E+01  0.17334446343E+03  0.17894113729E+03  0.00000000000E+00 0. -1.
         11    1    3    3    0    0 -0.68331241900E+01 -0.53886167440E+02 -0.46786738003E+02  0.71689674852E+02  0.00000000000E+00 0. -1.
        -12    1    3    3    0    0 -0.43358243891E+02 -0.43937377948E+01 -0.12651751032E+03  0.13381301380E+03  0.00000000000E+00 0.  1.
          5    1    4    4  501    0  0.23209419166E+02  0.99650448919E+02  0.14014441494E+03  0.17357078828E+03  0.41800000000E+01 0. -1.
         -5    1    4    4    0  501  0.14447656181E+02 -0.38867614176E+02  0.58502708567E+02  0.71829419533E+02  0.41800000000E+01 0. -1.
</event>
<event>
11    1  0.8037748E-009  0.1315053E+03  0.7561462E-02  0.1117433E+00
         22   -1    0    0    0    0  0.00000000000E+00  0.00000000000E+00  0.17588368300E+04  0.17588368300E+04  0.00000000000E+00 0. -1.
         22   -1    0    0    0    0 -0.00000000000E+00 -0.00000000000E+00 -0.55994271410E+03  0.55994271410E+03  0.00000000000E+00 0. -1.
        -24    2    1    2    0    0  0.16934144669E+02  0.36483710306E+02 -0.52862843361E+03  0.53637259603E+03  0.81423059225E+02 0.  0.
         25    2    1    2    0    0 -0.38176358292E+02 -0.45055852919E+02  0.15622397349E+03  0.20866489124E+03  0.12509053812E+03 0.  0.
         24    2    1    2    0    0  0.21242213623E+02  0.85721426126E+01  0.15712985760E+04  0.15737420568E+04  0.84617569917E+02 0.  0.
        -11    1    5    5    0    0  0.42636281667E+02  0.15232807781E+02  0.46112365901E+03  0.46334104053E+03  0.00000000000E+00 0.  1.
         12    1    5    5    0    0 -0.21394068044E+02 -0.66606651683E+01  0.11101749170E+04  0.11104010163E+04  0.00000000000E+00 0. -1.
         13    1    3    3    0    0  0.21455218592E+02  0.59958229195E+02 -0.43967748677E+03  0.44426524512E+03  0.00000000000E+00 0. -1.
        -14    1    3    3    0    0 -0.45210739227E+01 -0.23474518888E+02 -0.88950946847E+02  0.92107350909E+02  0.00000000000E+00 0.  1.
          5    1    4    4  501    0  0.11763162529E+02 -0.71282972807E+02  0.48875302175E+02  0.87326409337E+02  0.41800000000E+01 0.  1.
         -5    1    4    4    0  501 -0.49939520820E+02  0.26227119888E+02  0.10734867132E+03  0.12133848190E+03  0.41800000000E+01 0.  1.
</event>
<event>
11    1  0.8037748E-009  0.1442297E+03  0.7561462E-02  0.1102925E+00
         22   -1    0    0    0    0  0.00000000000E+00  0.00000000000E+00  0.11325901850E+03  0.11325901850E+03  0.00000000000E+00 0. -1.
         22   -1    0    0    0    0 -0.00000000000E+00 -0.00000000000E+00 -0.44505108660E+03  0.44505108660E+03  0.00000000000E+00 0. -1.
         24    2    1    2    0    0  0.12486787677E+02 -0.13641692600E+02 -0.13714822791E+03  0.16028640203E+03  0.80870752518E+02 0.  0.
         25    2    1    2    0    0 -0.82660032119E+02  0.77926849581E+01 -0.23908149269E+03  0.28231291728E+03  0.12508883350E+03 0.  0.
        -24    2    1    2    0    0  0.70173244442E+02  0.58490076416E+01  0.44437652501E+02  0.11571078579E+03  0.80347905158E+02 0.  0.
        -11    1    3    3    0    0  0.34913754211E+02 -0.29619603605E+00 -0.19939586883E+02  0.40207525294E+02  0.00000000000E+00 0.  1.
         12    1    3    3    0    0 -0.22426966534E+02 -0.13345496564E+02 -0.11720864102E+03  0.12007887673E+03  0.00000000000E+00 0. -1.
         11    1    5    5    0    0  0.74559351748E+02 -0.36666596915E+01  0.60803069175E+02  0.96278525889E+02  0.00000000000E+00 0. -1.
        -12    1    5    5    0    0 -0.43861073060E+01  0.95156673331E+01 -0.16365416674E+02  0.19432259904E+02  0.00000000000E+00 0.  1.
          5    1    4    4  501    0 -0.73852964577E+02 -0.48517220959E+02 -0.17736108528E+03  0.19819840584E+03  0.41800000000E+01 0. -1.
         -5    1    4    4    0  501 -0.88070675422E+01  0.56309905917E+02 -0.61720407411E+02  0.84114511436E+02  0.41800000000E+01 0. -1.
</event>
<event>
11    1  0.8037748E-009  0.1568162E+03  0.7561462E-02  0.1090111E+00
         22   -1    0    0    0    0  0.00000000000E+00  0.00000000000E+00  0.18978036156E+03  0.18978036156E+03  0.00000000000E+00 0. -1.
         22   -1    0    0    0    0 -0.00000000000E+00 -0.00000000000E+00 -0.48760270768E+03  0.48760270768E+03  0.00000000000E+00 0.  1.
        -24    2    1    2    0    0 -0.11802731251E+02 -0.97229310983E+02 -0.31490291177E+03  0.33920592355E+03  0.79397552569E+02 0.  0.
         25    2    1    2    0    0 -0.17422984433E+02  0.85347867087E+02 -0.10698530811E+03  0.18622975170E+03  0.12509134848E+03 0.  0.
         24    2    1    2    0    0  0.29225715685E+02  0.11881443896E+02  0.12406587376E+03  0.15194739399E+03  0.81855716624E+02 0.  0.
        -11    1    5    5    0    0  0.37316075190E+02 -0.10118083347E+02  0.16809370650E+02  0.42159459435E+02  0.00000000000E+00 0.  1.
         12    1    5    5    0    0 -0.80903595058E+01  0.21999527243E+02  0.10725650311E+03  0.10978793456E+03  0.00000000000E+00 0. -1.
         13    1    3    3    0    0 -0.24145175855E+02 -0.49261972003E+02 -0.25799075349E+03  0.26375928474E+03  0.00000000000E+00 0. -1.
        -14    1    3    3    0    0  0.12342444604E+02 -0.47967338980E+02 -0.56912158281E+02  0.75446638810E+02  0.00000000000E+00 0.  1.
          5    1    4    4  501    0 -0.10330275474E+02  0.10723700086E+03 -0.39525491866E+02  0.11483129300E+03  0.41800000000E+01 0.  1.
         -5    1    4    4    0  501 -0.70927089594E+01 -0.21889133773E+02 -0.67459816241E+02  0.71398458702E+02  0.41800000000E+01 0.  1.
</event>
<event>
11    1  0.8037748E-009  0.1401912E+03  0.7561462E-02  0.1107345E+00
         22   -1    0    0    0    0  0.00000000000E+00  0.00000000000E+00  0.23260454187E+03  0.23260454187E+03  0.00000000000E+00 0. -1.
         22   -1    0    0    0    0 -0.00000000000E+00 -0.00000000000E+00 -0.15713053442E+04  0.15713053442E+04  0.00000000000E+00 0. -1.
        -24    2    1    2    0    0  0.27823090774E+02  0.56677463928E+02 -0.13129197152E+04  0.13171387644E+04  0.84320144071E+02 0.  0.
         25    2    1    2    0    0 -0.48813106327E+02 -0.47829007431E+02 -0.22744085520E+03  0.26841547445E+03  0.12508873254E+03 0.  0.
         24    2    1    2    0    0  0.20990015554E+02 -0.88484564972E+01  0.20165976812E+03  0.21835564721E+03  0.80583190899E+02 0.  0.
        -13    1    5    5    0    0  0.20812205589E+02  0.48805764319E+01  0.59837281786E+01  0.22198489379E+02  0.00000000000E+00 0.  1.
         14    1    5    5    0    0  0.17780996437E+00 -0.13729032929E+02  0.19567603994E+03  0.19615715783E+03  0.00000000000E+00 0. -1.
         11    1    3    3    0    0  0.16622517011E+02  0.55261425789E+02 -0.39921352214E+03  0.40336282614E+03  0.00000000000E+00 0. -1.
        -12    1    3    3    0    0  0.11200573763E+02  0.14160381394E+01 -0.91370619307E+03  0.91377593822E+03  0.00000000000E+00 0.  1.
          5    1    4    4  501    0  0.39975036098E+02 -0.21106030957E+01 -0.44892321368E+02  0.60293043332E+02  0.41800000000E+01 0.  1.
         -5    1    4    4    0  501 -0.88788142425E+02 -0.45718404335E+02 -0.18254853383E+03  0.20812243112E+03  0.41800000000E+01 0.  1.
</event>
<event>
11    1  0.8037748E-009  0.1432476E+03  0.7561462E-02  0.1103985E+00
         22   -1    0    0    0    0  0.00000000000E+00  0.00000000000E+00  0.27718511139E+03  0.27718511139E+03  0.00000000000E+00 0.  1.
         22   -1    0    0    0    0 -0.00000000000E+00 -0.00000000000E+00 -0.52636654262E+03  0.52636654262E+03  0.00000000000E+00 0.  1.
         24    2    1    2    0    0 -0.30448851574E+02  0.69008279290E+02 -0.37333902210E+03  0.38925800093E+03  0.80314946881E+02 0.  0.
         25    2    1    2    0    0  0.58043851930E+02 -0.19954591675E+02 -0.98600883803E+02  0.17069553887E+03  0.12509020037E+03 0.  0.
        -24    2    1    2    0    0 -0.27595000355E+02 -0.49053687616E+02  0.22275847467E+03  0.24359811422E+03  0.80937969475E+02 0.  0.
        -11    1    3    3    0    0 -0.36951419982E+02  0.72158445462E+02 -0.37333179384E+03  0.38203256011E+03  0.00000000000E+00 0.  1.
         12    1    3    3    0    0  0.65025684075E+01 -0.31501661713E+01 -0.72282573013E-02  0.72254408204E+01  0.00000000000E+00 0. -1.
         11    1    5    5    0    0 -0.37597020414E+02 -0.45295468951E+01  0.39406946035E+02  0.54653088979E+02  0.00000000000E+00 0. -1.
        -12    1    5    5    0    0  0.10002020059E+02 -0.44524140721E+02  0.18335152863E+03  0.18894502524E+03  0.00000000000E+00 0.  1.
          5    1    4    4  501    0  0.59841561720E+02  0.19971813062E+02  0.10647569807E+01  0.63233629767E+02  0.41800000000E+01 0.  1.
         -5    1    4    4    0  501 -0.17977097904E+01 -0.39926404737E+02 -0.99665640783E+02  0.10746190910E+03  0.41800000000E+01 0.  1.
</event>
<event>
11    1  0.8037748E-009  0.1325320E+03  0.7561462E-02  0.1116197E+00
         22   -1    0    0    0    0  0.00000000000E+00  0.00000000000E+00  0.18495399674E+03  0.18495399674E+03  0.00000000000E+00 0. -1.
         22   -1    0    0    0    0 -0.00000000000E+00 -0.00000000000E+00 -0.29539333977E+03  0.29539333977E+03  0.00000000000E+00 0.  1.
         24    2    1    2    0    0  0.55487099211E+01  0.10479446606E+02 -0.19117513312E+03  0.20876802355E+03  0.83039443351E+02 0.  0.
         25    2    1    2    0    0 -0.69744819668E+01  0.35168757228E+02 -0.23397270687E+02  0.13221480098E+03  0.12509131240E+03 0.  0.
        -24    2    1    2    0    0  0.14257720456E+01 -0.45648203834E+02  0.10413306078E+03  0.13936451198E+03  0.80579038915E+02 0.  0.
        -13    1    3    3    0    0 -0.18688394011E+02 -0.23721122103E+02 -0.13689534387E+03  0.14018660021E+03  0.00000000000E+00 0.  1.
         14    1    3    3    0    0  0.24237103933E+02  0.34200568709E+02 -0.54279789247E+02  0.68581423343E+02  0.00000000000E+00 0. -1.
         11    1    5    5    0    0 -0.39577323675E+02 -0.23035699623E+02  0.52099133028E+02  0.69363734536E+02  0.00000000000E+00 0. -1.
        -12    1    5    5    0    0  0.41003095721E+02 -0.22612504211E+02  0.52033927753E+02  0.70000777445E+02  0.00000000000E+00 0.  1.
          5    1    4    4  501    0 -0.34114200487E+02 -0.22711295537E+01 -0.62598207295E+02  0.71448895449E+02  0.41800000000E+01 0. -1.
         -5    1    4    4    0  501  0.27139718521E+02  0.37439886782E+02  0.39200936608E+02  0.60765905527E+02  0.41800000000E+01 0. -1.
</event>
<event>
11    1  0.8037748E-009  0.2549868E+03  0.7561462E-02  0.1021276E+00
         22   -1    0    0    0    0  0.00000000000E+00  0.00000000000E+00  0.61890477695E+03  0.61890477695E+03  0.00000000000E+00 0.  1.
         22   -1    0    0    0    0 -0.00000000000E+00 -0.00000000000E+00 -0.25460602318E+03  0.25460602318E+03  0.00000000000E+00 0.  1.
         24    2    1    2    0    0 -0.17842308661E+03 -0.13774467218E+03 -0.61139763077E+02  0.24683980191E+03  0.79896336767E+02 0.  0.
         25    2    1    2    0    0  0.18492156170E+03  0.11410398268E+03  0.68143441462E+02  0.25982047494E+03  0.12508975872E+03 0.  0.
        -24    2    1    2    0    0 -0.64984750890E+01  0.23640689496E+02  0.35729507539E+03  0.36685052328E+03  0.79488509575E+02 0.  0.
        -13    1    3    3    0    0 -0.13010242804E+03 -0.73041998746E+02 -0.71450382142E+02  0.16542953929E+03  0.00000000000E+00 0.  1.
         14    1    3    3    0    0 -0.48320658574E+02 -0.64702673430E+02  0.10310619065E+02  0.81410262618E+02  0.00000000000E+00 0. -1.
         13    1    5    5    0    0  0.48768872522E+01  0.83527691131E+01  0.64715653292E+00  0.96938946098E+01  0.00000000000E+00 0. -1.
        -14    1    5    5    0    0 -0.11375362341E+02  0.15287920383E+02  0.35664791885E+03  0.35715662867E+03  0.00000000000E+00 0.  1.
          5    1    4    4  501    0  0.61617394259E+00  0.50927089793E+02 -0.57054918976E+01  0.51419579762E+02  0.41800000000E+01 0. -1.
         -5    1    4    4    0  501  0.18430538776E+03  0.63176892888E+02  0.73848933360E+02  0.20840089518E+03  0.41800000000E+01 0. -1.
</event>
<event>
11    1  0.8037748E-009  0.3768350E+03  0.7561462E-02  0.9720693E-01
         22   -1    0    0    0    0  0.00000000000E+00  0.00000000000E+00  0.65836775770E+03  0.65836775770E+03  0.00000000000E+00 0. -1.
         22   -1    0    0    0    0 -0.00000000000E+00 -0.00000000000E+00 -0.45200337980E+03  0.45200337980E+03  0.00000000000E+00 0.  1.
        -24    2    1    2    0    0  0.23879310086E+03 -0.35141387000E+03 -0.16347479153E+03  0.46194206621E+03  0.78438587586E+02 0.  0.
         25    2    1    2    0    0 -0.15887610479E+03  0.21473949572E+03  0.75990155481E+02  0.30458932861E+03  0.12508192387E+03 0.  0.
         24    2    1    2    0    0 -0.79916996075E+02  0.13667437427E+03  0.29384901396E+03  0.34383974267E+03  0.82534324934E+02 0.  0.
        -11    1    5    5    0    0 -0.13919663604E+02 -0.95897457104E+01  0.41289440422E+02  0.44615447414E+02  0.00000000000E+00 0.  1.
         12    1    5    5    0    0 -0.65997332471E+02  0.14626411998E+03  0.25255957354E+03  0.29922429526E+03  0.00000000000E+00 0. -1.
         13    1    3    3    0    0  0.45222728888E+02 -0.22806504417E+02 -0.17778178097E+02  0.53677699916E+02  0.00000000000E+00 0. -1.
        -14    1    3    3    0    0  0.19357037198E+03 -0.32860736558E+03 -0.14569661344E+03  0.40826436630E+03  0.00000000000E+00 0.  1.
          5    1    4    4  501    0 -0.64662787192E+02  0.64392852684E+01  0.28373394231E+02  0.71030010153E+02  0.41800000000E+01 0. -1.
         -5    1    4    4    0  501 -0.94213317599E+02  0.20830021045E+03  0.47616761250E+02  0.23355931846E+03  0.41800000000E+01 0. -1.
</event>
<event>
11    1  0.8037748E-009  0.1663376E+03  0.7561462E-02  0.1081264E+00
         22   -1    0    0    0    0  0.00000000000E+00  0.00000000000E+00  0.61086357631E+03  0.61086357631E+03  0.00000000000E+00 0.  1.
         22   -1    0    0    0    0 -0.00000000000E+00 -0.00000000000E+00 -0.88722117159E+03  0.88722117159E+03  0.00000000000E+00 0. -1.
         24    2    1    2    0    0 -0.73964181528E+02 -0.81325824311E+02 -0.85756137507E+03  0.86696357394E+03  0.64263027382E+02 0.  0.
         25    2    1    2    0    0  0.59415799796E+02  0.67998875270E+02  0.29422802941E+03  0.33222221310E+03  0.12508949310E+03 0.  0.
        -24    2    1    2    0    0  0.14548381733E+02  0.13326949041E+02  0.28697575037E+03  0.29889896086E+03  0.81217267367E+02 0.  0.
        -11    1    3    3    0    0 -0.26062926751E+02 -0.38365535665E+02 -0.16425289898E+03  0.17067573144E+03  0.00000000000E+00 0.  1.
         12    1    3    3    0    0 -0.47901254777E+02 -0.42960288646E+02 -0.69330847608E+03  0.69628784250E+03  0.00000000000E+00 0. -1.
         13    1    5    5    0    0  0.23945828151E+02  0.44435184001E+02  0.15658734131E+03  0.16452198553E+03  0.00000000000E+00 0. -1.
        -14    1    5    5    0    0 -0.93974464185E+01 -0.31108234960E+02  0.13038840906E+03  0.13437697533E+03  0.00000000000E+00 0.  1.
          5    1    4    4  501    0  0.84559452287E+02  0.38915566674E+02  0.27222238523E+03  0.28772768675E+03  0.41800000000E+01 0. -1.
         -5    1    4    4    0  501 -0.25143652491E+02  0.29083308596E+02  0.22005644176E+02  0.44494526350E+02  0.41800000000E+01 0. -1.
</event>
<event>
11    1  0.8037748E-009  0.1823770E+03  0.7561462E-02  0.1067736E+00
         22   -1    0    0    0    0  0.00000000000E+00  0.00000000000E+00  0.44940553128E+03  0.44940553128E+03  0.00000000000E+00 0. -1.
         22   -1    0    0    0    0 -0.00000000000E+00 -0.00000000000E+00 -0.44120976721E+03  0.44120976721E+03  0.00000000000E+00 0. -1.
         24    2    1    2    0    0  0.13694094347E+02  0.35855819830E+02 -0.30382234623E+03  0.31650561521E+03  0.79966357635E+02 0.  0.
         25    2    1    2    0    0  0.73237965491E+02  0.70331710731E+02 -0.58232225487E+02  0.17131334930E+03  0.12508765902E+03 0.  0.
        -24    2    1    2    0    0 -0.86932059838E+02 -0.10618753056E+03  0.37025033578E+03  0.40279633399E+03  0.79539932450E+02 0.  0.
        -11    1    3    3    0    0  0.63638141395E+01  0.41978433592E+02 -0.65909929774E+02  0.78401567969E+02  0.00000000000E+00 0.  1.
         12    1    3    3    0    0  0.73302802079E+01 -0.61226137618E+01 -0.23791241646E+03  0.23810404724E+03  0.00000000000E+00 0. -1.
         13    1    5    5    0    0 -0.63416599879E+02 -0.81298705696E+02  0.34547286108E+03  0.36053105613E+03  0.00000000000E+00 0. -1.
        -14    1    5    5    0    0 -0.23515459959E+02 -0.24888824865E+02  0.24777474701E+02  0.42265277862E+02  0.00000000000E+00 0.  1.
          5    1    4    4  501    0  0.50883565590E+02  0.73851836316E+02 -0.93227350794E+02  0.12942968095E+03  0.41800000000E+01 0. -1.
         -5    1    4    4    0  501  0.22354399901E+02 -0.35201255850E+01  0.34995125308E+02  0.41883668349E+02  0.41800000000E+01 0. -1.
</event>
<event>
11    1  0.1021501E-008  0.2917634E+03  0.7561462E-02  0.1003739E+00
         22   -1    0    0    0    0  0.00000000000E+00  0.00000000000E+00  0.51341675386E+03  0.51341675386E+03  0.00000000000E+00 0. -1.
         22   -1    0    0    0    0 -0.00000000000E+00 -0.00000000000E+00 -0.30858294130E+03  0.30858294130E+03  0.00000000000E+00 0. -1.
        -24    2    1    2    0    0 -0.68456823931E+02  0.28103188536E+02 -0.36694584916E+01  0.10546350739E+03  0.75053051345E+02 0.  0.
         25    2    1    2    0    0 -0.12502964306E+03 -0.21567075662E+03 -0.10284347004E+03  0.29727263108E+03  0.12509177013E+03 0.  0.
         24    2    1    2    0    0  0.19348646699E+03  0.18756756808E+03  0.31134674110E+03  0.41926355669E+03  0.78908372625E+02 0.  0.
        -13    1    5    5    0    0  0.75471444142E+02  0.12521264514E+03  0.14401888424E+03  0.20522081864E+03  0.00000000000E+00 0.  1.
         14    1    5    5    0    0  0.11801502285E+03  0.62354922947E+02  0.16732785686E+03  0.21404273806E+03  0.00000000000E+00 0. -1.
         11    1    3    3    0    0 -0.84042862012E+02  0.15765903787E+02 -0.36207495496E+01  0.85585490620E+02  0.00000000000E+00 0. -1.
        -12    1    3    3    0    0  0.15586038081E+02  0.12337284749E+02 -0.48708942005E-01  0.19878016767E+02  0.00000000000E+00 0.  1.
          5    1    4    4  501    0 -0.46122191693E+02 -0.95748280652E+02  0.20074611864E+02  0.10823794277E+03  0.41800000000E+01 0. -1.
         -5    1    4    4    0  501 -0.78907451369E+02 -0.11992247597E+03 -0.12291808191E+03  0.18903468831E+03  0.41800000000E+01 0. -1.
</event>
<event>
11    1  0.8037748E-009  0.1328293E+03  0.7561462E-02  0.1115841E+00
         22   -1    0    0    0    0  0.00000000000E+00  0.00000000000E+00  0.23052664599E+03  0.23052664599E+03  0.00000000000E+00 0.  1.
         22   -1    0    0    0    0 -0.00000000000E+00 -0.00000000000E+00 -0.41822043650E+03  0.41822043650E+03  0.00000000000E+00 0.  1.
         24    2    1    2    0    0 -0.31317316600E+02 -0.34741319461E+02 -0.31258173324E+03  0.32542848986E+03  0.77515343359E+02 0.  0.
         25    2    1    2    0    0  0.14166898508E+02  0.26778196581E+02 -0.43469928308E+02  0.13585528756E+03  0.12509696904E+03 0.  0.
        -24    2    1    2    0    0  0.17150418092E+02  0.79631228791E+01  0.16835787105E+03  0.18746330508E+03  0.80253160941E+02 0.  0.
        -11    1    3    3    0    0 -0.43077489933E+02 -0.45258031829E+02 -0.29607032648E+03  0.30259147015E+03  0.00000000000E+00 0.  1.
         12    1    3    3    0    0  0.11760173333E+02  0.10516712369E+02 -0.16511406761E+02  0.22837019707E+02  0.00000000000E+00 0. -1.
         11    1    5    5    0    0  0.40557287907E+02 -0.40656867066E+01  0.42513609090E+02  0.58896777234E+02  0.00000000000E+00 0. -1.
        -12    1    5    5    0    0 -0.23406869814E+02  0.12028809586E+02  0.12584426196E+03  0.12856652785E+03  0.00000000000E+00 0.  1.
          5    1    4    4  501    0 -0.51136116079E+02  0.23522709015E+02 -0.41942773798E+02  0.70319903874E+02  0.41800000000E+01 0. -1.
         -5    1    4    4    0  501  0.65303014587E+02  0.32554875666E+01 -0.15271545101E+01  0.65535383682E+02  0.41800000000E+01 0. -1.
</event>
<event>
11    1  0.8037748E-009  0.1820304E+03  0.7561462E-02  0.1068012E+00
         22   -1    0    0    0    0  0.00000000000E+00  0.00000000000E+00  0.92718766452E+02  0.92718766452E+02  0.00000000000E+00 0.  1.
         22   -1    0    0    0    0 -0.00000000000E+00 -0.00000000000E+00 -0.12516960601E+04  0.12516960601E+04  0.00000000000E+00 0. -1.
        -24    2    1    2    0    0  0.82431450517E+02  0.10354214325E+03 -0.78285375080E+03  0.79803039033E+03  0.80477259389E+02 0.  0.
         25    2    1    2    0    0 -0.14729880563E+03  0.23176205241E+02 -0.31871592103E+03  0.37346152318E+03  0.12513830889E+03 0.  0.
         24    2    1    2    0    0  0.64867355115E+02 -0.12671834849E+03 -0.57407621789E+02  0.17292291301E+03  0.79632814847E+02 0.  0.
        -11    1    5    5    0    0  0.66198088738E+02 -0.11158080631E+03 -0.74855119307E+02  0.14978568748E+03  0.00000000000E+00 0.  1.
         12    1    5    5    0    0 -0.13307336236E+01 -0.15137542188E+02  0.17447497519E+02  0.23137225528E+02  0.00000000000E+00 0. -1.
         13    1    3    3    0    0  0.43219269285E+02  0.43195841804E+02 -0.57155451987E+03  0.57481158232E+03  0.00000000000E+00 0. -1.
        -14    1    3    3    0    0  0.39212181233E+02  0.60346301450E+02 -0.21129923093E+03  0.22321880801E+03  0.00000000000E+00 0.  1.
          5    1    4    4  501    0 -0.11358120858E+03 -0.40711582649E+02 -0.17568472065E+03  0.21316828417E+03  0.41800000000E+01 0.  1.
         -5    1    4    4    0  501 -0.33717597049E+02  0.63887787891E+02 -0.14303120038E+03  0.16029323901E+03  0.41800000000E+01 0.  1.
</event>
<event>
11    1  0.8037748E-009  0.1402469E+03  0.7561462E-02  0.1107283E+00
         22   -1    0    0    0    0  0.00000000000E+00  0.00000000000E+00  0.41204575227E+03  0.41204575227E+03  0.00000000000E+00 0.  1.
         22   -1    0    0    0    0 -0.00000000000E+00 -0.00000000000E+00 -0.23908908253E+04  0.23908908253E+04  0.00000000000E+00 0. -1.
        -24    2    1    2    0    0 -0.55802779947E+02 -0.32383575659E+02 -0.20080978285E+04  0.20107359943E+04  0.80247766079E+02 0.  0.
         25    2    1    2    0    0  0.73167818237E+02 -0.29021667981E+02 -0.36027758089E+03  0.38941427974E+03  0.12509100339E+03 0.  0.
         24    2    1    2    0    0 -0.17365038290E+02  0.61405243640E+02  0.38953033630E+03  0.40278630354E+03  0.80192112580E+02 0.  0.
        -13    1    5    5    0    0 -0.21184734066E+02  0.79594402526E+02  0.34132175211E+03  0.35111906860E+03  0.00000000000E+00 0.  1.
         14    1    5    5    0    0  0.38196957758E+01 -0.18189158886E+02  0.48208584194E+02  0.51667234944E+02  0.00000000000E+00 0. -1.
         11    1    3    3    0    0 -0.14183148519E+02  0.22806482398E+01 -0.14378027077E+04  0.14378744693E+04  0.00000000000E+00 0. -1.
        -12    1    3    3    0    0 -0.41619631428E+02 -0.34664223899E+02 -0.57029512077E+03  0.57286152508E+03  0.00000000000E+00 0.  1.
          5    1    4    4  501    0  0.36175514816E+02 -0.75090630011E+02 -0.25871395999E+03  0.27184123322E+03  0.41800000000E+01 0. -1.
         -5    1    4    4    0  501  0.36992303421E+02  0.46068962030E+02 -0.10156362090E+03  0.11757304651E+03  0.41800000000E+01 0. -1.
</event>
<event>
11    1  0.8037748E-009  0.1597092E+03  0.7561462E-02  0.1087351E+00
         22   -1    0    0    0    0  0.00000000000E+00  0.00000000000E+00  0.37451293737E+03  0.37451293737E+03  0.00000000000E+00 0. -1.
         22   -1    0    0    0    0 -0.00000000000E+00 -0.00000000000E+00 -0.29686834163E+03  0.29686834163E+03  0.00000000000E+00 0.  1.
        -24    2    1    2    0    0  0.74226362014E+02  0.65414023582E+02 -0.17504219971E+03  0.21569464695E+03  0.78075999800E+02 0.  0.
         25    2    1    2    0    0 -0.11994223799E+03 -0.82928571055E+01 -0.77429436725E+01  0.17366963913E+03  0.12508508483E+03 0.  0.
         24    2    1    2    0    0  0.45715875972E+02 -0.57121166476E+02  0.26042973912E+03  0.28201699293E+03  0.79731839968E+02 0.  0.
        -13    1    5    5    0    0 -0.13118097543E+02  0.11379938194E+02  0.32431245749E+02  0.36788220633E+02  0.00000000000E+00 0.  1.
         14    1    5    5    0    0  0.58833973515E+02 -0.68501104670E+02  0.22799849337E+03  0.24522877229E+03  0.00000000000E+00 0. -1.
         13    1    3    3    0    0 -0.69700284645E+01  0.35676011447E+02 -0.31405588824E+02  0.48038214985E+02  0.00000000000E+00 0. -1.
        -14    1    3    3    0    0  0.81196390479E+02  0.29738012135E+02 -0.14363661089E+03  0.16765643196E+03  0.00000000000E+00 0.  1.
          5    1    4    4  501    0 -0.75350012324E+02 -0.37794099955E+01  0.57117198881E+02  0.94719349159E+02  0.41800000000E+01 0. -1.
         -5    1    4    4    0  501 -0.44592225663E+02 -0.45134471100E+01 -0.64860142554E+02  0.78950289971E+02  0.41800000000E+01 0. -1.
</event>
<event>
11    1  0.8037748E-009  0.3313135E+03  0.7561462E-02  0.9877456E-01
         22   -1    0    0    0    0  0.00000000000E+00  0.00000000000E+00  0.61887476615E+03  0.61887476615E+03  0.00000000000E+00 0.  1.
         22   -1    0    0    0    0 -0.00000000000E+00 -0.00000000000E+00 -0.16379505914E+04  0.16379505914E+04  0.00000000000E+00 0.  1.
         24    2    1    2    0    0 -0.18924443547E+03 -0.23781268454E+03 -0.11664379120E+04  0.12080658468E+04  0.80482037936E+02 0.  0.
         25    2    1    2    0    0  0.39388203144E+03  0.73997303705E+02 -0.30583061623E+03  0.51942143294E+03  0.12509038142E+03 0.  0.
        -24    2    1    2    0    0 -0.20463759597E+03  0.16381538084E+03  0.45319270303E+03  0.52933807773E+03  0.78122658526E+02 0.  0.
        -13    1    3    3    0    0 -0.19279309486E+03 -0.23089963632E+03 -0.10748234657E+04  0.11161224403E+04  0.00000000000E+00 0.  1.
         14    1    3    3    0    0  0.35486593941E+01 -0.69130482193E+01 -0.91614446366E+02  0.91943406518E+02  0.00000000000E+00 0. -1.
         11    1    5    5    0    0 -0.58126466364E+02  0.73222700511E+02  0.22320749347E+03  0.24199552703E+03  0.00000000000E+00 0. -1.
        -12    1    5    5    0    0 -0.14651112961E+03  0.90592680328E+02  0.22998520956E+03  0.28734255070E+03  0.00000000000E+00 0.  1.
          5    1    4    4  501    0  0.80661096780E+02 -0.33814537664E+02 -0.49799348406E+02  0.10073273049E+03  0.41800000000E+01 0.  1.
         -5    1    4    4    0  501  0.31322093466E+03  0.10781184137E+03 -0.25603126782E+03  0.41868870244E+03  0.41800000000E+01 0.  1.
</event>
<event>
11    1  0.8037748E-009  0.2644850E+03  0.7561462E-02  0.1016454E+00
         22   -1    0    0    0    0  0.00000000000E+00  0.00000000000E+00  0.32110373385E+04  0.32110373385E+04  0.00000000000E+00 0.  1.
         22   -1    0    0    0    0 -0.00000000000E+00 -0.00000000000E+00 -0.16850839055E+03  0.16850839055E+03  0.00000000000E+00 0.  1.
        -24    2    1    2    0    0 -0.15692814015E+03  0.32251575157E+02 -0.88323565370E+02  0.20114199540E+03  0.83608880164E+02 0.  0.
         25    2    1    2    0    0  0.32894527481E+03 -0.55210656776E+02  0.21096843782E+04  0.21395505045E+04  0.12511984372E+03 0.  0.
         24    2    1    2    0    0 -0.17201713467E+03  0.22959081619E+02  0.10211681351E+04  0.10388532291E+04  0.79464819083E+02 0.  0.
        -11    1    5    5    0    0 -0.13661978303E+03 -0.16213856488E+02  0.77030243904E+03  0.78249198197E+03  0.00000000000E+00 0.  1.
         12    1    5    5    0    0 -0.35397351642E+02  0.39172938107E+02  0.25086569603E+03  0.25636124713E+03  0.00000000000E+00 0. -1.
         11    1    3    3    0    0  0.45010851784E+01  0.15794616040E+02 -0.17782141783E+02  0.24206078369E+02  0.00000000000E+00 0. -1.
        -12    1    3    3    0    0 -0.16142922532E+03  0.16456959117E+02 -0.70541423587E+02  0.17693591703E+03  0.00000000000E+00 0.  1.
          5    1    4    4  501    0  0.27048701570E+03 -0.32738928708E+02  0.13468911709E+04  0.13741791593E+04  0.41800000000E+01 0. -1.
         -5    1    4    4    0  501  0.58458259117E+02 -0.22471728068E+02  0.76279320727E+03  0.76537134521E+03  0.41800000000E+01 0. -1.
</event>
<event>
11    1  0.8037748E-009  0.1966329E+03  0.7561462E-02  0.1056931E+00
         22   -1    0    0    0    0  0.00000000000E+00  0.00000000000E+00  0.16850739127E+04  0.16850739127E+04  0.00000000000E+00 0.  1.
         22   -1    0    0    0    0 -0.00000000000E+00 -0.00000000000E+00 -0.24058531566E+04  0.24058531566E+04  0.00000000000E+00 0.  1.
        -24    2    1    2    0    0  0.90036075281E+01  0.53242989220E+02 -0.21807103903E+04  0.21828737231E+04  0.80771305265E+02 0.  0.
         25    2    1    2    0    0 -0.73868200439E+01 -0.20388100412E+03 -0.15439209892E+03  0.28479576530E+03  0.12509867614E+03 0.  0.
         24    2    1    2    0    0 -0.16167874842E+01  0.15063801490E+03  0.16143232454E+04  0.16232575809E+04  0.78938000844E+02 0.  0.
        -11    1    5    5    0    0  0.12989194366E+02  0.15395959366E+03  0.15056705311E+04  0.15135772276E+04  0.00000000000E+00 0.  1.
         12    1    5    5    0    0 -0.14605981851E+02 -0.33215787663E+01  0.10865271427E+03  0.10968035334E+03  0.00000000000E+00 0. -1.
         11    1    3    3    0    0  0.23775693192E+02  0.50107385106E+02 -0.73684072126E+03  0.73892508560E+03  0.00000000000E+00 0. -1.
        -12    1    3    3    0    0 -0.14772085664E+02  0.31356041136E+01 -0.14438696691E+04  0.14439486375E+04  0.00000000000E+00 0.  1.
          5    1    4    4  501    0  0.45560680627E+02 -0.14539728256E+03 -0.65590915273E+02  0.16593910317E+03  0.41800000000E+01 0. -1.
         -5    1    4    4    0  501 -0.52947500671E+02 -0.58483721560E+02 -0.88801183651E+02  0.11885666213E+03  0.41800000000E+01 0. -1.
</event>
<event>
11    1  0.8037748E-009  0.1524960E+03  0.7561462E-02  0.1094355E+00
         22   -1    0    0    0    0  0.00000000000E+00  0.00000000000E+00  0.77462540729E+03  0.77462540729E+03  0.00000000000E+00 0. -1.
         22   -1    0    0    0    0 -0.00000000000E+00 -0.00000000000E+00 -0.17583978586E+03  0.17583978586E+03  0.00000000000E+00 0. -1.
        -24    2    1    2    0    0 -0.14494876617E+02  0.84428535369E+02 -0.74834040884E+02  0.13908910747E+03  0.80046031191E+02 0.  0.
         25    2    1    2    0    0 -0.66794660310E+01 -0.93368913390E+02  0.26022622942E+02  0.15839686426E+03  0.12510004176E+03 0.  0.
         24    2    1    2    0    0  0.21174342648E+02  0.89403780204E+01  0.64759703937E+03  0.65297922142E+03  0.80446597592E+02 0.  0.
        -11    1    5    5    0    0  0.44524691957E+02  0.11895559960E+02  0.22207017199E+03  0.22680192642E+03  0.00000000000E+00 0.  1.
         12    1    5    5    0    0 -0.23350349310E+02 -0.29551819398E+01  0.42552686738E+03  0.42617729500E+03  0.00000000000E+00 0. -1.
         13    1    3    3    0    0 -0.42066109393E+02  0.69099833787E+02 -0.34659060819E+02  0.88009062520E+02  0.00000000000E+00 0. -1.
        -14    1    3    3    0    0  0.27571232776E+02  0.15328701582E+02 -0.40174980065E+02  0.51080044951E+02  0.00000000000E+00 0.  1.
          5    1    4    4  501    0 -0.55576769354E+02 -0.22402467230E+02  0.38309178422E+02  0.71244041022E+02  0.41800000000E+01 0.  1.
         -5    1    4    4    0  501  0.48897303323E+02 -0.70966446159E+02 -0.12286555480E+02  0.87152823238E+02  0.41800000000E+01 0.  1.
</event>
<event>
11    1  0.8037748E-009  0.1487533E+03  0.7561462E-02  0.1098160E+00
         22   -1    0    0    0    0  0.00000000000E+00  0.00000000000E+00  0.27925146552E+03  0.27925146552E+03  0.00000000000E+00 0. -1.
         22   -1    0    0    0    0 -0.00000000000E+00 -0.00000000000E+00 -0.11262319763E+04  0.11262319763E+04  0.00000000000E+00 0. -1.
         24    2    1    2    0    0 -0.33781820946E+02 -0.72370701183E+02 -0.10183333440E+04  0.10244235064E+04  0.77858789470E+02 0.  0.
         25    2    1    2    0    0  0.24895339950E+02  0.91611848517E+02 -0.32470168666E+02  0.16036023843E+03  0.12509430632E+03 0.  0.
        -24    2    1    2    0    0  0.88864809966E+01 -0.19241147333E+02  0.20382300193E+03  0.22069969698E+03  0.81947232014E+02 0.  0.
        -11    1    3    3    0    0  0.41071293650E+01  0.15226864469E+02 -0.11914026380E+03  0.12017956720E+03  0.00000000000E+00 0.  1.
         12    1    3    3    0    0 -0.37888950311E+02 -0.87597565652E+02 -0.89919308021E+03  0.90424393919E+03  0.00000000000E+00 0. -1.
         13    1    5    5    0    0 -0.28206248560E+02  0.82699501057E+01  0.13257083719E+03  0.13579032147E+03  0.00000000000E+00 0. -1.
        -14    1    5    5    0    0  0.37092729557E+02 -0.27511097439E+02  0.71252164741E+02  0.84909375505E+02  0.00000000000E+00 0.  1.
          5    1    4    4  501    0  0.42888066760E+01  0.11164048974E+03 -0.54050208234E+02  0.12418087704E+03  0.41800000000E+01 0. -1.
         -5    1    4    4    0  501  0.20606533274E+02 -0.20028641221E+02  0.21580039568E+02  0.36179361389E+02  0.41800000000E+01 0. -1.
</event>
<event>
11    1  0.8037748E-009  0.2329905E+03  0.7561462E-02  0.1033372E+00
         22   -1    0    0    0    0  0.00000000000E+00  0.00000000000E+00  0.23963478600E+04  0.23963478600E+04  0.00000000000E+00 0.  1.
         22   -1    0    0    0    0 -0.00000000000E+00 -0.00000000000E+00 -0.15031691198E+03  0.15031691198E+03  0.00000000000E+00 0. -1.
        -24    2    1    2    0    0  0.11138397070E+03 -0.16230521362E+03 -0.56603330037E+02  0.21899223539E+03  0.77487359576E+02 0.  0.
         25    2    1    2    0    0 -0.12565035849E+03  0.14685842203E+03  0.12085842023E+04  0.12303167476E+04  0.12509243212E+03 0.  0.
         24    2    1    2    0    0  0.14266387784E+02  0.15446791591E+02  0.10940500757E+04  0.10973557890E+04  0.82474397447E+02 0.  0.
        -11    1    5    5    0    0  0.41599987747E+02  0.12832951717E+02  0.93041428934E+03  0.93143222697E+03  0.00000000000E+00 0.  1.
         12    1    5    5    0    0 -0.27333599963E+02  0.26138398739E+01  0.16363578636E+03  0.16592356199E+03  0.00000000000E+00 0. -1.
         11    1    3    3    0    0  0.92177955049E+02 -0.14333836103E+03 -0.75138431673E+02  0.18624834242E+03  0.00000000000E+00 0. -1.
        -12    1    3    3    0    0  0.19206015653E+02 -0.18966852588E+02  0.18535101636E+02  0.32743892973E+02  0.00000000000E+00 0.  1.
          5    1    4    4  501    0  0.28745114257E+01  0.43447697683E+02  0.95177036924E+02  0.10474782102E+03  0.41800000000E+01 0.  1.
         -5    1    4    4    0  501 -0.12852486991E+03  0.10341072435E+03  0.11134071654E+04  0.11255689266E+04  0.41800000000E+01 0.  1.
</event>
<event>
11    1  0.8037748E-009  0.2413702E+03  0.7561462E-02  0.1028600E+00
         22   -1    0    0    0    0  0.00000000000E+00  0.00000000000E+00  0.14618364226E+04  0.14618364226E+04  0.00000000000E+00 0.  1.
         22   -1    0    0    0    0 -0.00000000000E+00 -0.00000000000E+00 -0.34367332385E+03  0.34367332385E+03  0.00000000000E+00 0.  1.
         24    2    1    2    0    0  0.10161439980E+03 -0.49769237574E+00 -0.19420726240E+03  0.23357487721E+03  0.80715726794E+02 0.  0.
         25    2    1    2    0    0 -0.29480578249E+03 -0.48419207203E+02  0.97483407957E+02  0.33823957922E+03  0.12509248221E+03 0.  0.
        -24    2    1    2    0    0  0.19319138270E+03  0.48916899579E+02  0.12148869531E+04  0.12336952900E+04  0.79611470035E+02 0.  0.
        -13    1    3    3    0    0  0.10318520878E+03 -0.90636786459E+01 -0.19847341028E+03  0.22387727033E+03  0.00000000000E+00 0.  1.
         14    1    3    3    0    0 -0.15708089783E+01  0.85659862702E+01  0.42661478778E+01  0.96976068874E+01  0.00000000000E+00 0. -1.
         11    1    5    5    0    0  0.21943938647E+02  0.23713892675E+02  0.91177096863E+02  0.96732353127E+02  0.00000000000E+00 0. -1.
        -12    1    5    5    0    0  0.17124744405E+03  0.25203006904E+02  0.11237098563E+04  0.11369629368E+04  0.00000000000E+00 0.  1.
          5    1    4    4  501    0 -0.20561601238E+03 -0.55832842540E+02  0.10492185667E+02  0.21336074900E+03  0.41800000000E+01 0.  1.
         -5    1    4    4    0  501 -0.89189770113E+02  0.74136353367E+01  0.86991222290E+02  0.12487883022E+03  0.41800000000E+01 0.  1.
</event>
<event>
11    1  0.8037748E-009  0.1501454E+03  0.7561462E-02  0.1096730E+00
         22   -1    0    0    0    0  0.00000000000E+00  0.00000000000E+00  0.10252562761E+03  0.10252562761E+03  0.00000000000E+00 0. -1.
         22   -1    0    0    0    0 -0.00000000000E+00 -0.00000000000E+00 -0.21314902497E+04  0.21314902497E+04  0.00000000000E+00 0.  1.
         24    2    1    2    0    0  0.52436658139E+02  0.61437941193E+02 -0.15698137922E+04  0.15741094148E+04  0.83551682494E+02 0.  0.
         25    2    1    2    0    0 -0.81497040944E+02 -0.55136002420E+02 -0.52742783611E+03  0.55091622024E+03  0.12508722145E+03 0.  0.
        -24    2    1    2    0    0  0.29060382804E+02 -0.63019387728E+01  0.68277006246E+02  0.10899024231E+03  0.79579539185E+02 0.  0.
        -11    1    3    3    0    0  0.58070127698E+02  0.76286181530E+02 -0.11478670495E+04  0.11518639175E+04  0.00000000000E+00 0.  1.
         12    1    3    3    0    0 -0.56334695586E+01 -0.14848240337E+02 -0.42194674276E+03  0.42224549725E+03  0.00000000000E+00 0. -1.
         13    1    5    5    0    0  0.24946878679E+02 -0.75508000417E+01  0.86461365823E+02  0.90304646154E+02  0.00000000000E+00 0. -1.
        -14    1    5    5    0    0  0.41135041254E+01  0.12488612689E+01 -0.18184359577E+02  0.18685596161E+02  0.00000000000E+00 0.  1.
          5    1    4    4  501    0 -0.94362554151E+02 -0.32385350157E+02 -0.50890884039E+03  0.51861236271E+03  0.41800000000E+01 0.  1.
         -5    1    4    4    0  501  0.12865513207E+02 -0.22750652263E+02 -0.18518995720E+02  0.32303857525E+02  0.41800000000E+01 0.  1.
</event>
<event>
11    1  0.8037748E-009  0.1862349E+03  0.7561462E-02  0.1064708E+00
         22   -1    0    0    0    0  0.00000000000E+00  0.00000000000E+00  0.21753452120E+03  0.21753452120E+03  0.00000000000E+00 0. -1.
         22   -1    0    0    0    0 -0.00000000000E+00 -0.00000000000E+00 -0.10903681710E+04  0.10903681710E+04  0.00000000000E+00 0. -1.
        -24    2    1    2    0    0 -0.61171405337E+02 -0.12208043015E+03 -0.83957902196E+03  0.85442092200E+03  0.80601523439E+02 0.  0.
         25    2    1    2    0    0  0.44963790102E+02  0.14003157815E+03 -0.19331674760E+03  0.27322058689E+03  0.12509012309E+03 0.  0.
         24    2    1    2    0    0  0.16207615235E+02 -0.17951148003E+02  0.16006211972E+03  0.18026118335E+03  0.79304990670E+02 0.  0.
        -11    1    5    5    0    0  0.15555274517E+02  0.14223071649E+02  0.14160089014E+03  0.14316100874E+03  0.00000000000E+00 0.  1.
         12    1    5    5    0    0  0.65234071824E+00 -0.32174219653E+02  0.18461229579E+02  0.37100174612E+02  0.00000000000E+00 0. -1.
         13    1    3    3    0    0 -0.45997852133E+02 -0.49793303239E+02 -0.59726353379E+03  0.60109808205E+03  0.00000000000E+00 0. -1.
        -14    1    3    3    0    0 -0.15173553204E+02 -0.72287126910E+02 -0.24231548817E+03  0.25332283995E+03  0.00000000000E+00 0.  1.
          5    1    4    4  501    0  0.61165605738E+02  0.12723016064E+03 -0.89307094537E+02  0.16709869729E+03  0.41800000000E+01 0. -1.
         -5    1    4    4    0  501 -0.16201815636E+02  0.12801417511E+02 -0.10400965307E+03  0.10612188959E+03  0.41800000000E+01 0. -1.
</event>
<event>
11    1  0.8037748E-009  0.1632546E+03  0.7561462E-02  0.1084056E+00
         22   -1    0    0    0    0  0.00000000000E+00  0.00000000000E+00  0.73087506057E+03  0.73087506057E+03  0.00000000000E+00 0. -1.
         22   -1    0    0    0    0 -0.00000000000E+00 -0.00000000000E+00 -0.23941511250E+03  0.23941511250E+03  0.00000000000E+00 0.  1.
        -24    2    1    2    0    0 -0.64198675205E+02  0.20527907182E+02 -0.17323651148E+03  0.20349654962E+03  0.82807559611E+02 0.  0.
         25    2    1    2    0    0  0.12450505394E+03  0.59415753096E+02  0.16645211006E+03  0.24977678235E+03  0.12510154230E+03 0.  0.
         24    2    1    2    0    0 -0.60306378739E+02 -0.79943660278E+02  0.49824434949E+03  0.51701684110E+03  0.95032278936E+02 0.  0.
        -13    1    5    5    0    0  0.22144506589E+02 -0.22072281981E+02  0.19469749966E+03  0.19719199065E+03  0.00000000000E+00 0.  1.
         14    1    5    5    0    0 -0.82450885327E+02 -0.57871378297E+02  0.30354684984E+03  0.31982485045E+03  0.00000000000E+00 0. -1.
         13    1    3    3    0    0  0.17786682523E+02  0.34253669719E+01 -0.59866227659E+02  0.62546498129E+02  0.00000000000E+00 0. -1.
        -14    1    3    3    0    0 -0.81985357728E+02  0.17102540210E+02 -0.11337028382E+03  0.14095005150E+03  0.00000000000E+00 0.  1.
          5    1    4    4  501    0  0.25486929834E+02  0.39532548070E+02 -0.82526999812E+01  0.47937307040E+02  0.41800000000E+01 0. -1.
         -5    1    4    4    0  501  0.99018124110E+02  0.19883205026E+02  0.17470481004E+03  0.20183947531E+03  0.41800000000E+01 0. -1.
</event>
<event>
11    1  0.8037748E-009  0.2542008E+03  0.7561462E-02  0.1021685E+00
         22   -1    0    0    0    0  0.00000000000E+00  0.00000000000E+00  0.10226366649E+04  0.10226366649E+04  0.00000000000E+00 0.  1.
         22   -1    0    0    0    0 -0.00000000000E+00 -0.00000000000E+00 -0.91359119019E+03  0.91359119019E+03  0.00000000000E+00 0. -1.
         24    2    1    2    0    0  0.11119111572E+03 -0.83250940868E+02 -0.69686858735E+03  0.71529324729E+03  0.82002550043E+02 0.  0.
         25    2    1    2    0    0  0.10868250720E+03  0.14163073660E+03 -0.13042522758E+03  0.25402435946E+03  0.12508589963E+03 0.  0.
        -24    2    1    2    0    0 -0.21987362292E+03 -0.58379795729E+02  0.93633928967E+03  0.96691024838E+03  0.80196960264E+02 0.  0.
        -11    1    3    3    0    0  0.66732540831E+02 -0.13162633044E+02 -0.44325766870E+03  0.44844603664E+03  0.00000000000E+00 0.  1.
         12    1    3    3    0    0  0.44458574884E+02 -0.70088307824E+02 -0.25361091865E+03  0.26684721065E+03  0.00000000000E+00 0. -1.
         11    1    5    5    0    0 -0.94857959332E+02 -0.34892098996E+02  0.26487727481E+03  0.28350566437E+03  0.00000000000E+00 0. -1.
        -12    1    5    5    0    0 -0.12501566359E+03 -0.23487696733E+02  0.67146201487E+03  0.68340458401E+03  0.00000000000E+00 0.  1.
          5    1    4    4  501    0 -0.25152193541E+02  0.16995768395E+02 -0.23818608327E+01  0.30734909212E+02  0.41800000000E+01 0.  1.
         -5    1    4    4    0  501  0.13383470074E+03  0.12463496820E+03 -0.12804336675E+03  0.22328945025E+03  0.41800000000E+01 0.  1.
</event>
<event>
11    1  0.8037748E-009  0.1414676E+03  0.7561462E-02  0.1105931E+00
         22   -1    0    0    0    0  0.00000000000E+00  0.00000000000E+00  0.13800911338E+04  0.13800911338E+04  0.00000000000E+00 0. -1.
         22   -1    0    0    0    0 -0.00000000000E+00 -0.00000000000E+00 -0.33668617519E+03  0.33668617519E+03  0.00000000000E+00 0.  1.
         24    2    1    2    0    0 -0.47645099353E+02  0.45424650586E+02 -0.31556226145E+03  0.33278601867E+03  0.82665222418E+02 0.  0.
         25    2    1    2    0    0  0.90528341393E+02 -0.26946140937E+02  0.64664724272E+03  0.66537372728E+03  0.12509222730E+03 0.  0.
        -24    2    1    2    0    0 -0.42883242040E+02 -0.18478509649E+02  0.71231997734E+03  0.71861756305E+03  0.82650009319E+02 0.  0.
        -13    1    3    3    0    0 -0.35923471556E+02  0.57986410438E+02 -0.30518257635E+03  0.31271284673E+03  0.00000000000E+00 0.  1.
         14    1    3    3    0    0 -0.11721627797E+02 -0.12561759852E+02 -0.10379685097E+02  0.20073171934E+02  0.00000000000E+00 0. -1.
         13    1    5    5    0    0 -0.61609602260E+02  0.83437941287E+01  0.47704195312E+03  0.48107627984E+03  0.00000000000E+00 0. -1.
        -14    1    5    5    0    0  0.18726360220E+02 -0.26822303778E+02  0.23527802422E+03  0.23754128321E+03  0.00000000000E+00 0.  1.
          5    1    4    4  501    0  0.31227146341E+02  0.44684398444E+02  0.14099400494E+03  0.15122371494E+03  0.41800000000E+01 0. -1.
         -5    1    4    4    0  501  0.59301195052E+02 -0.71630539381E+02  0.50565323778E+03  0.51415001234E+03  0.41800000000E+01 0. -1.
</event>
<event>
11    1  0.8037748E-009  0.1735716E+03  0.7561462E-02  0.1074965E+00
         22   -1    0    0    0    0  0.00000000000E+00  0.00000000000E+00  0.15680898683E+04  0.15680898683E+04  0.00000000000E+00 0.  1.
         22   -1    0    0    0    0 -0.00000000000E+00 -0.00000000000E+00 -0.61620419451E+02  0.61620419451E+02  0.00000000000E+00 0. -1.
         24    2    1    2    0    0  0.11157141004E+03 -0.34275436930E+02  0.10966014257E+03  0.17879675333E+03  0.79498094419E+02 0.  0.
         25    2    1    2    0    0 -0.12503812372E+03  0.29379116669E+02  0.29036533021E+03  0.34125759195E+03  0.12508818570E+03 0.  0.
        -24    2    1    2    0    0  0.13466713674E+02  0.48963202616E+01  0.11064439760E+04  0.11096559424E+04  0.83142721554E+02 0.  0.
        -13    1    3    3    0    0  0.86907509459E+02  0.97137248041E+01  0.87512201773E+02  0.12371603416E+03  0.00000000000E+00 0.  1.
         14    1    3    3    0    0  0.24663900583E+02 -0.43989161734E+02  0.22147940799E+02  0.55080719165E+02  0.00000000000E+00 0. -1.
         13    1    5    5    0    0 -0.13074440977E+02  0.21436599677E+02  0.11457496451E+03  0.11729403781E+03  0.00000000000E+00 0. -1.
        -14    1    5    5    0    0  0.26541154651E+02 -0.16540279415E+02  0.99186901152E+03  0.99236190462E+03  0.00000000000E+00 0.  1.
          5    1    4    4  501    0 -0.92173108699E+02 -0.26878578917E+02  0.24085426033E+03  0.25931946917E+03  0.41800000000E+01 0.  1.
         -5    1    4    4    0  501 -0.32865015016E+02  0.56257695586E+02  0.49511069876E+02  0.81938122781E+02  0.41800000000E+01 0.  1.
</event>
<event>
11    1  0.8037748E-009  0.6608273E+03  0.7561462E-02  0.9092110E-01
         22   -1    0    0    0    0  0.00000000000E+00  0.00000000000E+00  0.43210080877E+03  0.43210080877E+03  0.00000000000E+00 0. -1.
         22   -1    0    0    0    0 -0.00000000000E+00 -0.00000000000E+00 -0.25265672016E+03  0.25265672016E+03  0.00000000000E+00 0. -1.
        -24    2    1    2    0    0  0.24051671048E+03 -0.38014855047E+02 -0.86112955926E+01  0.25612468276E+03  0.78944800218E+02 0.  0.
         25    2    1    2    0    0 -0.26984000496E+03  0.19859101181E+02  0.15402251236E+03  0.33552642789E+03  0.12508811823E+03 0.  0.
         24    2    1    2    0    0  0.29323294475E+02  0.18155753866E+02  0.34032871850E+02  0.93106418282E+02  0.79505231033E+02 0.  0.
        -13    1    5    5    0    0  0.31890168805E+02  0.41167971214E+02  0.15924219304E+00  0.52075042759E+02  0.00000000000E+00 0.  1.
         14    1    5    5    0    0 -0.25668743301E+01 -0.23012217348E+02  0.33873629657E+02  0.41031375522E+02  0.00000000000E+00 0. -1.
         13    1    3    3    0    0  0.20136235778E+03 -0.15405630592E+02 -0.33193982024E+02  0.20466062892E+03  0.00000000000E+00 0. -1.
        -14    1    3    3    0    0  0.39154352699E+02 -0.22609224455E+02  0.24582686432E+02  0.51464053843E+02  0.00000000000E+00 0.  1.
          5    1    4    4  501    0 -0.10039619383E+03 -0.24879558525E+02  0.20741522987E+01  0.10353821843E+03  0.41800000000E+01 0. -1.
         -5    1    4    4    0  501 -0.16944381113E+03  0.44738659707E+02  0.15194836006E+03  0.23198820946E+03  0.41800000000E+01 0. -1.
</event>
<event>
11    1  0.8037748E-009  0.1634620E+03  0.7561462E-02  0.1083866E+00
         22   -1    0    0    0    0  0.00000000000E+00  0.00000000000E+00  0.10055914565E+04  0.10055914565E+04  0.00000000000E+00 0.  1.
         22   -1    0    0    0    0 -0.00000000000E+00 -0.00000000000E+00 -0.15220337948E+04  0.15220337948E+04  0.00000000000E+00 0. -1.
        -24    2    1    2    0    0 -0.70797743527E+02 -0.80289712104E+02 -0.14658418913E+04  0.14717468433E+04  0.76730451061E+02 0.  0.
         25    2    1    2    0    0 -0.38544748272E+01  0.62597989581E+02  0.48407645808E+02  0.14806770583E+03  0.12508948821E+03 0.  0.
         24    2    1    2    0    0  0.74652218354E+02  0.17691722523E+02  0.90099190717E+03  0.90781070222E+03  0.80298838839E+02 0.  0.
        -13    1    5    5    0    0  0.74461226442E+02  0.35443303385E+02  0.84633028333E+03  0.85033855051E+03  0.00000000000E+00 0.  1.
         14    1    5    5    0    0  0.19099191202E+00 -0.17751580862E+02  0.54661623838E+02  0.57472151705E+02  0.00000000000E+00 0. -1.
         11    1    3    3    0    0 -0.71670277153E+02 -0.52889985802E+02 -0.13398292320E+04  0.13427867851E+04  0.00000000000E+00 0. -1.
        -12    1    3    3    0    0  0.87253362619E+00 -0.27399726303E+02 -0.12601265930E+03  0.12896005824E+03  0.00000000000E+00 0.  1.
          5    1    4    4  501    0  0.19959573775E+02 -0.24298808439E+02  0.48400849420E+02  0.57869951628E+02  0.41800000000E+01 0. -1.
         -5    1    4    4    0  501 -0.23814048602E+02  0.86896798020E+02  0.67963879086E-02  0.90197754203E+02  0.41800000000E+01 0. -1.
</event>
<event>
11    1  0.8037748E-009  0.1982924E+03  0.7561462E-02  0.1055738E+00
         22   -1    0    0    0    0  0.00000000000E+00  0.00000000000E+00  0.76374917470E+03  0.76374917470E+03  0.00000000000E+00 0. -1.
         22   -1    0    0    0    0 -0.00000000000E+00 -0.00000000000E+00 -0.46673101072E+03  0.46673101072E+03  0.00000000000E+00 0.  1.
        -24    2    1    2    0    0 -0.36186741873E+02  0.10213480875E+00 -0.35891499349E+03  0.36981414623E+03  0.81443474135E+02 0.  0.
         25    2    1    2    0    0  0.23908383382E+02 -0.15373121318E+03  0.18903852626E+02  0.20052326379E+03  0.12508927602E+03 0.  0.
         24    2    1    2    0    0  0.12278358491E+02  0.15362907837E+03  0.63702930484E+03  0.66014277540E+03  0.78927161796E+02 0.  0.
        -11    1    5    5    0    0  0.87280706518E+01  0.10490470807E+03  0.26864202191E+03  0.28853026345E+03  0.00000000000E+00 0.  1.
         12    1    5    5    0    0  0.35502878389E+01  0.48724370303E+02  0.36838728293E+03  0.37161251194E+03  0.00000000000E+00 0. -1.
         13    1    3    3    0    0  0.66064607043E+01  0.13048416469E+02 -0.92558795174E+01  0.17308315950E+02  0.00000000000E+00 0. -1.
        -14    1    3    3    0    0 -0.42793202577E+02 -0.12946281660E+02 -0.34965911398E+03  0.35250583028E+03  0.00000000000E+00 0.  1.
          5    1    4    4  501    0 -0.10362262761E+02 -0.12733566854E+03  0.59552797926E+02  0.14101686819E+03  0.41800000000E+01 0.  1.
         -5    1    4    4    0  501  0.34270646143E+02 -0.26395544642E+02 -0.40648945301E+02  0.59506395607E+02  0.41800000000E+01 0.  1.
</event>
<event>
11    1  0.8037748E-009  0.1573196E+03  0.7561462E-02  0.1089626E+00
         22   -1    0    0    0    0  0.00000000000E+00  0.00000000000E+00  0.25145853346E+03  0.25145853346E+03  0.00000000000E+00 0. -1.
         22   -1    0    0    0    0 -0.00000000000E+00 -0.00000000000E+00 -0.87680593262E+03  0.87680593262E+03  0.00000000000E+00 0. -1.
         24    2    1    2    0    0  0.14110963210E+02 -0.92646849191E+01 -0.72019485904E+03  0.72460480276E+03  0.78016226032E+02 0.  0.
         25    2    1    2    0    0 -0.93765825838E+02 -0.41914822812E+02 -0.91103638041E+02  0.18573191351E+03  0.12509032084E+03 0.  0.
        -24    2    1    2    0    0  0.79654862629E+02  0.51179507732E+02  0.18595109792E+03  0.21792774982E+03  0.62852638534E+02 0.  0.
        -13    1    3    3    0    0  0.40511565290E+01  0.31411692879E+02 -0.17820317107E+03  0.18099579138E+03  0.00000000000E+00 0.  1.
         14    1    3    3    0    0  0.10059806681E+02 -0.40676377798E+02 -0.54199168797E+03  0.54360901137E+03  0.00000000000E+00 0. -1.
         13    1    5    5    0    0  0.61983772198E+02  0.24025981804E+02  0.16847792667E+03  0.18111887696E+03  0.00000000000E+00 0. -1.
        -14    1    5    5    0    0  0.17671090430E+02  0.27153525928E+02  0.17473171253E+02  0.36808872856E+02  0.00000000000E+00 0.  1.
          5    1    4    4  501    0  0.26072820156E+02  0.10910148617E+02 -0.29063868384E+02  0.40755418525E+02  0.41800000000E+01 0.  1.
         -5    1    4    4    0  501 -0.11983864599E+03 -0.52824971429E+02 -0.62039769658E+02  0.14497649499E+03  0.41800000000E+01 0.  1.
</event>
<event>
11    1  0.8037748E-009  0.1999083E+03  0.7561462E-02  0.1054589E+00
         22   -1    0    0    0    0  0.00000000000E+00  0.00000000000E+00  0.41687640260E+03  0.41687640260E+03  0.00000000000E+00 0. -1.
         22   -1    0    0    0    0 -0.00000000000E+00 -0.00000000000E+00 -0.16607068258E+04  0.16607068258E+04  0.00000000000E+00 0. -1.
        -24    2    1    2    0    0  0.14647474894E+03 -0.19086140957E+02 -0.12709882039E+04  0.12820218745E+04  0.79686507400E+02 0.  0.
         25    2    1    2    0    0 -0.21580734606E+03  0.38542818291E+02 -0.33393988254E+03  0.41859502840E+03  0.12509034014E+03 0.  0.
         24    2    1    2    0    0  0.69332597129E+02 -0.19456677334E+02  0.36109766327E+03  0.37696632544E+03  0.80786860196E+02 0.  0.
        -13    1    5    5    0    0  0.54707206241E+01  0.27792958647E+02  0.11085326959E+03  0.11441514197E+03  0.00000000000E+00 0.  1.
         14    1    5    5    0    0  0.63861876505E+02 -0.47249635982E+02  0.25024439368E+03  0.26255118347E+03  0.00000000000E+00 0. -1.
         11    1    3    3    0    0  0.13341250607E+03 -0.82598096603E+01 -0.82891541615E+03  0.83962365876E+03  0.00000000000E+00 0. -1.
        -12    1    3    3    0    0  0.13062242863E+02 -0.10826331297E+02 -0.44207278775E+03  0.44239821576E+03  0.00000000000E+00 0.  1.
          5    1    4    4  501    0 -0.28759051115E+02 -0.30231689467E+02 -0.11548901285E+03  0.12286668612E+03  0.41800000000E+01 0. -1.
         -5    1    4    4    0  501 -0.18704829495E+03  0.68774507759E+02 -0.21845086969E+03  0.29572834228E+03  0.41800000000E+01 0. -1.
</event>
<event>
11    1  0.8037748E-009  0.1548235E+03  0.7561462E-02  0.1092050E+00
         22   -1    0    0    0    0  0.00000000000E+00  0.00000000000E+00  0.84443416333E+03  0.84443416333E+03  0.00000000000E+00 0.  1.
         22   -1    0    0    0    0 -0.00000000000E+00 -0.00000000000E+00 -0.46547410929E+03  0.46547410929E+03  0.00000000000E+00 0. -1.
        -24    2    1    2    0    0  0.67875580316E+02 -0.57273470516E+02 -0.40585725727E+03  0.42246698728E+03  0.76621780397E+02 0.  0.
         25    2    1    2    0    0 -0.12799914307E+03  0.83151047720E+02  0.16017110195E+03  0.25416619245E+03  0.12509114325E+03 0.  0.
         24    2    1    2    0    0  0.60123562754E+02 -0.25877577203E+02  0.62464620935E+03  0.63327509289E+03  0.81055318230E+02 0.  0.
        -11    1    5    5    0    0  0.47307309486E+02 -0.45562914450E+02  0.57029956450E+03  0.57406929371E+03  0.00000000000E+00 0.  1.
         12    1    5    5    0    0  0.12816253267E+02  0.19685337247E+02  0.54346644850E+02  0.59205799182E+02  0.00000000000E+00 0. -1.
         11    1    3    3    0    0  0.13551643988E+02 -0.28897596902E+02 -0.28670536641E+03  0.28847649001E+03  0.00000000000E+00 0. -1.
        -12    1    3    3    0    0  0.54323936328E+02 -0.28375873614E+02 -0.11915189086E+03  0.13399049727E+03  0.00000000000E+00 0.  1.
          5    1    4    4  501    0 -0.55174040409E+01 -0.29686952023E+02  0.29785981670E+02  0.42619643028E+02  0.41800000000E+01 0. -1.
         -5    1    4    4    0  501 -0.12248173903E+03  0.11283799974E+03  0.13038512028E+03  0.21154654942E+03  0.41800000000E+01 0. -1.
</event>
<event>
11    1  0.8037748E-009  0.3087046E+03  0.7561462E-02  0.9965731E-01
         22   -1    0    0    0    0  0.00000000000E+00  0.00000000000E+00  0.83960275115E+03  0.83960275115E+03  0.00000000000E+00 0. -1.
         22   -1    0    0    0    0 -0.00000000000E+00 -0.00000000000E+00 -0.10758305467E+04  0.10758305467E+04  0.00000000000E+00 0.  1.
        -24    2    1    2    0    0 -0.62630651134E+02 -0.27008650783E+03 -0.93787041949E+03  0.98128666434E+03  0.80332270484E+02 0.  0.
         25    2    1    2    0    0  0.58598886149E+02  0.35337561638E+03  0.21951260418E+03  0.43834044801E+03  0.12509360199E+03 0.  0.
         24    2    1    2    0    0  0.40317649848E+01 -0.83289108548E+02  0.48213001978E+03  0.49580618549E+03  0.80131684569E+02 0.  0.
        -13    1    5    5    0    0  0.24928450173E+02  0.78605697949E+00  0.17216260586E+03  0.17395978952E+03  0.00000000000E+00 0.  1.
         14    1    5    5    0    0 -0.20896685188E+02 -0.84075165528E+02  0.30996741392E+03  0.32184639597E+03  0.00000000000E+00 0. -1.
         11    1    3    3    0    0 -0.74466519155E+02 -0.14551851981E+03 -0.52110429046E+03  0.54614154174E+03  0.00000000000E+00 0. -1.
        -12    1    3    3    0    0  0.11835868021E+02 -0.12456798802E+03 -0.41676612903E+03  0.43514512259E+03  0.00000000000E+00 0.  1.
          5    1    4    4  501    0 -0.21876155777E+02  0.22431545581E+03  0.10966215584E+03  0.25067758322E+03  0.41800000000E+01 0. -1.
         -5    1    4    4    0  501  0.80475041926E+02  0.12906016057E+03  0.10985044834E+03  0.18766286479E+03  0.41800000000E+01 0. -1.
</event>
<event>
11    1  0.8037748E-009  0.1745348E+03  0.7561462E-02  0.1074151E+00
         22   -1    0    0    0    0  0.00000000000E+00  0.00000000000E+00  0.20287908571E+04  0.20287908571E+04  0.00000000000E+00 0. -1.
         22   -1    0    0    0    0 -0.00000000000E+00 -0.00000000000E+00 -0.15169842528E+03  0.15169842528E+03  0.00000000000E+00 0. -1.
        -24    2    1    2    0    0  0.18051644753E+02  0.15237045689E+02 -0.10688322639E+03  0.13561255702E+03  0.80054432108E+02 0.  0.
         25    2    1    2    0    0  0.64163434153E+02 -0.10508298604E+03  0.25359330754E+03  0.30841069677E+03  0.12509281360E+03 0.  0.
         24    2    1    2    0    0 -0.82215078906E+02  0.89845940349E+02  0.17303823507E+04  0.17364660286E+04  0.79117486887E+02 0.  0.
        -11    1    5    5    0    0 -0.54407770144E+02  0.23078537368E+02  0.42600231307E+03  0.43008231198E+03  0.00000000000E+00 0.  1.
         12    1    5    5    0    0 -0.27807308762E+02  0.66767402981E+02  0.13043800376E+04  0.13063837166E+04  0.00000000000E+00 0. -1.
         13    1    3    3    0    0  0.33217883448E+02 -0.88989516447E+01 -0.11814249592E+02  0.36362007846E+02  0.00000000000E+00 0. -1.
        -14    1    3    3    0    0 -0.15166238695E+02  0.24135997334E+02 -0.95068976794E+02  0.99250549178E+02  0.00000000000E+00 0.  1.
          5    1    4    4  501    0  0.75993087581E+01  0.15524254907E+02  0.11411747611E+03  0.11549468705E+03  0.41800000000E+01 0. -1.
         -5    1    4    4    0  501  0.56564125395E+02 -0.12060724095E+03  0.13947583143E+03  0.19291600971E+03  0.41800000000E+01 0. -1.
</event>
<event>
11    1  0.8037748E-009  0.1258985E+03  0.7561462E-02  0.1124414E+00
         22   -1    0    0    0    0  0.00000000000E+00  0.00000000000E+00  0.24765450023E+03  0.24765450023E+03  0.00000000000E+00 0.  1.
         22   -1    0    0    0    0 -0.00000000000E+00 -0.00000000000E+00 -0.64415196046E+03  0.64415196046E+03  0.00000000000E+00 0.  1.
        -24    2    1    2    0    0 -0.17617355621E+02 -0.14525056383E+02 -0.50548797786E+03  0.51175139961E+03  0.76485624486E+02 0.  0.
         25    2    1    2    0    0  0.25889261252E+02  0.31079206413E+01 -0.96110471970E+02  0.15990440353E+03  0.12510908211E+03 0.  0.
         24    2    1    2    0    0 -0.82719056306E+01  0.11417135742E+02  0.20510098961E+03  0.22015065755E+03  0.78747194682E+02 0.  0.
        -13    1    5    5    0    0 -0.39690584419E+01  0.40720988036E+02  0.16673998791E+03  0.17168627161E+03  0.00000000000E+00 0.  1.
         14    1    5    5    0    0 -0.43028471886E+01 -0.29303852294E+02  0.38361001702E+02  0.48464385943E+02  0.00000000000E+00 0. -1.
         11    1    3    3    0    0 -0.10776695433E+02  0.28466360817E+02 -0.11946625355E+03  0.12328283173E+03  0.00000000000E+00 0. -1.
        -12    1    3    3    0    0 -0.68406601886E+01 -0.42991417200E+02 -0.38602172431E+03  0.38846856787E+03  0.00000000000E+00 0.  1.
          5    1    4    4  501    0 -0.28858881575E+01 -0.40104236474E+02  0.10050236516E+02  0.41655225215E+02  0.41800000000E+01 0. -1.
         -5    1    4    4    0  501  0.28775149410E+02  0.43212157116E+02 -0.10616070849E+03  0.11824917832E+03  0.41800000000E+01 0. -1.
</event>
<event>
11    1  0.8037748E-009  0.1337021E+03  0.7561462E-02  0.1114802E+00
         22   -1    0    0    0    0  0.00000000000E+00  0.00000000000E+00  0.48416320812E+03  0.48416320812E+03  0.00000000000E+00 0.  1.
         22   -1    0    0    0    0 -0.00000000000E+00 -0.00000000000E+00 -0.49504232045E+03  0.49504232045E+03  0.00000000000E+00 0.  1.
         24    2    1    2    0    0 -0.13434947579E+02 -0.44724813094E+02 -0.44632430642E+03  0.45592552812E+03  0.80510210336E+02 0.  0.
         25    2    1    2    0    0  0.30955027748E+02  0.54211206303E+02  0.85375731338E+02  0.16380490123E+03  0.12508381803E+03 0.  0.
        -24    2    1    2    0    0 -0.17520080169E+02 -0.94863932090E+01  0.35006946275E+03  0.35947509922E+03  0.79226090034E+02 0.  0.
        -11    1    3    3    0    0  0.17584639528E+02  0.15831307025E+02 -0.15263093431E+03  0.15445404474E+03  0.00000000000E+00 0.  1.
         12    1    3    3    0    0 -0.31019587107E+02 -0.60556120119E+02 -0.29369337211E+03  0.30147148338E+03  0.00000000000E+00 0. -1.
         13    1    5    5    0    0 -0.20678924062E+02 -0.18511910366E+02  0.36965082424E+02  0.46224734119E+02  0.00000000000E+00 0. -1.
        -14    1    5    5    0    0  0.31588438931E+01  0.90255171574E+01  0.31310438033E+03  0.31325036510E+03  0.00000000000E+00 0.  1.
          5    1    4    4  501    0  0.65891049865E+02 -0.88427699300E+01  0.31334946530E+02  0.73615054890E+02  0.41800000000E+01 0.  1.
         -5    1    4    4    0  501 -0.34936022117E+02  0.63053976233E+02  0.54040784808E+02  0.90189846340E+02  0.41800000000E+01 0.  1.
</event>
<event>
11    1  0.8037748E-009  0.1462270E+03  0.7561462E-02  0.1100798E+00
         22   -1    0    0    0    0  0.00000000000E+00  0.00000000000E+00  0.13059809437E+04  0.13059809437E+04  0.00000000000E+00 0. -1.
         22   -1    0    0    0    0 -0.00000000000E+00 -0.00000000000E+00 -0.20882239126E+03  0.20882239126E+03  0.00000000000E+00 0. -1.
         24    2    1    2    0    0  0.71659597858E+02 -0.29862192111E+02 -0.15989831082E+03  0.19584714331E+03  0.82230075120E+02 0.  0.
         25    2    1    2    0    0 -0.63784427526E+02 -0.39973779524E+01  0.13916961934E+03  0.19773888167E+03  0.12509216662E+03 0.  0.
        -24    2    1    2    0    0 -0.78751703320E+01  0.33859570064E+02  0.11178872439E+04  0.11212173100E+04  0.79043515367E+02 0.  0.
        -11    1    3    3    0    0 -0.17079032662E+02 -0.57016051635E+00 -0.11930056271E+02  0.20840937654E+02  0.00000000000E+00 0.  1.
         12    1    3    3    0    0  0.88738630520E+02 -0.29292031595E+02 -0.14796825455E+03  0.17500620565E+03  0.00000000000E+00 0. -1.
         11    1    5    5    0    0 -0.28525633284E+02  0.67208794104E+01  0.91610574474E+03  0.91657439279E+03  0.00000000000E+00 0. -1.
        -12    1    5    5    0    0  0.20650462952E+02  0.27138690653E+02  0.20178149915E+03  0.20464291717E+03  0.00000000000E+00 0.  1.
          5    1    4    4  501    0 -0.52136133439E+02 -0.57388906393E+02  0.47766742250E+02  0.91163573055E+02  0.41800000000E+01 0.  1.
         -5    1    4    4    0  501 -0.11648294087E+02  0.53391528441E+02  0.91402877093E+02  0.10657530861E+03  0.41800000000E+01 0.  1.
</event>
<event>
11    1  0.8037748E-009  0.1511823E+03  0.7561462E-02  0.1095677E+00
         22   -1    0    0    0    0  0.00000000000E+00  0.00000000000E+00  0.99077501804E+02  0.99077501804E+02  0.00000000000E+00 0.  1.
         22   -1    0    0    0    0 -0.00000000000E+00 -0.00000000000E+00 -0.32823418580E+04  0.32823418580E+04  0.00000000000E+00 0.  1.
         24    2    1    2    0    0  0.10190681542E+02  0.49362791694E+02 -0.30667805621E+04  0.30680142226E+04  0.70906410322E+02 0.  0.
         25    2    1    2    0    0 -0.60734584858E+02 -0.10208841809E+03 -0.10929459460E+03  0.20421349841E+03  0.12508840721E+03 0.  0.
        -24    2    1    2    0    0  0.50543903316E+02  0.52725626401E+02 -0.71891994966E+01  0.10919163875E+03  0.80848324303E+02 0.  0.
        -13    1    3    3    0    0  0.36593141057E+02  0.39766468529E+02 -0.14825520544E+04  0.14835366608E+04  0.00000000000E+00 0.  1.
         14    1    3    3    0    0 -0.26402459515E+02  0.95963231651E+01 -0.15842285077E+04  0.15844775618E+04  0.00000000000E+00 0. -1.
         13    1    5    5    0    0  0.46169642771E+02 -0.78717810935E+01 -0.11681573358E+02  0.48270695120E+02  0.00000000000E+00 0. -1.
        -14    1    5    5    0    0  0.43742605448E+01  0.60597407494E+02  0.44923738618E+01  0.60920943634E+02  0.00000000000E+00 0.  1.
          5    1    4    4  501    0 -0.84330254524E+02 -0.11270185366E+03 -0.10887561548E+03  0.17800188677E+03  0.41800000000E+01 0.  1.
         -5    1    4    4    0  501  0.23595669666E+02  0.10613435566E+02 -0.41897911764E+00  0.26211611644E+02  0.41800000000E+01 0.  1.
</event>
<event>
11    1  0.8037748E-009  0.1252059E+03  0.7561462E-02  0.1125304E+00
         22   -1    0    0    0    0  0.00000000000E+00  0.00000000000E+00  0.30073266835E+03  0.30073266835E+03  0.00000000000E+00 0.  1.
         22   -1    0    0    0    0 -0.00000000000E+00 -0.00000000000E+00 -0.94473064837E+03  0.94473064837E+03  0.00000000000E+00 0. -1.
        -24    2    1    2    0    0  0.12062041899E+02 -0.64562517637E+00 -0.86076857902E+03  0.86444902072E+03  0.78763272544E+02 0.  0.
         25    2    1    2    0    0 -0.89226282889E+01  0.54874214305E+01 -0.23572820464E+02  0.12772308860E+03  0.12509110443E+03 0.  0.
         24    2    1    2    0    0 -0.31394136105E+01 -0.48417962542E+01  0.24034341947E+03  0.25329120740E+03  0.79738181300E+02 0.  0.
        -11    1    5    5    0    0 -0.72514636038E+01 -0.41124353078E+02  0.15360762173E+03  0.15918259199E+03  0.00000000000E+00 0.  1.
         12    1    5    5    0    0  0.41120499932E+01  0.36282556824E+02  0.86735797741E+02  0.94108615411E+02  0.00000000000E+00 0. -1.
         13    1    3    3    0    0  0.17876275387E+02 -0.10092982266E+02 -0.84455072428E+03  0.84480018667E+03  0.00000000000E+00 0. -1.
        -14    1    3    3    0    0 -0.58142334880E+01  0.94473570895E+01 -0.16217854735E+02  0.19648834043E+02  0.00000000000E+00 0.  1.
          5    1    4    4  501    0  0.88137370982E+01 -0.19622894978E+02  0.46326305521E+02  0.51247819000E+02  0.41800000000E+01 0.  1.
         -5    1    4    4    0  501 -0.17736365387E+02  0.25110316409E+02 -0.69899125985E+02  0.76475269603E+02  0.41800000000E+01 0.  1.
</event>
<event>
11    1  0.8037748E-009  0.1170223E+04  0.7561462E-02  0.8532076E-01
         22   -1    0    0    0    0  0.00000000000E+00  0.00000000000E+00  0.71547692786E+03  0.71547692786E+03  0.00000000000E+00 0. -1.
         22   -1    0    0    0    0 -0.00000000000E+00 -0.00000000000E+00 -0.24510122705E+04  0.24510122705E+04  0.00000000000E+00 0. -1.
         24    2    1    2    0    0 -0.77430792049E+02 -0.25922201908E+02 -0.35848085662E+03  0.37653230277E+03  0.81243845050E+02 0.  0.
         25    2    1    2    0    0 -0.11007937899E+04 -0.16081565357E+03 -0.10853110572E+04  0.15592173966E+04  0.12510058641E+03 0.  0.
        -24    2    1    2    0    0  0.11782245820E+04  0.18673785548E+03 -0.29174342885E+03  0.12307394990E+04  0.80754527756E+02 0.  0.
        -13    1    3    3    0    0 -0.62151476686E+02 -0.10567804354E+02 -0.34565791102E+03  0.35136003756E+03  0.00000000000E+00 0.  1.
         14    1    3    3    0    0 -0.15279315363E+02 -0.15354397554E+02 -0.12822945606E+02  0.25172265218E+02  0.00000000000E+00 0. -1.
         11    1    5    5    0    0  0.67194102125E+03  0.11623236478E+03 -0.12673142975E+03  0.69359610289E+03  0.00000000000E+00 0. -1.
        -12    1    5    5    0    0  0.50628356075E+03  0.70505490699E+02 -0.16501199910E+03  0.53714339608E+03  0.00000000000E+00 0.  1.
          5    1    4    4  501    0 -0.10622153625E+04 -0.14606276925E+03 -0.10088842705E+04  0.14722434420E+04  0.41800000000E+01 0. -1.
         -5    1    4    4    0  501 -0.38578427425E+02 -0.14752884322E+02 -0.76426786663E+02  0.86973954596E+02  0.41800000000E+01 0. -1.
</event>
<event>
11    1  0.8037748E-009  0.1667933E+03  0.7561462E-02  0.1080856E+00
         22   -1    0    0    0    0  0.00000000000E+00  0.00000000000E+00  0.22631243341E+03  0.22631243341E+03  0.00000000000E+00 0. -1.
         22   -1    0    0    0    0 -0.00000000000E+00 -0.00000000000E+00 -0.69968522498E+03  0.69968522498E+03  0.00000000000E+00 0. -1.
        -24    2    1    2    0    0  0.59701055258E+02 -0.11883558007E+02 -0.48067439702E+03  0.49153660669E+03  0.82794473348E+02 0.  0.
         25    2    1    2    0    0 -0.11917203437E+03 -0.77395353857E+02 -0.13953293711E+03  0.23517371729E+03  0.12508086260E+03 0.  0.
         24    2    1    2    0    0  0.59470979117E+02  0.89278911864E+02  0.14683454256E+03  0.19928733440E+03  0.81532431000E+02 0.  0.
        -13    1    5    5    0    0  0.33587688581E+02  0.52178890570E+02  0.20908162385E+02  0.65482216667E+02  0.00000000000E+00 0.  1.
         14    1    5    5    0    0  0.25883290536E+02  0.37100021294E+02  0.12592638017E+03  0.13380511774E+03  0.00000000000E+00 0. -1.
         11    1    3    3    0    0  0.52052310415E+02  0.49326695139E+01 -0.46308799368E+03  0.46603032535E+03  0.00000000000E+00 0. -1.
        -12    1    3    3    0    0  0.76487448435E+01 -0.16816227521E+02 -0.17586403335E+02  0.25506281344E+02  0.00000000000E+00 0.  1.
          5    1    4    4  501    0 -0.27893541373E+02 -0.43228074558E+02 -0.12666182007E+03  0.13677501652E+03  0.41800000000E+01 0.  1.
         -5    1    4    4    0  501 -0.91278493001E+02 -0.34167279299E+02 -0.12871117038E+02  0.98398700770E+02  0.41800000000E+01 0.  1.
</event>
<event>
11    1  0.8037748E-009  0.1478289E+03  0.7561462E-02  0.1099118E+00
         22   -1    0    0    0    0  0.00000000000E+00  0.00000000000E+00  0.17604156039E+04  0.17604156039E+04  0.00000000000E+00 0.  1.
         22   -1    0    0    0    0 -0.00000000000E+00 -0.00000000000E+00 -0.15519872937E+03  0.15519872937E+03  0.00000000000E+00 0.  1.
         24    2    1    2    0    0 -0.21157145435E+02 -0.74878764743E+02 -0.11990508160E+03  0.16604846272E+03  0.84500941789E+02 0.  0.
         25    2    1    2    0    0 -0.18422647015E+02  0.13267927762E+03  0.10431691002E+04  0.10591466780E+04  0.12508688676E+03 0.  0.
        -24    2    1    2    0    0  0.39579792450E+02 -0.57800512875E+02  0.68195285598E+03  0.69041919262E+03  0.81923772501E+02 0.  0.
        -13    1    3    3    0    0  0.25937895265E+01 -0.50099425529E+02 -0.12174455020E+03  0.13167541793E+03  0.00000000000E+00 0.  1.
         14    1    3    3    0    0 -0.23750934961E+02 -0.24779339213E+02  0.18394685960E+01  0.34373044790E+02  0.00000000000E+00 0. -1.
         11    1    5    5    0    0  0.60632709165E+00 -0.18876190174E+02  0.25880904959E+02  0.32039029785E+02  0.00000000000E+00 0. -1.
        -12    1    5    5    0    0  0.38973465358E+02 -0.38924322701E+02  0.65607195102E+03  0.65838016283E+03  0.00000000000E+00 0.  1.
          5    1    4    4  501    0 -0.65957314736E+02  0.59039554886E+02  0.37996085880E+03  0.39015863828E+03  0.41800000000E+01 0.  1.
         -5    1    4    4    0  501  0.47534667721E+02  0.73639722732E+02  0.66320824140E+03  0.66898803970E+03  0.41800000000E+01 0.  1.
</event>
<event>
11    1  0.8037748E-009  0.1424643E+03  0.7561462E-02  0.1104837E+00
         22   -1    0    0    0    0  0.00000000000E+00  0.00000000000E+00  0.40482245657E+03  0.40482245657E+03  0.00000000000E+00 0. -1.
         22   -1    0    0    0    0 -0.00000000000E+00 -0.00000000000E+00 -0.11920879951E+04  0.11920879951E+04  0.00000000000E+00 0. -1.
        -24    2    1    2    0    0 -0.43410054437E+01 -0.40917844787E+02 -0.11271661936E+04  0.11307574720E+04  0.80098177864E+02 0.  0.
         25    2    1    2    0    0 -0.28772764692E+02  0.95045299438E+02  0.63598861818E+02  0.17191068838E+03  0.12508792356E+03 0.  0.
         24    2    1    2    0    0  0.33113770136E+02 -0.54127454650E+02  0.27630179319E+03  0.29424229137E+03  0.78800647141E+02 0.  0.
        -13    1    5    5    0    0  0.21445549830E+02 -0.59238401674E+02  0.10487763017E+03  0.12234548276E+03  0.00000000000E+00 0.  1.
         14    1    5    5    0    0  0.11668220306E+02  0.51109470233E+01  0.17142416301E+03  0.17189680861E+03  0.00000000000E+00 0. -1.
         11    1    3    3    0    0  0.13526806562E+02 -0.14158940994E+01 -0.85912286751E+03  0.85923051665E+03  0.00000000000E+00 0. -1.
        -12    1    3    3    0    0 -0.17867812005E+02 -0.39501950688E+02 -0.26804332607E+03  0.27152695532E+03  0.00000000000E+00 0.  1.
          5    1    4    4  501    0  0.18551045839E+02  0.87349974638E+02  0.81098671246E+02  0.12070056441E+03  0.41800000000E+01 0.  1.
         -5    1    4    4    0  501 -0.47323810531E+02  0.76953247999E+01 -0.17499809428E+02  0.51210123970E+02  0.41800000000E+01 0.  1.
</event>
<event>
11    1  0.8037748E-009  0.1298755E+03  0.7561462E-02  0.1119422E+00
         22   -1    0    0    0    0  0.00000000000E+00  0.00000000000E+00  0.21874012375E+03  0.21874012375E+03  0.00000000000E+00 0.  1.
         22   -1    0    0    0    0 -0.00000000000E+00 -0.00000000000E+00 -0.57496066658E+03  0.57496066658E+03  0.00000000000E+00 0. -1.
        -24    2    1    2    0    0 -0.34203721221E+02 -0.79870341338E+01 -0.44706534224E+03  0.45612878471E+03  0.83380817602E+02 0.  0.
         25    2    1    2    0    0  0.34043795953E+02  0.47726358400E+00 -0.77393037114E+02  0.15098513436E+03  0.12509045040E+03 0.  0.
         24    2    1    2    0    0  0.15992526799E+00  0.75097705498E+01  0.16823783653E+03  0.18658687126E+03  0.80338463106E+02 0.  0.
        -13    1    5    5    0    0  0.70144862949E+01 -0.18104339440E+02  0.15631154324E+03  0.15751275718E+03  0.00000000000E+00 0.  1.
         14    1    5    5    0    0 -0.68545610269E+01  0.25614109990E+02  0.11926293289E+02  0.29074114072E+02  0.00000000000E+00 0. -1.
         13    1    3    3    0    0 -0.11581464556E+02  0.44871168601E+01 -0.41391459487E+03  0.41410090121E+03  0.00000000000E+00 0. -1.
        -14    1    3    3    0    0 -0.22622256665E+02 -0.12474150994E+02 -0.33150747375E+02  0.42027883496E+02  0.00000000000E+00 0.  1.
          5    1    4    4  501    0 -0.16079544344E+02  0.43099918764E+02 -0.71060137972E+02  0.84753586074E+02  0.41800000000E+01 0. -1.
         -5    1    4    4    0  501  0.50123340298E+02 -0.42622655180E+02 -0.63328991412E+01  0.66231548288E+02  0.41800000000E+01 0. -1.
</event>
<event>
11    1  0.8037748E-009  0.1414268E+03  0.7561462E-02  0.1105976E+00
         22   -1    0    0    0    0  0.00000000000E+00  0.00000000000E+00  0.73265512909E+03  0.73265512909E+03  0.00000000000E+00 0. -1.
         22   -1    0    0    0    0 -0.00000000000E+00 -0.00000000000E+00 -0.88022849107E+03  0.88022849107E+03  0.00000000000E+00 0.  1.
        -24    2    1    2    0    0 -0.51497429612E+02 -0.44331430153E+02 -0.77719515241E+03  0.78424425269E+03  0.79934235404E+02 0.  0.
         25    2    1    2    0    0  0.41393939503E+02  0.13739806951E+02 -0.51280671381E+02  0.14206073659E+03  0.12509718263E+03 0.  0.
         24    2    1    2    0    0  0.10103490109E+02  0.30591623202E+02  0.68090246181E+03  0.68657863087E+03  0.82000767940E+02 0.  0.
        -11    1    5    5    0    0  0.27381622074E+02  0.43548112972E+02  0.25542855397E+03  0.26055697564E+03  0.00000000000E+00 0.  1.
         12    1    5    5    0    0 -0.17278131965E+02 -0.12956489770E+02  0.42547390784E+03  0.42602165523E+03  0.00000000000E+00 0. -1.
         13    1    3    3    0    0 -0.17685844536E+02 -0.67269871610E+01 -0.30869462049E+02  0.36207252594E+02  0.00000000000E+00 0. -1.
        -14    1    3    3    0    0 -0.33811585077E+02 -0.37604442992E+02 -0.74632569036E+03  0.74803700010E+03  0.00000000000E+00 0.  1.
          5    1    4    4  501    0  0.24704117044E+02  0.51074991002E+02 -0.75357410958E+02  0.94420124396E+02  0.41800000000E+01 0.  1.
         -5    1    4    4    0  501  0.16689822459E+02 -0.37335184050E+02  0.24076739577E+02  0.47640612197E+02  0.41800000000E+01 0.  1.
</event>
<event>
11    1  0.8037748E-009  0.1281847E+03  0.7561462E-02  0.1121520E+00
         22   -1    0    0    0    0  0.00000000000E+00  0.00000000000E+00  0.10840285800E+04  0.10840285800E+04  0.00000000000E+00 0.  1.
         22   -1    0    0    0    0 -0.00000000000E+00 -0.00000000000E+00 -0.17680811070E+03  0.17680811070E+03  0.00000000000E+00 0.  1.
         24    2    1    2    0    0  0.18277728939E+02  0.30736758684E+01 -0.14102745924E+03  0.16431813377E+03  0.82268961134E+02 0.  0.
         25    2    1    2    0    0 -0.14909990539E+02  0.25127131245E+02  0.16505424291E+03  0.20915145960E+03  0.12509096453E+03 0.  0.
        -24    2    1    2    0    0 -0.33677384007E+01 -0.28200807114E+02  0.88319368565E+03  0.88736709735E+03  0.81133543644E+02 0.  0.
        -11    1    3    3    0    0  0.47153656154E+02  0.19317677120E+02 -0.79292725562E+02  0.94254847435E+02  0.00000000000E+00 0.  1.
         12    1    3    3    0    0 -0.28875927214E+02 -0.16244001252E+02 -0.61734733678E+02  0.70063286331E+02  0.00000000000E+00 0. -1.
         11    1    5    5    0    0  0.20113754249E+02 -0.17773702873E+02  0.94049608871E+02  0.97804890228E+02  0.00000000000E+00 0. -1.
        -12    1    5    5    0    0 -0.23481492650E+02 -0.10427104240E+02  0.78914407678E+03  0.78956220712E+03  0.00000000000E+00 0.  1.
          5    1    4    4  501    0 -0.46183048892E+02  0.15490387307E+02  0.16899673028E+03  0.17592667038E+03  0.41800000000E+01 0.  1.
         -5    1    4    4    0  501  0.31273058353E+02  0.96367439382E+01 -0.39424873667E+01  0.33224789226E+02  0.41800000000E+01 0.  1.
</event>
<event>
11    1  0.8037748E-009  0.1544533E+03  0.7561462E-02  0.1092413E+00
         22   -1    0    0    0    0  0.00000000000E+00  0.00000000000E+00  0.13715504703E+03  0.13715504703E+03  0.00000000000E+00 0.  1.
         22   -1    0    0    0    0 -0.00000000000E+00 -0.00000000000E+00 -0.26597998707E+04  0.26597998707E+04  0.00000000000E+00 0. -1.
         24    2    1    2    0    0 -0.35281559051E+02 -0.54298438799E+02 -0.24470316114E+04  0.24490961628E+04  0.76910328232E+02 0.  0.
         25    2    1    2    0    0  0.10110154719E+03  0.99530221185E+02 -0.12275639695E+03  0.22548735341E+03  0.12509047038E+03 0.  0.
        -24    2    1    2    0    0 -0.65819988143E+02 -0.45231782386E+02  0.47143184727E+02  0.12237140148E+03  0.79837929947E+02 0.  0.
        -13    1    3    3    0    0  0.14382978259E+02  0.94026503760E+01 -0.25593619213E+03  0.25651240582E+03  0.00000000000E+00 0.  1.
         14    1    3    3    0    0 -0.49664537310E+02 -0.63701089175E+02 -0.21910954193E+04  0.21925837570E+04  0.00000000000E+00 0. -1.
         11    1    5    5    0    0 -0.46186901583E+02 -0.38067351948E+02 -0.10759724937E+02  0.60812209653E+02  0.00000000000E+00 0. -1.
        -12    1    5    5    0    0 -0.19633086560E+02 -0.71644304382E+01  0.57902909664E+02  0.61559191831E+02  0.00000000000E+00 0.  1.
          5    1    4    4  501    0  0.90395318227E+02  0.11779532940E+03 -0.61908671224E+02  0.16092609844E+03  0.41800000000E+01 0.  1.
         -5    1    4    4    0  501  0.10706228967E+02 -0.18265108214E+02 -0.60847725731E+02  0.64561254971E+02  0.41800000000E+01 0.  1.
</event>
<event>
11    1  0.8037748E-009  0.2652148E+03  0.7561462E-02  0.1016092E+00
         22   -1    0    0    0    0  0.00000000000E+00  0.00000000000E+00  0.26485860201E+03  0.26485860201E+03  0.00000000000E+00 0.  1.
         22   -1    0    0    0    0 -0.00000000000E+00 -0.00000000000E+00 -0.44058028030E+03  0.44058028030E+03  0.00000000000E+00 0.  1.
         24    2    1    2    0    0  0.80154334999E+01 -0.56909800357E+02 -0.14382971648E+03  0.17412909178E+03  0.79567460141E+02 0.  0.
         25    2    1    2    0    0  0.51445828672E+02 -0.19382487115E+03 -0.79311830717E+02  0.24930200858E+03  0.12508545490E+03 0.  0.
        -24    2    1    2    0    0 -0.59461262172E+02  0.25073467150E+03  0.47419868911E+02  0.28200778195E+03  0.10428915533E+03 0.  0.
        -11    1    3    3    0    0  0.24672628167E+02 -0.66054253416E+02 -0.75931043117E+02  0.10362155318E+03  0.00000000000E+00 0.  1.
         12    1    3    3    0    0 -0.16657194667E+02  0.91444530589E+01 -0.67898673358E+02  0.70507538602E+02  0.00000000000E+00 0. -1.
         13    1    5    5    0    0 -0.28438183019E+02  0.15212584131E+03  0.79213006264E+02  0.17385540603E+03  0.00000000000E+00 0. -1.
        -14    1    5    5    0    0 -0.31023079152E+02  0.98608830197E+02 -0.31793137353E+02  0.10815237591E+03  0.00000000000E+00 0.  1.
          5    1    4    4  501    0 -0.42315832845E+01 -0.15516930739E+02  0.28933613058E+02  0.33366267415E+02  0.41800000000E+01 0.  1.
         -5    1    4    4    0  501  0.55677411956E+02 -0.17830794041E+03 -0.10824544377E+03  0.21593574116E+03  0.41800000000E+01 0.  1.
</event>
<event>
11    1  0.8037748E-009  0.1482330E+03  0.7561462E-02  0.1098698E+00
         22   -1    0    0    0    0  0.00000000000E+00  0.00000000000E+00  0.20558849423E+03  0.20558849423E+03  0.00000000000E+00 0. -1.
         22   -1    0    0    0    0 -0.00000000000E+00 -0.00000000000E+00 -0.40474524259E+03  0.40474524259E+03  0.00000000000E+00 0.  1.
        -24    2    1    2    0    0 -0.60969159341E+01  0.39769589854E+02 -0.25169980078E+03  0.26717724116E+03  0.80075563177E+02 0.  0.
         25    2    1    2    0    0 -0.12450026100E+02 -0.11148485749E+03 -0.67075861585E+02  0.18091646645E+03  0.12509084710E+03 0.  0.
         24    2    1    2    0    0  0.18546942035E+02  0.71715267632E+02  0.11961891401E+03  0.16224002921E+03  0.80784118603E+02 0.  0.
        -13    1    5    5    0    0  0.77067119060E+01  0.47754365042E+02  0.98503413341E+01  0.49364987727E+02  0.00000000000E+00 0.  1.
         14    1    5    5    0    0  0.10840230128E+02  0.23960902591E+02  0.10976857268E+03  0.11287504148E+03  0.00000000000E+00 0. -1.
         11    1    3    3    0    0  0.20209681283E+01 -0.93524630244E+00  0.58733093899E+01  0.62813024933E+01  0.00000000000E+00 0. -1.
        -12    1    3    3    0    0 -0.81178840624E+01  0.40704836157E+02 -0.25757311017E+03  0.26089593866E+03  0.00000000000E+00 0.  1.
          5    1    4    4  501    0 -0.37163938227E+02 -0.12347873200E+03 -0.78333003520E+02  0.15093603745E+03  0.41800000000E+01 0.  1.
         -5    1    4    4    0  501  0.24713912127E+02  0.11993874517E+02  0.11257141935E+02  0.29980429001E+02  0.41800000000E+01 0.  1.
</event>
<event>
11    1  0.8037748E-009  0.1581761E+03  0.7561462E-02  0.1088805E+00
         22   -1    0    0    0    0  0.00000000000E+00  0.00000000000E+00  0.26108083464E+04  0.26108083464E+04  0.00000000000E+00 0. -1.
         22   -1    0    0    0    0 -0.00000000000E+00 -0.00000000000E+00 -0.57342856321E+03  0.57342856321E+03  0.00000000000E+00 0. -1.
         24    2    1    2    0    0 -0.21191418233E+02  0.94378880950E+02 -0.53304415009E+03  0.54786722975E+03  0.81645490466E+02 0.  0.
         25    2    1    2    0    0 -0.45146285027E+01 -0.10221935462E+03  0.17044923417E+03  0.23488438265E+03  0.12509417833E+03 0.  0.
        -24    2    1    2    0    0  0.25706046736E+02  0.78404736667E+01  0.23999746991E+04  0.24014852972E+04  0.80813380602E+02 0.  0.
        -13    1    3    3    0    0 -0.15462077542E+02  0.99331235069E+01 -0.17351534046E+02  0.25274859411E+02  0.00000000000E+00 0.  1.
         14    1    3    3    0    0 -0.57293406918E+01  0.84445757444E+02 -0.51569261604E+03  0.52259237034E+03  0.00000000000E+00 0. -1.
         11    1    5    5    0    0  0.54319100350E+02  0.12302578412E+02  0.16991679421E+04  0.17000804727E+04  0.00000000000E+00 0. -1.
        -12    1    5    5    0    0 -0.28613053614E+02 -0.44621047452E+01  0.70080675696E+03  0.70140482449E+03  0.00000000000E+00 0.  1.
          5    1    4    4  501    0  0.48255819653E+02 -0.87966534025E+02  0.13964173783E+03  0.17200006565E+03  0.41800000000E+01 0.  1.
         -5    1    4    4    0  501 -0.52770448156E+02 -0.14252820592E+02  0.30807496345E+02  0.62884316999E+02  0.41800000000E+01 0.  1.
</event>
<event>
11    1  0.8037748E-009  0.1573123E+03  0.7561462E-02  0.1089633E+00
         22   -1    0    0    0    0  0.00000000000E+00  0.00000000000E+00  0.54555628326E+03  0.54555628326E+03  0.00000000000E+00 0.  1.
         22   -1    0    0    0    0 -0.00000000000E+00 -0.00000000000E+00 -0.74279335675E+03  0.74279335675E+03  0.00000000000E+00 0.  1.
        -24    2    1    2    0    0  0.44985270860E+02 -0.76428300794E+02 -0.66582180078E+03  0.67669524978E+03  0.82053829505E+02 0.  0.
         25    2    1    2    0    0 -0.13285578688E+03  0.50185295629E+02  0.83607661700E+02  0.20690128140E+03  0.12509466473E+03 0.  0.
         24    2    1    2    0    0  0.87870516024E+02  0.26243005165E+02  0.38497706559E+03  0.40475310883E+03  0.84898852610E+02 0.  0.
        -11    1    5    5    0    0  0.50026932397E+02  0.18061528357E+02  0.34509048277E+03  0.34916522460E+03  0.00000000000E+00 0.  1.
         12    1    5    5    0    0  0.37843583627E+02  0.81814768077E+01  0.39886582816E+02  0.55587884231E+02  0.00000000000E+00 0. -1.
         13    1    3    3    0    0 -0.14749974836E+01 -0.28821672002E+02 -0.53646433770E+02  0.60916370959E+02  0.00000000000E+00 0. -1.
        -14    1    3    3    0    0  0.46460268344E+02 -0.47606628792E+02 -0.61217536701E+03  0.61577887883E+03  0.00000000000E+00 0.  1.
          5    1    4    4  501    0 -0.53217564412E+01 -0.78455006268E+01 -0.26626604697E+02  0.28571339650E+02  0.41800000000E+01 0. -1.
         -5    1    4    4    0  501 -0.12753403044E+03  0.58030796256E+02  0.11023426640E+03  0.17832994175E+03  0.41800000000E+01 0. -1.
</event>
<event>
11    1  0.8037748E-009  0.1791949E+03  0.7561462E-02  0.1070296E+00
         22   -1    0    0    0    0  0.00000000000E+00  0.00000000000E+00  0.25090144380E+03  0.25090144380E+03  0.00000000000E+00 0. -1.
         22   -1    0    0    0    0 -0.00000000000E+00 -0.00000000000E+00 -0.23421306351E+04  0.23421306351E+04  0.00000000000E+00 0.  1.
        -24    2    1    2    0    0 -0.37892744105E+02 -0.12176678274E+03 -0.22269863917E+04  0.22320846456E+04  0.80439210814E+02 0.  0.
         25    2    1    2    0    0  0.39068611041E+02  0.15547088700E+03  0.34668554532E+01  0.20336448663E+03  0.12509013656E+03 0.  0.
         24    2    1    2    0    0 -0.11758669360E+01 -0.33704104256E+02  0.13229034495E+03  0.15758294672E+03  0.78703878067E+02 0.  0.
        -11    1    5    5    0    0  0.25415370896E+01  0.12748355871E+02 -0.39556309740E+01  0.13587752007E+02  0.00000000000E+00 0.  1.
         12    1    5    5    0    0 -0.37174040256E+01 -0.46452460128E+02  0.13624597592E+03  0.14399519471E+03  0.00000000000E+00 0. -1.
         13    1    3    3    0    0 -0.36138173896E+02 -0.96564842220E+02 -0.11015702369E+04  0.11063849797E+04  0.00000000000E+00 0. -1.
        -14    1    3    3    0    0 -0.17545702097E+01 -0.25201940521E+02 -0.11254161548E+04  0.11256996659E+04  0.00000000000E+00 0.  1.
          5    1    4    4  501    0 -0.32632282122E+01  0.75863269207E+02  0.59994829963E+02  0.96864525475E+02  0.41800000000E+01 0.  1.
         -5    1    4    4    0  501  0.42331839254E+02  0.79607617790E+02 -0.56527974510E+02  0.10649996116E+03  0.41800000000E+01 0.  1.
</event>
<event>
11    1  0.8037748E-009  0.1487558E+03  0.7561462E-02  0.1098157E+00
         22   -1    0    0    0    0  0.00000000000E+00  0.00000000000E+00  0.92342708590E+03  0.92342708590E+03  0.00000000000E+00 0.  1.
         22   -1    0    0    0    0 -0.00000000000E+00 -0.00000000000E+00 -0.41722902531E+03  0.41722902531E+03  0.00000000000E+00 0. -1.
        -24    2    1    2    0    0 -0.10033198500E+02  0.27247976389E+02 -0.35321689986E+03  0.36341593985E+03  0.80410507392E+02 0.  0.
         25    2    1    2    0    0  0.43438134904E+02  0.47512644120E+02  0.35043497688E+02  0.14498168243E+03  0.12508924252E+03 0.  0.
         24    2    1    2    0    0 -0.33404936404E+02 -0.74760620509E+02  0.82437146276E+03  0.83225848893E+03  0.79754897255E+02 0.  0.
        -11    1    5    5    0    0 -0.36453566368E+02 -0.85735947908E+02  0.79941492637E+03  0.80482528524E+03  0.00000000000E+00 0.  1.
         12    1    5    5    0    0  0.30486299646E+01  0.10975327399E+02  0.24956536388E+02  0.27433203689E+02  0.00000000000E+00 0. -1.
         13    1    3    3    0    0  0.29633871956E+02  0.62850113022E+01 -0.23547644476E+03  0.23741698290E+03  0.00000000000E+00 0. -1.
        -14    1    3    3    0    0 -0.39667070456E+02  0.20962965087E+02 -0.11774045510E+03  0.12599895694E+03  0.00000000000E+00 0.  1.
          5    1    4    4  501    0  0.76477348649E+02  0.41033438478E+00  0.41195638951E+02  0.86968421276E+02  0.41800000000E+01 0. -1.
         -5    1    4    4    0  501 -0.33039213746E+02  0.47102309736E+02 -0.61521412631E+01  0.58013261152E+02  0.41800000000E+01 0. -1.
</event>
<event>
11    1  0.8037748E-009  0.2055972E+03  0.7561462E-02  0.1050635E+00
         22   -1    0    0    0    0  0.00000000000E+00  0.00000000000E+00  0.14256390585E+03  0.14256390585E+03  0.00000000000E+00 0. -1.
         22   -1    0    0    0    0 -0.00000000000E+00 -0.00000000000E+00 -0.85171948116E+03  0.85171948116E+03  0.00000000000E+00 0. -1.
        -24    2    1    2    0    0  0.14582841519E+03  0.43228735348E+02 -0.24000593771E+03  0.29268796300E+03  0.70205009185E+02 0.  0.
         25    2    1    2    0    0 -0.17309442647E+03  0.11877826798E+03 -0.45746538473E+03  0.51864455994E+03  0.12509054285E+03 0.  0.
         24    2    1    2    0    0  0.27266011288E+02 -0.16200700333E+03 -0.11684252862E+02  0.18295086407E+03  0.79654205167E+02 0.  0.
        -11    1    5    5    0    0  0.31158148333E+02 -0.76383413928E+02  0.29820697632E+02  0.87718470906E+02  0.00000000000E+00 0.  1.
         12    1    5    5    0    0 -0.38921370454E+01 -0.85623589398E+02 -0.41504950494E+02  0.95232393164E+02  0.00000000000E+00 0. -1.
         13    1    3    3    0    0  0.58477873238E+02  0.48164139570E+02 -0.79054847993E+02  0.10949481718E+03  0.00000000000E+00 0. -1.
        -14    1    3    3    0    0  0.87350541948E+02 -0.49354042224E+01 -0.16095108972E+03  0.18319314582E+03  0.00000000000E+00 0.  1.
          5    1    4    4  501    0 -0.11254593297E+03  0.30107766045E+02 -0.13305415200E+03  0.17690094507E+03  0.41800000000E+01 0.  1.
         -5    1    4    4    0  501 -0.60548493502E+02  0.88670501933E+02 -0.32441123273E+03  0.34174361486E+03  0.41800000000E+01 0.  1.
</event>
<event>
11    1  0.8037748E-009  0.2519642E+03  0.7561462E-02  0.1022858E+00
         22   -1    0    0    0    0  0.00000000000E+00  0.00000000000E+00  0.81336405685E+03  0.81336405685E+03  0.00000000000E+00 0. -1.
         22   -1    0    0    0    0 -0.00000000000E+00 -0.00000000000E+00 -0.85825486056E+03  0.85825486056E+03  0.00000000000E+00 0.  1.
        -24    2    1    2    0    0  0.73487529775E+02 -0.19987830627E+03 -0.59624060027E+03  0.63824969906E+03  0.80672613654E+02 0.  0.
         25    2    1    2    0    0 -0.10050725073E+03  0.21841606678E+03 -0.16136955946E+03  0.31542612001E+03  0.12508483836E+03 0.  0.
         24    2    1    2    0    0  0.27019720960E+02 -0.18537760515E+02  0.71271935602E+03  0.71794309833E+03  0.79998113100E+02 0.  0.
        -11    1    5    5    0    0  0.12143365634E+02 -0.31244725272E+02  0.11208889549E+03  0.11699407967E+03  0.00000000000E+00 0.  1.
         12    1    5    5    0    0  0.14876355325E+02  0.12706964757E+02  0.60063046054E+03  0.60094901866E+03  0.00000000000E+00 0. -1.
         13    1    3    3    0    0 -0.11452198956E+02 -0.15434047597E+02 -0.10414487243E+03  0.10590333867E+03  0.00000000000E+00 0. -1.
        -14    1    3    3    0    0  0.84939728730E+02 -0.18444425867E+03 -0.49209572784E+03  0.53234636040E+03  0.00000000000E+00 0.  1.
          5    1    4    4  501    0 -0.72733926826E+02  0.15600676021E+03 -0.41051414013E+02  0.17700571837E+03  0.41800000000E+01 0.  1.
         -5    1    4    4    0  501 -0.27773323908E+02  0.62409306574E+02 -0.12031814545E+03  0.13842040165E+03  0.41800000000E+01 0.  1.
</event>
<event>
11    1  0.8037748E-009  0.1411215E+03  0.7561462E-02  0.1106313E+00
         22   -1    0    0    0    0  0.00000000000E+00  0.00000000000E+00  0.31439438829E+04  0.31439438829E+04  0.00000000000E+00 0. -1.
         22   -1    0    0    0    0 -0.00000000000E+00 -0.00000000000E+00 -0.45100068390E+03  0.45100068390E+03  0.00000000000E+00 0.  1.
         24    2    1    2    0    0 -0.63182406521E+02 -0.17948869387E+02 -0.43470872341E+03  0.44669340581E+03  0.79051541286E+02 0.  0.
         25    2    1    2    0    0  0.43059745317E+02 -0.10449800786E+02  0.44955880893E+03  0.46873579665E+03  0.12508710713E+03 0.  0.
        -24    2    1    2    0    0  0.20122661204E+02  0.28398670173E+02  0.26780931134E+04  0.26795153643E+04  0.80052840865E+02 0.  0.
        -13    1    3    3    0    0 -0.75386965221E+02 -0.19576969958E+02 -0.42150027991E+03  0.42863613735E+03  0.00000000000E+00 0.  1.
         14    1    3    3    0    0  0.12204558701E+02  0.16281005710E+01 -0.13208443498E+02  0.18057268459E+02  0.00000000000E+00 0. -1.
         11    1    5    5    0    0  0.36659281352E+01 -0.27553981689E+02  0.10821039835E+04  0.10824609425E+04  0.00000000000E+00 0. -1.
        -12    1    5    5    0    0  0.16456733068E+02  0.55952651862E+02  0.15959891300E+04  0.15970544218E+04  0.00000000000E+00 0.  1.
          5    1    4    4  501    0  0.27066399765E+02 -0.59813383449E+02  0.35261280020E+03  0.35869693349E+03  0.41800000000E+01 0.  1.
         -5    1    4    4    0  501  0.15993345553E+02  0.49363582663E+02  0.96946008734E+02  0.11003886316E+03  0.41800000000E+01 0.  1.
</event>
<event>
11    1  0.8037748E-009  0.1404225E+03  0.7561462E-02  0.1107087E+00
         22   -1    0    0    0    0  0.00000000000E+00  0.00000000000E+00  0.16768826971E+04  0.16768826971E+04  0.00000000000E+00 0.  1.
         22   -1    0    0    0    0 -0.00000000000E+00 -0.00000000000E+00 -0.91650365139E+03  0.91650365139E+03  0.00000000000E+00 0. -1.
        -24    2    1    2    0    0 -0.33318842864E+02 -0.54327534159E+02 -0.90294489837E+03  0.90877080125E+03  0.80580726339E+02 0.  0.
         25    2    1    2    0    0 -0.15071308761E+01  0.99595726335E+02  0.80347179390E+03  0.81922892214E+03  0.12509006007E+03 0.  0.
         24    2    1    2    0    0  0.34825973740E+02 -0.45268192176E+02  0.85985215021E+03  0.86538662514E+03  0.79285768365E+02 0.  0.
        -11    1    5    5    0    0 -0.24373098635E+01 -0.52765134903E+02  0.64819073124E+03  0.65033939140E+03  0.00000000000E+00 0.  1.
         12    1    5    5    0    0  0.37263283603E+02  0.74969427272E+01  0.21166141897E+03  0.21504723374E+03  0.00000000000E+00 0. -1.
         11    1    3    3    0    0 -0.33213631222E+02 -0.73798573316E+02 -0.79262641347E+03  0.79674714060E+03  0.00000000000E+00 0. -1.
        -12    1    3    3    0    0 -0.10521164138E+00  0.19471039157E+02 -0.11031848490E+03  0.11202366065E+03  0.00000000000E+00 0.  1.
          5    1    4    4  501    0  0.19611313278E+02  0.10633800103E+03  0.37866640195E+03  0.39382494897E+03  0.41800000000E+01 0. -1.
         -5    1    4    4    0  501 -0.21118444155E+02 -0.67422746930E+01  0.42480539195E+03  0.42540397317E+03  0.41800000000E+01 0. -1.
</event>
<event>
11    1  0.8037748E-009  0.1282386E+03  0.7561462E-02  0.1121452E+00
         22   -1    0    0    0    0  0.00000000000E+00  0.00000000000E+00  0.80644655315E+03  0.80644655315E+03  0.00000000000E+00 0.  1.
         22   -1    0    0    0    0 -0.00000000000E+00 -0.00000000000E+00 -0.84366176273E+03  0.84366176273E+03  0.00000000000E+00 0. -1.
         24    2    1    2    0    0  0.15938077284E+02  0.23321830065E+02 -0.40668086054E+03  0.41542145439E+03  0.79923290579E+02 0.  0.
         25    2    1    2    0    0 -0.41601549626E+02  0.21640984441E+01 -0.42047672149E+03  0.44065381776E+03  0.12505895225E+03 0.  0.
        -24    2    1    2    0    0  0.25663472341E+02 -0.25485928509E+02  0.78994237246E+03  0.79403304372E+03  0.71912282386E+02 0.  0.
        -11    1    3    3    0    0  0.29235282441E+01  0.37751579328E+02 -0.83811929098E+02  0.91968300073E+02  0.00000000000E+00 0.  1.
         12    1    3    3    0    0  0.13014549040E+02 -0.14429749263E+02 -0.32286893144E+03  0.32345315432E+03  0.00000000000E+00 0. -1.
         13    1    5    5    0    0 -0.18587385309E+02 -0.18440393661E+01  0.73503903924E+02  0.75840063726E+02  0.00000000000E+00 0. -1.
        -14    1    5    5    0    0  0.44250857651E+02 -0.23641889143E+02  0.71643846853E+03  0.71819298000E+03  0.00000000000E+00 0.  1.
          5    1    4    4  501    0 -0.27896711059E+02 -0.48795033982E+01 -0.42344741927E+03  0.42441397871E+03  0.41800000000E+01 0. -1.
         -5    1    4    4    0  501 -0.13704838567E+02  0.70436018423E+01  0.29706977766E+01  0.16239839049E+02  0.41800000000E+01 0. -1.
</event>
<event>
11    1  0.8037748E-009  0.1684910E+03  0.7561462E-02  0.1079352E+00
         22   -1    0    0    0    0  0.00000000000E+00  0.00000000000E+00  0.48740611330E+03  0.48740611330E+03  0.00000000000E+00 0. -1.
         22   -1    0    0    0    0 -0.00000000000E+00 -0.00000000000E+00 -0.76780231232E+03  0.76780231232E+03  0.00000000000E+00 0.  1.
        -24    2    1    2    0    0  0.18945182838E+02 -0.11254067522E+03 -0.62074057496E+03  0.63600572346E+03  0.78486274860E+02 0.  0.
         25    2    1    2    0    0 -0.84522804525E+02  0.12478602484E+02 -0.83008506421E+02  0.17273658792E+03  0.12509075371E+03 0.  0.
         24    2    1    2    0    0  0.65577621687E+02  0.10006207274E+03  0.42335288236E+03  0.44646611424E+03  0.76101808730E+02 0.  0.
        -11    1    5    5    0    0  0.11028946965E+02  0.21227967396E+01  0.32930392884E+01  0.11704189203E+02  0.00000000000E+00 0.  1.
         12    1    5    5    0    0  0.54548674722E+02  0.97939276000E+02  0.42005984307E+03  0.43476192503E+03  0.00000000000E+00 0. -1.
         11    1    3    3    0    0  0.91847924960E+01 -0.34294249046E+02 -0.59761133615E+02  0.69511502802E+02  0.00000000000E+00 0. -1.
        -12    1    3    3    0    0  0.97603903424E+01 -0.78246426178E+02 -0.56097944134E+03  0.56649422066E+03  0.00000000000E+00 0.  1.
          5    1    4    4  501    0 -0.10166271827E+03 -0.54139775903E+01 -0.99711574440E+02  0.14256398535E+03  0.41800000000E+01 0.  1.
         -5    1    4    4    0  501  0.17139913750E+02  0.17892580074E+02  0.16703068019E+02  0.30172602577E+02  0.41800000000E+01 0.  1.
</event>
<event>
11    1  0.8037748E-009  0.2319036E+03  0.7561462E-02  0.1034007E+00
         22   -1    0    0    0    0  0.00000000000E+00  0.00000000000E+00  0.90110207290E+03  0.90110207290E+03  0.00000000000E+00 0.  1.
         22   -1    0    0    0    0 -0.00000000000E+00 -0.00000000000E+00 -0.21823494419E+03  0.21823494419E+03  0.00000000000E+00 0.  1.
         24    2    1    2    0    0  0.16317404505E+03  0.11764095162E+03 -0.11238426685E+03  0.24415791136E+03  0.80732272155E+02 0.  0.
         25    2    1    2    0    0 -0.15121467699E+03 -0.76797424901E+02  0.27043503992E+03  0.34285007215E+03  0.12508932066E+03 0.  0.
        -24    2    1    2    0    0 -0.11959368059E+02 -0.40843526716E+02  0.52481635563E+03  0.53232903359E+03  0.78299250992E+02 0.  0.
        -11    1    3    3    0    0  0.14629101163E+03  0.99225766764E+02 -0.12467860257E+03  0.21631358444E+03  0.00000000000E+00 0.  1.
         12    1    3    3    0    0  0.16883033419E+02  0.18415184853E+02  0.12294335723E+02  0.27844326917E+02  0.00000000000E+00 0. -1.
         13    1    5    5    0    0 -0.20443880503E+02  0.19457292008E+02  0.16593224658E+03  0.16831532586E+03  0.00000000000E+00 0. -1.
        -14    1    5    5    0    0  0.84845124442E+01 -0.60300818723E+02  0.35888410905E+03  0.36401370773E+03  0.00000000000E+00 0.  1.
          5    1    4    4  501    0 -0.78082453734E+02 -0.86197947977E+01  0.33225687551E+02  0.85396657761E+02  0.41800000000E+01 0. -1.
         -5    1    4    4    0  501 -0.73132223259E+02 -0.68177630103E+02  0.23720935237E+03  0.25745341439E+03  0.41800000000E+01 0. -1.
</event>
<event>
11    1  0.8037748E-009  0.1313351E+03  0.7561462E-02  0.1117639E+00
         22   -1    0    0    0    0  0.00000000000E+00  0.00000000000E+00  0.24377394930E+04  0.24377394930E+04  0.00000000000E+00 0. -1.
         22   -1    0    0    0    0 -0.00000000000E+00 -0.00000000000E+00 -0.49896881180E+03  0.49896881180E+03  0.00000000000E+00 0.  1.
        -24    2    1    2    0    0  0.36445753989E+02  0.17071177202E+02 -0.48054427621E+03  0.48794498389E+03  0.74483473532E+02 0.  0.
         25    2    1    2    0    0 -0.19724231478E+02 -0.15009584289E+02  0.27873244010E+03  0.30651484914E+03  0.12508096037E+03 0.  0.
         24    2    1    2    0    0 -0.16721522511E+02 -0.20615929125E+01  0.21405825173E+04  0.21422484718E+04  0.82771625214E+02 0.  0.
        -13    1    5    5    0    0  0.87742846931E+01 -0.21637532868E+02  0.19392281662E+03  0.19532339775E+03  0.00000000000E+00 0.  1.
         14    1    5    5    0    0 -0.25495807204E+02  0.19575939956E+02  0.19466597007E+04  0.19469250740E+04  0.00000000000E+00 0. -1.
         11    1    3    3    0    0  0.41413545338E+02  0.21534123041E+01 -0.11826906517E+03  0.12532873054E+03  0.00000000000E+00 0. -1.
        -12    1    3    3    0    0 -0.49677913491E+01  0.14917764898E+02 -0.36227521104E+03  0.36261625335E+03  0.00000000000E+00 0.  1.
          5    1    4    4  501    0  0.10236972507E+02 -0.66664179834E+02  0.14247596164E+03  0.15768887255E+03  0.41800000000E+01 0. -1.
         -5    1    4    4    0  501 -0.29961203985E+02  0.51654595545E+02  0.13625647846E+03  0.14882597659E+03  0.41800000000E+01 0. -1.
</event>
<event>
11    1  0.8037748E-009  0.1516130E+03  0.7561462E-02  0.1095242E+00
         22   -1    0    0    0    0  0.00000000000E+00  0.00000000000E+00  0.35951772412E+03  0.35951772412E+03  0.00000000000E+00 0. -1.
         22   -1    0    0    0    0 -0.00000000000E+00 -0.00000000000E+00 -0.11309321466E+04  0.11309321466E+04  0.00000000000E+00 0.  1.
         24    2    1    2    0    0 -0.53229063094E+02  0.70158875232E+02 -0.71869009038E+03  0.72837409155E+03  0.79106069908E+02 0.  0.
         25    2    1    2    0    0  0.78780619569E+02 -0.35671053880E+02 -0.38677722376E+03  0.41559927264E+03  0.12508926612E+03 0.  0.
        -24    2    1    2    0    0 -0.25551556475E+02 -0.34487821351E+02  0.33405289163E+03  0.34647650656E+03  0.81316316511E+02 0.  0.
        -11    1    3    3    0    0 -0.61406316976E+02  0.23728701874E+02 -0.52087612187E+03  0.52501973429E+03  0.00000000000E+00 0.  1.
         12    1    3    3    0    0  0.81772538823E+01  0.46430173357E+02 -0.19781396851E+03  0.20335435726E+03  0.00000000000E+00 0. -1.
         13    1    5    5    0    0 -0.13585684728E+02 -0.27992345220E+02  0.33108210814E+03  0.33254098176E+03  0.00000000000E+00 0. -1.
        -14    1    5    5    0    0 -0.11965871747E+02 -0.64954761313E+01  0.29707834908E+01  0.13935524798E+02  0.00000000000E+00 0.  1.
          5    1    4    4  501    0  0.19024298653E+02 -0.74429274217E+02 -0.24638597360E+03  0.25811850221E+03  0.41800000000E+01 0.  1.
         -5    1    4    4    0  501  0.59756320916E+02  0.38758220337E+02 -0.14039125016E+03  0.15748077043E+03  0.41800000000E+01 0.  1.
</event>
<event>
11    1  0.8037748E-009  0.1815317E+03  0.7561462E-02  0.1068411E+00
         22   -1    0    0    0    0  0.00000000000E+00  0.00000000000E+00  0.18529762986E+03  0.18529762986E+03  0.00000000000E+00 0. -1.
         22   -1    0    0    0    0 -0.00000000000E+00 -0.00000000000E+00 -0.37491881862E+03  0.37491881862E+03  0.00000000000E+00 0.  1.
        -24    2    1    2    0    0 -0.14315188715E+03  0.53508114468E+02 -0.18523212463E+03  0.25343343940E+03  0.81006092990E+02 0.  0.
         25    2    1    2    0    0  0.74686220371E+02 -0.72866461550E+02 -0.70065847525E+02  0.17732493699E+03  0.12508939826E+03 0.  0.
         24    2    1    2    0    0  0.68465666780E+02  0.19358347082E+02  0.65676783397E+02  0.12945807209E+03  0.85928222500E+02 0.  0.
        -13    1    5    5    0    0  0.42525442799E+02  0.26346568072E+02 -0.83405895010E+01  0.50716076028E+02  0.00000000000E+00 0.  1.
         14    1    5    5    0    0  0.25940223980E+02 -0.69882209905E+01  0.74017372898E+02  0.78741996059E+02  0.00000000000E+00 0. -1.
         13    1    3    3    0    0  0.12745520052E+01 -0.43610941366E+01 -0.41079859658E+02  0.41330358024E+02  0.00000000000E+00 0. -1.
        -14    1    3    3    0    0 -0.14442643916E+03  0.57869208605E+02 -0.14415226497E+03  0.21210308137E+03  0.00000000000E+00 0.  1.
          5    1    4    4  501    0  0.87524831941E+02 -0.37928063660E+02  0.26622483248E+01  0.95518030682E+02  0.41800000000E+01 0. -1.
         -5    1    4    4    0  501 -0.12838611569E+02 -0.34938397891E+02 -0.72728095850E+02  0.81806906311E+02  0.41800000000E+01 0. -1.
</event>
<event>
11    1  0.8037748E-009  0.1606088E+03  0.7561462E-02  0.1086506E+00
         22   -1    0    0    0    0  0.00000000000E+00  0.00000000000E+00  0.11469946558E+04  0.11469946558E+04  0.00000000000E+00 0. -1.
         22   -1    0    0    0    0 -0.00000000000E+00 -0.00000000000E+00 -0.28857402430E+03  0.28857402430E+03  0.00000000000E+00 0.  1.
        -24    2    1    2    0    0  0.57361593199E+02  0.73536416316E+02 -0.11645462281E+03  0.16887058401E+03  0.79105234150E+02 0.  0.
         25    2    1    2    0    0 -0.73633798533E+02 -0.88400664604E+02 -0.94154810035E+02  0.19429120394E+03  0.12508928766E+03 0.  0.
         24    2    1    2    0    0  0.16272205334E+02  0.14864248288E+02  0.10690300644E+04  0.10724068922E+04  0.82131195827E+02 0.  0.
        -13    1    5    5    0    0 -0.25567260501E+00 -0.33707886784E+02  0.41231207949E+03  0.41368772993E+03  0.00000000000E+00 0.  1.
         14    1    5    5    0    0  0.16527877939E+02  0.48572135073E+02  0.65671798486E+03  0.65871916224E+03  0.00000000000E+00 0. -1.
         11    1    3    3    0    0 -0.15942128268E+02  0.16359964238E+02 -0.48837100489E+02  0.53915324980E+02  0.00000000000E+00 0. -1.
        -12    1    3    3    0    0  0.73303721466E+02  0.57176452078E+02 -0.67617522326E+02  0.11495525903E+03  0.00000000000E+00 0.  1.
          5    1    4    4  501    0 -0.73818677090E+01  0.14520670146E+02 -0.66688594371E+02  0.68776324790E+02  0.41800000000E+01 0.  1.
         -5    1    4    4    0  501 -0.66251930824E+02 -0.10292133475E+03 -0.27466215664E+02  0.12551487915E+03  0.41800000000E+01 0.  1.
</event>
<event>
11    1  0.8037748E-009  0.1444538E+03  0.7561462E-02  0.1102685E+00
         22   -1    0    0    0    0  0.00000000000E+00  0.00000000000E+00  0.30526374354E+03  0.30526374354E+03  0.00000000000E+00 0.  1.
         22   -1    0    0    0    0 -0.00000000000E+00 -0.00000000000E+00 -0.41784555926E+03  0.41784555926E+03  0.00000000000E+00 0.  1.
         24    2    1    2    0    0 -0.54911981114E+01  0.71824690814E+02 -0.36642774112E+03  0.38189625238E+03  0.79915697143E+02 0.  0.
         25    2    1    2    0    0 -0.21007215303E+01 -0.77683948842E+02  0.15430176213E+03  0.21329655677E+03  0.12508868211E+03 0.  0.
        -24    2    1    2    0    0  0.75919196417E+01  0.58592580280E+01  0.99544163259E+02  0.12791649366E+03  0.79759769073E+02 0.  0.
        -13    1    3    3    0    0  0.31089127501E+02  0.61140388588E+02 -0.21118790112E+03  0.22204731600E+03  0.00000000000E+00 0.  1.
         14    1    3    3    0    0 -0.36580325613E+02  0.10684302227E+02 -0.15523984000E+03  0.15984893637E+03  0.00000000000E+00 0. -1.
         13    1    5    5    0    0 -0.38706171982E+01  0.12818150577E+02 -0.10526423230E+02  0.17032094637E+02  0.00000000000E+00 0. -1.
        -14    1    5    5    0    0  0.11462536840E+02 -0.69588925486E+01  0.11007058649E+03  0.11088439902E+03  0.00000000000E+00 0.  1.
          5    1    4    4  501    0 -0.34283345262E+02 -0.73302939682E+02  0.32731138662E+02  0.87392611624E+02  0.41800000000E+01 0. -1.
         -5    1    4    4    0  501  0.32182623732E+02 -0.43810091608E+01  0.12157062347E+03  0.12590394514E+03  0.41800000000E+01 0. -1.
</event>
<event>
11    1  0.8037748E-009  0.1784582E+03  0.7561462E-02  0.1070897E+00
         22   -1    0    0    0    0  0.00000000000E+00  0.00000000000E+00  0.14159576764E+03  0.14159576764E+03  0.00000000000E+00 0.  1.
         22   -1    0    0    0    0 -0.00000000000E+00 -0.00000000000E+00 -0.63342920630E+03  0.63342920630E+03  0.00000000000E+00 0. -1.
        -24    2    1    2    0    0  0.83737738800E+02  0.85205110077E+02 -0.30105938573E+03  0.33317461921E+03  0.78081069840E+02 0.  0.
         25    2    1    2    0    0 -0.93380163014E+02 -0.10709553953E+03 -0.26766794426E+03  0.32784376904E+03  0.12508436785E+03 0.  0.
         24    2    1    2    0    0  0.96424242142E+01  0.21890429455E+02  0.76893891337E+02  0.11400658569E+03  0.80701076883E+02 0.  0.
        -13    1    5    5    0    0  0.31122604125E+01  0.50952363393E+02  0.32395764246E+02  0.60459201461E+02  0.00000000000E+00 0.  1.
         14    1    5    5    0    0  0.65301638017E+01 -0.29061933939E+02  0.44498127090E+02  0.53547384232E+02  0.00000000000E+00 0. -1.
         13    1    3    3    0    0  0.99088250398E+02  0.73207766722E+02 -0.26251254628E+03  0.28998395719E+03  0.00000000000E+00 0. -1.
        -14    1    3    3    0    0 -0.15350511597E+02  0.11997343355E+02 -0.38546839459E+02  0.43190662025E+02  0.00000000000E+00 0.  1.
          5    1    4    4  501    0 -0.10260467278E+03 -0.12237578973E+03 -0.19093856167E+03  0.24895493472E+03  0.41800000000E+01 0.  1.
         -5    1    4    4    0  501  0.92245097680E+01  0.15280250203E+02 -0.76729382595E+02  0.78888834318E+02  0.41800000000E+01 0.  1.
</event>
<event>
11    1  0.8037748E-009  0.1337552E+03  0.7561462E-02  0.1114739E+00
         22   -1    0    0    0    0  0.00000000000E+00  0.00000000000E+00  0.88980070668E+03  0.88980070668E+03  0.00000000000E+00 0.  1.
         22   -1    0    0    0    0 -0.00000000000E+00 -0.00000000000E+00 -0.37881312106E+03  0.37881312106E+03  0.00000000000E+00 0. -1.
        -24    2    1    2    0    0  0.41129553734E+02  0.25338841311E+02 -0.33332323831E+03  0.34592277495E+03  0.78895424206E+02 0.  0.
         25    2    1    2    0    0 -0.35545056687E+02  0.74865962004E+00  0.78553618808E+02  0.15192718516E+03  0.12508871658E+03 0.  0.
         24    2    1    2    0    0 -0.55844970468E+01 -0.26087500931E+02  0.76575720512E+03  0.77076386763E+03  0.83552966090E+02 0.  0.
        -11    1    5    5    0    0  0.31132895717E+02 -0.90930450296E+01  0.56719186005E+03  0.56811842671E+03  0.00000000000E+00 0.  1.
         12    1    5    5    0    0 -0.36717392764E+02 -0.16994455901E+02  0.19856534507E+03  0.20264544092E+03  0.00000000000E+00 0. -1.
         13    1    3    3    0    0  0.88911110142E+01 -0.27035444134E+02 -0.14644268816E+03  0.14918253252E+03  0.00000000000E+00 0. -1.
        -14    1    3    3    0    0  0.32238442719E+02  0.52374285445E+02 -0.18688055016E+03  0.19674024243E+03  0.00000000000E+00 0.  1.
          5    1    4    4  501    0 -0.55129627416E+02 -0.37841668060E+02  0.58985220719E+01  0.67257212426E+02  0.41800000000E+01 0. -1.
         -5    1    4    4    0  501  0.19584570729E+02  0.38590327680E+02  0.72655096736E+02  0.84669972734E+02  0.41800000000E+01 0. -1.
</event>
<event>
11    1  0.8037748E-009  0.1356825E+03  0.7561462E-02  0.1112478E+00
         22   -1    0    0    0    0  0.00000000000E+00  0.00000000000E+00  0.11281357742E+04  0.11281357742E+04  0.00000000000E+00 0. -1.
         22   -1    0    0    0    0 -0.00000000000E+00 -0.00000000000E+00 -0.58450167950E+03  0.58450167950E+03  0.00000000000E+00 0. -1.
        -24    2    1    2    0    0 -0.28480708357E+02  0.43993252174E+02 -0.56783077489E+03  0.57623011781E+03  0.82842035085E+02 0.  0.
         25    2    1    2    0    0  0.59986926531E+02 -0.55671649658E+02  0.73452720125E+03  0.74958337766E+03  0.12508903530E+03 0.  0.
         24    2    1    2    0    0 -0.31506218175E+02  0.11678397484E+02  0.37693766832E+03  0.38682395821E+03  0.80135772881E+02 0.  0.
        -13    1    5    5    0    0 -0.10339776969E+02  0.32145706645E+01  0.17787232264E+01  0.10973071978E+02  0.00000000000E+00 0.  1.
         14    1    5    5    0    0 -0.21166441206E+02  0.84638268196E+01  0.37515894509E+03  0.37585088623E+03  0.00000000000E+00 0. -1.
         13    1    3    3    0    0  0.17232177129E+02  0.41734914606E+02 -0.38995639788E+03  0.39256177001E+03  0.00000000000E+00 0. -1.
        -14    1    3    3    0    0 -0.45712885485E+02  0.22583375678E+01 -0.17787437701E+03  0.18366834780E+03  0.00000000000E+00 0.  1.
          5    1    4    4  501    0  0.25731865923E+02 -0.16310032438E+02  0.29491815120E+02  0.42607342573E+02  0.41800000000E+01 0.  1.
         -5    1    4    4    0  501  0.34255060608E+02 -0.39361617221E+02  0.70503538613E+03  0.70697603508E+03  0.41800000000E+01 0.  1.
</event>
<event>
11    1  0.8037748E-009  0.3116671E+03  0.7561462E-02  0.9953709E-01
         22   -1    0    0    0    0  0.00000000000E+00  0.00000000000E+00  0.28270408094E+04  0.28270408094E+04  0.00000000000E+00 0. -1.
         22   -1    0    0    0    0 -0.00000000000E+00 -0.00000000000E+00 -0.40201976587E+02  0.40201976587E+02  0.00000000000E+00 0.  1.
        -24    2    1    2    0    0  0.70854714765E+01 -0.19477785502E+03  0.33855633119E+03  0.39920235389E+03  0.82179761803E+02 0.  0.
         25    2    1    2    0    0  0.10905966573E+02  0.36948957970E+02  0.89560137043E+03  0.90511475241E+03  0.12508690864E+03 0.  0.
         24    2    1    2    0    0 -0.17991438050E+02  0.15782889705E+03  0.15526811312E+04  0.15629256796E+04  0.81757767036E+02 0.  0.
        -13    1    5    5    0    0 -0.24353774701E+01  0.13986695508E+03  0.10003399086E+04  0.10100735760E+04  0.00000000000E+00 0.  1.
         14    1    5    5    0    0 -0.15556060580E+02  0.17961941978E+02  0.55234122252E+03  0.55285210362E+03  0.00000000000E+00 0. -1.
         13    1    3    3    0    0  0.28516621950E+02 -0.96089356269E+02  0.23023739927E+03  0.25110878546E+03  0.00000000000E+00 0. -1.
        -14    1    3    3    0    0 -0.21431150473E+02 -0.98688498755E+02  0.10831893193E+03  0.14809356843E+03  0.00000000000E+00 0.  1.
          5    1    4    4  501    0 -0.14971205348E+00  0.59546396631E+02  0.19231454578E+03  0.20136571874E+03  0.41800000000E+01 0.  1.
         -5    1    4    4    0  501  0.11055678627E+02 -0.22597438661E+02  0.70328682465E+03  0.70374903367E+03  0.41800000000E+01 0.  1.
</event>
<event>
11    1  0.8037748E-009  0.1358564E+03  0.7561462E-02  0.1112276E+00
         22   -1    0    0    0    0  0.00000000000E+00  0.00000000000E+00  0.38902706815E+03  0.38902706815E+03  0.00000000000E+00 0. -1.
         22   -1    0    0    0    0 -0.00000000000E+00 -0.00000000000E+00 -0.38066574887E+03  0.38066574887E+03  0.00000000000E+00 0. -1.
         24    2    1    2    0    0  0.35367757807E+02  0.29375369792E+01 -0.29738526523E+03  0.31030121414E+03  0.81174750407E+02 0.  0.
         25    2    1    2    0    0 -0.52930239554E+02  0.45968557216E+02  0.51569744647E+01  0.14349344030E+03  0.12509618105E+03 0.  0.
        -24    2    1    2    0    0  0.17562481747E+02 -0.48906094195E+02  0.30058961005E+03  0.31589816258E+03  0.82080988255E+02 0.  0.
        -11    1    3    3    0    0 -0.14525459554E+01 -0.28046487749E+01  0.48442282419E+01  0.57829483625E+01  0.00000000000E+00 0.  1.
         12    1    3    3    0    0  0.36820303762E+02  0.57421857542E+01 -0.30222949347E+03  0.30451826578E+03  0.00000000000E+00 0. -1.
         11    1    5    5    0    0 -0.13629638802E+02 -0.49054815035E+02  0.25874649407E+03  0.26370796371E+03  0.00000000000E+00 0. -1.
        -12    1    5    5    0    0  0.31192120549E+02  0.14872084001E+00  0.41843115982E+02  0.52190198862E+02  0.00000000000E+00 0.  1.
          5    1    4    4  501    0 -0.79139857107E+02  0.37277508479E+02  0.42107328664E+02  0.97176278734E+02  0.41800000000E+01 0.  1.
         -5    1    4    4    0  501  0.26209617553E+02  0.86910487367E+01 -0.36950354200E+02  0.46317161570E+02  0.41800000000E+01 0.  1.
</event>
<event>
11    1  0.8037748E-009  0.1544708E+03  0.7561462E-02  0.1092396E+00
         22   -1    0    0    0    0  0.00000000000E+00  0.00000000000E+00  0.58307899832E+03  0.58307899832E+03  0.00000000000E+00 0. -1.
         22   -1    0    0    0    0 -0.00000000000E+00 -0.00000000000E+00 -0.41301101954E+03  0.41301101954E+03  0.00000000000E+00 0.  1.
         24    2    1    2    0    0 -0.65119457821E+02  0.47350051859E+02 -0.12674855544E+03  0.17058575921E+03  0.80942780650E+02 0.  0.
         25    2    1    2    0    0  0.59670252773E+02 -0.86800295449E+02 -0.23503085597E+03  0.28632446260E+03  0.12508942510E+03 0.  0.
        -24    2    1    2    0    0  0.54492050486E+01  0.39450243590E+02  0.53184739020E+03  0.53917979605E+03  0.79165588812E+02 0.  0.
        -11    1    3    3    0    0 -0.54257337472E+02  0.61157328891E+02 -0.12915244596E+03  0.15285428304E+03  0.00000000000E+00 0.  1.
         12    1    3    3    0    0 -0.10862120350E+02 -0.13807277032E+02  0.24038905136E+01  0.17731476169E+02  0.00000000000E+00 0. -1.
         11    1    5    5    0    0 -0.38408011010E+01  0.62817825378E+02  0.40542782296E+03  0.41028350024E+03  0.00000000000E+00 0. -1.
        -12    1    5    5    0    0  0.92900061496E+01 -0.23367581788E+02  0.12641956723E+03  0.12889629580E+03  0.00000000000E+00 0.  1.
          5    1    4    4  501    0  0.45935303218E+02 -0.10759833296E+03 -0.11660509507E+03  0.16523218189E+03  0.41800000000E+01 0. -1.
         -5    1    4    4    0  501  0.13734949554E+02  0.20798037510E+02 -0.11842576090E+03  0.12109228071E+03  0.41800000000E+01 0. -1.
</event>
<event>
11    1  0.8037748E-009  0.1254704E+03  0.7561462E-02  0.1124963E+00
         22   -1    0    0    0    0  0.00000000000E+00  0.00000000000E+00  0.16636423542E+03  0.16636423542E+03  0.00000000000E+00 0. -1.
         22   -1    0    0    0    0 -0.00000000000E+00 -0.00000000000E+00 -0.38895700489E+03  0.38895700489E+03  0.00000000000E+00 0. -1.
        -24    2    1    2    0    0  0.43417705218E+01 -0.75534055393E+01 -0.22005878342E+03  0.23472206154E+03  0.81195277624E+02 0.  0.
         25    2    1    2    0    0 -0.30650852856E+01  0.13787687843E+02 -0.12335651150E+03  0.17624781844E+03  0.12508784709E+03 0.  0.
         24    2    1    2    0    0 -0.12766852362E+01 -0.62342823035E+01  0.12082252544E+03  0.14435136033E+03  0.78732054301E+02 0.  0.
        -13    1    5    5    0    0 -0.61544269355E+01 -0.90639201833E+01 -0.91392155749E+01  0.14267336168E+02  0.00000000000E+00 0.  1.
         14    1    5    5    0    0  0.48777416993E+01  0.28296378798E+01  0.12996174102E+03  0.13008402417E+03  0.00000000000E+00 0. -1.
         11    1    3    3    0    0  0.26950488545E+02  0.20598901144E+02 -0.16785450655E+03  0.17124771219E+03  0.00000000000E+00 0. -1.
        -12    1    3    3    0    0 -0.22608718023E+02 -0.28152306684E+02 -0.52204276865E+02  0.63474349349E+02  0.00000000000E+00 0.  1.
          5    1    4    4  501    0  0.59508031996E+02  0.16648897964E+02 -0.73258397143E+02  0.95930479137E+02  0.41800000000E+01 0. -1.
         -5    1    4    4    0  501 -0.62573117281E+02 -0.28612101216E+01 -0.50098114361E+02  0.80317339300E+02  0.41800000000E+01 0. -1.
</event>
<event>
11    1  0.8037748E-009  0.1387076E+03  0.7561462E-02  0.1109010E+00
         22   -1    0    0    0    0  0.00000000000E+00  0.00000000000E+00  0.60198967016E+03  0.60198967016E+03  0.00000000000E+00 0. -1.
         22   -1    0    0    0    0 -0.00000000000E+00 -0.00000000000E+00 -0.16454188962E+03  0.16454188962E+03  0.00000000000E+00 0. -1.
        -24    2    1    2    0    0  0.29890823001E+02 -0.97110513104E+01 -0.91633079951E+02  0.12603645779E+03  0.80627548235E+02 0.  0.
         25    2    1    2    0    0  0.10821401360E+02  0.55226583697E+02  0.42696371865E+02  0.14365734698E+03  0.12508946756E+03 0.  0.
         24    2    1    2    0    0 -0.40712224361E+02 -0.45515532387E+02  0.48638448862E+03  0.49683775501E+03  0.80924255536E+02 0.  0.
        -11    1    5    5    0    0  0.15948958074E+01  0.11024965948E+02  0.24709335697E+03  0.24734433615E+03  0.00000000000E+00 0.  1.
         12    1    5    5    0    0 -0.42307120169E+02 -0.56540498335E+02  0.23929113165E+03  0.24949341886E+03  0.00000000000E+00 0. -1.
         11    1    3    3    0    0  0.48378534823E+02  0.45627532602E+01 -0.90417556864E+02  0.10264811707E+03  0.00000000000E+00 0. -1.
        -12    1    3    3    0    0 -0.18487711822E+02 -0.14273804571E+02 -0.12155230875E+01  0.23388340722E+02  0.00000000000E+00 0.  1.
          5    1    4    4  501    0  0.58425519429E+02  0.61690519257E+02  0.43249009910E+02  0.95431707231E+02  0.41800000000E+01 0.  1.
         -5    1    4    4    0  501 -0.47604118068E+02 -0.64639355602E+01 -0.55263804520E+00  0.48225639745E+02  0.41800000000E+01 0.  1.
</event>
<event>
11    1  0.8037748E-009  0.1871812E+03  0.7561462E-02  0.1063978E+00
         22   -1    0    0    0    0  0.00000000000E+00  0.00000000000E+00  0.29480669425E+03  0.29480669425E+03  0.00000000000E+00 0.  1.
         22   -1    0    0    0    0 -0.00000000000E+00 -0.00000000000E+00 -0.12053390789E+04  0.12053390789E+04  0.00000000000E+00 0.  1.
        -24    2    1    2    0    0  0.10961782774E+03  0.46544610189E+02 -0.43577144757E+03  0.45859278177E+03  0.78918414074E+02 0.  0.
         25    2    1    2    0    0 -0.24490857208E+03 -0.30158601626E+02 -0.71045378872E+03  0.76241809654E+03  0.12508804135E+03 0.  0.
         24    2    1    2    0    0  0.13529074434E+03 -0.16386008563E+02  0.23569285163E+03  0.27913489485E+03  0.61588005589E+02 0.  0.
        -11    1    5    5    0    0  0.13975951637E+03 -0.14604992276E+02  0.23559985876E+03  0.27432338884E+03  0.00000000000E+00 0.  1.
         12    1    5    5    0    0 -0.44687720259E+01 -0.17810162873E+01  0.92992867779E-01  0.48115060125E+01  0.00000000000E+00 0. -1.
         13    1    3    3    0    0  0.68759030835E+02  0.10485985641E+02 -0.12471710713E+03  0.14280096998E+03  0.00000000000E+00 0. -1.
        -14    1    3    3    0    0  0.40858796904E+02  0.36058624548E+02 -0.31105434043E+03  0.31579181179E+03  0.00000000000E+00 0.  1.
          5    1    4    4  501    0 -0.10774775334E+03  0.48354252040E+02 -0.32382260739E+03  0.34471185865E+03  0.41800000000E+01 0.  1.
         -5    1    4    4    0  501 -0.13716081874E+03 -0.78512853666E+02 -0.38663118134E+03  0.41770623789E+03  0.41800000000E+01 0.  1.
</event>
<event>
11    1  0.8037748E-009  0.2799796E+03  0.7561462E-02  0.1009039E+00
         22   -1    0    0    0    0  0.00000000000E+00  0.00000000000E+00  0.90023733250E+02  0.90023733250E+02  0.00000000000E+00 0.  1.
         22   -1    0    0    0    0 -0.00000000000E+00 -0.00000000000E+00 -0.31405426807E+04  0.31405426807E+04  0.00000000000E+00 0.  1.
         24    2    1    2    0    0 -0.14896857690E+03 -0.17310475993E+03 -0.11276351823E+04  0.11535243389E+04  0.83068653469E+02 0.  0.
         25    2    1    2    0    0  0.37741562594E+03  0.14514637093E+03 -0.16780226509E+04  0.17305831588E+04  0.12509208194E+03 0.  0.
        -24    2    1    2    0    0 -0.22844704904E+03  0.27958388999E+02 -0.24486111417E+03  0.34645891618E+03  0.84303556492E+02 0.  0.
        -11    1    3    3    0    0 -0.15090338178E+03 -0.12893342328E+03 -0.89840183716E+03  0.92006604072E+03  0.00000000000E+00 0.  1.
         12    1    3    3    0    0  0.19348048782E+01 -0.44171336652E+02 -0.22923334516E+03  0.23345829817E+03  0.00000000000E+00 0. -1.
         11    1    5    5    0    0 -0.22978492496E+03  0.18109875667E+02 -0.21582217778E+03  0.31576619793E+03  0.00000000000E+00 0. -1.
        -12    1    5    5    0    0  0.13378759162E+01  0.98485133327E+01 -0.29038936391E+02  0.30692718250E+02  0.00000000000E+00 0.  1.
          5    1    4    4  501    0  0.25435248182E+03  0.81657609747E+02 -0.84842173009E+03  0.88949426908E+03  0.41800000000E+01 0. -1.
         -5    1    4    4    0  501  0.12306314412E+03  0.63488761187E+02 -0.82960092082E+03  0.84108888975E+03  0.41800000000E+01 0. -1.
</event>
<event>
11    1  0.8037748E-009  0.1527276E+03  0.7561462E-02  0.1094124E+00
         22   -1    0    0    0    0  0.00000000000E+00  0.00000000000E+00  0.13173927324E+03  0.13173927324E+03  0.00000000000E+00 0.  1.
         22   -1    0    0    0    0 -0.00000000000E+00 -0.00000000000E+00 -0.21526932665E+04  0.21526932665E+04  0.00000000000E+00 0. -1.
         24    2    1    2    0    0 -0.21227268820E+02  0.71984774152E+01 -0.17690940417E+04  0.17709201396E+04  0.77213970877E+02 0.  0.
         25    2    1    2    0    0  0.17400338993E+02 -0.94189094469E+02 -0.33302970297E+03  0.36841866935E+03  0.12509666484E+03 0.  0.
        -24    2    1    2    0    0  0.38269298273E+01  0.86990617053E+02  0.81169751461E+02  0.14509373078E+03  0.82955706923E+02 0.  0.
        -13    1    3    3    0    0 -0.47894692391E+02  0.79799399851E+01 -0.80920549974E+03  0.81066091666E+03  0.00000000000E+00 0.  1.
         14    1    3    3    0    0  0.26667423571E+02 -0.78146256996E+00 -0.95988854199E+03  0.96025922292E+03  0.00000000000E+00 0. -1.
         11    1    5    5    0    0  0.31692330733E+02  0.62934732263E+02  0.19231078358E+02  0.73041212525E+02  0.00000000000E+00 0. -1.
        -12    1    5    5    0    0 -0.27865400906E+02  0.24055884790E+02  0.61938673102E+02  0.72052518251E+02  0.00000000000E+00 0.  1.
          5    1    4    4  501    0 -0.28694115741E+02 -0.13831934230E+02 -0.12051228719E+02  0.34312959597E+02  0.41800000000E+01 0.  1.
         -5    1    4    4    0  501  0.46094454734E+02 -0.80357160239E+02 -0.32097847425E+03  0.33410570975E+03  0.41800000000E+01 0.  1.
</event>
<event>
11    1  0.8037748E-009  0.1333361E+03  0.7561462E-02  0.1115237E+00
         22   -1    0    0    0    0  0.00000000000E+00  0.00000000000E+00  0.21400339634E+04  0.21400339634E+04  0.00000000000E+00 0. -1.
         22   -1    0    0    0    0 -0.00000000000E+00 -0.00000000000E+00 -0.82255895799E+02  0.82255895799E+02  0.00000000000E+00 0. -1.
         24    2    1    2    0    0 -0.15069406995E+02 -0.40713638975E+02 -0.35450333303E+02  0.98612526327E+02  0.81135792296E+02 0.  0.
         25    2    1    2    0    0  0.58212548851E+02  0.25402054286E+02  0.35658583618E+03  0.38318836076E+03  0.12508355628E+03 0.  0.
        -24    2    1    2    0    0 -0.43143141857E+02  0.15311584689E+02  0.17366425648E+04  0.17404889722E+04  0.10620117290E+03 0.  0.
        -13    1    3    3    0    0  0.12048555144E+02 -0.11652818472E+02  0.22674020647E+02  0.28196933729E+02  0.00000000000E+00 0.  1.
         14    1    3    3    0    0 -0.27117962138E+02 -0.29060820503E+02 -0.58124353950E+02  0.70415592598E+02  0.00000000000E+00 0. -1.
         11    1    5    5    0    0 -0.42514801277E+02  0.58202666788E+02  0.99525425995E+03  0.99786076217E+03  0.00000000000E+00 0. -1.
        -12    1    5    5    0    0 -0.62834058008E+00 -0.42891082099E+02  0.74138830482E+03  0.74262820998E+03  0.00000000000E+00 0.  1.
          5    1    4    4  501    0  0.64849728113E+02  0.38083122284E+01  0.69649328340E+02  0.95333581788E+02  0.41800000000E+01 0.  1.
         -5    1    4    4    0  501 -0.66371792612E+01  0.21593742057E+02  0.28693650784E+03  0.28785477897E+03  0.41800000000E+01 0.  1.
</event>
<event>
11    1  0.8037748E-009  0.1526813E+03  0.7561462E-02  0.1094170E+00
         22   -1    0    0    0    0  0.00000000000E+00  0.00000000000E+00  0.85026643429E+03  0.85026643429E+03  0.00000000000E+00 0.  1.
         22   -1    0    0    0    0 -0.00000000000E+00 -0.00000000000E+00 -0.31715191427E+03  0.31715191427E+03  0.00000000000E+00 0. -1.
        -24    2    1    2    0    0 -0.32573814965E+02 -0.16664307616E+00 -0.28221881364E+03  0.29311450519E+03  0.72163517016E+02 0.  0.
         25    2    1    2    0    0 -0.35368433311E+02 -0.62548955008E+02  0.19997363387E+03  0.24657824943E+03  0.12509228994E+03 0.  0.
         24    2    1    2    0    0  0.67942248275E+02  0.62715598084E+02  0.61535969979E+03  0.62772559394E+03  0.82598219206E+02 0.  0.
        -13    1    5    5    0    0  0.76480014681E+02  0.72959608807E+02  0.58630746647E+03  0.59575896334E+03  0.00000000000E+00 0.  1.
         14    1    5    5    0    0 -0.85377664059E+01 -0.10244010723E+02  0.29052233328E+02  0.31966630605E+02  0.00000000000E+00 0. -1.
         13    1    3    3    0    0 -0.29482843055E+02  0.40556559573E+01 -0.28542847784E+03  0.28697578703E+03  0.00000000000E+00 0. -1.
        -14    1    3    3    0    0 -0.30909719094E+01 -0.42222990334E+01  0.32096641929E+01  0.61387181645E+01  0.00000000000E+00 0.  1.
          5    1    4    4  501    0 -0.19508465563E+02 -0.29439052269E+02  0.20608125434E+03  0.20912721921E+03  0.41800000000E+01 0.  1.
         -5    1    4    4    0  501 -0.15859967748E+02 -0.33109902739E+02 -0.61076204687E+01  0.37451030215E+02  0.41800000000E+01 0.  1.
</event>
<event>
11    1  0.8037748E-009  0.1355569E+03  0.7561462E-02  0.1112624E+00
         22   -1    0    0    0    0  0.00000000000E+00  0.00000000000E+00  0.46735315209E+03  0.46735315209E+03  0.00000000000E+00 0.  1.
         22   -1    0    0    0    0 -0.00000000000E+00 -0.00000000000E+00 -0.19573203548E+03  0.19573203548E+03  0.00000000000E+00 0.  1.
         24    2    1    2    0    0 -0.34556617500E+02  0.17620758444E+02 -0.10843876177E+03  0.14058947369E+03  0.80633641340E+02 0.  0.
         25    2    1    2    0    0  0.81813829776E+02 -0.15711928220E+01  0.20399050290E+02  0.15086184711E+03  0.12508878556E+03 0.  0.
        -24    2    1    2    0    0 -0.47257212277E+02 -0.16049565622E+02  0.35966082810E+03  0.37163386677E+03  0.79151670805E+02 0.  0.
        -13    1    3    3    0    0 -0.51770145903E+02  0.12151608721E+02 -0.11028281215E+03  0.12243409761E+03  0.00000000000E+00 0.  1.
         14    1    3    3    0    0  0.17213528403E+02  0.54691497234E+01  0.18440503775E+01  0.18155376079E+02  0.00000000000E+00 0. -1.
         11    1    5    5    0    0  0.22083158888E+02 -0.76778173885E+01  0.10478095052E+03  0.10735763773E+03  0.00000000000E+00 0. -1.
        -12    1    5    5    0    0 -0.69340371165E+02 -0.83717482337E+01  0.25487987757E+03  0.26427622904E+03  0.00000000000E+00 0.  1.
          5    1    4    4  501    0  0.87615830548E+01  0.37361128477E+02 -0.34231013467E+02  0.51593157896E+02  0.41800000000E+01 0. -1.
         -5    1    4    4    0  501  0.73052246722E+02 -0.38932321299E+02  0.54630063757E+02  0.99268689217E+02  0.41800000000E+01 0. -1.
</event>
<event>
11    1  0.8037748E-009  0.6780800E+03  0.7561462E-02  0.9065245E-01
         22   -1    0    0    0    0  0.00000000000E+00  0.00000000000E+00  0.24078371846E+04  0.24078371846E+04  0.00000000000E+00 0. -1.
         22   -1    0    0    0    0 -0.00000000000E+00 -0.00000000000E+00 -0.39740916152E+03  0.39740916152E+03  0.00000000000E+00 0. -1.
         24    2    1    2    0    0  0.10378987707E+03 -0.11731411154E+03 -0.53520232743E+01  0.17617798992E+03  0.80468009980E+02 0.  0.
         25    2    1    2    0    0 -0.74234355506E+03 -0.31598145708E+01  0.33261809186E+03  0.82302255879E+03  0.12508956424E+03 0.  0.
        -24    2    1    2    0    0  0.63855367799E+03  0.12047392611E+03  0.16831619545E+04  0.18060457974E+04  0.80638022576E+02 0.  0.
        -11    1    3    3    0    0 -0.93089783303E+01 -0.30547924145E+02  0.82499404046E+01  0.32983242166E+02  0.00000000000E+00 0.  1.
         12    1    3    3    0    0  0.11309885540E+03 -0.86766187394E+02 -0.13601963679E+02  0.14319474775E+03  0.00000000000E+00 0. -1.
         13    1    5    5    0    0  0.16261007379E+03  0.61148590675E+02  0.50238588292E+03  0.53157573458E+03  0.00000000000E+00 0. -1.
        -14    1    5    5    0    0  0.47594360420E+03  0.59325335434E+02  0.11807760715E+04  0.12744700628E+04  0.00000000000E+00 0.  1.
          5    1    4    4  501    0 -0.72795399738E+03 -0.12131869884E+02  0.30292024627E+03  0.78856981464E+03  0.41800000000E+01 0.  1.
         -5    1    4    4    0  501 -0.14389557686E+02  0.89720553128E+01  0.29697845591E+02  0.34452744153E+02  0.41800000000E+01 0.  1.
</event>
<event>
11    1  0.8037748E-009  0.1697190E+03  0.7561462E-02  0.1078276E+00
         22   -1    0    0    0    0  0.00000000000E+00  0.00000000000E+00  0.87595520644E+03  0.87595520644E+03  0.00000000000E+00 0.  1.
         22   -1    0    0    0    0 -0.00000000000E+00 -0.00000000000E+00 -0.20231903820E+03  0.20231903820E+03  0.00000000000E+00 0.  1.
         24    2    1    2    0    0 -0.58888456758E+02  0.10477780760E+03 -0.15376512581E+03  0.21147338586E+03  0.81431196176E+02 0.  0.
         25    2    1    2    0    0 -0.17029265359E+02 -0.53695074748E+02  0.38649795262E+03  0.41012310953E+03  0.12508853127E+03 0.  0.
        -24    2    1    2    0    0  0.75917722117E+02 -0.51082732848E+02  0.44090334143E+03  0.45667774925E+03  0.76064867348E+02 0.  0.
        -11    1    3    3    0    0 -0.57572598221E+02  0.11723941659E+03 -0.14880504820E+03  0.19799653340E+03  0.00000000000E+00 0.  1.
         12    1    3    3    0    0 -0.13158585370E+01 -0.12461608997E+02 -0.49600776091E+01  0.13476852465E+02  0.00000000000E+00 0. -1.
         11    1    5    5    0    0  0.82529522360E+02 -0.23399072305E+02  0.37836114114E+03  0.38796364748E+03  0.00000000000E+00 0. -1.
        -12    1    5    5    0    0 -0.66118002428E+01 -0.27683660543E+02  0.62542200296E+02  0.68714101765E+02  0.00000000000E+00 0.  1.
          5    1    4    4  501    0 -0.23348024499E+02 -0.72947350959E+02  0.11744346290E+03  0.14027432280E+03  0.41800000000E+01 0.  1.
         -5    1    4    4    0  501  0.63187591397E+01  0.19252276211E+02  0.26905448972E+03  0.26984878672E+03  0.41800000000E+01 0.  1.
</event>
<event>
11    1  0.8037748E-009  0.1514904E+03  0.7561462E-02  0.1095366E+00
         22   -1    0    0    0    0  0.00000000000E+00  0.00000000000E+00  0.19591055786E+04  0.19591055786E+04  0.00000000000E+00 0.  1.
         22   -1    0    0    0    0 -0.00000000000E+00 -0.00000000000E+00 -0.74316791072E+03  0.74316791072E+03  0.00000000000E+00 0.  1.
        -24    2    1    2    0    0 -0.53437902742E+02  0.13019836248E+02 -0.70308755356E+03  0.70970809031E+03  0.79550863636E+02 0.  0.
         25    2    1    2    0    0  0.12282999566E+03 -0.58038030434E+02  0.20988448970E+03  0.27956246295E+03  0.12509216948E+03 0.  0.
         24    2    1    2    0    0 -0.69392092920E+02  0.45018194186E+02  0.17091407318E+04  0.17130029361E+04  0.79844334180E+02 0.  0.
        -11    1    5    5    0    0 -0.33760626364E+02  0.51667767207E+02  0.14530014975E+04  0.14543117581E+04  0.00000000000E+00 0.  1.
         12    1    5    5    0    0 -0.35631466555E+02 -0.66495730213E+01  0.25613923430E+03  0.25869117800E+03  0.00000000000E+00 0. -1.
         13    1    3    3    0    0  0.19907850993E+02  0.84302513955E+01 -0.22046496782E+03  0.22152244515E+03  0.00000000000E+00 0. -1.
        -14    1    3    3    0    0 -0.73345753735E+02  0.45895848522E+01 -0.48262258574E+03  0.48818564516E+03  0.00000000000E+00 0.  1.
          5    1    4    4  501    0  0.18360714013E+02 -0.50666645424E+02  0.14865222584E+03  0.15817452837E+03  0.41800000000E+01 0.  1.
         -5    1    4    4    0  501  0.10446928165E+03 -0.73713850095E+01  0.61232263853E+02  0.12138793458E+03  0.41800000000E+01 0.  1.
</event>
<event>
11    1  0.8037748E-009  0.2708265E+03  0.7561462E-02  0.1013355E+00
         22   -1    0    0    0    0  0.00000000000E+00  0.00000000000E+00  0.74962702051E+03  0.74962702051E+03  0.00000000000E+00 0.  1.
         22   -1    0    0    0    0 -0.00000000000E+00 -0.00000000000E+00 -0.34704171392E+03  0.34704171392E+03  0.00000000000E+00 0.  1.
        -24    2    1    2    0    0 -0.78016391303E+02 -0.38968252827E+02 -0.81825735774E+01  0.12282551076E+03  0.86104991397E+02 0.  0.
         25    2    1    2    0    0 -0.16866174469E+03  0.15986430169E+02 -0.21194092865E+03  0.29878014232E+03  0.12509302992E+03 0.  0.
         24    2    1    2    0    0  0.24667813599E+03  0.22981822658E+02  0.62270880882E+03  0.67506308135E+03  0.81028613924E+02 0.  0.
        -13    1    5    5    0    0  0.17050525290E+03 -0.11147322725E+01  0.32742227287E+03  0.36915935403E+03  0.00000000000E+00 0.  1.
         14    1    5    5    0    0  0.76172883086E+02  0.24096554930E+02  0.29528653594E+03  0.30590372732E+03  0.00000000000E+00 0. -1.
         11    1    3    3    0    0 -0.37658526003E+02 -0.60019166630E+02 -0.23733210071E+02  0.74724361516E+02  0.00000000000E+00 0. -1.
        -12    1    3    3    0    0 -0.40357865300E+02  0.21050913804E+02  0.15550636493E+02  0.48101149247E+02  0.00000000000E+00 0.  1.
          5    1    4    4  501    0 -0.78638439781E+01  0.45790133151E+02 -0.54464135090E+02  0.71710464698E+02  0.41800000000E+01 0. -1.
         -5    1    4    4    0  501 -0.16079790071E+03 -0.29803702982E+02 -0.15747679356E+03  0.22706967762E+03  0.41800000000E+01 0. -1.
</event>
<event>
11    1  0.8037748E-009  0.1288387E+03  0.7561462E-02  0.1120704E+00
         22   -1    0    0    0    0  0.00000000000E+00  0.00000000000E+00  0.26160469500E+03  0.26160469500E+03  0.00000000000E+00 0. -1.
         22   -1    0    0    0    0 -0.00000000000E+00 -0.00000000000E+00 -0.26124482574E+03  0.26124482574E+03  0.00000000000E+00 0. -1.
        -24    2    1    2    0    0 -0.16126300722E+01  0.48684985718E+01 -0.20269823459E+03  0.21848184831E+03  0.81372236544E+02 0.  0.
         25    2    1    2    0    0 -0.71213763777E+01 -0.33356434017E+02  0.72409055419E+02  0.14850710173E+03  0.12509165545E+03 0.  0.
         24    2    1    2    0    0  0.87340064499E+01  0.28487935445E+02  0.13064904843E+03  0.15586057071E+03  0.79595843558E+02 0.  0.
        -11    1    5    5    0    0 -0.17921658140E+02 -0.69531932959E+01  0.14674608609E+01  0.19279164113E+02  0.00000000000E+00 0.  1.
         12    1    5    5    0    0  0.26655664590E+02  0.35441128741E+02  0.12918158757E+03  0.13658140660E+03  0.00000000000E+00 0. -1.
         11    1    3    3    0    0 -0.26244478457E+02  0.32816849744E+02 -0.13260595106E+03  0.13910448064E+03  0.00000000000E+00 0. -1.
        -12    1    3    3    0    0  0.24631848385E+02 -0.27948351172E+02 -0.70092283530E+02  0.79377367672E+02  0.00000000000E+00 0.  1.
          5    1    4    4  501    0 -0.18280617888E+02  0.37072059170E+02  0.64389301214E+02  0.76628800541E+02  0.41800000000E+01 0.  1.
         -5    1    4    4    0  501  0.11159241510E+02 -0.70428493187E+02  0.80197542050E+01  0.71878301184E+02  0.41800000000E+01 0.  1.
</event>
<event>
11    1  0.8037748E-009  0.2001586E+03  0.7561462E-02  0.1054412E+00
         22   -1    0    0    0    0  0.00000000000E+00  0.00000000000E+00  0.19338721036E+04  0.19338721036E+04  0.00000000000E+00 0. -1.
         22   -1    0    0    0    0 -0.00000000000E+00 -0.00000000000E+00 -0.21278744876E+03  0.21278744876E+03  0.00000000000E+00 0.  1.
         24    2    1    2    0    0 -0.12786946578E+03  0.97041995129E+02 -0.15848543852E+03  0.23972399747E+03  0.81130830397E+02 0.  0.
         25    2    1    2    0    0  0.49290757789E+02 -0.90959275720E+02  0.57535488146E+03  0.59781600422E+03  0.12509023402E+03 0.  0.
        -24    2    1    2    0    0  0.78578707995E+02 -0.60827194090E+01  0.13042152119E+04  0.13091195506E+04  0.81271557993E+02 0.  0.
        -11    1    3    3    0    0 -0.97274368745E+02  0.80404543218E+02 -0.16127665474E+03  0.20478611464E+03  0.00000000000E+00 0.  1.
         12    1    3    3    0    0 -0.30595097039E+02  0.16637451911E+02  0.27912162147E+01  0.34937882833E+02  0.00000000000E+00 0. -1.
         13    1    5    5    0    0 -0.90286473754E+01  0.19270393017E+02  0.31022930444E+03  0.31095833459E+03  0.00000000000E+00 0. -1.
        -14    1    5    5    0    0  0.87607355371E+02 -0.25353112426E+02  0.99398590744E+03  0.99816121604E+03  0.00000000000E+00 0.  1.
          5    1    4    4  501    0  0.46499483517E+02 -0.11423449100E+03  0.34830135345E+03  0.36951728798E+03  0.41800000000E+01 0. -1.
         -5    1    4    4    0  501  0.27912742721E+01  0.23275215278E+02  0.22705352801E+03  0.22829871625E+03  0.41800000000E+01 0. -1.
</event>
<event>
11    1  0.8037748E-009  0.2172146E+03  0.7561462E-02  0.1042976E+00
         22   -1    0    0    0    0  0.00000000000E+00  0.00000000000E+00  0.84224029050E+03  0.84224029050E+03  0.00000000000E+00 0.  1.
         22   -1    0    0    0    0 -0.00000000000E+00 -0.00000000000E+00 -0.73181338130E+03  0.73181338130E+03  0.00000000000E+00 0. -1.
        -24    2    1    2    0    0  0.14495796183E+03  0.93851989763E+02 -0.60438182999E+03  0.63388528539E+03  0.81927723889E+02 0.  0.
         25    2    1    2    0    0 -0.14869229428E+03 -0.22059292087E+03  0.10497326906E+03  0.31215059856E+03  0.12509186164E+03 0.  0.
         24    2    1    2    0    0  0.37343324416E+01  0.12674093111E+03  0.60983547013E+03  0.62801778785E+03  0.80186235552E+02 0.  0.
        -13    1    5    5    0    0 -0.17651711198E+02 -0.27198217545E+01  0.99072235201E+02  0.10066920148E+03  0.00000000000E+00 0.  1.
         14    1    5    5    0    0  0.21386043640E+02  0.12946075286E+03  0.51076323493E+03  0.52734858637E+03  0.00000000000E+00 0. -1.
         13    1    3    3    0    0  0.12141343737E+03  0.75129970530E+02 -0.57256970058E+03  0.59010320900E+03  0.00000000000E+00 0. -1.
        -14    1    3    3    0    0  0.23544524464E+02  0.18722019233E+02 -0.31812129406E+02  0.43782076399E+02  0.00000000000E+00 0.  1.
          5    1    4    4  501    0 -0.79503051774E+02 -0.20567659979E+02  0.26821893697E+02  0.86490752453E+02  0.41800000000E+01 0.  1.
         -5    1    4    4    0  501 -0.69189242501E+02 -0.20002526089E+03  0.78151375361E+02  0.22565984610E+03  0.41800000000E+01 0.  1.
</event>
<event>
11    1  0.8037748E-009  0.1277856E+03  0.7561462E-02  0.1122020E+00
         22   -1    0    0    0    0  0.00000000000E+00  0.00000000000E+00  0.63178291395E+03  0.63178291395E+03  0.00000000000E+00 0. -1.
         22   -1    0    0    0    0 -0.00000000000E+00 -0.00000000000E+00 -0.37564387275E+03  0.37564387275E+03  0.00000000000E+00 0.  1.
        -24    2    1    2    0    0 -0.25890312818E+02  0.20059183706E+02 -0.21882842052E+03  0.23548427788E+03  0.80587147547E+02 0.  0.
         25    2    1    2    0    0  0.32008074190E+02 -0.44722993609E+02 -0.11221363091E+03  0.17681710544E+03  0.12509087434E+03 0.  0.
         24    2    1    2    0    0 -0.61177613718E+01  0.24663809903E+02  0.58718109263E+03  0.59512540337E+03  0.93524754324E+02 0.  0.
        -11    1    5    5    0    0 -0.27392492814E+02 -0.17454900777E+02  0.89488874188E+02  0.95201264840E+02  0.00000000000E+00 0.  1.
         12    1    5    5    0    0  0.21274731442E+02  0.42118710680E+02  0.49769221845E+03  0.49992413853E+03  0.00000000000E+00 0. -1.
         11    1    3    3    0    0 -0.39037902925E+02 -0.16569444305E+02 -0.15527423508E+03  0.16096146256E+03  0.00000000000E+00 0. -1.
        -12    1    3    3    0    0  0.13147590106E+02  0.36628628011E+02 -0.63554185440E+02  0.74522815316E+02  0.00000000000E+00 0.  1.
          5    1    4    4  501    0 -0.43783215446E+02 -0.14213848152E+02 -0.12585378484E+02  0.47904776230E+02  0.41800000000E+01 0.  1.
         -5    1    4    4    0  501  0.75791289636E+02 -0.30509145457E+02 -0.99628252429E+02  0.12891232921E+03  0.41800000000E+01 0.  1.
</event>
<event>
11    1  0.8037748E-009  0.1332220E+03  0.7561462E-02  0.1115372E+00
         22   -1    0    0    0    0  0.00000000000E+00  0.00000000000E+00  0.62019912681E+03  0.62019912681E+03  0.00000000000E+00 0. -1.
         22   -1    0    0    0    0 -0.00000000000E+00 -0.00000000000E+00 -0.84472715147E+03  0.84472715147E+03  0.00000000000E+00 0. -1.
         24    2    1    2    0    0  0.36251155110E+01  0.30729479437E+02 -0.80117068739E+03  0.80603643394E+03  0.82842139808E+02 0.  0.
         25    2    1    2    0    0  0.20896024411E+02  0.11620699577E+02  0.74163648555E+02  0.14737420835E+03  0.12508887251E+03 0.  0.
        -24    2    1    2    0    0 -0.24521139922E+02 -0.42350179014E+02  0.50247901417E+03  0.51151563599E+03  0.82269448891E+02 0.  0.
        -11    1    3    3    0    0  0.11106417272E+02  0.10572800079E+01 -0.12430755492E+02  0.16703114312E+02  0.00000000000E+00 0.  1.
         12    1    3    3    0    0 -0.74813017610E+01  0.29672199429E+02 -0.78873993190E+03  0.78933331963E+03  0.00000000000E+00 0. -1.
         11    1    5    5    0    0  0.84254748501E+01 -0.29199686643E+02  0.42738625652E+03  0.42846542753E+03  0.00000000000E+00 0. -1.
        -12    1    5    5    0    0 -0.32946614772E+02 -0.13150492371E+02  0.75092757645E+02  0.83050208460E+02  0.00000000000E+00 0.  1.
          5    1    4    4  501    0 -0.22575652239E+02 -0.34163007336E+02 -0.97298431156E+01  0.42295548126E+02  0.41800000000E+01 0. -1.
         -5    1    4    4    0  501  0.43471676649E+02  0.45783706914E+02  0.83893491671E+02  0.10507866022E+03  0.41800000000E+01 0. -1.
</event>
<event>
11    1  0.8037748E-009  0.1536989E+03  0.7561462E-02  0.1093158E+00
         22   -1    0    0    0    0  0.00000000000E+00  0.00000000000E+00  0.78589651104E+03  0.78589651104E+03  0.00000000000E+00 0.  1.
         22   -1    0    0    0    0 -0.00000000000E+00 -0.00000000000E+00 -0.80149472972E+03  0.80149472972E+03  0.00000000000E+00 0.  1.
        -24    2    1    2    0    0  0.77673824268E+02 -0.44173615389E+02 -0.74145228873E+03  0.75109782698E+03  0.80074452592E+02 0.  0.
         25    2    1    2    0    0 -0.74656973739E+02  0.47361789247E+02  0.58246620981E+02  0.16387810417E+03  0.12508621572E+03 0.  0.
         24    2    1    2    0    0 -0.30168505285E+01 -0.31881738580E+01  0.66760744906E+03  0.67241530961E+03  0.80145971255E+02 0.  0.
        -13    1    5    5    0    0 -0.31589365454E+02 -0.20466479276E+02  0.50579780251E+03  0.50719639372E+03  0.00000000000E+00 0.  1.
         14    1    5    5    0    0  0.28572514926E+02  0.17278305418E+02  0.16180964655E+03  0.16521891588E+03  0.00000000000E+00 0. -1.
         13    1    3    3    0    0  0.61586562050E+02 -0.12713335505E+02 -0.23046996026E+03  0.23889524086E+03  0.00000000000E+00 0. -1.
        -14    1    3    3    0    0  0.16087262218E+02 -0.31460279884E+02 -0.51098232847E+03  0.51220258612E+03  0.00000000000E+00 0.  1.
          5    1    4    4  501    0  0.50818453757E+01  0.55637450576E+02 -0.11896860796E+02  0.57274416241E+02  0.41800000000E+01 0. -1.
         -5    1    4    4    0  501 -0.79738819115E+02 -0.82756613287E+01  0.70143481778E+02  0.10660368793E+03  0.41800000000E+01 0. -1.
</event>
<event>
11    1  0.8037748E-009  0.2485065E+03  0.7561462E-02  0.1024698E+00
         22   -1    0    0    0    0  0.00000000000E+00  0.00000000000E+00  0.11826513421E+04  0.11826513421E+04  0.00000000000E+00 0. -1.
         22   -1    0    0    0    0 -0.00000000000E+00 -0.00000000000E+00 -0.10504778471E+03  0.10504778471E+03  0.00000000000E+00 0.  1.
        -24    2    1    2    0    0  0.16260711627E+03  0.18274275264E+03  0.33245744952E+03  0.41972407616E+03  0.76186327224E+02 0.  0.
         25    2    1    2    0    0 -0.62157574874E+02  0.28877746435E+02  0.92319334695E+02  0.16990618941E+03  0.12509102801E+03 0.  0.
         24    2    1    2    0    0 -0.10044954140E+03 -0.21162049907E+03  0.65282677313E+03  0.69806886121E+03  0.79018942520E+02 0.  0.
        -13    1    5    5    0    0 -0.68444872411E+02 -0.10950307130E+03  0.25144923258E+03  0.28267001919E+03  0.00000000000E+00 0.  1.
         14    1    5    5    0    0 -0.32004668986E+02 -0.10211742778E+03  0.40137754055E+03  0.41539884202E+03  0.00000000000E+00 0. -1.
         13    1    3    3    0    0  0.11742877988E+03  0.14181164641E+03  0.29629705434E+03  0.34884381292E+03  0.00000000000E+00 0. -1.
        -14    1    3    3    0    0  0.45178336395E+02  0.40931106227E+02  0.36160395181E+02  0.70880263233E+02  0.00000000000E+00 0.  1.
          5    1    4    4  501    0 -0.25055767446E+02 -0.45976222136E+02  0.11874698342E+02  0.53852440473E+02  0.41800000000E+01 0. -1.
         -5    1    4    4    0  501 -0.37101807427E+02  0.74853968572E+02  0.80444636353E+02  0.11605374894E+03  0.41800000000E+01 0. -1.
</event>
<event>
11    1  0.8037748E-009  0.1410153E+03  0.7561462E-02  0.1106430E+00
         22   -1    0    0    0    0  0.00000000000E+00  0.00000000000E+00  0.61158802300E+03  0.61158802300E+03  0.00000000000E+00 0. -1.
         22   -1    0    0    0    0 -0.00000000000E+00 -0.00000000000E+00 -0.20195527847E+03  0.20195527847E+03  0.00000000000E+00 0.  1.
         24    2    1    2    0    0 -0.19131690133E+02 -0.59977136658E+02 -0.14060108241E+03  0.17419467203E+03  0.81313227103E+02 0.  0.
         25    2    1    2    0    0  0.67389232311E+02  0.66170430616E+02  0.11679317297E+03  0.19547038328E+03  0.12509272948E+03 0.  0.
        -24    2    1    2    0    0 -0.48257542178E+02 -0.61932939582E+01  0.43344065396E+03  0.44387824615E+03  0.82401150677E+02 0.  0.
        -13    1    3    3    0    0 -0.13097435596E+02 -0.17583118684E+02 -0.12756150373E+03  0.12943201349E+03  0.00000000000E+00 0.  1.
         14    1    3    3    0    0 -0.60342545376E+01 -0.42394017974E+02 -0.13039578675E+02  0.44762658543E+02  0.00000000000E+00 0. -1.
         11    1    5    5    0    0 -0.58942184685E+02  0.19077897909E+02  0.36362345461E+03  0.36886334064E+03  0.00000000000E+00 0. -1.
        -12    1    5    5    0    0  0.10684642507E+02 -0.25271191867E+02  0.69817199347E+02  0.75014905509E+02  0.00000000000E+00 0.  1.
          5    1    4    4  501    0  0.97032839495E+02  0.77806775540E+02  0.96511359897E+02  0.15748390791E+03  0.41800000000E+01 0. -1.
         -5    1    4    4    0  501 -0.29643607184E+02 -0.11636344924E+02  0.20281813074E+02  0.37986475378E+02  0.41800000000E+01 0. -1.
</event>
<event>
11    1  0.8037748E-009  0.3567289E+03  0.7561462E-02  0.9786834E-01
         22   -1    0    0    0    0  0.00000000000E+00  0.00000000000E+00  0.67260641613E+03  0.67260641613E+03  0.00000000000E+00 0. -1.
         22   -1    0    0    0    0 -0.00000000000E+00 -0.00000000000E+00 -0.40542264268E+03  0.40542264268E+03  0.00000000000E+00 0. -1.
        -24    2    1    2    0    0  0.92570912287E+02  0.10614283056E+03 -0.11179883604E+03  0.19706693331E+03  0.80627056148E+02 0.  0.
         25    2    1    2    0    0 -0.34629223344E+03  0.10676451351E+03  0.16416105132E+02  0.38370969639E+03  0.12508665119E+03 0.  0.
         24    2    1    2    0    0  0.25372132116E+03 -0.21290734407E+03  0.36256650436E+03  0.49725242911E+03  0.78111857027E+02 0.  0.
        -11    1    5    5    0    0  0.13327259328E+03 -0.11899117008E+03  0.25106986588E+03  0.30815022348E+03  0.00000000000E+00 0.  1.
         12    1    5    5    0    0  0.12044872788E+03 -0.93916173991E+02  0.11149663848E+03  0.18910220564E+03  0.00000000000E+00 0. -1.
         11    1    3    3    0    0 -0.84828935985E+01  0.40574551656E+02 -0.22928590166E+02  0.47370602412E+02  0.00000000000E+00 0. -1.
        -12    1    3    3    0    0  0.10105380589E+03  0.65568278906E+02 -0.88870245870E+02  0.14969633090E+03  0.00000000000E+00 0.  1.
          5    1    4    4  501    0 -0.12182444559E+03 -0.21848125411E+02  0.16800912313E+02  0.12497311384E+03  0.41800000000E+01 0.  1.
         -5    1    4    4    0  501 -0.22446778785E+03  0.12861263892E+03 -0.38480718155E+00  0.25873658255E+03  0.41800000000E+01 0.  1.
</event>
<event>
11    1  0.8037748E-009  0.1455105E+03  0.7561462E-02  0.1101556E+00
         22   -1    0    0    0    0  0.00000000000E+00  0.00000000000E+00  0.25861849082E+03  0.25861849082E+03  0.00000000000E+00 0.  1.
         22   -1    0    0    0    0 -0.00000000000E+00 -0.00000000000E+00 -0.30391012788E+03  0.30391012788E+03  0.00000000000E+00 0.  1.
        -24    2    1    2    0    0 -0.57475877484E+02 -0.49634357736E+02 -0.11752385378E+03  0.16529419754E+03  0.87995849746E+02 0.  0.
         25    2    1    2    0    0  0.58541309766E+02  0.42284928856E+02 -0.12009398609E+03  0.18784446295E+03  0.12509147297E+03 0.  0.
         24    2    1    2    0    0 -0.10654322817E+01  0.73494288803E+01  0.19232620282E+03  0.20938995821E+03  0.82459911822E+02 0.  0.
        -11    1    5    5    0    0 -0.26341542665E+02 -0.28215679373E+02  0.78213874545E+02  0.87220476975E+02  0.00000000000E+00 0.  1.
         12    1    5    5    0    0  0.25276110383E+02  0.35565108253E+02  0.11411232827E+03  0.12216948123E+03  0.00000000000E+00 0. -1.
         11    1    3    3    0    0 -0.25557243004E+02  0.64739916965E+01  0.49732654900E+01  0.26829435478E+02  0.00000000000E+00 0. -1.
        -12    1    3    3    0    0 -0.31918634480E+02 -0.56108349433E+02 -0.12249711927E+03  0.13846476206E+03  0.00000000000E+00 0.  1.
          5    1    4    4  501    0  0.21597457799E+02  0.21256413207E+02 -0.13813121037E+03  0.14147787446E+03  0.41800000000E+01 0. -1.
         -5    1    4    4    0  501  0.36943851967E+02  0.21028515649E+02  0.18037224275E+02  0.46366588489E+02  0.41800000000E+01 0. -1.
</event>
<event>
11    1  0.8037748E-009  0.1521963E+03  0.7561462E-02  0.1094655E+00
         22   -1    0    0    0    0  0.00000000000E+00  0.00000000000E+00  0.11914030680E+04  0.11914030680E+04  0.00000000000E+00 0. -1.
         22   -1    0    0    0    0 -0.00000000000E+00 -0.00000000000E+00 -0.54717805211E+02  0.54717805211E+02  0.00000000000E+00 0.  1.
        -24    2    1    2    0    0 -0.51316717773E+02 -0.27938743346E+02  0.11692201244E+03  0.15314971415E+03  0.79812900252E+02 0.  0.
         25    2    1    2    0    0  0.11958171557E+03  0.69928292100E+02  0.23551079086E+03  0.30050504171E+03  0.12509274458E+03 0.  0.
         24    2    1    2    0    0 -0.68264997793E+02 -0.41989548755E+02  0.78425245944E+03  0.79246611731E+03  0.80792294309E+02 0.  0.
        -13    1    5    5    0    0 -0.20790198036E+02  0.24426361126E+02  0.23531054478E+03  0.23748669844E+03  0.00000000000E+00 0.  1.
         14    1    5    5    0    0 -0.47474799757E+02 -0.66415909881E+02  0.54894191466E+03  0.55497941887E+03  0.00000000000E+00 0. -1.
         13    1    3    3    0    0 -0.51669890055E+02 -0.12258088771E+01  0.11533648143E+03  0.12638743646E+03  0.00000000000E+00 0. -1.
        -14    1    3    3    0    0  0.35317228235E+00 -0.26712934468E+02  0.15855310154E+01  0.26762277690E+02  0.00000000000E+00 0.  1.
          5    1    4    4  501    0  0.38453813220E+02  0.91361479913E+02  0.15570952025E+03  0.18463082857E+03  0.41800000000E+01 0.  1.
         -5    1    4    4    0  501  0.81127902346E+02 -0.21433187812E+02  0.79801270610E+02  0.11587421314E+03  0.41800000000E+01 0.  1.
</event>
<event>
11    1  0.8037748E-009  0.2131305E+03  0.7561462E-02  0.1045608E+00
         22   -1    0    0    0    0  0.00000000000E+00  0.00000000000E+00  0.10164807833E+03  0.10164807833E+03  0.00000000000E+00 0. -1.
         22   -1    0    0    0    0 -0.00000000000E+00 -0.00000000000E+00 -0.66877196845E+03  0.66877196845E+03  0.00000000000E+00 0.  1.
        -24    2    1    2    0    0 -0.13461065218E+03  0.10819675730E+03 -0.38320154037E+03  0.42783337917E+03  0.79821136449E+02 0.  0.
         25    2    1    2    0    0  0.14687226476E+03 -0.91596671459E+02 -0.14979405763E+03  0.26085657161E+03  0.12508588598E+03 0.  0.
         24    2    1    2    0    0 -0.12261612580E+02 -0.16600085838E+02 -0.34128292120E+02  0.81730096007E+02  0.71338336660E+02 0.  0.
        -13    1    5    5    0    0 -0.25310854998E+02 -0.25288264770E+02 -0.48630294801E+02  0.60374177329E+02  0.00000000000E+00 0.  1.
         14    1    5    5    0    0  0.13049242418E+02  0.86881789322E+01  0.14502002680E+02  0.21355918678E+02  0.00000000000E+00 0. -1.
         13    1    3    3    0    0  0.30676889860E+01  0.96376126807E+01 -0.14506600696E+01  0.10217568621E+02  0.00000000000E+00 0. -1.
        -14    1    3    3    0    0 -0.13767834116E+03  0.98559144615E+02 -0.38175088030E+03  0.41761581055E+03  0.00000000000E+00 0.  1.
          5    1    4    4  501    0  0.17695017835E+02 -0.28808651983E+01 -0.91929716372E+02  0.93754776906E+02  0.41800000000E+01 0.  1.
         -5    1    4    4    0  501  0.12917724692E+03 -0.88715806260E+02 -0.57864341259E+02  0.16710179470E+03  0.41800000000E+01 0.  1.
</event>
<event>
11    1  0.8037748E-009  0.2848735E+03  0.7561462E-02  0.1006804E+00
         22   -1    0    0    0    0  0.00000000000E+00  0.00000000000E+00  0.36129644922E+03  0.36129644922E+03  0.00000000000E+00 0. -1.
         22   -1    0    0    0    0 -0.00000000000E+00 -0.00000000000E+00 -0.30922595186E+03  0.30922595186E+03  0.00000000000E+00 0. -1.
         24    2    1    2    0    0 -0.23705982997E+02  0.22683191590E+02 -0.43188357661E+02  0.10051359453E+03  0.84624155165E+02 0.  0.
         25    2    1    2    0    0 -0.24103389433E+03 -0.32843614679E+02 -0.10187077756E+02  0.27373062602E+03  0.12509451557E+03 0.  0.
        -24    2    1    2    0    0  0.26473987733E+03  0.10160423088E+02  0.10544593278E+03  0.29627818053E+03  0.80445501250E+02 0.  0.
        -13    1    3    3    0    0 -0.52499066946E+02  0.13055071569E+02 -0.90872295896E+01  0.54855853520E+02  0.00000000000E+00 0.  1.
         14    1    3    3    0    0  0.28793083949E+02  0.96281200215E+01 -0.34101128071E+02  0.45657741010E+02  0.00000000000E+00 0. -1.
         13    1    5    5    0    0  0.26805553517E+03  0.17484969300E+02  0.10033856255E+03  0.28675306663E+03  0.00000000000E+00 0. -1.
        -14    1    5    5    0    0 -0.33156578401E+01 -0.73245462115E+01  0.51073702331E+01  0.95251139004E+01  0.00000000000E+00 0.  1.
          5    1    4    4  501    0 -0.11697227581E+03 -0.78228432797E+02 -0.14233809372E+02  0.14150008740E+03  0.41800000000E+01 0. -1.
         -5    1    4    4    0  501 -0.12406161852E+03  0.45384818118E+02  0.40467316155E+01  0.13223053862E+03  0.41800000000E+01 0. -1.
</event>
<event>
11    1  0.8037748E-009  0.1812802E+03  0.7561462E-02  0.1068612E+00
         22   -1    0    0    0    0  0.00000000000E+00  0.00000000000E+00  0.11367854319E+04  0.11367854319E+04  0.00000000000E+00 0. -1.
         22   -1    0    0    0    0 -0.00000000000E+00 -0.00000000000E+00 -0.31828963976E+03  0.31828963976E+03  0.00000000000E+00 0. -1.
        -24    2    1    2    0    0  0.44894046344E+02  0.12137616872E+03 -0.23993114048E+03  0.28466762322E+03  0.81982033428E+02 0.  0.
         25    2    1    2    0    0 -0.11384801638E+03 -0.11238840180E+03  0.14019830025E+03  0.24677020107E+03  0.12508974799E+03 0.  0.
         24    2    1    2    0    0  0.68953970038E+02 -0.89877669149E+01  0.91822863233E+03  0.92363724732E+03  0.71599675079E+02 0.  0.
        -11    1    5    5    0    0  0.47227768427E+02  0.12722150374E+02  0.25210211831E+03  0.25680302428E+03  0.00000000000E+00 0.  1.
         12    1    5    5    0    0  0.21726201611E+02 -0.21709917289E+02  0.66612651402E+03  0.66683422304E+03  0.00000000000E+00 0. -1.
         11    1    3    3    0    0  0.69010815249E+02  0.85459188088E+02 -0.17642331562E+03  0.20782432905E+03  0.00000000000E+00 0. -1.
        -12    1    3    3    0    0 -0.24116768904E+02  0.35916980629E+02 -0.63507824863E+02  0.76843294169E+02  0.00000000000E+00 0.  1.
          5    1    4    4  501    0 -0.62848836221E+01 -0.83788172254E+01  0.87282761528E+02  0.88008279157E+02  0.41800000000E+01 0. -1.
         -5    1    4    4    0  501 -0.10756313276E+03 -0.10400958458E+03  0.52915538719E+02  0.15876192192E+03  0.41800000000E+01 0. -1.
</event>
<event>
11    1  0.8037748E-009  0.1499682E+03  0.7561462E-02  0.1096911E+00
         22   -1    0    0    0    0  0.00000000000E+00  0.00000000000E+00  0.57152204568E+03  0.57152204568E+03  0.00000000000E+00 0. -1.
         22   -1    0    0    0    0 -0.00000000000E+00 -0.00000000000E+00 -0.68265738924E+03  0.68265738924E+03  0.00000000000E+00 0.  1.
         24    2    1    2    0    0 -0.84810241161E+02 -0.31670938371E+02 -0.50057676785E+03  0.51429684733E+03  0.75685674463E+02 0.  0.
         25    2    1    2    0    0  0.59305172937E+02 -0.21508453197E+02 -0.14175751997E+03  0.19930374760E+03  0.12508825781E+03 0.  0.
        -24    2    1    2    0    0  0.25505068224E+02  0.53179391568E+02  0.53119894426E+03  0.54057884000E+03  0.81083954477E+02 0.  0.
        -13    1    3    3    0    0 -0.84471170873E+02 -0.44785418322E+02 -0.34005888612E+03  0.35324376630E+03  0.00000000000E+00 0.  1.
         14    1    3    3    0    0 -0.33907028777E+00  0.13114479951E+02 -0.16051788172E+03  0.16105308102E+03  0.00000000000E+00 0. -1.
         13    1    5    5    0    0  0.30231309945E+02  0.73378509897E+02  0.43296271151E+03  0.44017615494E+03  0.00000000000E+00 0. -1.
        -14    1    5    5    0    0 -0.47262417207E+01 -0.20199118329E+02  0.98236232750E+02  0.10040268506E+03  0.00000000000E+00 0.  1.
          5    1    4    4  501    0 -0.38138420226E+02 -0.66934947682E+01 -0.24264482260E+02  0.45886593564E+02  0.41800000000E+01 0. -1.
         -5    1    4    4    0  501  0.97443593163E+02 -0.14814958429E+02 -0.11749303771E+03  0.15341715404E+03  0.41800000000E+01 0. -1.
</event>
<event>
11    1  0.8037748E-009  0.1518373E+03  0.7561462E-02  0.1095016E+00
         22   -1    0    0    0    0  0.00000000000E+00  0.00000000000E+00  0.79199668970E+03  0.79199668970E+03  0.00000000000E+00 0. -1.
         22   -1    0    0    0    0 -0.00000000000E+00 -0.00000000000E+00 -0.16880835631E+04  0.16880835631E+04  0.00000000000E+00 0.  1.
         24    2    1    2    0    0  0.77916539565E+02 -0.35399344964E+02 -0.16397565167E+04  0.16439262901E+04  0.79800454289E+02 0.  0.
         25    2    1    2    0    0 -0.11022464498E+03  0.84396886243E+02  0.17163138932E+03  0.25372670804E+03  0.12509037455E+03 0.  0.
        -24    2    1    2    0    0  0.32308105418E+02 -0.48997541279E+02  0.57203825398E+03  0.58242725465E+03  0.92461722957E+02 0.  0.
        -11    1    3    3    0    0  0.38227118539E+02 -0.17111630858E+02 -0.13710440704E+04  0.13716836236E+04  0.00000000000E+00 0.  1.
         12    1    3    3    0    0  0.39689421026E+02 -0.18287714106E+02 -0.26871244632E+03  0.27224266645E+03  0.00000000000E+00 0. -1.
         11    1    5    5    0    0 -0.47453998086E+01 -0.41056286910E+02  0.91546786284E+02  0.10044377329E+03  0.00000000000E+00 0. -1.
        -12    1    5    5    0    0  0.37053505227E+02 -0.79412543687E+01  0.48049146770E+03  0.48198348136E+03  0.00000000000E+00 0.  1.
          5    1    4    4  501    0 -0.56880643322E+02  0.11087381027E+03  0.95925075506E+02  0.15731338754E+03  0.41800000000E+01 0. -1.
         -5    1    4    4    0  501 -0.53344001661E+02 -0.26476924026E+02  0.75706313813E+02  0.96413320502E+02  0.41800000000E+01 0. -1.
</event>
<event>
11    1  0.8037748E-009  0.1294162E+03  0.7561462E-02  0.1119988E+00
         22   -1    0    0    0    0  0.00000000000E+00  0.00000000000E+00  0.76001735302E+03  0.76001735302E+03  0.00000000000E+00 0.  1.
         22   -1    0    0    0    0 -0.00000000000E+00 -0.00000000000E+00 -0.10339295632E+04  0.10339295632E+04  0.00000000000E+00 0. -1.
        -24    2    1    2    0    0  0.32082372658E+02 -0.66407003873E+01 -0.58487846105E+03  0.59125677912E+03  0.80177223227E+02 0.  0.
         25    2    1    2    0    0 -0.24137145406E+02  0.36357421241E+02 -0.43377858676E+03  0.45355849703E+03  0.12508790522E+03 0.  0.
         24    2    1    2    0    0 -0.79452272516E+01 -0.29716720854E+02  0.74474483764E+03  0.74913164005E+03  0.74880777301E+02 0.  0.
        -13    1    5    5    0    0 -0.13809218465E+02 -0.10987561181E+02  0.70058382482E+03  0.70080604778E+03  0.00000000000E+00 0.  1.
         14    1    5    5    0    0  0.58639912131E+01 -0.18729159673E+02  0.44161012821E+02  0.48325592271E+02  0.00000000000E+00 0. -1.
         13    1    3    3    0    0  0.56263396863E+02  0.89199609029E+01 -0.42671081915E+03  0.43049652578E+03  0.00000000000E+00 0. -1.
        -14    1    3    3    0    0 -0.24181024205E+02 -0.15560661290E+02 -0.15816764190E+03  0.16076025334E+03  0.00000000000E+00 0.  1.
          5    1    4    4  501    0 -0.11999582476E+02 -0.36701673739E+01  0.39599270854E+01  0.13806285912E+02  0.41800000000E+01 0. -1.
         -5    1    4    4    0  501 -0.12137562930E+02  0.40027588615E+02 -0.43773851384E+03  0.43975221112E+03  0.41800000000E+01 0. -1.
</event>
<event>
11    1  0.8037748E-009  0.1637728E+03  0.7561462E-02  0.1083582E+00
         22   -1    0    0    0    0  0.00000000000E+00  0.00000000000E+00  0.26158972724E+03  0.26158972724E+03  0.00000000000E+00 0. -1.
         22   -1    0    0    0    0 -0.00000000000E+00 -0.00000000000E+00 -0.85830328760E+03  0.85830328760E+03  0.00000000000E+00 0.  1.
        -24    2    1    2    0    0  0.29145530792E+02  0.10324671017E+03 -0.76698146477E+03  0.77880156409E+03  0.82231160809E+02 0.  0.
         25    2    1    2    0    0  0.34469630788E+02 -0.92865368318E+02  0.24422722698E+02  0.16141833549E+03  0.12508907853E+03 0.  0.
         24    2    1    2    0    0 -0.63615161580E+02 -0.10381341849E+02  0.14584518171E+03  0.17967311526E+03  0.82806704310E+02 0.  0.
        -11    1    5    5    0    0 -0.33602292378E+01  0.84704636258E+01 -0.87806102707E+01  0.12654604351E+02  0.00000000000E+00 0.  1.
         12    1    5    5    0    0 -0.60254932342E+02 -0.18851805475E+02  0.15462579198E+03  0.16701851091E+03  0.00000000000E+00 0. -1.
         13    1    3    3    0    0 -0.80613769303E+01  0.23320294408E+02 -0.43848196661E+02  0.50313877605E+02  0.00000000000E+00 0. -1.
        -14    1    3    3    0    0  0.37206907722E+02  0.79926415760E+02 -0.72313326811E+03  0.72848768649E+03  0.00000000000E+00 0.  1.
          5    1    4    4  501    0  0.29320084863E+02 -0.19891359231E+02  0.67551017099E+02  0.76393362667E+02  0.41800000000E+01 0.  1.
         -5    1    4    4    0  501  0.51495459249E+01 -0.72974009087E+02 -0.43128294401E+02  0.85024972822E+02  0.41800000000E+01 0.  1.
</event>
<event>
11    1  0.8037748E-009  0.1622134E+03  0.7561462E-02  0.1085014E+00
         22   -1    0    0    0    0  0.00000000000E+00  0.00000000000E+00  0.89187717418E+03  0.89187717418E+03  0.00000000000E+00 0. -1.
         22   -1    0    0    0    0 -0.00000000000E+00 -0.00000000000E+00 -0.21949323395E+03  0.21949323395E+03  0.00000000000E+00 0. -1.
        -24    2    1    2    0    0 -0.26919642895E+02  0.10145565503E+03 -0.18257593492E+03  0.21672547365E+03  0.51166803727E+02 0.  0.
         25    2    1    2    0    0  0.23524254797E+02 -0.66037047490E+02  0.32299160738E+03  0.35338989728E+03  0.12508620568E+03 0.  0.
         24    2    1    2    0    0  0.33953880976E+01 -0.35418607537E+02  0.53196826777E+03  0.54125503721E+03  0.93277923311E+02 0.  0.
        -13    1    5    5    0    0  0.40609937787E+02 -0.38115713808E+02  0.21494256123E+03  0.22204116581E+03  0.00000000000E+00 0.  1.
         14    1    5    5    0    0 -0.37214549689E+02  0.26971062715E+01  0.31702570653E+03  0.31921387140E+03  0.00000000000E+00 0. -1.
         13    1    3    3    0    0 -0.33694733870E+02  0.88509377395E+02 -0.12218043625E+03  0.15458752854E+03  0.00000000000E+00 0. -1.
        -14    1    3    3    0    0  0.67750909751E+01  0.12946277633E+02 -0.60395498675E+02  0.62137945109E+02  0.00000000000E+00 0.  1.
          5    1    4    4  501    0  0.66637377771E+02 -0.72410814698E+01  0.19213503183E+03  0.20353455783E+03  0.41800000000E+01 0. -1.
         -5    1    4    4    0  501 -0.43113122974E+02 -0.58795966021E+02  0.13085657556E+03  0.14985533944E+03  0.41800000000E+01 0. -1.
</event>
<event>
11    1  0.8037748E-009  0.1878525E+03  0.7561462E-02  0.1063462E+00
         22   -1    0    0    0    0  0.00000000000E+00  0.00000000000E+00  0.33844558466E+03  0.33844558466E+03  0.00000000000E+00 0. -1.
         22   -1    0    0    0    0 -0.00000000000E+00 -0.00000000000E+00 -0.11515158210E+04  0.11515158210E+04  0.00000000000E+00 0. -1.
        -24    2    1    2    0    0  0.39433308557E+02  0.14149521945E+03 -0.97835249692E+03  0.99259185001E+03  0.80554885177E+02 0.  0.
         25    2    1    2    0    0 -0.81578420659E+02 -0.76464589519E+02 -0.10971360813E+03  0.20046512478E+03  0.12508924125E+03 0.  0.
         24    2    1    2    0    0  0.42145112102E+02 -0.65030629930E+02  0.27499586870E+03  0.29690443088E+03  0.80773262715E+02 0.  0.
        -11    1    5    5    0    0  0.13031618563E+02  0.18534430367E+02  0.42987461538E+02  0.48592901137E+02  0.00000000000E+00 0.  1.
         12    1    5    5    0    0  0.29113493540E+02 -0.83565060297E+02  0.23200840716E+03  0.24831152974E+03  0.00000000000E+00 0. -1.
         13    1    3    3    0    0  0.42651972193E+02  0.13113642461E+03 -0.66975937939E+03  0.68380814479E+03  0.00000000000E+00 0. -1.
        -14    1    3    3    0    0 -0.32186636363E+01  0.10358794836E+02 -0.30859311753E+03  0.30878370523E+03  0.00000000000E+00 0.  1.
          5    1    4    4  501    0 -0.86448544726E+02 -0.93434068653E+02 -0.12370887817E+03  0.17755178120E+03  0.41800000000E+01 0.  1.
         -5    1    4    4    0  501  0.48701240662E+01  0.16969479134E+02  0.13995270038E+02  0.22913343578E+02  0.41800000000E+01 0.  1.
</event>
<event>
11    1  0.8037748E-009  0.1641473E+03  0.7561462E-02  0.1083240E+00
         22   -1    0    0    0    0  0.00000000000E+00  0.00000000000E+00  0.11530307846E+04  0.11530307846E+04  0.00000000000E+00 0.  1.
         22   -1    0    0    0    0 -0.00000000000E+00 -0.00000000000E+00 -0.41610125192E+03  0.41610125192E+03  0.00000000000E+00 0. -1.
        -24    2    1    2    0    0 -0.26960094056E+02 -0.71299587524E+02 -0.37049634905E+03  0.38676445498E+03  0.80676645470E+02 0.  0.
         25    2    1    2    0    0  0.96650367824E+02 -0.15113881338E+02  0.16119948880E+03  0.22627827112E+03  0.12508740057E+03 0.  0.
         24    2    1    2    0    0 -0.69690273768E+02  0.86413468861E+02  0.94622639292E+03  0.95608931042E+03  0.80239397917E+02 0.  0.
        -13    1    5    5    0    0 -0.78942197086E+02  0.47303751325E+02  0.76154860943E+03  0.76708917337E+03  0.00000000000E+00 0.  1.
         14    1    5    5    0    0  0.92519233178E+01  0.39109717537E+02  0.18467778349E+03  0.18900013705E+03  0.00000000000E+00 0. -1.
         11    1    3    3    0    0 -0.30200859509E+02 -0.88487764237E+02 -0.31143671438E+03  0.32516919196E+03  0.00000000000E+00 0. -1.
        -12    1    3    3    0    0  0.32407654528E+01  0.17188176713E+02 -0.59059634673E+02  0.61595263025E+02  0.00000000000E+00 0.  1.
          5    1    4    4  501    0  0.72799416602E+02  0.49387354472E+02  0.10722340498E+03  0.13875588930E+03  0.41800000000E+01 0. -1.
         -5    1    4    4    0  501  0.23850951222E+02 -0.64501235809E+02  0.53976083816E+02  0.87522381819E+02  0.41800000000E+01 0. -1.
</event>
<event>
11    1  0.8037748E-009  0.1344107E+03  0.7561462E-02  0.1113965E+00
         22   -1    0    0    0    0  0.00000000000E+00  0.00000000000E+00  0.15652440592E+03  0.15652440592E+03  0.00000000000E+00 0.  1.
         22   -1    0    0    0    0 -0.00000000000E+00 -0.00000000000E+00 -0.82312004469E+03  0.82312004469E+03  0.00000000000E+00 0.  1.
         24    2    1    2    0    0 -0.12246903208E+02 -0.15280846110E+02 -0.45368364384E+03  0.46116539949E+03  0.80381503483E+02 0.  0.
         25    2    1    2    0    0  0.45594411682E+02 -0.21026950422E+02 -0.33718806153E+03  0.36313144969E+03  0.12509067869E+03 0.  0.
        -24    2    1    2    0    0 -0.33347508475E+02  0.36307796532E+02  0.12427606660E+03  0.15534760144E+03  0.79107674286E+02 0.  0.
        -13    1    3    3    0    0 -0.24695119487E+02  0.10042398505E+02 -0.39653444196E+03  0.39742956905E+03  0.00000000000E+00 0.  1.
         14    1    3    3    0    0  0.12448216279E+02 -0.25323244615E+02 -0.57149201882E+02  0.63735830442E+02  0.00000000000E+00 0. -1.
         13    1    5    5    0    0 -0.26040771624E+02  0.45896580202E+02  0.30806218859E+02  0.61103526751E+02  0.00000000000E+00 0. -1.
        -14    1    5    5    0    0 -0.73067368506E+01 -0.95887836709E+01  0.93469847745E+02  0.94244074685E+02  0.00000000000E+00 0.  1.
          5    1    4    4  501    0 -0.30588635229E+02  0.32972143031E+01 -0.22318126071E+02  0.38237512715E+02  0.41800000000E+01 0. -1.
         -5    1    4    4    0  501  0.76183046911E+02 -0.24324164725E+02 -0.31486993546E+03  0.32489393697E+03  0.41800000000E+01 0. -1.
</event>
<event>
11    1  0.8037748E-009  0.1388506E+03  0.7561462E-02  0.1108849E+00
         22   -1    0    0    0    0  0.00000000000E+00  0.00000000000E+00  0.23981487556E+03  0.23981487556E+03  0.00000000000E+00 0. -1.
         22   -1    0    0    0    0 -0.00000000000E+00 -0.00000000000E+00 -0.33232038479E+03  0.33232038479E+03  0.00000000000E+00 0.  1.
         24    2    1    2    0    0  0.55798037302E+02  0.71552565655E+01 -0.23774490832E+03  0.25769385636E+03  0.81968673945E+02 0.  0.
         25    2    1    2    0    0 -0.92988474789E+02 -0.31421567616E+02  0.20410587324E+02  0.16030913425E+03  0.12509298580E+03 0.  0.
        -24    2    1    2    0    0  0.37190437486E+02  0.24266311050E+02  0.12482881176E+03  0.15413226974E+03  0.78756217758E+02 0.  0.
        -13    1    3    3    0    0  0.59020033248E+02  0.35031780503E+02 -0.19338372712E+03  0.20520198801E+03  0.00000000000E+00 0.  1.
         14    1    3    3    0    0 -0.32219959458E+01 -0.27876523937E+02 -0.44361181203E+02  0.52491868346E+02  0.00000000000E+00 0. -1.
         13    1    5    5    0    0  0.17451872495E+02  0.46386250335E+01  0.12499787738E+03  0.12629550287E+03  0.00000000000E+00 0. -1.
        -14    1    5    5    0    0  0.19738564991E+02  0.19627686017E+02 -0.16906561850E+00  0.27836766864E+02  0.00000000000E+00 0.  1.
          5    1    4    4  501    0 -0.36118359271E+02 -0.46902435952E+02  0.63700228637E+02  0.87060702404E+02  0.41800000000E+01 0.  1.
         -5    1    4    4    0  501 -0.56870115518E+02  0.15480868337E+02 -0.43289641313E+02  0.73248431850E+02  0.41800000000E+01 0.  1.
</event>
<event>
11    1  0.8037748E-009  0.2266593E+03  0.7561462E-02  0.1037124E+00
         22   -1    0    0    0    0  0.00000000000E+00  0.00000000000E+00  0.35849006628E+03  0.35849006628E+03  0.00000000000E+00 0. -1.
         22   -1    0    0    0    0 -0.00000000000E+00 -0.00000000000E+00 -0.41121742552E+03  0.41121742552E+03  0.00000000000E+00 0. -1.
        -24    2    1    2    0    0 -0.33081900622E+02 -0.13090904005E+02 -0.43861040266E+02  0.98432309039E+02  0.80618513340E+02 0.  0.
         25    2    1    2    0    0  0.45272335058E+02  0.20005917829E+03 -0.25634458791E+03  0.35132981508E+03  0.12508729783E+03 0.  0.
         24    2    1    2    0    0 -0.12190434437E+02 -0.18696827428E+03  0.24747826893E+03  0.31994536767E+03  0.77548710001E+02 0.  0.
        -11    1    5    5    0    0 -0.29155370353E+02 -0.25073008164E+02  0.64016031865E+02  0.74677598345E+02  0.00000000000E+00 0.  1.
         12    1    5    5    0    0  0.16964935916E+02 -0.16189526612E+03  0.18346223707E+03  0.24526776933E+03  0.00000000000E+00 0. -1.
         13    1    3    3    0    0 -0.43889293098E+02 -0.25639554921E+02  0.76180206242E+00  0.50835392863E+02  0.00000000000E+00 0. -1.
        -14    1    3    3    0    0  0.10807392476E+02  0.12548650916E+02 -0.44622842328E+02  0.47596916176E+02  0.00000000000E+00 0.  1.
          5    1    4    4  501    0  0.40787540155E+01  0.19794561610E+03 -0.20085475911E+03  0.28206242186E+03  0.41800000000E+01 0.  1.
         -5    1    4    4    0  501  0.41193581043E+02  0.21135621862E+01 -0.55489828799E+02  0.69267393227E+02  0.41800000000E+01 0.  1.
</event>
<event>
11    1  0.8037748E-009  0.2024093E+03  0.7561462E-02  0.1052833E+00
         22   -1    0    0    0    0  0.00000000000E+00  0.00000000000E+00  0.30402817939E+04  0.30402817939E+04  0.00000000000E+00 0. -1.
         22   -1    0    0    0    0 -0.00000000000E+00 -0.00000000000E+00 -0.21499823624E+04  0.21499823624E+04  0.00000000000E+00 0. -1.
        -24    2    1    2    0    0  0.33750423778E+02 -0.12711288418E+03 -0.10487104611E+04  0.10599663383E+04  0.80238585854E+02 0.  0.
         25    2    1    2    0    0 -0.98302232091E+02  0.22613787945E+03 -0.10765336010E+04  0.11114737381E+04  0.12509039518E+03 0.  0.
         24    2    1    2    0    0  0.64551808313E+02 -0.99024995274E+02  0.30155434936E+04  0.30188240800E+04  0.76311064787E+02 0.  0.
        -13    1    5    5    0    0  0.37849028909E+02 -0.24650016811E+02  0.18760974771E+04  0.18766411261E+04  0.00000000000E+00 0.  1.
         14    1    5    5    0    0  0.26702779404E+02 -0.74374978463E+02  0.11394460164E+04  0.11421829539E+04  0.00000000000E+00 0. -1.
         11    1    3    3    0    0  0.26043420049E+02 -0.12285637853E+03 -0.10400896858E+04  0.10476442640E+04  0.00000000000E+00 0. -1.
        -12    1    3    3    0    0  0.77070037286E+01 -0.42565056497E+01 -0.86207752725E+01  0.12322074221E+02  0.00000000000E+00 0.  1.
          5    1    4    4  501    0 -0.14192643132E+02 -0.12315321979E+02 -0.38047388703E+02  0.42640057008E+02  0.41800000000E+01 0.  1.
         -5    1    4    4    0  501 -0.84109588959E+02  0.23845320143E+03 -0.10384862123E+04  0.10688336811E+04  0.41800000000E+01 0.  1.
</event>
<event>
11    1  0.8037748E-009  0.1759669E+03  0.7561462E-02  0.1072953E+00
         22   -1    0    0    0    0  0.00000000000E+00  0.00000000000E+00  0.78041768160E+03  0.78041768160E+03  0.00000000000E+00 0.  1.
         22   -1    0    0    0    0 -0.00000000000E+00 -0.00000000000E+00 -0.17469630442E+03  0.17469630442E+03  0.00000000000E+00 0.  1.
        -24    2    1    2    0    0  0.66972722021E+02 -0.10274718090E+03 -0.10082437489E+03  0.17806238492E+03  0.80612217902E+02 0.  0.
         25    2    1    2    0    0 -0.10235584222E+03  0.89661275782E+02  0.24322825062E+03  0.30548847279E+03  0.12508941722E+03 0.  0.
         24    2    1    2    0    0  0.35383120197E+02  0.13085905115E+02  0.46331750146E+03  0.47156312830E+03  0.79280960580E+02 0.  0.
        -13    1    5    5    0    0 -0.16520620076E+02  0.21864096139E+02  0.26374617475E+03  0.26516601268E+03  0.00000000000E+00 0.  1.
         14    1    5    5    0    0  0.51903740273E+02 -0.87781910238E+01  0.19957132671E+03  0.20639711562E+03  0.00000000000E+00 0. -1.
         11    1    3    3    0    0  0.67934327432E+02 -0.35152953255E+02 -0.70301821672E+02  0.10389008180E+03  0.00000000000E+00 0. -1.
        -12    1    3    3    0    0 -0.96160541061E+00 -0.67594227642E+02 -0.30522553222E+02  0.74172303124E+02  0.00000000000E+00 0.  1.
          5    1    4    4  501    0  0.28188508811E+01  0.78802137973E+02  0.10758036928E+03  0.13344935790E+03  0.41800000000E+01 0.  1.
         -5    1    4    4    0  501 -0.10517469310E+03  0.10859137809E+02  0.13564788134E+03  0.17203911490E+03  0.41800000000E+01 0.  1.
</event>
<event>
11    1  0.8037748E-009  0.1364156E+03  0.7561462E-02  0.1111628E+00
         22   -1    0    0    0    0  0.00000000000E+00  0.00000000000E+00  0.15412997234E+04  0.15412997234E+04  0.00000000000E+00 0. -1.
         22   -1    0    0    0    0 -0.00000000000E+00 -0.00000000000E+00 -0.31124331317E+04  0.31124331317E+04  0.00000000000E+00 0. -1.
        -24    2    1    2    0    0 -0.36587349117E+02 -0.31047335042E+01 -0.30520215264E+04  0.30532580582E+04  0.78747057060E+02 0.  0.
         25    2    1    2    0    0  0.20805597721E+02  0.55395187550E+02  0.24070791699E+02  0.14045650853E+03  0.12508848099E+03 0.  0.
         24    2    1    2    0    0  0.15781751396E+02 -0.52290454046E+02  0.14568173264E+04  0.14600182884E+04  0.79707745019E+02 0.  0.
        -11    1    5    5    0    0  0.33100710332E+02  0.66661589158E+01  0.64197054938E+03  0.64285790107E+03  0.00000000000E+00 0.  1.
         12    1    5    5    0    0 -0.17318958936E+02 -0.58956612962E+02  0.81484677704E+03  0.81716038731E+03  0.00000000000E+00 0. -1.
         13    1    3    3    0    0  0.24885021922E+02 -0.62626542377E+00 -0.74209259029E+03  0.74250997911E+03  0.00000000000E+00 0. -1.
        -14    1    3    3    0    0 -0.61472371039E+02 -0.24784680804E+01 -0.23099289361E+04  0.23107480791E+04  0.00000000000E+00 0.  1.
          5    1    4    4  501    0  0.32164668931E+02  0.75885894230E+02  0.56658167740E+02  0.10010422190E+03  0.41800000000E+01 0. -1.
         -5    1    4    4    0  501 -0.11359071210E+02 -0.20490706681E+02 -0.32587376041E+02  0.40352286630E+02  0.41800000000E+01 0. -1.
</event>
<event>
11    1  0.8037748E-009  0.1367591E+03  0.7561462E-02  0.1111232E+00
         22   -1    0    0    0    0  0.00000000000E+00  0.00000000000E+00  0.46408145883E+03  0.46408145883E+03  0.00000000000E+00 0. -1.
         22   -1    0    0    0    0 -0.00000000000E+00 -0.00000000000E+00 -0.63127569160E+03  0.63127569160E+03  0.00000000000E+00 0.  1.
        -24    2    1    2    0    0  0.35408448112E+02 -0.41765638962E+02 -0.58935007618E+03  0.59817270275E+03  0.86480883596E+02 0.  0.
         25    2    1    2    0    0 -0.76976784241E+02  0.37000058861E+02  0.16287358505E+03  0.22241695208E+03  0.12508823364E+03 0.  0.
         24    2    1    2    0    0  0.41568336129E+02  0.47655801008E+01  0.25928225836E+03  0.27476749559E+03  0.80741871498E+02 0.  0.
        -13    1    5    5    0    0 -0.15692755118E+02  0.16455614608E+02  0.14114602468E+03  0.14296590537E+03  0.00000000000E+00 0.  1.
         14    1    5    5    0    0  0.57261091247E+02 -0.11690034507E+02  0.11813623368E+03  0.13180159022E+03  0.00000000000E+00 0. -1.
         11    1    3    3    0    0  0.62187787312E+02 -0.25445231110E+02 -0.31831924070E+03  0.32533355142E+03  0.00000000000E+00 0. -1.
        -12    1    3    3    0    0 -0.26779339200E+02 -0.16320407852E+02 -0.27103083548E+03  0.27283915133E+03  0.00000000000E+00 0.  1.
          5    1    4    4  501    0  0.17415899169E+02  0.49685924297E+02  0.81289410125E+02  0.96940420958E+02  0.41800000000E+01 0.  1.
         -5    1    4    4    0  501 -0.94392683410E+02 -0.12685865435E+02  0.81584174928E+02  0.12547653112E+03  0.41800000000E+01 0.  1.
</event>
<event>
11    1  0.8037748E-009  0.1436785E+03  0.7561462E-02  0.1103519E+00
         22   -1    0    0    0    0  0.00000000000E+00  0.00000000000E+00  0.76486775327E+03  0.76486775327E+03  0.00000000000E+00 0.  1.
         22   -1    0    0    0    0 -0.00000000000E+00 -0.00000000000E+00 -0.93745042336E+03  0.93745042336E+03  0.00000000000E+00 0. -1.
         24    2    1    2    0    0  0.53819888096E+02 -0.18702098138E+02 -0.82065138091E+03  0.82670786258E+03  0.82041771282E+02 0.  0.
         25    2    1    2    0    0 -0.85826934954E+02  0.80132751285E+02 -0.42990233663E+02  0.17687135208E+03  0.12509114439E+03 0.  0.
        -24    2    1    2    0    0  0.32007046858E+02 -0.61430653147E+02  0.69105894449E+03  0.69873896197E+03  0.76651784245E+02 0.  0.
        -13    1    3    3    0    0  0.73711788772E+02 -0.43959421850E+01 -0.54699821023E+03  0.55195995698E+03  0.00000000000E+00 0.  1.
         14    1    3    3    0    0 -0.19891900675E+02 -0.14306155953E+02 -0.27365317068E+03  0.27474790560E+03  0.00000000000E+00 0. -1.
         13    1    5    5    0    0  0.22960090203E+02 -0.35724994925E+02  0.12485375228E+03  0.13187835479E+03  0.00000000000E+00 0. -1.
        -14    1    5    5    0    0  0.90469566546E+01 -0.25705658222E+02  0.56620519221E+03  0.56686060718E+03  0.00000000000E+00 0.  1.
          5    1    4    4  501    0  0.15250715779E+02  0.62073443862E+02  0.33485018550E+01  0.64143445724E+02  0.41800000000E+01 0.  1.
         -5    1    4    4    0  501 -0.10107765073E+03  0.18059307423E+02 -0.46338735518E+02  0.11272790636E+03  0.41800000000E+01 0.  1.
</event>
<event>
11    1  0.8037748E-009  0.2638011E+03  0.7561462E-02  0.1016794E+00
         22   -1    0    0    0    0  0.00000000000E+00  0.00000000000E+00  0.44631295463E+03  0.44631295463E+03  0.00000000000E+00 0. -1.
         22   -1    0    0    0    0 -0.00000000000E+00 -0.00000000000E+00 -0.45431310345E+03  0.45431310345E+03  0.00000000000E+00 0.  1.
        -24    2    1    2    0    0  0.16536559758E+02  0.33093830170E+02 -0.26853000452E+03  0.28261362190E+03  0.79958967915E+02 0.  0.
         25    2    1    2    0    0 -0.41886686148E+02 -0.25413722530E+03  0.30650085062E+02  0.28796905616E+03  0.12508607369E+03 0.  0.
         24    2    1    2    0    0  0.25350126390E+02  0.22104339513E+03  0.22987977064E+03  0.33004338002E+03  0.81124055080E+02 0.  0.
        -11    1    5    5    0    0  0.22746831017E+02  0.12386215010E+02  0.41492806459E+02  0.48913082416E+02  0.00000000000E+00 0.  1.
         12    1    5    5    0    0  0.26032953731E+01  0.20865718012E+03  0.18838696418E+03  0.28113029761E+03  0.00000000000E+00 0. -1.
         11    1    3    3    0    0 -0.26937934274E+02  0.27086552465E+02 -0.17739624871E+03  0.18146284106E+03  0.00000000000E+00 0. -1.
        -12    1    3    3    0    0  0.43474494032E+02  0.60072777043E+01 -0.91133755805E+02  0.10115078084E+03  0.00000000000E+00 0.  1.
          5    1    4    4  501    0  0.23885688562E+02 -0.18903712411E+03  0.40400217621E+02  0.19482097010E+03  0.41800000000E+01 0. -1.
         -5    1    4    4    0  501 -0.65772374710E+02 -0.65100101193E+02 -0.97501325586E+01  0.93148086053E+02  0.41800000000E+01 0. -1.
</event>
<event>
11    1  0.8037748E-009  0.1278758E+03  0.7561462E-02  0.1121907E+00
         22   -1    0    0    0    0  0.00000000000E+00  0.00000000000E+00  0.24602741652E+02  0.24602741652E+02  0.00000000000E+00 0. -1.
         22   -1    0    0    0    0 -0.00000000000E+00 -0.00000000000E+00 -0.14447183589E+04  0.14447183589E+04  0.00000000000E+00 0. -1.
         24    2    1    2    0    0  0.21792740256E+02 -0.16244489117E+02 -0.87112697076E+03  0.87524241754E+03  0.80301203749E+02 0.  0.
         25    2    1    2    0    0 -0.12275203644E+02  0.22018667713E+02 -0.44117357807E+03  0.45926126013E+03  0.12510506273E+03 0.  0.
        -24    2    1    2    0    0 -0.95175366118E+01 -0.57741785959E+01 -0.10781506841E+03  0.13481742287E+03  0.80173087075E+02 0.  0.
        -13    1    3    3    0    0  0.31819741106E+02 -0.22659360949E+02 -0.18817974225E+03  0.19219146172E+03  0.00000000000E+00 0.  1.
         14    1    3    3    0    0 -0.10027000850E+02  0.64148718314E+01 -0.68294722851E+03  0.68305095582E+03  0.00000000000E+00 0. -1.
         13    1    5    5    0    0  0.19938317236E+02 -0.93911399327E+01  0.96637749637E+00  0.22060459853E+02  0.00000000000E+00 0. -1.
        -14    1    5    5    0    0 -0.29455853848E+02  0.36169613369E+01 -0.10878144590E+03  0.11275696301E+03  0.00000000000E+00 0.  1.
          5    1    4    4  501    0 -0.25167358607E+02 -0.48558373537E+02 -0.21837731233E+03  0.22516090806E+03  0.41800000000E+01 0.  1.
         -5    1    4    4    0  501  0.12892154962E+02  0.70577041250E+02 -0.22279626575E+03  0.23410035207E+03  0.41800000000E+01 0.  1.
</event>
<event>
11    1  0.8037748E-009  0.1440302E+03  0.7561462E-02  0.1103140E+00
         22   -1    0    0    0    0  0.00000000000E+00  0.00000000000E+00  0.45063090074E+03  0.45063090074E+03  0.00000000000E+00 0.  1.
         22   -1    0    0    0    0 -0.00000000000E+00 -0.00000000000E+00 -0.18236408284E+04  0.18236408284E+04  0.00000000000E+00 0.  1.
        -24    2    1    2    0    0 -0.45297851512E+02 -0.53355883175E+02 -0.16272939758E+04  0.16318632965E+04  0.99966939897E+02 0.  0.
         25    2    1    2    0    0 -0.42844604928E+01  0.12814058567E+03 -0.14219748332E+03  0.22871197512E+03  0.12510266585E+03 0.  0.
         24    2    1    2    0    0  0.49582312005E+02 -0.74784702496E+02  0.39648153148E+03  0.41369645753E+03  0.76785394311E+02 0.  0.
        -13    1    5    5    0    0  0.47014138120E+02 -0.90140486728E+02  0.32460109093E+03  0.34014923895E+03  0.00000000000E+00 0.  1.
         14    1    5    5    0    0  0.25681738843E+01  0.15355784232E+02  0.71880440551E+02  0.73547218577E+02  0.00000000000E+00 0. -1.
         13    1    3    3    0    0  0.20952691790E+02  0.59078348703E+01 -0.69511746362E+03  0.69545827052E+03  0.00000000000E+00 0. -1.
        -14    1    3    3    0    0 -0.66250543302E+02 -0.59263718045E+02 -0.93217651218E+03  0.93640502595E+03  0.00000000000E+00 0.  1.
          5    1    4    4  501    0  0.47199068496E+02  0.91810136779E+02 -0.44750181050E+02  0.11259175985E+03  0.41800000000E+01 0.  1.
         -5    1    4    4    0  501 -0.51483528989E+02  0.36330448892E+02 -0.97447302273E+02  0.11612021527E+03  0.41800000000E+01 0.  1.
</event>
<event>
11    1  0.8037748E-009  0.5591255E+03  0.7561462E-02  0.9270317E-01
         22   -1    0    0    0    0  0.00000000000E+00  0.00000000000E+00  0.23901973239E+04  0.23901973239E+04  0.00000000000E+00 0. -1.
         22   -1    0    0    0    0 -0.00000000000E+00 -0.00000000000E+00 -0.94471817270E+03  0.94471817270E+03  0.00000000000E+00 0.  1.
         24    2    1    2    0    0  0.12964435790E+02  0.19520342726E+01 -0.74602744209E+03  0.75075310891E+03  0.83074660103E+02 0.  0.
         25    2    1    2    0    0 -0.43166609531E+03  0.34403239523E+03  0.35719285560E+03  0.66927406571E+03  0.12508849720E+03 0.  0.
        -24    2    1    2    0    0  0.41870165952E+03 -0.34598442950E+03  0.18343137377E+04  0.19148883220E+04  0.84107622761E+02 0.  0.
        -11    1    3    3    0    0  0.77961802670E+01  0.16271222748E+02 -0.72253010781E+03  0.72275534575E+03  0.00000000000E+00 0.  1.
         12    1    3    3    0    0  0.51682555230E+01 -0.14319188475E+02 -0.23497334287E+02  0.27997763167E+02  0.00000000000E+00 0. -1.
         11    1    5    5    0    0  0.20365176689E+03 -0.21156409357E+03  0.10722392950E+04  0.11117241176E+04  0.00000000000E+00 0. -1.
        -12    1    5    5    0    0  0.21504989263E+03 -0.13442033593E+03  0.76207444272E+03  0.80316420443E+03  0.00000000000E+00 0.  1.
          5    1    4    4  501    0  0.24791643805E+01  0.17183272485E+02  0.30067608649E+02  0.34970624804E+02  0.41800000000E+01 0. -1.
         -5    1    4    4    0  501 -0.43414525969E+03  0.32684912275E+03  0.32712524696E+03  0.63430344091E+03  0.41800000000E+01 0. -1.
</event>
<event>
11    1  0.8037748E-009  0.1266876E+03  0.7561462E-02  0.1123407E+00
         22   -1    0    0    0    0  0.00000000000E+00  0.00000000000E+00  0.25620105602E+03  0.25620105602E+03  0.00000000000E+00 0. -1.
         22   -1    0    0    0    0 -0.00000000000E+00 -0.00000000000E+00 -0.87816005225E+03  0.87816005225E+03  0.00000000000E+00 0. -1.
         24    2    1    2    0    0  0.39705387857E+01  0.15542105252E+01 -0.62015205781E+03  0.62521908176E+03  0.79323039792E+02 0.  0.
         25    2    1    2    0    0 -0.23148890108E+02 -0.70391326454E+01 -0.23171434963E+03  0.26443124139E+03  0.12508765366E+03 0.  0.
        -24    2    1    2    0    0  0.19178351323E+02  0.54849221202E+01  0.22990741121E+03  0.24471078511E+03  0.81412880386E+02 0.  0.
        -13    1    3    3    0    0  0.67247712960E+01  0.18264288334E+02 -0.36874817344E+02  0.41696030165E+02  0.00000000000E+00 0.  1.
         14    1    3    3    0    0 -0.27542325103E+01 -0.16710077809E+02 -0.58327724046E+03  0.58352305159E+03  0.00000000000E+00 0. -1.
         11    1    5    5    0    0 -0.17901884737E+02  0.17519410888E+01  0.18706336417E+03  0.18792617963E+03  0.00000000000E+00 0. -1.
        -12    1    5    5    0    0  0.37080236060E+02  0.37329810315E+01  0.42844047036E+02  0.56784605485E+02  0.00000000000E+00 0.  1.
          5    1    4    4  501    0  0.29864202194E+02  0.45188523272E+01 -0.45379936372E+01  0.30827850806E+02  0.41800000000E+01 0. -1.
         -5    1    4    4    0  501 -0.53013092303E+02 -0.11557984973E+02 -0.22717635599E+03  0.23360339059E+03  0.41800000000E+01 0. -1.
</event>
<event>
11    1  0.8037748E-009  0.1324315E+03  0.7561462E-02  0.1116317E+00
         22   -1    0    0    0    0  0.00000000000E+00  0.00000000000E+00  0.77498798949E+02  0.77498798949E+02  0.00000000000E+00 0.  1.
         22   -1    0    0    0    0 -0.00000000000E+00 -0.00000000000E+00 -0.53453985767E+03  0.53453985767E+03  0.00000000000E+00 0.  1.
        -24    2    1    2    0    0  0.42371634196E+02 -0.13056179536E+02 -0.34630751420E+03  0.35917280001E+03  0.84323108770E+02 0.  0.
         25    2    1    2    0    0 -0.37564009308E+02  0.11817234376E+02 -0.11021193271E+03  0.17130501890E+03  0.12509211631E+03 0.  0.
         24    2    1    2    0    0 -0.48076248878E+01  0.12389451599E+01 -0.52161181539E+00  0.81560837711E+02  0.81407922999E+02 0.  0.
        -11    1    5    5    0    0 -0.31670836765E+02  0.28630780628E+02 -0.47741975255E+01  0.42959940209E+02  0.00000000000E+00 0.  1.
         12    1    5    5    0    0  0.26863211877E+02 -0.27391835468E+02  0.42525857101E+01  0.38600897501E+02  0.00000000000E+00 0. -1.
         11    1    3    3    0    0  0.63672679506E+01  0.22828109864E+02 -0.27348300089E+02  0.36188316055E+02  0.00000000000E+00 0. -1.
        -12    1    3    3    0    0  0.36004366245E+02 -0.35884289400E+02 -0.31895921411E+03  0.32298448396E+03  0.00000000000E+00 0.  1.
          5    1    4    4  501    0  0.41352533001E+02  0.23118877525E+02 -0.22216787979E+02  0.52493547715E+02  0.41800000000E+01 0.  1.
         -5    1    4    4    0  501 -0.78916542309E+02 -0.11301643149E+02 -0.87995144734E+02  0.11881147118E+03  0.41800000000E+01 0.  1.
</event>
<event>
11    1  0.8037748E-009  0.1371170E+03  0.7561462E-02  0.1110821E+00
         22   -1    0    0    0    0  0.00000000000E+00  0.00000000000E+00  0.12076394270E+03  0.12076394270E+03  0.00000000000E+00 0.  1.
         22   -1    0    0    0    0 -0.00000000000E+00 -0.00000000000E+00 -0.20981240000E+04  0.20981240000E+04  0.00000000000E+00 0. -1.
        -24    2    1    2    0    0  0.39832859810E+02  0.39346994329E+02 -0.18061600814E+04  0.18087803926E+04  0.79607954388E+02 0.  0.
         25    2    1    2    0    0 -0.48770979361E+01 -0.76602914362E+02 -0.24717738723E+03  0.28746474054E+03  0.12509006245E+03 0.  0.
         24    2    1    2    0    0 -0.34955761874E+02  0.37255920033E+02  0.75977411299E+02  0.12264280957E+03  0.81601365467E+02 0.  0.
        -13    1    5    5    0    0 -0.16245788966E+01  0.32602778597E+02  0.82176158181E+02  0.88422290189E+02  0.00000000000E+00 0.  1.
         14    1    5    5    0    0 -0.33331182977E+02  0.46531414356E+01 -0.61987468820E+01  0.34220519382E+02  0.00000000000E+00 0. -1.
         11    1    3    3    0    0  0.64219013179E+02  0.26349009948E+02 -0.12280343215E+04  0.12299945718E+04  0.00000000000E+00 0. -1.
        -12    1    3    3    0    0 -0.24386153369E+02  0.12997984381E+02 -0.57812575993E+03  0.57878582081E+03  0.00000000000E+00 0.  1.
          5    1    4    4  501    0 -0.13539321614E+02 -0.48946531971E+02 -0.14537685841E+02  0.52989554927E+02  0.41800000000E+01 0.  1.
         -5    1    4    4    0  501  0.86622236783E+01 -0.27656382391E+02 -0.23263970139E+03  0.23447518562E+03  0.41800000000E+01 0.  1.
</event>
<event>
11    1  0.8364216E-009  0.2368096E+03  0.7561462E-02  0.1031170E+00
         22   -1    0    0    0    0  0.00000000000E+00  0.00000000000E+00  0.11598198592E+04  0.11598198592E+04  0.00000000000E+00 0. -1.
         22   -1    0    0    0    0 -0.00000000000E+00 -0.00000000000E+00 -0.46681009874E+03  0.46681009874E+03  0.00000000000E+00 0.  1.
         24    2    1    2    0    0 -0.64134945949E+02 -0.50656236547E+02 -0.29463386325E+03  0.32254830367E+03  0.10270807772E+03 0.  0.
         25    2    1    2    0    0  0.58376595709E+02  0.24813308058E+03 -0.98395941842E+01  0.28411325765E+03  0.12508266448E+03 0.  0.
        -24    2    1    2    0    0  0.57583502406E+01 -0.19747684404E+03  0.99748321791E+03  0.10199683966E+04  0.79576991524E+02 0.  0.
        -13    1    3    3    0    0 -0.10608444117E+02  0.43519727547E+01 -0.20166375793E+03  0.20198947996E+03  0.00000000000E+00 0.  1.
         14    1    3    3    0    0 -0.53526501832E+02 -0.55008209301E+02 -0.92970105323E+02  0.12055882370E+03  0.00000000000E+00 0. -1.
         11    1    5    5    0    0 -0.13840972311E+02 -0.17582239373E+03  0.92776228669E+03  0.94437701542E+03  0.00000000000E+00 0. -1.
        -12    1    5    5    0    0  0.19599322551E+02 -0.21654450310E+02  0.69720931220E+02  0.75591381208E+02  0.00000000000E+00 0.  1.
          5    1    4    4  501    0  0.78899288715E+02  0.17669170506E+03  0.35734364138E+02  0.19682345789E+03  0.41800000000E+01 0. -1.
         -5    1    4    4    0  501 -0.20522693006E+02  0.71441375525E+02 -0.45573958322E+02  0.87289799761E+02  0.41800000000E+01 0. -1.
</event>
<event>
11    1  0.8037748E-009  0.1410039E+03  0.7561462E-02  0.1106443E+00
         22   -1    0    0    0    0  0.00000000000E+00  0.00000000000E+00  0.26135762949E+04  0.26135762949E+04  0.00000000000E+00 0.  1.
         22   -1    0    0    0    0 -0.00000000000E+00 -0.00000000000E+00 -0.17186766878E+03  0.17186766878E+03  0.00000000000E+00 0. -1.
         24    2    1    2    0    0  0.64243566620E+02  0.16339866737E+02 -0.11839688746E+03  0.15768552523E+03  0.80328542940E+02 0.  0.
         25    2    1    2    0    0 -0.47587554722E+02 -0.38513046013E+02  0.11347016225E+03  0.17963226525E+03  0.12507774751E+03 0.  0.
        -24    2    1    2    0    0 -0.16656011899E+02  0.22173179275E+02  0.24466353514E+04  0.24481261732E+04  0.80796936178E+02 0.  0.
        -11    1    3    3    0    0  0.64700066329E+00 -0.26051613752E+02 -0.18756597803E+02  0.32107867417E+02  0.00000000000E+00 0.  1.
         12    1    3    3    0    0  0.63596565957E+02  0.42391480490E+02 -0.99640289658E+02  0.12557765782E+03  0.00000000000E+00 0. -1.
         13    1    5    5    0    0 -0.15220577530E+02  0.40242604837E+02  0.66097572170E+03  0.66237454503E+03  0.00000000000E+00 0. -1.
        -14    1    5    5    0    0 -0.14354343683E+01 -0.18069425562E+02  0.17856596297E+04  0.17857516282E+04  0.00000000000E+00 0.  1.
          5    1    4    4  501    0  0.27191643902E+02  0.24047605712E+02  0.11071657602E+02  0.38180189112E+02  0.41800000000E+01 0. -1.
         -5    1    4    4    0  501 -0.74779198624E+02 -0.62560651725E+02  0.10239850465E+03  0.14145207614E+03  0.41800000000E+01 0. -1.
</event>
<event>
11    1  0.8037748E-009  0.1899338E+03  0.7561462E-02  0.1061879E+00
         22   -1    0    0    0    0  0.00000000000E+00  0.00000000000E+00  0.36770383515E+03  0.36770383515E+03  0.00000000000E+00 0. -1.
         22   -1    0    0    0    0 -0.00000000000E+00 -0.00000000000E+00 -0.19463545684E+04  0.19463545684E+04  0.00000000000E+00 0. -1.
        -24    2    1    2    0    0 -0.18600670029E+01 -0.88065702588E+02 -0.11976999931E+04  0.12036771048E+04  0.81205117984E+02 0.  0.
         25    2    1    2    0    0  0.54687779152E+02  0.21856002648E+03 -0.70353786310E+03  0.74925014326E+03  0.12510401271E+03 0.  0.
         24    2    1    2    0    0 -0.52827712149E+02 -0.13049432389E+03  0.32258712297E+03  0.36113115554E+03  0.80831453369E+02 0.  0.
        -11    1    5    5    0    0 -0.49653261876E+02 -0.53094250082E+02  0.88323380475E+02  0.11439171887E+03  0.00000000000E+00 0.  1.
         12    1    5    5    0    0 -0.31744502734E+01 -0.77400073813E+02  0.23426374250E+03  0.24673943667E+03  0.00000000000E+00 0. -1.
         11    1    3    3    0    0 -0.37850744481E+01 -0.58891551309E+02 -0.11027414419E+04  0.11043193511E+04  0.00000000000E+00 0. -1.
        -12    1    3    3    0    0  0.19250074452E+01 -0.29174151279E+02 -0.94958551246E+02  0.99357753654E+02  0.00000000000E+00 0.  1.
          5    1    4    4  501    0  0.63807528434E+02  0.21220571483E+03 -0.70327624235E+03  0.73737209843E+03  0.41800000000E+01 0. -1.
         -5    1    4    4    0  501 -0.91197492825E+01  0.63543116501E+01 -0.26162074945E+00  0.11878044828E+02  0.41800000000E+01 0. -1.
</event>
<event>
11    1  0.8037748E-009  0.1332205E+03  0.7561462E-02  0.1115374E+00
         22   -1    0    0    0    0  0.00000000000E+00  0.00000000000E+00  0.81758293511E+03  0.81758293511E+03  0.00000000000E+00 0.  1.
         22   -1    0    0    0    0 -0.00000000000E+00 -0.00000000000E+00 -0.50201913818E+03  0.50201913818E+03  0.00000000000E+00 0.  1.
         24    2    1    2    0    0  0.22759032232E+02 -0.39452213781E+02 -0.46900856254E+03  0.47790201606E+03  0.79667148131E+02 0.  0.
         25    2    1    2    0    0 -0.54684335267E+02  0.41936545843E+01  0.17113884734E+03  0.21895939899E+03  0.12508697006E+03 0.  0.
        -24    2    1    2    0    0  0.31925303035E+02  0.35258559197E+02  0.61343351215E+03  0.62274065824E+03  0.96139807716E+02 0.  0.
        -11    1    3    3    0    0 -0.11908182146E+02 -0.30600992900E+02 -0.38746885279E+03  0.38885773421E+03  0.00000000000E+00 0.  1.
         12    1    3    3    0    0  0.34667214378E+02 -0.88512208811E+01 -0.81539709753E+02  0.89044281851E+02  0.00000000000E+00 0. -1.
         13    1    5    5    0    0  0.18575381684E+02 -0.30595901422E+02  0.13728543161E+03  0.14187474659E+03  0.00000000000E+00 0. -1.
        -14    1    5    5    0    0  0.13349921351E+02  0.65854460619E+02  0.47614808054E+03  0.48086591165E+03  0.00000000000E+00 0.  1.
          5    1    4    4  501    0  0.31698939772E+02  0.14513911469E+02  0.10163161591E+03  0.10752643471E+03  0.41800000000E+01 0. -1.
         -5    1    4    4    0  501 -0.86383275039E+02 -0.10320256885E+02  0.69507231426E+02  0.11143296428E+03  0.41800000000E+01 0. -1.
</event>
<event>
11    1  0.8037748E-009  0.1687681E+03  0.7561462E-02  0.1079109E+00
         22   -1    0    0    0    0  0.00000000000E+00  0.00000000000E+00  0.13612107736E+04  0.13612107736E+04  0.00000000000E+00 0. -1.
         22   -1    0    0    0    0 -0.00000000000E+00 -0.00000000000E+00 -0.64440683877E+03  0.64440683877E+03  0.00000000000E+00 0.  1.
         24    2    1    2    0    0 -0.11610986066E+03  0.21389101781E+01 -0.61719681925E+03  0.63301726432E+03  0.79327602690E+02 0.  0.
         25    2    1    2    0    0  0.20869054074E+02 -0.10100356527E+02  0.24146159965E+03  0.27292602574E+03  0.12508947520E+03 0.  0.
        -24    2    1    2    0    0  0.95240806583E+02  0.79614463490E+01  0.10925391545E+04  0.10996743223E+04  0.80669791651E+02 0.  0.
        -11    1    3    3    0    0 -0.98086103024E+02 -0.41059740189E+01 -0.59781923522E+03  0.60582636178E+03  0.00000000000E+00 0.  1.
         12    1    3    3    0    0 -0.18023757632E+02  0.62448841970E+01 -0.19377584035E+02  0.27190902538E+02  0.00000000000E+00 0. -1.
         13    1    5    5    0    0  0.40615249337E+02  0.28816171238E+01  0.85140493332E+03  0.85237800457E+03  0.00000000000E+00 0. -1.
        -14    1    5    5    0    0  0.54625557245E+02  0.50798292253E+01  0.24113422115E+03  0.24729631776E+03  0.00000000000E+00 0.  1.
          5    1    4    4  501    0  0.61821048492E+02  0.28148377008E+02  0.16092379182E+03  0.17472295881E+03  0.41800000000E+01 0.  1.
         -5    1    4    4    0  501 -0.40951994419E+02 -0.38248733536E+02  0.80537807831E+02  0.98203066929E+02  0.41800000000E+01 0.  1.
</event>
<event>
11    1  0.8037748E-009  0.1687055E+03  0.7561462E-02  0.1079164E+00
         22   -1    0    0    0    0  0.00000000000E+00  0.00000000000E+00  0.23080272765E+04  0.23080272765E+04  0.00000000000E+00 0. -1.
         22   -1    0    0    0    0 -0.00000000000E+00 -0.00000000000E+00 -0.26654334823E+03  0.26654334823E+03  0.00000000000E+00 0.  1.
        -24    2    1    2    0    0 -0.11296581857E+03  0.48870977943E+01 -0.13778663099E+03  0.19466658448E+03  0.78260868540E+02 0.  0.
         25    2    1    2    0    0  0.11273571392E+03  0.43374995970E+02 -0.23210412021E+02  0.17543077224E+03  0.12508597505E+03 0.  0.
         24    2    1    2    0    0  0.23010465194E+00 -0.48262093765E+02  0.22024809713E+04  0.22044732680E+04  0.80316112146E+02 0.  0.
        -13    1    5    5    0    0 -0.42136828682E+01 -0.42200600787E+02  0.45410212573E+03  0.45607826787E+03  0.00000000000E+00 0.  1.
         14    1    5    5    0    0  0.44437875201E+01 -0.60614929775E+01  0.17483788456E+04  0.17483950002E+04  0.00000000000E+00 0. -1.
         13    1    3    3    0    0 -0.15306051545E+02 -0.20271343827E+02 -0.19352412580E+01  0.25474452951E+02  0.00000000000E+00 0. -1.
        -14    1    3    3    0    0 -0.97659767022E+02  0.25158441621E+02 -0.13585138973E+03  0.16919213153E+03  0.00000000000E+00 0.  1.
          5    1    4    4  501    0  0.12805871886E+02  0.17638748070E+02  0.46023841160E+02  0.51095813364E+02  0.41800000000E+01 0. -1.
         -5    1    4    4    0  501  0.99929842030E+02  0.25736247901E+02 -0.69234253181E+02  0.12433495887E+03  0.41800000000E+01 0. -1.
</event>
<event>
11    1  0.8037748E-009  0.1311028E+03  0.7561462E-02  0.1117921E+00
         22   -1    0    0    0    0  0.00000000000E+00  0.00000000000E+00  0.76203401760E+03  0.76203401760E+03  0.00000000000E+00 0.  1.
         22   -1    0    0    0    0 -0.00000000000E+00 -0.00000000000E+00 -0.31865191833E+03  0.31865191833E+03  0.00000000000E+00 0.  1.
         24    2    1    2    0    0  0.23719956818E+02  0.32837359747E+02 -0.28557351197E+03  0.30004959633E+03  0.82683740657E+02 0.  0.
         25    2    1    2    0    0  0.11867117202E+01 -0.11869713383E+02  0.15147181998E+03  0.19680816651E+03  0.12508974288E+03 0.  0.
        -24    2    1    2    0    0 -0.24906668538E+02 -0.20967646364E+02  0.57748379126E+03  0.58382817310E+03  0.79421799351E+02 0.  0.
        -11    1    3    3    0    0  0.29584595669E+02  0.55449538680E+02 -0.15252673841E+03  0.16496758945E+03  0.00000000000E+00 0.  1.
         12    1    3    3    0    0 -0.58646388517E+01 -0.22612178933E+02 -0.13304677357E+03  0.13508200688E+03  0.00000000000E+00 0. -1.
         11    1    5    5    0    0  0.15093941796E+02 -0.20791645966E+01  0.23038734539E+02  0.27621247139E+02  0.00000000000E+00 0. -1.
        -12    1    5    5    0    0 -0.40000610334E+02 -0.18888481767E+02  0.55444505672E+03  0.55620692596E+03  0.00000000000E+00 0.  1.
          5    1    4    4  501    0  0.33829111909E+02  0.25014380864E+02  0.54296195873E+01  0.42627235794E+02  0.41800000000E+01 0.  1.
         -5    1    4    4    0  501 -0.32642400189E+02 -0.36884094247E+02  0.14604220040E+03  0.15418093071E+03  0.41800000000E+01 0.  1.
</event>
<event>
11    1  0.8037748E-009  0.1517879E+03  0.7561462E-02  0.1095066E+00
         22   -1    0    0    0    0  0.00000000000E+00  0.00000000000E+00  0.51539614959E+03  0.51539614959E+03  0.00000000000E+00 0.  1.
         22   -1    0    0    0    0 -0.00000000000E+00 -0.00000000000E+00 -0.14842048234E+03  0.14842048234E+03  0.00000000000E+00 0. -1.
        -24    2    1    2    0    0  0.51555410922E+02 -0.65179918513E+02 -0.79937044379E+02  0.13970498366E+03  0.78874388881E+02 0.  0.
         25    2    1    2    0    0 -0.63893132802E+02  0.84924980744E+02  0.17922907301E+03  0.24303419624E+03  0.12509186687E+03 0.  0.
         24    2    1    2    0    0  0.12337721880E+02 -0.19745062231E+02  0.26768363862E+03  0.28107745203E+03  0.82510101122E+02 0.  0.
        -13    1    5    5    0    0  0.83157046372E+01 -0.16469113742E+02  0.27301572619E+03  0.27363839167E+03  0.00000000000E+00 0.  1.
         14    1    5    5    0    0  0.40220172424E+01 -0.32759484893E+01 -0.53320875626E+01  0.74390603559E+01  0.00000000000E+00 0. -1.
         13    1    3    3    0    0 -0.56965628213E+01 -0.42564741053E+02 -0.62307988272E+02  0.75673597849E+02  0.00000000000E+00 0. -1.
        -14    1    3    3    0    0  0.57251973743E+02 -0.22615177460E+02 -0.17629056107E+02  0.64031385806E+02  0.00000000000E+00 0.  1.
          5    1    4    4  501    0  0.72848976753E+01  0.50311962290E+02  0.15020380975E+03  0.15862856032E+03  0.41800000000E+01 0. -1.
         -5    1    4    4    0  501 -0.71178030477E+02  0.34613018455E+02  0.29025263258E+02  0.84405635928E+02  0.41800000000E+01 0. -1.
</event>
<event>
11    1  0.8037748E-009  0.1620434E+03  0.7561462E-02  0.1085171E+00
         22   -1    0    0    0    0  0.00000000000E+00  0.00000000000E+00  0.29698229202E+03  0.29698229202E+03  0.00000000000E+00 0.  1.
         22   -1    0    0    0    0 -0.00000000000E+00 -0.00000000000E+00 -0.12408562847E+04  0.12408562847E+04  0.00000000000E+00 0. -1.
         24    2    1    2    0    0  0.63741996560E+02 -0.74358154929E+02 -0.75601837467E+03  0.76646047812E+03  0.79408465237E+02 0.  0.
         25    2    1    2    0    0 -0.12008475870E+03  0.49542176697E+02 -0.45518360073E+03  0.48960660847E+03  0.12509094347E+03 0.  0.
        -24    2    1    2    0    0  0.56342762136E+02  0.24815978232E+02  0.26732798267E+03  0.28177149018E+03  0.64347359992E+02 0.  0.
        -11    1    3    3    0    0 -0.18501753220E+02 -0.12909052593E+02 -0.17404544322E+03  0.17550149520E+03  0.00000000000E+00 0.  1.
         12    1    3    3    0    0  0.82243749780E+02 -0.61449102336E+02 -0.58197293145E+03  0.59095898292E+03  0.00000000000E+00 0. -1.
         11    1    5    5    0    0  0.25269839566E+02  0.24042177428E+02  0.43316833192E+02  0.55614198951E+02  0.00000000000E+00 0. -1.
        -12    1    5    5    0    0  0.31072922570E+02  0.77380080429E+00  0.22401114948E+03  0.22615729123E+03  0.00000000000E+00 0.  1.
          5    1    4    4  501    0 -0.94901809688E+02  0.74615389589E+02 -0.21362058293E+03  0.24540789656E+03  0.41800000000E+01 0.  1.
         -5    1    4    4    0  501 -0.25182949008E+02 -0.25073212892E+02 -0.24156301781E+03  0.24419871191E+03  0.41800000000E+01 0.  1.
</event>
<event>
11    1  0.8037748E-009  0.1528382E+03  0.7561462E-02  0.1094013E+00
         22   -1    0    0    0    0  0.00000000000E+00  0.00000000000E+00  0.24617861254E+03  0.24617861254E+03  0.00000000000E+00 0.  1.
         22   -1    0    0    0    0 -0.00000000000E+00 -0.00000000000E+00 -0.49856595530E+03  0.49856595530E+03  0.00000000000E+00 0.  1.
         24    2    1    2    0    0  0.20850301092E+02  0.88164250053E+02 -0.36389946190E+03  0.38349636788E+03  0.80243228777E+02 0.  0.
         25    2    1    2    0    0 -0.50186677221E+02 -0.63088556316E+02 -0.65674279836E+02  0.16266325709E+03  0.12508939070E+03 0.  0.
        -24    2    1    2    0    0  0.29336376129E+02 -0.25075693737E+02  0.17718639897E+03  0.19858494288E+03  0.80941622021E+02 0.  0.
        -11    1    3    3    0    0  0.49013398828E+02  0.39533657552E+02 -0.15857286356E+03  0.17061821825E+03  0.00000000000E+00 0.  1.
         12    1    3    3    0    0 -0.28163097737E+02  0.48630592501E+02 -0.20532659834E+03  0.21287814962E+03  0.00000000000E+00 0. -1.
         11    1    5    5    0    0  0.33164365339E+02 -0.27685837723E+02  0.33100261485E+02  0.54424333245E+02  0.00000000000E+00 0. -1.
        -12    1    5    5    0    0 -0.38279892100E+01  0.26101439858E+01  0.14408613749E+03  0.14416060963E+03  0.00000000000E+00 0.  1.
          5    1    4    4  501    0  0.20751702111E+02 -0.73934909889E+02 -0.32424803369E+02  0.83461633787E+02  0.41800000000E+01 0. -1.
         -5    1    4    4    0  501 -0.70938379331E+02  0.10846353573E+02 -0.33249476467E+02  0.79201623300E+02  0.41800000000E+01 0. -1.
</event>
<event>
11    1  0.9521284E-009  0.2453984E+03  0.7561462E-02  0.1026379E+00
         22   -1    0    0    0    0  0.00000000000E+00  0.00000000000E+00  0.12067613738E+04  0.12067613738E+04  0.00000000000E+00 0.  1.
         22   -1    0    0    0    0 -0.00000000000E+00 -0.00000000000E+00 -0.14520031875E+04  0.14520031875E+04  0.00000000000E+00 0. -1.
        -24    2    1    2    0    0  0.77949624833E+02  0.18675800585E+02 -0.67059968959E+03  0.68022639219E+03  0.81111475291E+02 0.  0.
         25    2    1    2    0    0 -0.28638622938E+03  0.75288275076E+01 -0.73386944686E+03  0.79767520115E+03  0.12509039084E+03 0.  0.
         24    2    1    2    0    0  0.20843660455E+03 -0.26204628093E+02  0.11592273227E+04  0.11808629680E+04  0.80603119283E+02 0.  0.
        -13    1    5    5    0    0  0.14308374444E+03 -0.52224600904E+02  0.86784313961E+03  0.88110843932E+03  0.00000000000E+00 0.  1.
         14    1    5    5    0    0  0.65352860106E+02  0.26019972811E+02  0.29138418306E+03  0.29975452865E+03  0.00000000000E+00 0. -1.
         13    1    3    3    0    0  0.46389847996E+02  0.39868461194E+02 -0.55885252027E+03  0.56219004936E+03  0.00000000000E+00 0. -1.
        -14    1    3    3    0    0  0.31559776837E+02 -0.21192660609E+02 -0.11174716932E+03  0.11803634283E+03  0.00000000000E+00 0.  1.
          5    1    4    4  501    0 -0.10228902477E+03 -0.57365385640E+02 -0.27270619556E+03  0.29688377112E+03  0.41800000000E+01 0.  1.
         -5    1    4    4    0  501 -0.18409720461E+03  0.64894213147E+02 -0.46116325130E+03  0.50079143004E+03  0.41800000000E+01 0.  1.
</event>
<event>
11    1  0.8037748E-009  0.2051590E+03  0.7561462E-02  0.1050934E+00
         22   -1    0    0    0    0  0.00000000000E+00  0.00000000000E+00  0.85015843701E+02  0.85015843701E+02  0.00000000000E+00 0. -1.
         22   -1    0    0    0    0 -0.00000000000E+00 -0.00000000000E+00 -0.24618141677E+04  0.24618141677E+04  0.00000000000E+00 0. -1.
        -24    2    1    2    0    0 -0.40920688140E+02  0.29960350421E+02 -0.49531734747E+03  0.50403084935E+03  0.78330690541E+02 0.  0.
         25    2    1    2    0    0 -0.10288609648E+03  0.51624716913E+02 -0.18521988048E+04  0.18599832238E+04  0.12508605087E+03 0.  0.
         24    2    1    2    0    0  0.14380678462E+03 -0.81585067334E+02 -0.29282171761E+02  0.18281593826E+03  0.72302885051E+02 0.  0.
        -11    1    5    5    0    0  0.95681478994E+02 -0.18174746224E+02  0.16668453559E+01  0.97406597293E+02  0.00000000000E+00 0.  1.
         12    1    5    5    0    0  0.48125305622E+02 -0.63410321111E+02 -0.30949017117E+02  0.85409340971E+02  0.00000000000E+00 0. -1.
         11    1    3    3    0    0 -0.55179077250E+02  0.42219882754E+02 -0.30633302878E+03  0.31411331329E+03  0.00000000000E+00 0. -1.
        -12    1    3    3    0    0  0.14258389111E+02 -0.12259532332E+02 -0.18898431869E+03  0.18991753606E+03  0.00000000000E+00 0.  1.
          5    1    4    4  501    0 -0.45542003526E+02  0.10478724482E+02 -0.17162113923E+03  0.17791898601E+03  0.41800000000E+01 0. -1.
         -5    1    4    4    0  501 -0.57344092950E+02  0.41145992431E+02 -0.16805776655E+04  0.16820642378E+04  0.41800000000E+01 0. -1.
</event>
<event>
11    1  0.8037748E-009  0.1255176E+03  0.7561462E-02  0.1124902E+00
         22   -1    0    0    0    0  0.00000000000E+00  0.00000000000E+00  0.20008412847E+04  0.20008412847E+04  0.00000000000E+00 0. -1.
         22   -1    0    0    0    0 -0.00000000000E+00 -0.00000000000E+00 -0.22568840806E+03  0.22568840806E+03  0.00000000000E+00 0. -1.
         24    2    1    2    0    0  0.94228644806E+01 -0.38094921035E+01 -0.21150997338E+03  0.22763622023E+03  0.83537280996E+02 0.  0.
         25    2    1    2    0    0 -0.24715711816E+02  0.22715247051E+02  0.93740123692E+03  0.94630628709E+03  0.12509061169E+03 0.  0.
        -24    2    1    2    0    0  0.15292847336E+02 -0.18905754948E+02  0.10492616131E+04  0.10525871855E+04  0.79990946281E+02 0.  0.
        -13    1    3    3    0    0  0.27224645155E+02  0.12389645967E+02 -0.23358068260E+02  0.37951073554E+02  0.00000000000E+00 0.  1.
         14    1    3    3    0    0 -0.17801780675E+02 -0.16199138071E+02 -0.18815190512E+03  0.18968514667E+03  0.00000000000E+00 0. -1.
         13    1    5    5    0    0  0.15000370117E+02 -0.78493299949E+01  0.10316609074E+04  0.10317998115E+04  0.00000000000E+00 0. -1.
        -14    1    5    5    0    0  0.29247721837E+00 -0.11056424953E+02  0.17600705685E+02  0.20787373963E+02  0.00000000000E+00 0.  1.
          5    1    4    4  501    0 -0.48696403401E+02 -0.39372666706E+02  0.43944372840E+03  0.44390292793E+03  0.41800000000E+01 0. -1.
         -5    1    4    4    0  501  0.23980691585E+02  0.62087913758E+02  0.49795750852E+03  0.50240335916E+03  0.41800000000E+01 0. -1.
</event>
<event>
11    1  0.8037748E-009  0.1590968E+03  0.7561462E-02  0.1087930E+00
         22   -1    0    0    0    0  0.00000000000E+00  0.00000000000E+00  0.57146913612E+03  0.57146913612E+03  0.00000000000E+00 0.  1.
         22   -1    0    0    0    0 -0.00000000000E+00 -0.00000000000E+00 -0.21064535196E+04  0.21064535196E+04  0.00000000000E+00 0.  1.
         24    2    1    2    0    0  0.15983606368E+02  0.25056215378E+02 -0.17553517439E+04  0.17574607186E+04  0.80778358318E+02 0.  0.
         25    2    1    2    0    0 -0.78285283756E+02 -0.10029162336E+03 -0.31949526314E+03  0.36594140809E+03  0.12509554595E+03 0.  0.
        -24    2    1    2    0    0  0.62301677389E+02  0.75235407984E+02  0.53986262356E+03  0.55452052897E+03  0.80619471038E+02 0.  0.
        -11    1    3    3    0    0  0.42894141043E+02  0.34942507792E+02 -0.13254085061E+04  0.13265626989E+04  0.00000000000E+00 0.  1.
         12    1    3    3    0    0 -0.26910534675E+02 -0.98862924141E+01 -0.42994323781E+03  0.43089801971E+03  0.00000000000E+00 0. -1.
         13    1    5    5    0    0  0.13990883964E+02  0.11865588840E+02  0.15150638782E+02  0.23792412406E+02  0.00000000000E+00 0. -1.
        -14    1    5    5    0    0  0.48310793425E+02  0.63369819144E+02  0.52471198478E+03  0.53072811657E+03  0.00000000000E+00 0.  1.
          5    1    4    4  501    0 -0.91068386920E+02 -0.17608520052E+02 -0.19373581027E+03  0.21483609486E+03  0.41800000000E+01 0. -1.
         -5    1    4    4    0  501  0.12783103163E+02 -0.82683103310E+02 -0.12575945288E+03  0.15110531323E+03  0.41800000000E+01 0. -1.
</event>
<event>
11    1  0.8037748E-009  0.1288939E+03  0.7561462E-02  0.1120636E+00
         22   -1    0    0    0    0  0.00000000000E+00  0.00000000000E+00  0.35386780906E+03  0.35386780906E+03  0.00000000000E+00 0.  1.
         22   -1    0    0    0    0 -0.00000000000E+00 -0.00000000000E+00 -0.19269195517E+03  0.19269195517E+03  0.00000000000E+00 0.  1.
         24    2    1    2    0    0 -0.41507895799E+01  0.31122083854E+02 -0.12961884590E+03  0.15577721349E+03  0.80496471181E+02 0.  0.
         25    2    1    2    0    0  0.29981284281E+02 -0.23667395574E+02  0.56184288793E+02  0.14234737812E+03  0.12508828374E+03 0.  0.
        -24    2    1    2    0    0 -0.25830494701E+02 -0.74546882804E+01  0.23461041100E+03  0.24843517263E+03  0.77169963177E+02 0.  0.
        -13    1    3    3    0    0  0.11668797106E+02  0.39250972684E+02 -0.13165403863E+03  0.13787525365E+03  0.00000000000E+00 0.  1.
         14    1    3    3    0    0 -0.15819586686E+02 -0.81288888299E+01  0.20351927307E+01  0.17901959836E+02  0.00000000000E+00 0. -1.
         11    1    5    5    0    0 -0.20046225095E+02 -0.54322794231E+01  0.88245905536E+01  0.22566218086E+02  0.00000000000E+00 0. -1.
        -12    1    5    5    0    0 -0.57842696063E+01 -0.20224088573E+01  0.22578582044E+03  0.22586895454E+03  0.00000000000E+00 0.  1.
          5    1    4    4  501    0  0.19073471026E+02 -0.15698670314E+01 -0.39157274540E+02  0.43783859228E+02  0.41800000000E+01 0.  1.
         -5    1    4    4    0  501  0.10907813255E+02 -0.22097528542E+02  0.95341563333E+02  0.98563518892E+02  0.41800000000E+01 0.  1.
</event>
<event>
11    1  0.8037748E-009  0.1674465E+03  0.7561462E-02  0.1080275E+00
         22   -1    0    0    0    0  0.00000000000E+00  0.00000000000E+00  0.28617031590E+03  0.28617031590E+03  0.00000000000E+00 0.  1.
         22   -1    0    0    0    0 -0.00000000000E+00 -0.00000000000E+00 -0.22367869785E+03  0.22367869785E+03  0.00000000000E+00 0.  1.
        -24    2    1    2    0    0  0.99037239263E+02  0.19667020962E+02 -0.22759776392E+02  0.13221660337E+03  0.82268197454E+02 0.  0.
         25    2    1    2    0    0 -0.89154422401E+02  0.95255572771E+02 -0.44214117906E+02  0.18608154283E+03  0.12509723091E+03 0.  0.
         24    2    1    2    0    0 -0.98828168611E+01 -0.11492259373E+03  0.12946551235E+03  0.19155086754E+03  0.81397440676E+02 0.  0.
        -13    1    5    5    0    0 -0.38696359545E+01 -0.12727885155E+03  0.11887813197E+03  0.17420358893E+03  0.00000000000E+00 0.  1.
         14    1    5    5    0    0 -0.60131809066E+01  0.12356257821E+02  0.10587380384E+02  0.17347278615E+02  0.00000000000E+00 0. -1.
         11    1    3    3    0    0  0.67193398974E+02 -0.27109950678E+02 -0.21638356862E+02  0.75618256916E+02  0.00000000000E+00 0. -1.
        -12    1    3    3    0    0  0.31843840289E+02  0.46776971639E+02 -0.11214195301E+01  0.56598346459E+02  0.00000000000E+00 0.  1.
          5    1    4    4  501    0 -0.32095083727E+02 -0.26971830378E+02 -0.26982863544E+02  0.50031203847E+02  0.41800000000E+01 0.  1.
         -5    1    4    4    0  501 -0.57059338674E+02  0.12222740315E+03 -0.17231254362E+02  0.13605033898E+03  0.41800000000E+01 0.  1.
</event>
<event>
11    1  0.8037748E-009  0.1384011E+03  0.7561462E-02  0.1109357E+00
         22   -1    0    0    0    0  0.00000000000E+00  0.00000000000E+00  0.16025765019E+04  0.16025765019E+04  0.00000000000E+00 0.  1.
         22   -1    0    0    0    0 -0.00000000000E+00 -0.00000000000E+00 -0.17327147355E+03  0.17327147355E+03  0.00000000000E+00 0.  1.
         24    2    1    2    0    0  0.47815781180E+02 -0.40830449012E+02 -0.13298132582E+03  0.16816169253E+03  0.81491394158E+02 0.  0.
         25    2    1    2    0    0  0.83826079797E+01  0.35100168021E+02  0.18126323078E+03  0.22317510230E+03  0.12509387492E+03 0.  0.
        -24    2    1    2    0    0 -0.56198389160E+02  0.57302809903E+01  0.13810231234E+04  0.13845111806E+04  0.80344550927E+02 0.  0.
        -11    1    3    3    0    0  0.24589927993E+02  0.18643987853E+02 -0.78072619350E+02  0.83949965658E+02  0.00000000000E+00 0.  1.
         12    1    3    3    0    0  0.23225853186E+02 -0.59474436865E+02 -0.54908706466E+02  0.84211726870E+02  0.00000000000E+00 0. -1.
         13    1    5    5    0    0  0.10036072564E+02 -0.12787444672E+02  0.78076879568E+02  0.79751116712E+02  0.00000000000E+00 0. -1.
        -14    1    5    5    0    0 -0.66234461723E+02  0.18517725662E+02  0.13029462438E+04  0.13047600639E+04  0.00000000000E+00 0.  1.
          5    1    4    4  501    0 -0.94109315043E+00  0.44374491375E+02  0.19715260964E+03  0.20213016853E+03  0.41800000000E+01 0. -1.
         -5    1    4    4    0  501  0.93237011301E+01 -0.92743233534E+01 -0.15889378868E+02  0.21044933766E+02  0.41800000000E+01 0. -1.
</event>
<event>
11    1  0.8037748E-009  0.1914996E+03  0.7561462E-02  0.1060703E+00
         22   -1    0    0    0    0  0.00000000000E+00  0.00000000000E+00  0.21073676326E+04  0.21073676326E+04  0.00000000000E+00 0. -1.
         22   -1    0    0    0    0 -0.00000000000E+00 -0.00000000000E+00 -0.27193156251E+03  0.27193156251E+03  0.00000000000E+00 0.  1.
         24    2    1    2    0    0  0.20023225781E+02  0.14057623751E+03 -0.20412499715E+03  0.26129057445E+03  0.80269182834E+02 0.  0.
         25    2    1    2    0    0 -0.91869780448E+02 -0.16971911964E+03  0.31600815165E+03  0.39083660814E+03  0.12508983261E+03 0.  0.
        -24    2    1    2    0    0  0.71846554666E+02  0.29142882129E+02  0.17235529156E+04  0.17271720125E+04  0.80481507145E+02 0.  0.
        -11    1    3    3    0    0  0.34090081719E+02  0.47137345909E+02 -0.12564393503E+03  0.13845743556E+03  0.00000000000E+00 0.  1.
         12    1    3    3    0    0 -0.14066855938E+02  0.93438891598E+02 -0.78481062119E+02  0.12283313889E+03  0.00000000000E+00 0. -1.
         13    1    5    5    0    0  0.63835535858E+02  0.32089129950E+02  0.17074721436E+04  0.17089662984E+04  0.00000000000E+00 0. -1.
        -14    1    5    5    0    0  0.80110188082E+01 -0.29462478210E+01  0.16080771947E+02  0.18205714075E+02  0.00000000000E+00 0.  1.
          5    1    4    4  501    0 -0.12231357567E+03 -0.14078308634E+03  0.27235926091E+03  0.33011744516E+03  0.41800000000E+01 0. -1.
         -5    1    4    4    0  501  0.30443795224E+02 -0.28936033298E+02  0.43648890739E+02  0.60719162984E+02  0.41800000000E+01 0. -1.
</event>
<event>
11    1  0.8037748E-009  0.2581101E+03  0.7561462E-02  0.1019665E+00
         22   -1    0    0    0    0  0.00000000000E+00  0.00000000000E+00  0.19572720469E+04  0.19572720469E+04  0.00000000000E+00 0. -1.
         22   -1    0    0    0    0 -0.00000000000E+00 -0.00000000000E+00 -0.75907346438E+03  0.75907346438E+03  0.00000000000E+00 0.  1.
         24    2    1    2    0    0 -0.21666606823E+03 -0.49489225743E+02 -0.67788504797E+03  0.71780010537E+03  0.79470022119E+02 0.  0.
         25    2    1    2    0    0  0.31029859467E+03  0.40014717426E+02  0.42541633709E+03  0.54268731801E+03  0.12507625593E+03 0.  0.
        -24    2    1    2    0    0 -0.93632526433E+02  0.94745083170E+01  0.14506672934E+04  0.14558580879E+04  0.78932627235E+02 0.  0.
        -11    1    3    3    0    0 -0.10659040039E+03 -0.44386482047E+02 -0.45136667032E+03  0.46590078806E+03  0.00000000000E+00 0.  1.
         12    1    3    3    0    0 -0.11007566784E+03 -0.51027436953E+01 -0.22651837766E+03  0.25189931731E+03  0.00000000000E+00 0. -1.
         11    1    5    5    0    0 -0.80535274481E+02  0.33115892477E+02  0.12898113362E+04  0.12927474138E+04  0.00000000000E+00 0. -1.
        -12    1    5    5    0    0 -0.13097251952E+02 -0.23641384160E+02  0.16085595718E+03  0.16311067413E+03  0.00000000000E+00 0.  1.
          5    1    4    4  501    0  0.18288670486E+03  0.46548431353E+02  0.34066271536E+03  0.38946483963E+03  0.41800000000E+01 0. -1.
         -5    1    4    4    0  501  0.12741188981E+03 -0.65337139274E+01  0.84753621735E+02  0.15322247837E+03  0.41800000000E+01 0. -1.
</event>
<event>
11    1  0.8037748E-009  0.1517635E+03  0.7561462E-02  0.1095090E+00
         22   -1    0    0    0    0  0.00000000000E+00  0.00000000000E+00  0.47194740657E+03  0.47194740657E+03  0.00000000000E+00 0.  1.
         22   -1    0    0    0    0 -0.00000000000E+00 -0.00000000000E+00 -0.46404661860E+04  0.46404661860E+04  0.00000000000E+00 0. -1.
         24    2    1    2    0    0 -0.44914696223E+02  0.56760462892E+02 -0.42556292733E+04  0.42570061618E+04  0.80510060258E+02 0.  0.
         25    2    1    2    0    0  0.11777839975E+03 -0.11542596379E+02 -0.35684379299E+03  0.39622065531E+03  0.12509329366E+03 0.  0.
        -24    2    1    2    0    0 -0.72863703523E+02 -0.45217866513E+02  0.44395428681E+03  0.45918677551E+03  0.80020692842E+02 0.  0.
        -11    1    3    3    0    0 -0.17787372199E+02  0.56016826902E+02 -0.13824898821E+04  0.13837386132E+04  0.00000000000E+00 0.  1.
         12    1    3    3    0    0 -0.27127324025E+02  0.74363599021E+00 -0.28731393912E+04  0.28732675486E+04  0.00000000000E+00 0. -1.
         11    1    5    5    0    0 -0.41805695978E+02  0.18455827840E+02  0.19997390368E+03  0.20512897394E+03  0.00000000000E+00 0. -1.
        -12    1    5    5    0    0 -0.31058007546E+02 -0.63673694353E+02  0.24398038313E+03  0.25405780157E+03  0.00000000000E+00 0.  1.
          5    1    4    4  501    0  0.30649620094E+02  0.53524303808E+02 -0.15573690968E+03  0.16755807276E+03  0.41800000000E+01 0. -1.
         -5    1    4    4    0  501  0.87128779653E+02 -0.65066900187E+02 -0.20110688331E+03  0.22866258255E+03  0.41800000000E+01 0. -1.
</event>
<event>
11    1  0.8037748E-009  0.2636844E+03  0.7561462E-02  0.1016852E+00
         22   -1    0    0    0    0  0.00000000000E+00  0.00000000000E+00  0.12768889196E+04  0.12768889196E+04  0.00000000000E+00 0.  1.
         22   -1    0    0    0    0 -0.00000000000E+00 -0.00000000000E+00 -0.28425914349E+03  0.28425914349E+03  0.00000000000E+00 0.  1.
        -24    2    1    2    0    0 -0.30918943291E-01 -0.49660508091E+02 -0.19413435745E+03  0.21742586955E+03  0.84378273197E+02 0.  0.
         25    2    1    2    0    0 -0.32808695608E+02 -0.18977026702E+03  0.14505470777E+03  0.27160439480E+03  0.12505564472E+03 0.  0.
         24    2    1    2    0    0  0.32839614551E+02  0.23943077511E+03  0.10417094258E+04  0.10721177987E+04  0.76632305425E+02 0.  0.
        -13    1    5    5    0    0  0.27934421667E+02  0.22989115845E+03  0.10319497450E+04  0.10576155033E+04  0.00000000000E+00 0.  1.
         14    1    5    5    0    0  0.49051928836E+01  0.95396166621E+01  0.97596807787E+01  0.14502295411E+02  0.00000000000E+00 0. -1.
         13    1    3    3    0    0 -0.16512520028E+02  0.13515320923E+02 -0.13246710381E+02  0.25115782951E+02  0.00000000000E+00 0. -1.
        -14    1    3    3    0    0  0.16481601085E+02 -0.63175829014E+02 -0.18088764707E+03  0.19231008660E+03  0.00000000000E+00 0.  1.
          5    1    4    4  501    0  0.41250106659E+02 -0.61278235201E+02  0.81859525792E+02  0.11034059893E+03  0.41800000000E+01 0.  1.
         -5    1    4    4    0  501 -0.74058802266E+02 -0.12849203182E+03  0.63195181976E+02  0.16126379587E+03  0.41800000000E+01 0.  1.
</event>
<event>
11    1  0.8037748E-009  0.1513068E+03  0.7561462E-02  0.1095551E+00
         22   -1    0    0    0    0  0.00000000000E+00  0.00000000000E+00  0.13390834620E+03  0.13390834620E+03  0.00000000000E+00 0.  1.
         22   -1    0    0    0    0 -0.00000000000E+00 -0.00000000000E+00 -0.16684630832E+04  0.16684630832E+04  0.00000000000E+00 0. -1.
         24    2    1    2    0    0 -0.54261909189E+02 -0.66756404455E+02 -0.14491676786E+04  0.14539412623E+04  0.80358330140E+02 0.  0.
         25    2    1    2    0    0  0.59684637824E+02  0.47952772352E+02 -0.17426089753E+03  0.22776399691E+03  0.12509138064E+03 0.  0.
        -24    2    1    2    0    0 -0.54227286358E+01  0.18803632103E+02  0.88873839125E+02  0.12066617018E+03  0.79238770685E+02 0.  0.
        -13    1    3    3    0    0 -0.58902820195E+02 -0.72873622322E+02 -0.92833169690E+03  0.93304868390E+03  0.00000000000E+00 0.  1.
         14    1    3    3    0    0  0.46409110059E+01  0.61172178662E+01 -0.52083598171E+03  0.52089257842E+03  0.00000000000E+00 0. -1.
         11    1    5    5    0    0  0.29197571892E+02 -0.77181121361E+01  0.12433079372E+02  0.32659591578E+02  0.00000000000E+00 0. -1.
        -12    1    5    5    0    0 -0.34620300528E+02  0.26521744239E+02  0.76440759753E+02  0.88006578605E+02  0.00000000000E+00 0.  1.
          5    1    4    4  501    0 -0.19364259902E+02  0.47104018132E+02 -0.20964235737E+02  0.55233456036E+02  0.41800000000E+01 0.  1.
         -5    1    4    4    0  501  0.79048897727E+02  0.84875422073E+00 -0.15329666180E+03  0.17253054087E+03  0.41800000000E+01 0.  1.
</event>
<event>
11    1  0.8037748E-009  0.1776667E+03  0.7561462E-02  0.1071546E+00
         22   -1    0    0    0    0  0.00000000000E+00  0.00000000000E+00  0.76350404352E+03  0.76350404352E+03  0.00000000000E+00 0. -1.
         22   -1    0    0    0    0 -0.00000000000E+00 -0.00000000000E+00 -0.76914565339E+03  0.76914565339E+03  0.00000000000E+00 0. -1.
        -24    2    1    2    0    0 -0.24038910915E+02 -0.49566004364E+02 -0.65714444595E+03  0.66454486597E+03  0.82136459708E+02 0.  0.
         25    2    1    2    0    0  0.45167861636E+01  0.17059667860E+03  0.12271698315E+02  0.21196272740E+03  0.12511584681E+03 0.  0.
         24    2    1    2    0    0  0.19522124752E+02 -0.12103067423E+03  0.63923113776E+03  0.65614210354E+03  0.82924514431E+02 0.  0.
        -11    1    5    5    0    0 -0.99203610153E+00  0.72195023779E+01  0.52192154573E+01  0.89635684970E+01  0.00000000000E+00 0.  1.
         12    1    5    5    0    0  0.20514160853E+02 -0.12825017661E+03  0.63401192230E+03  0.64717853504E+03  0.00000000000E+00 0. -1.
         13    1    3    3    0    0 -0.30565402206E+02 -0.24345579565E+02 -0.60494550484E+03  0.60620624781E+03  0.00000000000E+00 0. -1.
        -14    1    3    3    0    0  0.65264912902E+01 -0.25220424799E+02 -0.52198941110E+02  0.58338618158E+02  0.00000000000E+00 0.  1.
          5    1    4    4  501    0 -0.44441673677E+02  0.13295232588E+02  0.68457532136E+01  0.47076133081E+02  0.41800000000E+01 0. -1.
         -5    1    4    4    0  501  0.48958459841E+02  0.15730144601E+03  0.54259451015E+01  0.16488659432E+03  0.41800000000E+01 0. -1.
</event>
<event>
11    1  0.8037748E-009  0.1854303E+04  0.7561462E-02  0.8129474E-01
         22   -1    0    0    0    0  0.00000000000E+00  0.00000000000E+00  0.39361487819E+03  0.39361487819E+03  0.00000000000E+00 0.  1.
         22   -1    0    0    0    0 -0.00000000000E+00 -0.00000000000E+00 -0.21838857140E+04  0.21838857140E+04  0.00000000000E+00 0.  1.
        -24    2    1    2    0    0 -0.40279074437E+03 -0.40463606661E+03 -0.10071358123E+04  0.11608604979E+04  0.85462395034E+02 0.  0.
         25    2    1    2    0    0  0.71261896620E+03  0.35053735778E+03 -0.35358413645E+03  0.87827757150E+03  0.12509005105E+03 0.  0.
         24    2    1    2    0    0 -0.30982822182E+03  0.54098708830E+02 -0.42955088704E+03  0.53836252280E+03  0.80000275408E+02 0.  0.
        -11    1    5    5    0    0 -0.26638353457E+03  0.38369499436E+02 -0.31189760745E+03  0.41196179860E+03  0.00000000000E+00 0.  1.
         12    1    5    5    0    0 -0.43444687251E+02  0.15729209394E+02 -0.11765327959E+03  0.12640072420E+03  0.00000000000E+00 0. -1.
         11    1    3    3    0    0 -0.27942627084E+02 -0.59142911493E+01 -0.34041171655E+02  0.44436140874E+02  0.00000000000E+00 0. -1.
        -12    1    3    3    0    0 -0.37484811729E+03 -0.39872177546E+03 -0.97309464068E+03  0.11164243570E+04  0.00000000000E+00 0.  1.
          5    1    4    4  501    0  0.46843370623E+03  0.21577218439E+03 -0.29179726542E+03  0.59257985891E+03  0.41800000000E+01 0.  1.
         -5    1    4    4    0  501  0.24418525997E+03  0.13476517339E+03 -0.61786871033E+02  0.28569771259E+03  0.41800000000E+01 0.  1.
</event>
<event>
11    1  0.8037748E-009  0.1416025E+03  0.7561462E-02  0.1105782E+00
         22   -1    0    0    0    0  0.00000000000E+00  0.00000000000E+00  0.14011722231E+04  0.14011722231E+04  0.00000000000E+00 0. -1.
         22   -1    0    0    0    0 -0.00000000000E+00 -0.00000000000E+00 -0.10949841890E+04  0.10949841890E+04  0.00000000000E+00 0. -1.
         24    2    1    2    0    0 -0.20074309523E+02 -0.20258696301E+01 -0.92620313980E+03  0.92986074933E+03  0.79885386150E+02 0.  0.
         25    2    1    2    0    0  0.43537516574E+02 -0.59957563514E+02 -0.13270512423E+03  0.19685224168E+03  0.12509888202E+03 0.  0.
        -24    2    1    2    0    0 -0.23463207051E+02  0.61983433144E+02  0.13650962981E+04  0.13694434210E+04  0.86573160377E+02 0.  0.
        -11    1    3    3    0    0 -0.23428272193E+02 -0.18432912008E+02 -0.12585014210E+03  0.12933257304E+03  0.00000000000E+00 0.  1.
         12    1    3    3    0    0  0.33539626700E+01  0.16407042378E+02 -0.80035299770E+03  0.80052817629E+03  0.00000000000E+00 0. -1.
         11    1    5    5    0    0 -0.51946736833E+02  0.25588145747E+02  0.95436126020E+03  0.95611643205E+03  0.00000000000E+00 0. -1.
        -12    1    5    5    0    0  0.28483529782E+02  0.36395287397E+02  0.41073503794E+03  0.41332698896E+03  0.00000000000E+00 0.  1.
          5    1    4    4  501    0  0.73127115711E+02 -0.35073458742E+01 -0.10293214628E+03  0.12638186446E+03  0.41800000000E+01 0. -1.
         -5    1    4    4    0  501 -0.29589599137E+02 -0.56450217639E+02 -0.29772977959E+02  0.70470377217E+02  0.41800000000E+01 0. -1.
</event>
<event>
11    1  0.8037748E-009  0.1459035E+03  0.7561462E-02  0.1101140E+00
         22   -1    0    0    0    0  0.00000000000E+00  0.00000000000E+00  0.38429804761E+02  0.38429804761E+02  0.00000000000E+00 0. -1.
         22   -1    0    0    0    0 -0.00000000000E+00 -0.00000000000E+00 -0.27684810950E+04  0.27684810950E+04  0.00000000000E+00 0.  1.
        -24    2    1    2    0    0  0.52348963246E+01  0.73657170630E+02 -0.19745412530E+04  0.19777126401E+04  0.84150723366E+02 0.  0.
         25    2    1    2    0    0  0.60919809870E+02 -0.82954447658E+02 -0.68237436322E+03  0.70133719260E+03  0.12508566072E+03 0.  0.
         24    2    1    2    0    0 -0.66154706194E+02  0.92972770275E+01 -0.73135674057E+02  0.12786106707E+03  0.80850115271E+02 0.  0.
        -11    1    5    5    0    0 -0.15283249426E+02  0.21650010327E+02 -0.70645033489E+02  0.75452113402E+02  0.00000000000E+00 0.  1.
         12    1    5    5    0    0 -0.50871456768E+02 -0.12352733299E+02 -0.24906405687E+01  0.52408953663E+02  0.00000000000E+00 0. -1.
         13    1    3    3    0    0 -0.16528849205E+02  0.36465885598E+01 -0.10920559529E+04  0.10921871199E+04  0.00000000000E+00 0. -1.
        -14    1    3    3    0    0  0.21763745529E+02  0.70010582070E+02 -0.88248530005E+03  0.88552552025E+03  0.00000000000E+00 0.  1.
          5    1    4    4  501    0 -0.41243283570E+01 -0.87866922811E+02 -0.49784082938E+03  0.50556955012E+03  0.41800000000E+01 0.  1.
         -5    1    4    4    0  501  0.65044138227E+02  0.49124751533E+01 -0.18453353384E+03  0.19576764248E+03  0.41800000000E+01 0.  1.
</event>
<event>
11    1  0.8037748E-009  0.1956972E+03  0.7561462E-02  0.1057609E+00
         22   -1    0    0    0    0  0.00000000000E+00  0.00000000000E+00  0.66913193337E+03  0.66913193337E+03  0.00000000000E+00 0.  1.
         22   -1    0    0    0    0 -0.00000000000E+00 -0.00000000000E+00 -0.13455345685E+04  0.13455345685E+04  0.00000000000E+00 0. -1.
        -24    2    1    2    0    0 -0.14896399070E+03  0.15953657891E+02 -0.12766501322E+04  0.12879559024E+04  0.80932421093E+02 0.  0.
         25    2    1    2    0    0  0.16999698271E+03 -0.70920088864E+02  0.15606376144E+03  0.27189780207E+03  0.12507551320E+03 0.  0.
         24    2    1    2    0    0 -0.21032992010E+02  0.54966430974E+02  0.44418373556E+03  0.45481279744E+03  0.78049948710E+02 0.  0.
        -11    1    5    5    0    0 -0.28790276794E+02  0.47722984242E+02  0.43982007003E+03  0.44333740792E+03  0.00000000000E+00 0.  1.
         12    1    5    5    0    0  0.77572847847E+01  0.72434467320E+01  0.43636655336E+01  0.11475389522E+02  0.00000000000E+00 0. -1.
         11    1    3    3    0    0 -0.10686381872E+03  0.48109038194E+02 -0.90030764575E+03  0.90790319545E+03  0.00000000000E+00 0. -1.
        -12    1    3    3    0    0 -0.42100171986E+02 -0.32155380303E+02 -0.37634248642E+03  0.38005270693E+03  0.00000000000E+00 0.  1.
          5    1    4    4  501    0  0.87138969215E+02 -0.10176560182E+03  0.97892872825E+02  0.16598169965E+03  0.41800000000E+01 0. -1.
         -5    1    4    4    0  501  0.82858013498E+02  0.30845512953E+02  0.58170888614E+02  0.10591610242E+03  0.41800000000E+01 0. -1.
</event>
<event>
11    1  0.8037748E-009  0.1648893E+03  0.7561462E-02  0.1082567E+00
         22   -1    0    0    0    0  0.00000000000E+00  0.00000000000E+00  0.13006165200E+04  0.13006165200E+04  0.00000000000E+00 0.  1.
         22   -1    0    0    0    0 -0.00000000000E+00 -0.00000000000E+00 -0.53180457866E+03  0.53180457866E+03  0.00000000000E+00 0.  1.
         24    2    1    2    0    0 -0.79926410063E+02 -0.69867016862E+02 -0.44102736859E+03  0.46094843200E+03  0.81845501104E+02 0.  0.
         25    2    1    2    0    0  0.64327671955E+02  0.10789981179E+03  0.20204995367E+02  0.17842741377E+03  0.12509069263E+03 0.  0.
        -24    2    1    2    0    0  0.15598738108E+02 -0.38032794927E+02  0.11896343146E+04  0.11930452529E+04  0.80233153573E+02 0.  0.
        -11    1    3    3    0    0 -0.84868154274E+02 -0.81041398450E+02 -0.42433677334E+03  0.44026356775E+03  0.00000000000E+00 0.  1.
         12    1    3    3    0    0  0.49417442111E+01  0.11174381587E+02 -0.16690595246E+02  0.20684864258E+02  0.00000000000E+00 0. -1.
         11    1    5    5    0    0  0.81161693503E+01 -0.81267374593E+01  0.20450142014E+02  0.23454730334E+02  0.00000000000E+00 0. -1.
        -12    1    5    5    0    0  0.74825687578E+01 -0.29906057468E+02  0.11691841726E+04  0.11695905226E+04  0.00000000000E+00 0.  1.
          5    1    4    4  501    0  0.99544087087E+02  0.63884967198E+02  0.27292878137E+02  0.12146064344E+03  0.41800000000E+01 0.  1.
         -5    1    4    4    0  501 -0.35216415132E+02  0.44014844592E+02 -0.70878827698E+01  0.56966770326E+02  0.41800000000E+01 0.  1.
</event>
<event>
11    1  0.8037748E-009  0.1494114E+03  0.7561462E-02  0.1097482E+00
         22   -1    0    0    0    0  0.00000000000E+00  0.00000000000E+00  0.74403419212E+03  0.74403419212E+03  0.00000000000E+00 0.  1.
         22   -1    0    0    0    0 -0.00000000000E+00 -0.00000000000E+00 -0.36776962900E+03  0.36776962900E+03  0.00000000000E+00 0. -1.
        -24    2    1    2    0    0 -0.16010288191E+02  0.86777727309E+02 -0.30070102042E+03  0.32531981008E+03  0.87322230051E+02 0.  0.
         25    2    1    2    0    0  0.67384334838E+02 -0.11599485892E+02  0.55591835968E+02  0.15301617993E+03  0.12509317503E+03 0.  0.
         24    2    1    2    0    0 -0.51374046647E+02 -0.75178241418E+02  0.62137374757E+03  0.63346783112E+03  0.82976492111E+02 0.  0.
        -11    1    5    5    0    0 -0.47636699308E+02 -0.59692103728E+01  0.35469772454E+03  0.35793206393E+03  0.00000000000E+00 0.  1.
         12    1    5    5    0    0 -0.37373473391E+01 -0.69209031045E+02  0.26667602303E+03  0.27553576719E+03  0.00000000000E+00 0. -1.
         13    1    3    3    0    0 -0.49997345011E+02  0.63022725497E+02 -0.22586590513E+03  0.23976447931E+03  0.00000000000E+00 0. -1.
        -14    1    3    3    0    0  0.33987056820E+02  0.23755001812E+02 -0.74835115286E+02  0.85555330765E+02  0.00000000000E+00 0.  1.
          5    1    4    4  501    0 -0.35155155233E+02 -0.26666635097E+01  0.30944329608E+02  0.47095859358E+02  0.41800000000E+01 0. -1.
         -5    1    4    4    0  501  0.10253949007E+03 -0.89328223818E+01  0.24647506360E+02  0.10592032057E+03  0.41800000000E+01 0. -1.
</event>
<event>
11    1  0.8037748E-009  0.1768513E+03  0.7561462E-02  0.1072219E+00
         22   -1    0    0    0    0  0.00000000000E+00  0.00000000000E+00  0.11134314676E+04  0.11134314676E+04  0.00000000000E+00 0.  1.
         22   -1    0    0    0    0 -0.00000000000E+00 -0.00000000000E+00 -0.13032863750E+04  0.13032863750E+04  0.00000000000E+00 0. -1.
         24    2    1    2    0    0 -0.15783944304E+02 -0.11574027120E+02 -0.12708090200E+04  0.12734331427E+04  0.79330402794E+02 0.  0.
         25    2    1    2    0    0  0.61759061997E+02  0.12375171673E+03  0.33587555531E+03  0.38417328401E+03  0.12509218344E+03 0.  0.
        -24    2    1    2    0    0 -0.45975117693E+02 -0.11217768961E+03  0.74507855728E+03  0.75911141583E+03  0.80065845659E+02 0.  0.
        -13    1    3    3    0    0 -0.14410616997E+02 -0.44585563291E+02 -0.60901520093E+03  0.61081507291E+03  0.00000000000E+00 0.  1.
         14    1    3    3    0    0 -0.13733273068E+01  0.33011536171E+02 -0.66179381904E+03  0.66261806983E+03  0.00000000000E+00 0. -1.
         11    1    5    5    0    0  0.11066967005E+02 -0.59986337433E+02  0.21727711410E+03  0.22567716488E+03  0.00000000000E+00 0. -1.
        -12    1    5    5    0    0 -0.57042084698E+02 -0.52191352177E+02  0.52780144318E+03  0.53343425095E+03  0.00000000000E+00 0.  1.
          5    1    4    4  501    0 -0.30750806328E+01 -0.12666419087E+02  0.11938750969E+03  0.12016964743E+03  0.41800000000E+01 0. -1.
         -5    1    4    4    0  501  0.64834142629E+02  0.13641813582E+03  0.21648804562E+03  0.26400363658E+03  0.41800000000E+01 0. -1.
</event>
<event>
11    1  0.8037748E-009  0.2218543E+03  0.7561462E-02  0.1040062E+00
         22   -1    0    0    0    0  0.00000000000E+00  0.00000000000E+00  0.28432695191E+03  0.28432695191E+03  0.00000000000E+00 0. -1.
         22   -1    0    0    0    0 -0.00000000000E+00 -0.00000000000E+00 -0.35189652204E+03  0.35189652204E+03  0.00000000000E+00 0. -1.
        -24    2    1    2    0    0  0.19891811952E+02 -0.10413504104E+03 -0.12446230692E+03  0.18185885373E+03  0.79636586311E+02 0.  0.
         25    2    1    2    0    0  0.14832717676E+03 -0.18203004476E+02 -0.58100794089E+02  0.20336122477E+03  0.12509110572E+03 0.  0.
         24    2    1    2    0    0 -0.16821898871E+03  0.12233804552E+03  0.11499353088E+03  0.25100339546E+03  0.80715344541E+02 0.  0.
        -11    1    5    5    0    0 -0.37133928483E+02  0.12704797439E+02  0.59599643395E+02  0.71361460295E+02  0.00000000000E+00 0.  1.
         12    1    5    5    0    0 -0.13108506023E+03  0.10963324808E+03  0.55393887482E+02  0.17964193516E+03  0.00000000000E+00 0. -1.
         11    1    3    3    0    0  0.49895367360E+02 -0.66708716388E+02 -0.66296162369E+02  0.10646493165E+03  0.00000000000E+00 0. -1.
        -12    1    3    3    0    0 -0.30003555409E+02 -0.37426324652E+02 -0.58166144553E+02  0.75393922077E+02  0.00000000000E+00 0.  1.
          5    1    4    4  501    0 -0.20621766661E+00 -0.43049532840E+02 -0.46351359593E+01  0.43500134354E+02  0.41800000000E+01 0.  1.
         -5    1    4    4    0  501  0.14853339442E+03  0.24846528364E+02 -0.53465658129E+02  0.15986109042E+03  0.41800000000E+01 0.  1.
</event>
<event>
11    1  0.1014970E-008  0.2081032E+03  0.7561462E-02  0.1048937E+00
         22   -1    0    0    0    0  0.00000000000E+00  0.00000000000E+00  0.67463175966E+03  0.67463175966E+03  0.00000000000E+00 0.  1.
         22   -1    0    0    0    0 -0.00000000000E+00 -0.00000000000E+00 -0.11993026311E+04  0.11993026311E+04  0.00000000000E+00 0.  1.
        -24    2    1    2    0    0  0.58997664417E+02 -0.91930789083E+02 -0.90754594891E+03  0.91775470683E+03  0.81866098829E+02 0.  0.
         25    2    1    2    0    0 -0.22020872372E+03  0.11487675213E+03 -0.20203084149E+03  0.34373311006E+03  0.12508972723E+03 0.  0.
         24    2    1    2    0    0  0.16121105930E+03 -0.22945963045E+02  0.58490591891E+03  0.61244657391E+03  0.80376296638E+02 0.  0.
        -11    1    5    5    0    0  0.74127844961E+02 -0.31942575774E+02  0.16718890112E+03  0.18565396361E+03  0.00000000000E+00 0.  1.
         12    1    5    5    0    0  0.87083214343E+02  0.89966127288E+01  0.41771701778E+03  0.42679261030E+03  0.00000000000E+00 0. -1.
         13    1    3    3    0    0  0.28135048862E+02  0.38304052079E+01 -0.35420047459E+03  0.35533678276E+03  0.00000000000E+00 0. -1.
        -14    1    3    3    0    0  0.30862615556E+02 -0.95761194291E+02 -0.55334547432E+03  0.56241792407E+03  0.00000000000E+00 0.  1.
          5    1    4    4  501    0 -0.33352632807E+02  0.33796183704E+02 -0.11058259738E+03  0.12041828512E+03  0.41800000000E+01 0.  1.
         -5    1    4    4    0  501 -0.18685609091E+03  0.81080568424E+02 -0.91448244108E+02  0.22331482494E+03  0.41800000000E+01 0.  1.
</event>
<event>
11    1  0.8037748E-009  0.2784404E+03  0.7561462E-02  0.1009752E+00
         22   -1    0    0    0    0  0.00000000000E+00  0.00000000000E+00  0.12904634801E+03  0.12904634801E+03  0.00000000000E+00 0.  1.
         22   -1    0    0    0    0 -0.00000000000E+00 -0.00000000000E+00 -0.13077245182E+04  0.13077245182E+04  0.00000000000E+00 0.  1.
        -24    2    1    2    0    0  0.15181928887E+01  0.14884199113E+02 -0.66966402491E+03  0.67456174774E+03  0.79748360237E+02 0.  0.
         25    2    1    2    0    0  0.70070429178E+02 -0.24845264701E+03 -0.38155942221E+03  0.47735512673E+03  0.12506694804E+03 0.  0.
         24    2    1    2    0    0 -0.71588622067E+02  0.23356844790E+03 -0.12745472312E+03  0.28485399178E+03  0.72235306637E+02 0.  0.
        -13    1    5    5    0    0 -0.63198758981E+02  0.21310733888E+03 -0.13662650567E+03  0.26091305654E+03  0.00000000000E+00 0.  1.
         14    1    5    5    0    0 -0.83898630860E+01  0.20461109011E+02  0.91717825560E+01  0.23940935232E+02  0.00000000000E+00 0. -1.
         13    1    3    3    0    0  0.38493933971E+01  0.47521857641E+02 -0.44069819566E+03  0.44326971974E+03  0.00000000000E+00 0. -1.
        -14    1    3    3    0    0 -0.23312005084E+01 -0.32637658529E+02 -0.22896582925E+03  0.23129202799E+03  0.00000000000E+00 0.  1.
          5    1    4    4  501    0  0.64693683934E+02 -0.41071515661E+02 -0.76023967148E+02  0.10802434041E+03  0.41800000000E+01 0. -1.
         -5    1    4    4    0  501  0.53767452440E+01 -0.20738113135E+03 -0.30553545506E+03  0.36933078633E+03  0.41800000000E+01 0. -1.
</event>
<event>
11    1  0.8037748E-009  0.1470503E+03  0.7561462E-02  0.1099931E+00
         22   -1    0    0    0    0  0.00000000000E+00  0.00000000000E+00  0.51677280629E+03  0.51677280629E+03  0.00000000000E+00 0.  1.
         22   -1    0    0    0    0 -0.00000000000E+00 -0.00000000000E+00 -0.14193698053E+04  0.14193698053E+04  0.00000000000E+00 0.  1.
         24    2    1    2    0    0 -0.76942190304E+02 -0.15280586829E+02 -0.13494635332E+04  0.13541249932E+04  0.80306119941E+02 0.  0.
         25    2    1    2    0    0  0.28792829101E+02  0.53540006187E+02  0.16357778239E+02  0.14003845053E+03  0.12509049304E+03 0.  0.
        -24    2    1    2    0    0  0.48149361203E+02 -0.38259419358E+02  0.43050875593E+03  0.44197916785E+03  0.78902799212E+02 0.  0.
        -11    1    3    3    0    0 -0.87727903454E+02 -0.23986247216E+01 -0.12629276210E+04  0.12659731886E+04  0.00000000000E+00 0.  1.
         12    1    3    3    0    0  0.10785713151E+02 -0.12881962107E+02 -0.86535912212E+02  0.88151804623E+02  0.00000000000E+00 0. -1.
         13    1    5    5    0    0  0.22867835331E+02 -0.22780271932E+02  0.45256157552E+02  0.55587754752E+02  0.00000000000E+00 0. -1.
        -14    1    5    5    0    0  0.25281525872E+02 -0.15479147426E+02  0.38525259838E+03  0.38639141309E+03  0.00000000000E+00 0.  1.
          5    1    4    4  501    0  0.54730536360E+01  0.92837045800E+02  0.13468623277E+02  0.94061403360E+02  0.41800000000E+01 0. -1.
         -5    1    4    4    0  501  0.23319775465E+02 -0.39297039613E+02  0.28891549613E+01  0.45977047170E+02  0.41800000000E+01 0. -1.
</event>
<event>
11    1  0.8037748E-009  0.2622181E+03  0.7561462E-02  0.1017585E+00
         22   -1    0    0    0    0  0.00000000000E+00  0.00000000000E+00  0.70981341866E+03  0.70981341866E+03  0.00000000000E+00 0. -1.
         22   -1    0    0    0    0 -0.00000000000E+00 -0.00000000000E+00 -0.17720043407E+03  0.17720043407E+03  0.00000000000E+00 0. -1.
        -24    2    1    2    0    0  0.49916445445E+02  0.29070466053E+02 -0.46827132642E+02  0.10944037525E+03  0.80297396352E+02 0.  0.
         25    2    1    2    0    0  0.10361270248E+02  0.20913232725E+03  0.18633587465E+03  0.30693994410E+03  0.12508950748E+03 0.  0.
         24    2    1    2    0    0 -0.60277715693E+02 -0.23820279330E+03  0.39310424258E+03  0.47063353338E+03  0.81184995318E+02 0.  0.
        -13    1    5    5    0    0  0.16946947096E+02 -0.32905483117E+02  0.82151882924E+02  0.90104948271E+02  0.00000000000E+00 0.  1.
         14    1    5    5    0    0 -0.77224662789E+02 -0.20529731018E+03  0.31095235965E+03  0.38052858511E+03  0.00000000000E+00 0. -1.
         11    1    3    3    0    0  0.48878769056E+02  0.39220103648E+01 -0.62764866554E+02  0.79648883880E+02  0.00000000000E+00 0. -1.
        -12    1    3    3    0    0  0.10376763889E+01  0.25148455688E+02  0.15937733912E+02  0.29791491370E+02  0.00000000000E+00 0.  1.
          5    1    4    4  501    0  0.15612948339E+02 -0.12741480032E+02  0.75644848152E+01  0.21927227362E+02  0.41800000000E+01 0.  1.
         -5    1    4    4    0  501 -0.52516780917E+01  0.22187380728E+03  0.17877138983E+03  0.28501271674E+03  0.41800000000E+01 0.  1.
</event>
<event>
11    1  0.8037748E-009  0.2346688E+03  0.7561462E-02  0.1032399E+00
         22   -1    0    0    0    0  0.00000000000E+00  0.00000000000E+00  0.31674041646E+03  0.31674041646E+03  0.00000000000E+00 0.  1.
         22   -1    0    0    0    0 -0.00000000000E+00 -0.00000000000E+00 -0.30729590304E+04  0.30729590304E+04  0.00000000000E+00 0. -1.
         24    2    1    2    0    0 -0.16596506905E+03  0.11978440912E+03 -0.28624682681E+04  0.28709295929E+04  0.81359899047E+02 0.  0.
         25    2    1    2    0    0  0.83741982899E+02 -0.11100965569E+03 -0.14880821665E+03  0.23901259189E+03  0.12508904981E+03 0.  0.
        -24    2    1    2    0    0  0.82223086151E+02 -0.87747534320E+01  0.25505787079E+03  0.27975726201E+03  0.79824657846E+02 0.  0.
        -13    1    3    3    0    0 -0.87049176126E+01 -0.11996884052E+02 -0.16088676521E+03  0.16156810340E+03  0.00000000000E+00 0.  1.
         14    1    3    3    0    0 -0.15726015144E+03  0.13178129317E+03 -0.27015815028E+04  0.27093614895E+04  0.00000000000E+00 0. -1.
         11    1    5    5    0    0  0.54248106154E+02  0.79703916925E+01  0.57215610135E+02  0.79246515432E+02  0.00000000000E+00 0. -1.
        -12    1    5    5    0    0  0.27974979997E+02 -0.16745145124E+02  0.19784226066E+03  0.20051074658E+03  0.00000000000E+00 0.  1.
          5    1    4    4  501    0 -0.16691447344E+02 -0.12081239494E+02 -0.78800440902E+02  0.81556990188E+02  0.41800000000E+01 0.  1.
         -5    1    4    4    0  501  0.10043343024E+03 -0.98928416196E+02 -0.70007775750E+02  0.15745560170E+03  0.41800000000E+01 0.  1.
</event>
<event>
11    1  0.8037748E-009  0.1952207E+03  0.7561462E-02  0.1057956E+00
         22   -1    0    0    0    0  0.00000000000E+00  0.00000000000E+00  0.53168441331E+03  0.53168441331E+03  0.00000000000E+00 0.  1.
         22   -1    0    0    0    0 -0.00000000000E+00 -0.00000000000E+00 -0.48431648964E+03  0.48431648964E+03  0.00000000000E+00 0. -1.
        -24    2    1    2    0    0 -0.11934112223E+03 -0.10927485847E+03 -0.38407442738E+03  0.42459652641E+03  0.81152611309E+02 0.  0.
         25    2    1    2    0    0  0.49847203716E+02  0.88791193182E+02  0.16222201480E+02  0.16211017208E+03  0.12509167985E+03 0.  0.
         24    2    1    2    0    0  0.69493918512E+02  0.20483665283E+02  0.41522014957E+03  0.42929420446E+03  0.81466288229E+02 0.  0.
        -13    1    5    5    0    0  0.41039776181E+02  0.56341221242E+01  0.37750350720E+03  0.37976954131E+03  0.00000000000E+00 0.  1.
         14    1    5    5    0    0  0.28454142331E+02  0.14849543159E+02  0.37716642369E+02  0.49524663142E+02  0.00000000000E+00 0. -1.
         13    1    3    3    0    0 -0.62681882930E+02 -0.10718650245E+03 -0.25539132198E+03  0.28397656963E+03  0.00000000000E+00 0. -1.
        -14    1    3    3    0    0 -0.56659239298E+02 -0.20883560117E+01 -0.12868310540E+03  0.14061995678E+03  0.00000000000E+00 0.  1.
          5    1    4    4  501    0  0.26943562280E+02 -0.55777682709E+01  0.51638244378E+02  0.58660444336E+02  0.41800000000E+01 0.  1.
         -5    1    4    4    0  501  0.22903641436E+02  0.94368961453E+02 -0.35416042897E+02  0.10344972775E+03  0.41800000000E+01 0.  1.
</event>
<event>
11    1  0.8037748E-009  0.1255772E+03  0.7561462E-02  0.1124826E+00
         22   -1    0    0    0    0  0.00000000000E+00  0.00000000000E+00  0.18344203946E+03  0.18344203946E+03  0.00000000000E+00 0. -1.
         22   -1    0    0    0    0 -0.00000000000E+00 -0.00000000000E+00 -0.78836864831E+03  0.78836864831E+03  0.00000000000E+00 0. -1.
         24    2    1    2    0    0 -0.12172034321E+02  0.59210095937E+01 -0.66690810151E+03  0.67363064351E+03  0.93960689885E+02 0.  0.
         25    2    1    2    0    0 -0.29070078813E+02 -0.12970190481E+02 -0.63848258278E+02  0.14400369313E+03  0.12508864148E+03 0.  0.
        -24    2    1    2    0    0  0.41242113134E+02  0.70491808873E+01  0.12582975094E+03  0.15417635113E+03  0.78655058193E+02 0.  0.
        -13    1    3    3    0    0 -0.49950907480E+01 -0.15796804277E+02 -0.18559116252E+02  0.24878318934E+02  0.00000000000E+00 0.  1.
         14    1    3    3    0    0 -0.71769435732E+01  0.21717813871E+02 -0.64834898526E+03  0.64875232458E+03  0.00000000000E+00 0. -1.
         11    1    5    5    0    0  0.35721418407E+02 -0.28333805627E+02  0.10036067986E+03  0.11023198418E+03  0.00000000000E+00 0. -1.
        -12    1    5    5    0    0  0.55206947268E+01  0.35382986515E+02  0.25469071079E+02  0.43944366949E+02  0.00000000000E+00 0.  1.
          5    1    4    4  501    0  0.33201657423E+02  0.30234416633E+02 -0.49115014985E+02  0.66680035256E+02  0.41800000000E+01 0.  1.
         -5    1    4    4    0  501 -0.62271736236E+02 -0.43204607114E+02 -0.14733243293E+02  0.77323657878E+02  0.41800000000E+01 0.  1.
</event>
<event>
11    1  0.8037748E-009  0.1701451E+03  0.7561462E-02  0.1077905E+00
         22   -1    0    0    0    0  0.00000000000E+00  0.00000000000E+00  0.24075232117E+03  0.24075232117E+03  0.00000000000E+00 0. -1.
         22   -1    0    0    0    0 -0.00000000000E+00 -0.00000000000E+00 -0.19704103209E+04  0.19704103209E+04  0.00000000000E+00 0. -1.
        -24    2    1    2    0    0 -0.29185302445E+00  0.17111847677E+02 -0.82364217099E+03  0.82776528005E+03  0.80721945713E+02 0.  0.
         25    2    1    2    0    0 -0.10401947824E+03 -0.66004741139E+02 -0.11165154226E+04  0.11302350249E+04  0.12509134678E+03 0.  0.
         24    2    1    2    0    0  0.10431133127E+03  0.48892893462E+02  0.21049959378E+03  0.25316233712E+03  0.80682842619E+02 0.  0.
        -13    1    5    5    0    0  0.80252677491E+00  0.11767319474E+02  0.87019070502E+02  0.87814762357E+02  0.00000000000E+00 0.  1.
         14    1    5    5    0    0  0.10350880449E+03  0.37125573989E+02  0.12348052328E+03  0.16534757477E+03  0.00000000000E+00 0. -1.
         11    1    3    3    0    0  0.35252926063E+02 -0.54190114161E+01 -0.51983595639E+03  0.52105811196E+03  0.00000000000E+00 0. -1.
        -12    1    3    3    0    0 -0.35544779088E+02  0.22530859093E+02 -0.30380621460E+03  0.30670716810E+03  0.00000000000E+00 0.  1.
          5    1    4    4  501    0  0.13186375909E+01  0.24068780534E+02 -0.37960380343E+03  0.38039133137E+03  0.41800000000E+01 0.  1.
         -5    1    4    4    0  501 -0.10533811583E+03 -0.90073521673E+02 -0.73691161914E+03  0.74984369357E+03  0.41800000000E+01 0.  1.
</event>
<event>
11    1  0.8037748E-009  0.1444628E+03  0.7561462E-02  0.1102675E+00
         22   -1    0    0    0    0  0.00000000000E+00  0.00000000000E+00  0.70000779924E+03  0.70000779924E+03  0.00000000000E+00 0. -1.
         22   -1    0    0    0    0 -0.00000000000E+00 -0.00000000000E+00 -0.31475679327E+03  0.31475679327E+03  0.00000000000E+00 0. -1.
         24    2    1    2    0    0  0.27576053393E+02  0.66546345230E+01 -0.26262459242E+03  0.27610799481E+03  0.80369306190E+02 0.  0.
         25    2    1    2    0    0  0.38298415769E+02 -0.41754880458E+02  0.76928780183E+02  0.15740205734E+03  0.12508849564E+03 0.  0.
        -24    2    1    2    0    0 -0.65874469162E+02  0.35100245935E+02  0.57094681821E+03  0.58125454035E+03  0.79404650383E+02 0.  0.
        -11    1    3    3    0    0 -0.20621708468E+02  0.22312914390E+02 -0.60154121664E+02  0.67391686148E+02  0.00000000000E+00 0.  1.
         12    1    3    3    0    0  0.48197761861E+02 -0.15658279867E+02 -0.20247047075E+03  0.20871630867E+03  0.00000000000E+00 0. -1.
         13    1    5    5    0    0 -0.47628367557E+02  0.64336930516E+01  0.50293607113E+03  0.50522722160E+03  0.00000000000E+00 0. -1.
        -14    1    5    5    0    0 -0.18246101605E+02  0.28666552883E+02  0.68010747079E+02  0.76027318749E+02  0.00000000000E+00 0.  1.
          5    1    4    4  501    0  0.81968224707E+02 -0.10669205363E+02  0.38299223987E+02  0.91197175191E+02  0.41800000000E+01 0. -1.
         -5    1    4    4    0  501 -0.43669808938E+02 -0.31085675095E+02  0.38629556196E+02  0.66204882152E+02  0.41800000000E+01 0. -1.
</event>
<event>
11    1  0.8037748E-009  0.1568774E+03  0.7561462E-02  0.1090051E+00
         22   -1    0    0    0    0  0.00000000000E+00  0.00000000000E+00  0.39013786320E+03  0.39013786320E+03  0.00000000000E+00 0.  1.
         22   -1    0    0    0    0 -0.00000000000E+00 -0.00000000000E+00 -0.29538260796E+04  0.29538260796E+04  0.00000000000E+00 0.  1.
         24    2    1    2    0    0  0.84416980826E+01 -0.91776713636E+01 -0.25481204573E+04  0.25494245884E+04  0.80575274791E+02 0.  0.
         25    2    1    2    0    0 -0.82318853946E+02  0.67882944587E+02 -0.37752950732E+03  0.41177615824E+03  0.12508632104E+03 0.  0.
        -24    2    1    2    0    0  0.73877155863E+02 -0.58705273223E+02  0.36196174822E+03  0.38276319621E+03  0.81161653107E+02 0.  0.
        -11    1    3    3    0    0 -0.70248887774E+01 -0.78370011255E+01 -0.24547309208E+04  0.24547534828E+04  0.00000000000E+00 0.  1.
         12    1    3    3    0    0  0.15466586860E+02 -0.13406702381E+01 -0.93389536546E+02  0.94671105634E+02  0.00000000000E+00 0. -1.
         13    1    5    5    0    0  0.33636180169E+02 -0.17706372315E+01  0.35487408314E+02  0.48927333071E+02  0.00000000000E+00 0. -1.
        -14    1    5    5    0    0  0.40240975695E+02 -0.56934635992E+02  0.32647433991E+03  0.33383586314E+03  0.00000000000E+00 0.  1.
          5    1    4    4  501    0  0.21254309753E+02  0.11317640463E+02 -0.17991632415E+03  0.18156869434E+03  0.41800000000E+01 0.  1.
         -5    1    4    4    0  501 -0.10357316370E+03  0.56565304124E+02 -0.19761318317E+03  0.23020746390E+03  0.41800000000E+01 0.  1.
</event>
<event>
11    1  0.8037748E-009  0.1359712E+03  0.7561462E-02  0.1112143E+00
         22   -1    0    0    0    0  0.00000000000E+00  0.00000000000E+00  0.31480215569E+03  0.31480215569E+03  0.00000000000E+00 0.  1.
         22   -1    0    0    0    0 -0.00000000000E+00 -0.00000000000E+00 -0.46266590747E+03  0.46266590747E+03  0.00000000000E+00 0. -1.
         24    2    1    2    0    0 -0.16751934767E+02  0.13546197479E+02 -0.41194001278E+03  0.42034822578E+03  0.80832728562E+02 0.  0.
         25    2    1    2    0    0 -0.22007533437E+02  0.32043775921E+02  0.10151727745E+03  0.16572558404E+03  0.12509227186E+03 0.  0.
        -24    2    1    2    0    0  0.38759468203E+02 -0.45589973400E+02  0.16255898354E+03  0.19139425335E+03  0.81397758164E+02 0.  0.
        -13    1    3    3    0    0 -0.27082046685E+02  0.42969324437E+02 -0.29400669913E+03  0.29836175899E+03  0.00000000000E+00 0.  1.
         14    1    3    3    0    0  0.10330111918E+02 -0.29423126958E+02 -0.11793331365E+03  0.12198646679E+03  0.00000000000E+00 0. -1.
         11    1    5    5    0    0  0.53015246970E+02 -0.10177450387E+02  0.54156141253E+02  0.76466231391E+02  0.00000000000E+00 0. -1.
        -12    1    5    5    0    0 -0.14255778767E+02 -0.35412523013E+02  0.10840284229E+03  0.11492802196E+03  0.00000000000E+00 0.  1.
          5    1    4    4  501    0 -0.68398280334E+02  0.36977245096E+02  0.86847030533E+02  0.11664270453E+03  0.41800000000E+01 0. -1.
         -5    1    4    4    0  501  0.46390746898E+02 -0.49334691751E+01  0.14670246920E+02  0.49082879505E+02  0.41800000000E+01 0. -1.
</event>
<event>
11    1  0.8037748E-009  0.1731622E+03  0.7561462E-02  0.1075312E+00
         22   -1    0    0    0    0  0.00000000000E+00  0.00000000000E+00  0.71977909887E+03  0.71977909887E+03  0.00000000000E+00 0.  1.
         22   -1    0    0    0    0 -0.00000000000E+00 -0.00000000000E+00 -0.17475956043E+03  0.17475956043E+03  0.00000000000E+00 0.  1.
         24    2    1    2    0    0 -0.53703701292E+02 -0.50452877196E+02 -0.91242508470E+02  0.14157888679E+03  0.79308293917E+02 0.  0.
         25    2    1    2    0    0  0.16377106344E+03  0.33563564460E+02  0.17832415947E+03  0.27457759516E+03  0.12508347546E+03 0.  0.
        -24    2    1    2    0    0 -0.11006736215E+03  0.16889312737E+02  0.45793788743E+03  0.47838217734E+03  0.82111666409E+02 0.  0.
        -11    1    3    3    0    0 -0.97554132026E+01  0.65282037486E+01 -0.63307498200E+02  0.64386527001E+02  0.00000000000E+00 0.  1.
         12    1    3    3    0    0 -0.43948288089E+02 -0.56981080945E+02 -0.27935010271E+02  0.77192359793E+02  0.00000000000E+00 0. -1.
         13    1    5    5    0    0  0.64896598343E+01  0.20421515212E+02  0.83566826811E+02  0.86270322311E+02  0.00000000000E+00 0. -1.
        -14    1    5    5    0    0 -0.11655702199E+03 -0.35322024748E+01  0.37437106062E+03  0.39211185503E+03  0.00000000000E+00 0.  1.
          5    1    4    4  501    0  0.19493008661E+02  0.46041708037E+02  0.95033988714E+02  0.10746509981E+03  0.41800000000E+01 0.  1.
         -5    1    4    4    0  501  0.14427805478E+03 -0.12478143577E+02  0.83290170760E+02  0.16711249536E+03  0.41800000000E+01 0.  1.
</event>
<event>
11    1  0.8037748E-009  0.1734236E+03  0.7561462E-02  0.1075090E+00
         22   -1    0    0    0    0  0.00000000000E+00  0.00000000000E+00  0.63630928749E+03  0.63630928749E+03  0.00000000000E+00 0.  1.
         22   -1    0    0    0    0 -0.00000000000E+00 -0.00000000000E+00 -0.47856483500E+03  0.47856483500E+03  0.00000000000E+00 0. -1.
        -24    2    1    2    0    0 -0.96843244879E+02 -0.76268405626E+02 -0.35974057313E+03  0.38895136796E+03  0.81697018953E+02 0.  0.
         25    2    1    2    0    0  0.70551603003E+02  0.80668550192E+02 -0.33939963977E+02  0.16818007870E+03  0.12509066328E+03 0.  0.
         24    2    1    2    0    0  0.26291641876E+02 -0.44001445657E+01  0.55142498960E+03  0.55774267583E+03  0.79352136600E+02 0.  0.
        -11    1    5    5    0    0  0.50187996329E+02  0.14079191101E+02  0.29810328046E+03  0.30262621237E+03  0.00000000000E+00 0.  1.
         12    1    5    5    0    0 -0.23896354453E+02 -0.18479335667E+02  0.25332170914E+03  0.25511646345E+03  0.00000000000E+00 0. -1.
         13    1    3    3    0    0 -0.69402238494E+02 -0.17535788859E+02 -0.11241974498E+03  0.13327555537E+03  0.00000000000E+00 0. -1.
        -14    1    3    3    0    0 -0.27441006384E+02 -0.58732616767E+02 -0.24732082816E+03  0.25567581259E+03  0.00000000000E+00 0.  1.
          5    1    4    4  501    0  0.22546960461E+01  0.66912549556E+02  0.30038626722E+02  0.73499417941E+02  0.41800000000E+01 0. -1.
         -5    1    4    4    0  501  0.68296906956E+02  0.13756000636E+02 -0.63978590698E+02  0.94680660755E+02  0.41800000000E+01 0. -1.
</event>
<event>
11    1  0.8037748E-009  0.1518405E+03  0.7561462E-02  0.1095013E+00
         22   -1    0    0    0    0  0.00000000000E+00  0.00000000000E+00  0.51588388604E+03  0.51588388604E+03  0.00000000000E+00 0.  1.
         22   -1    0    0    0    0 -0.00000000000E+00 -0.00000000000E+00 -0.13695708696E+03  0.13695708696E+03  0.00000000000E+00 0.  1.
        -24    2    1    2    0    0  0.18582815276E+02 -0.23387047993E+02 -0.50447015735E+02  0.98379568584E+02  0.79002297946E+02 0.  0.
         25    2    1    2    0    0 -0.10138904231E+03  0.98150324700E+01  0.67741337119E+02  0.17496390252E+03  0.12508959056E+03 0.  0.
         24    2    1    2    0    0  0.82806227031E+02  0.13572015523E+02  0.36163247770E+03  0.37949750190E+03  0.78735215654E+02 0.  0.
        -11    1    5    5    0    0  0.82237231603E+02  0.41179496037E+01  0.36070182986E+03  0.36998071549E+03  0.00000000000E+00 0.  1.
         12    1    5    5    0    0  0.56899542759E+00  0.94540659196E+01  0.93064783772E+00  0.95167864118E+01  0.00000000000E+00 0. -1.
         13    1    3    3    0    0 -0.27408704966E+02  0.37091845533E+01 -0.31055346290E+02  0.41586412338E+02  0.00000000000E+00 0. -1.
        -14    1    3    3    0    0  0.45991520243E+02 -0.27096232547E+02 -0.19391669445E+02  0.56793156245E+02  0.00000000000E+00 0.  1.
          5    1    4    4  501    0 -0.55304534812E+02 -0.47719378145E+02  0.69773872782E+02  0.10110191069E+03  0.41800000000E+01 0. -1.
         -5    1    4    4    0  501 -0.46084507495E+02  0.57534410615E+02 -0.20325356622E+01  0.73861991830E+02  0.41800000000E+01 0. -1.
</event>
<event>
11    1  0.8037748E-009  0.1830055E+03  0.7561462E-02  0.1067237E+00
         22   -1    0    0    0    0  0.00000000000E+00  0.00000000000E+00  0.81140868733E+02  0.81140868733E+02  0.00000000000E+00 0.  1.
         22   -1    0    0    0    0 -0.00000000000E+00 -0.00000000000E+00 -0.70282916575E+03  0.70282916575E+03  0.00000000000E+00 0. -1.
        -24    2    1    2    0    0 -0.13368443953E+03 -0.33984501213E+02 -0.26870677185E+03  0.31263441591E+03  0.80687502614E+02 0.  0.
         25    2    1    2    0    0  0.96076262611E+02  0.10265952571E+03 -0.27728931209E+03  0.33512199478E+03  0.12509101618E+03 0.  0.
         24    2    1    2    0    0  0.37608176923E+02 -0.68675024496E+02 -0.75692213079E+02  0.13621362379E+03  0.81818128951E+02 0.  0.
        -13    1    5    5    0    0  0.37031004830E+02 -0.62082832457E+02 -0.13336872586E+02  0.73508132714E+02  0.00000000000E+00 0.  1.
         14    1    5    5    0    0  0.57717209231E+00 -0.65921920383E+01 -0.62355340493E+02  0.62705491079E+02  0.00000000000E+00 0. -1.
         13    1    3    3    0    0 -0.64831257901E+02 -0.40184969718E+02 -0.20459271395E+03  0.21834858001E+03  0.00000000000E+00 0. -1.
        -14    1    3    3    0    0 -0.68853181633E+02  0.62004685057E+01 -0.64114057900E+02  0.94285835898E+02  0.00000000000E+00 0.  1.
          5    1    4    4  501    0  0.54117369040E+01 -0.17287150403E+02 -0.10403960499E+03  0.10568748399E+03  0.41800000000E+01 0. -1.
         -5    1    4    4    0  501  0.90664525707E+02  0.11994667611E+03 -0.17324970710E+03  0.22943451079E+03  0.41800000000E+01 0. -1.
</event>
<event>
11    1  0.8037748E-009  0.1286742E+03  0.7561462E-02  0.1120909E+00
         22   -1    0    0    0    0  0.00000000000E+00  0.00000000000E+00  0.26716487523E+02  0.26716487523E+02  0.00000000000E+00 0. -1.
         22   -1    0    0    0    0 -0.00000000000E+00 -0.00000000000E+00 -0.25581870479E+04  0.25581870479E+04  0.00000000000E+00 0. -1.
         24    2    1    2    0    0 -0.31617756838E+02 -0.94112415710E+01 -0.13814462067E+04  0.13840715829E+04  0.78563798786E+02 0.  0.
         25    2    1    2    0    0  0.24925634892E+02 -0.10961611146E+02 -0.10940333902E+04  0.11014980927E+04  0.12509014776E+03 0.  0.
        -24    2    1    2    0    0  0.66921219460E+01  0.20372852717E+02 -0.55990963445E+02  0.99333859863E+02  0.79198422357E+02 0.  0.
        -11    1    3    3    0    0 -0.46503443405E+01  0.86483134111E+01 -0.20417797543E+02  0.22656246023E+02  0.00000000000E+00 0.  1.
         12    1    3    3    0    0 -0.26967412497E+02 -0.18059554982E+02 -0.13610284092E+04  0.13614153369E+04  0.00000000000E+00 0. -1.
         11    1    5    5    0    0  0.30383041036E+02 -0.73287657099E+01  0.14675491825E+01  0.31288874860E+02  0.00000000000E+00 0. -1.
        -12    1    5    5    0    0 -0.23690919090E+02  0.27701618426E+02 -0.57458512627E+02  0.68044985003E+02  0.00000000000E+00 0.  1.
          5    1    4    4  501    0  0.42839755943E+02  0.44643837526E+02 -0.37598202622E+03  0.38106203348E+03  0.41800000000E+01 0.  1.
         -5    1    4    4    0  501 -0.17914121052E+02 -0.55605448671E+02 -0.71805136403E+03  0.72043605923E+03  0.41800000000E+01 0.  1.
</event>
<event>
11    1  0.8037748E-009  0.1347566E+03  0.7561462E-02  0.1113559E+00
         22   -1    0    0    0    0  0.00000000000E+00  0.00000000000E+00  0.29801766693E+04  0.29801766693E+04  0.00000000000E+00 0.  1.
         22   -1    0    0    0    0 -0.00000000000E+00 -0.00000000000E+00 -0.47556290381E+02  0.47556290381E+02  0.00000000000E+00 0. -1.
        -24    2    1    2    0    0 -0.47895658755E+02 -0.40124707769E+01  0.62689480688E+02  0.11896142985E+03  0.88948056495E+02 0.  0.
         25    2    1    2    0    0  0.56188258847E+02 -0.19449623151E+02  0.23670143763E+03  0.27424566327E+03  0.12509078693E+03 0.  0.
         24    2    1    2    0    0 -0.82926000919E+01  0.23462093928E+02  0.26332294606E+04  0.26345258665E+04  0.78802996876E+02 0.  0.
        -13    1    5    5    0    0 -0.19895980488E+02  0.76817610075E+01  0.24745718361E+04  0.24746637411E+04  0.00000000000E+00 0.  1.
         14    1    5    5    0    0  0.11603380396E+02  0.15780332921E+02  0.15865762446E+03  0.15986212542E+03  0.00000000000E+00 0. -1.
         11    1    3    3    0    0 -0.37076307803E+02  0.30510533072E+02  0.16969219945E+01  0.48046069276E+02  0.00000000000E+00 0. -1.
        -12    1    3    3    0    0 -0.10819350952E+02 -0.34523003849E+02  0.60992558693E+02  0.70915360577E+02  0.00000000000E+00 0.  1.
          5    1    4    4  501    0 -0.14577817086E+02 -0.21689767309E+02 -0.70117367313E+00  0.26474946675E+02  0.41800000000E+01 0. -1.
         -5    1    4    4    0  501  0.70766075933E+02  0.22401441578E+01  0.23740261131E+03  0.24777071660E+03  0.41800000000E+01 0. -1.
</event>
<event>
11    1  0.8037748E-009  0.2035343E+03  0.7561462E-02  0.1052052E+00
         22   -1    0    0    0    0  0.00000000000E+00  0.00000000000E+00  0.15160214071E+04  0.15160214071E+04  0.00000000000E+00 0. -1.
         22   -1    0    0    0    0 -0.00000000000E+00 -0.00000000000E+00 -0.32012240685E+03  0.32012240685E+03  0.00000000000E+00 0.  1.
         24    2    1    2    0    0  0.44080695943E+02 -0.15025758055E+03 -0.24065603535E+03  0.29824910330E+03  0.80726402144E+02 0.  0.
         25    2    1    2    0    0 -0.81538678890E+02  0.18562235445E+03  0.24719411996E+03  0.34330169505E+03  0.12508759433E+03 0.  0.
        -24    2    1    2    0    0  0.37457982948E+02 -0.35364773899E+02  0.11893609157E+04  0.11945930156E+04  0.99092469668E+02 0.  0.
        -11    1    3    3    0    0  0.41885699388E+02 -0.14899735288E+03 -0.17938291091E+03  0.23692372550E+03  0.00000000000E+00 0.  1.
         12    1    3    3    0    0  0.21949965546E+01 -0.12602276657E+01 -0.61273124441E+02  0.61325377801E+02  0.00000000000E+00 0. -1.
         13    1    5    5    0    0  0.62045604598E+02 -0.42943975990E+02  0.10609402639E+04  0.10636202732E+04  0.00000000000E+00 0. -1.
        -14    1    5    5    0    0 -0.24587621650E+02  0.75792020917E+01  0.12842065180E+03  0.13097274240E+03  0.00000000000E+00 0.  1.
          5    1    4    4  501    0 -0.34201056346E+02  0.56607937015E+01  0.10025378878E+03  0.10616049833E+03  0.41800000000E+01 0. -1.
         -5    1    4    4    0  501 -0.47337622545E+02  0.17996156075E+03  0.14694033118E+03  0.23714119672E+03  0.41800000000E+01 0. -1.
</event>
<event>
11    1  0.9719926E-009  0.1715867E+03  0.7561462E-02  0.1076659E+00
         22   -1    0    0    0    0  0.00000000000E+00  0.00000000000E+00  0.21324407413E+04  0.21324407413E+04  0.00000000000E+00 0.  1.
         22   -1    0    0    0    0 -0.00000000000E+00 -0.00000000000E+00 -0.28393189331E+03  0.28393189331E+03  0.00000000000E+00 0.  1.
         24    2    1    2    0    0 -0.89891338974E+02  0.69083778818E+01 -0.17561257890E+03  0.21329506071E+03  0.80788777357E+02 0.  0.
         25    2    1    2    0    0  0.19974654984E+03 -0.40632416742E+02  0.77649259085E+02  0.25144832839E+03  0.12508867636E+03 0.  0.
        -24    2    1    2    0    0 -0.10985521086E+03  0.33724038861E+02  0.19464721678E+04  0.19516292455E+04  0.83050187876E+02 0.  0.
        -13    1    3    3    0    0 -0.90555051888E+02 -0.11556359936E+02 -0.17162397222E+03  0.19439278464E+03  0.00000000000E+00 0.  1.
         14    1    3    3    0    0  0.66371291393E+00  0.18464737818E+02 -0.39886066817E+01  0.18902276074E+02  0.00000000000E+00 0. -1.
         11    1    5    5    0    0 -0.10076371911E+02  0.18292547538E+02  0.89095755363E+02  0.91510678011E+02  0.00000000000E+00 0. -1.
        -12    1    5    5    0    0 -0.99778838952E+02  0.15431491323E+02  0.18573764124E+04  0.18601185675E+04  0.00000000000E+00 0.  1.
          5    1    4    4  501    0  0.14523612810E+03 -0.35446245085E+02 -0.79267633595E+01  0.14976740357E+03  0.41800000000E+01 0. -1.
         -5    1    4    4    0  501  0.54510421740E+02 -0.51861716572E+01  0.85576022445E+02  0.10168092482E+03  0.41800000000E+01 0. -1.
</event>
<event>
11    1  0.8037748E-009  0.1837926E+03  0.7561462E-02  0.1066616E+00
         22   -1    0    0    0    0  0.00000000000E+00  0.00000000000E+00  0.16237035399E+03  0.16237035399E+03  0.00000000000E+00 0.  1.
         22   -1    0    0    0    0 -0.00000000000E+00 -0.00000000000E+00 -0.11489924933E+04  0.11489924933E+04  0.00000000000E+00 0.  1.
        -24    2    1    2    0    0  0.78365253105E+02 -0.85544858621E+02 -0.63114075798E+03  0.64684782664E+03  0.81329076730E+02 0.  0.
         25    2    1    2    0    0 -0.11030292763E+03  0.18527399594E+03 -0.44065223046E+03  0.50627803402E+03  0.12509944087E+03 0.  0.
         24    2    1    2    0    0  0.31937674529E+02 -0.99729137318E+02  0.85170849166E+02  0.15823698658E+03  0.82576961015E+02 0.  0.
        -11    1    5    5    0    0  0.59167340549E+02 -0.54593406863E+02  0.55004249140E+02  0.97502213739E+02  0.00000000000E+00 0.  1.
         12    1    5    5    0    0 -0.27229666019E+02 -0.45135730455E+02  0.30166600026E+02  0.60734772844E+02  0.00000000000E+00 0. -1.
         11    1    3    3    0    0  0.20503012129E+02  0.66766044448E+01 -0.23600407058E+03  0.23698707113E+03  0.00000000000E+00 0. -1.
        -12    1    3    3    0    0  0.57862240976E+02 -0.92221463066E+02 -0.39513668739E+03  0.40986075551E+03  0.00000000000E+00 0.  1.
          5    1    4    4  501    0 -0.78014035337E+02  0.13949662599E+03 -0.18494969505E+03  0.24447773001E+03  0.41800000000E+01 0. -1.
         -5    1    4    4    0  501 -0.32288892298E+02  0.45777369953E+02 -0.25570253541E+03  0.26180030401E+03  0.41800000000E+01 0. -1.
</event>
<event>
11    1  0.8037748E-009  0.1446581E+03  0.7561462E-02  0.1102466E+00
         22   -1    0    0    0    0  0.00000000000E+00  0.00000000000E+00  0.75791873327E+03  0.75791873327E+03  0.00000000000E+00 0.  1.
         22   -1    0    0    0    0 -0.00000000000E+00 -0.00000000000E+00 -0.10690940918E+03  0.10690940918E+03  0.00000000000E+00 0.  1.
        -24    2    1    2    0    0 -0.12718378904E+02  0.49458095132E+02 -0.41326306675E+02  0.10395616308E+03  0.80567734749E+02 0.  0.
         25    2    1    2    0    0  0.18089450018E+02 -0.11358905738E+03  0.22353300390E+03  0.28079200878E+03  0.12508975259E+03 0.  0.
         24    2    1    2    0    0 -0.53710711142E+01  0.64130962250E+02  0.46880262687E+03  0.48007997059E+03  0.80989175053E+02 0.  0.
        -13    1    5    5    0    0 -0.20250125734E+01  0.79463683117E+02  0.44141113529E+03  0.44851127964E+03  0.00000000000E+00 0.  1.
         14    1    5    5    0    0 -0.33460585408E+01 -0.15332720867E+02  0.27391491584E+02  0.31568690948E+02  0.00000000000E+00 0. -1.
         11    1    3    3    0    0 -0.15349441709E+02 -0.87960483665E+01  0.14766080811E+02  0.23043718670E+02  0.00000000000E+00 0. -1.
        -12    1    3    3    0    0  0.26310628053E+01  0.58254143498E+02 -0.56092387485E+02  0.80912444408E+02  0.00000000000E+00 0.  1.
          5    1    4    4  501    0 -0.47091559726E+02 -0.82819584449E+02  0.10364244150E+03  0.14084007471E+03  0.41800000000E+01 0.  1.
         -5    1    4    4    0  501  0.65181009744E+02 -0.30769472932E+02  0.11989056240E+03  0.13995193407E+03  0.41800000000E+01 0.  1.
</event>
<event>
11    1  0.8037748E-009  0.1445715E+03  0.7561462E-02  0.1102558E+00
         22   -1    0    0    0    0  0.00000000000E+00  0.00000000000E+00  0.94605376008E+03  0.94605376008E+03  0.00000000000E+00 0.  1.
         22   -1    0    0    0    0 -0.00000000000E+00 -0.00000000000E+00 -0.50573106402E+03  0.50573106402E+03  0.00000000000E+00 0. -1.
         24    2    1    2    0    0  0.18955536300E+02 -0.65824997410E+02 -0.33164189180E+03  0.34489673568E+03  0.65384793708E+02 0.  0.
         25    2    1    2    0    0 -0.31589765619E+02  0.89410764387E+02 -0.12839892481E+03  0.20280248114E+03  0.12510141639E+03 0.  0.
        -24    2    1    2    0    0  0.12634229319E+02 -0.23585766977E+02  0.90036351265E+03  0.90408560728E+03  0.77462366520E+02 0.  0.
        -13    1    3    3    0    0  0.21202092538E+02 -0.22980220902E+02 -0.43460110673E+02  0.53538775672E+02  0.00000000000E+00 0.  1.
         14    1    3    3    0    0 -0.22465562387E+01 -0.42844776508E+02 -0.28818178112E+03  0.29135796001E+03  0.00000000000E+00 0. -1.
         11    1    5    5    0    0  0.13645611785E+02 -0.30826153366E+02  0.15229946179E+03  0.15598583433E+03  0.00000000000E+00 0. -1.
        -12    1    5    5    0    0 -0.10113824653E+01  0.72403863887E+01  0.74806405087E+03  0.74809977295E+03  0.00000000000E+00 0.  1.
          5    1    4    4  501    0  0.33437335403E+00 -0.23203452074E+02  0.61967596255E+01  0.24379996381E+02  0.41800000000E+01 0.  1.
         -5    1    4    4    0  501 -0.31924138973E+02  0.11261421646E+03 -0.13459568443E+03  0.17842248476E+03  0.41800000000E+01 0.  1.
</event>
<event>
11    1  0.8037748E-009  0.1777215E+03  0.7561462E-02  0.1071501E+00
         22   -1    0    0    0    0  0.00000000000E+00  0.00000000000E+00  0.15326994599E+03  0.15326994599E+03  0.00000000000E+00 0.  1.
         22   -1    0    0    0    0 -0.00000000000E+00 -0.00000000000E+00 -0.86329457896E+03  0.86329457896E+03  0.00000000000E+00 0. -1.
        -24    2    1    2    0    0  0.88738579293E+02  0.92977419215E+02 -0.66029937044E+03  0.67758240796E+03  0.81260845666E+02 0.  0.
         25    2    1    2    0    0 -0.69476575130E+02 -0.93076050026E+02 -0.13720826481E+03  0.21900606581E+03  0.12508958130E+03 0.  0.
         24    2    1    2    0    0 -0.19262004163E+02  0.98630811639E-01  0.87483002278E+02  0.11997605118E+03  0.79811920386E+02 0.  0.
        -11    1    5    5    0    0  0.30433762993E+02  0.82884435954E+01  0.29713349287E+02  0.43333536124E+02  0.00000000000E+00 0.  1.
         12    1    5    5    0    0 -0.49695767156E+02 -0.81898127837E+01  0.57769652991E+02  0.76642515051E+02  0.00000000000E+00 0. -1.
         13    1    3    3    0    0  0.10090333175E+03  0.71052341008E+02 -0.59435778089E+03  0.60703466888E+03  0.00000000000E+00 0. -1.
        -14    1    3    3    0    0 -0.12164752461E+02  0.21925078207E+02 -0.65941589551E+02  0.70547739080E+02  0.00000000000E+00 0.  1.
          5    1    4    4  501    0  0.22543072365E+02 -0.25754593689E+02 -0.88445315210E+02  0.94929107182E+02  0.41800000000E+01 0.  1.
         -5    1    4    4    0  501 -0.92019647496E+02 -0.67321456337E+02 -0.48762949603E+02  0.12407695863E+03  0.41800000000E+01 0.  1.
</event>
<event>
11    1  0.8037748E-009  0.1345639E+03  0.7561462E-02  0.1113785E+00
         22   -1    0    0    0    0  0.00000000000E+00  0.00000000000E+00  0.91123225742E+03  0.91123225742E+03  0.00000000000E+00 0.  1.
         22   -1    0    0    0    0 -0.00000000000E+00 -0.00000000000E+00 -0.73765445958E+03  0.73765445958E+03  0.00000000000E+00 0.  1.
         24    2    1    2    0    0 -0.41096302648E+02  0.27401120178E+02 -0.69679087017E+03  0.70302271256E+03  0.79269730333E+02 0.  0.
         25    2    1    2    0    0  0.56035097919E+02 -0.21500478212E+02  0.99802316654E+02  0.17090914923E+03  0.12508889686E+03 0.  0.
        -24    2    1    2    0    0 -0.14938795270E+02 -0.59006419654E+01  0.77056635136E+03  0.77495485521E+03  0.80774628338E+02 0.  0.
        -13    1    3    3    0    0 -0.29858808168E+02  0.27893727688E+02 -0.68669052463E+03  0.68790514251E+03  0.00000000000E+00 0.  1.
         14    1    3    3    0    0 -0.11237494481E+02 -0.49260750997E+00 -0.10100345540E+02  0.15117570055E+02  0.00000000000E+00 0. -1.
         13    1    5    5    0    0 -0.16256745817E+02 -0.27468966555E+02  0.12447777018E+03  0.12850502393E+03  0.00000000000E+00 0. -1.
        -14    1    5    5    0    0  0.13179505462E+01  0.21568324589E+02  0.64608858118E+03  0.64644983127E+03  0.00000000000E+00 0.  1.
          5    1    4    4  501    0  0.84009718245E+02  0.17665592532E+02  0.42264003771E+02  0.95777995039E+02  0.41800000000E+01 0.  1.
         -5    1    4    4    0  501 -0.27974620326E+02 -0.39166070744E+02  0.57538312883E+02  0.75131154186E+02  0.41800000000E+01 0.  1.
</event>
<event>
11    1  0.8037748E-009  0.1429262E+03  0.7561462E-02  0.1104334E+00
         22   -1    0    0    0    0  0.00000000000E+00  0.00000000000E+00  0.10371680326E+03  0.10371680326E+03  0.00000000000E+00 0. -1.
         22   -1    0    0    0    0 -0.00000000000E+00 -0.00000000000E+00 -0.17623732060E+04  0.17623732060E+04  0.00000000000E+00 0.  1.
        -24    2    1    2    0    0  0.38555800691E+02 -0.22574449985E+01 -0.15273984241E+04  0.15299909520E+04  0.80216715537E+02 0.  0.
         25    2    1    2    0    0 -0.93382747017E+02  0.34481904847E+02 -0.16383265468E+03  0.22890541394E+03  0.12508881080E+03 0.  0.
         24    2    1    2    0    0  0.54826946326E+02 -0.32224459848E+02  0.32574676021E+02  0.10719364333E+03  0.79905930918E+02 0.  0.
        -11    1    5    5    0    0 -0.14969918126E+02 -0.16331264629E+02 -0.95615329914E+01  0.24129475051E+02  0.00000000000E+00 0.  1.
         12    1    5    5    0    0  0.69796864452E+02 -0.15893195220E+02  0.42136209013E+02  0.83064168277E+02  0.00000000000E+00 0. -1.
         13    1    3    3    0    0  0.16446060318E+02 -0.15760830740E+02 -0.10894209154E+03  0.11129805027E+03  0.00000000000E+00 0. -1.
        -14    1    3    3    0    0  0.22109740373E+02  0.13503385741E+02 -0.14184563326E+04  0.14186929017E+04  0.00000000000E+00 0.  1.
          5    1    4    4  501    0 -0.69971018527E+01  0.10579640609E+02 -0.13353244763E+03  0.13419864082E+03  0.41800000000E+01 0. -1.
         -5    1    4    4    0  501 -0.86385645165E+02  0.23902264238E+02 -0.30300207051E+02  0.94706773113E+02  0.41800000000E+01 0. -1.
</event>
<event>
11    1  0.8037748E-009  0.1486407E+03  0.7561462E-02  0.1098276E+00
         22   -1    0    0    0    0  0.00000000000E+00  0.00000000000E+00  0.16017481841E+04  0.16017481841E+04  0.00000000000E+00 0. -1.
         22   -1    0    0    0    0 -0.00000000000E+00 -0.00000000000E+00 -0.47087650529E+03  0.47087650529E+03  0.00000000000E+00 0. -1.
        -24    2    1    2    0    0  0.21842834896E+01  0.80578700506E+02 -0.40231864574E+03  0.41816543557E+03  0.80649493015E+02 0.  0.
         25    2    1    2    0    0  0.43130526572E+02 -0.76558114441E+02  0.39393408134E+02  0.15786403517E+03  0.12509126982E+03 0.  0.
         24    2    1    2    0    0 -0.45314810061E+02 -0.40205860644E+01  0.14937969164E+04  0.14965952187E+04  0.79362609946E+02 0.  0.
        -13    1    5    5    0    0 -0.16312982734E+02 -0.16471181732E+02  0.10896529650E+03  0.11140399039E+03  0.00000000000E+00 0.  1.
         14    1    5    5    0    0 -0.29001827328E+02  0.12450595667E+02  0.13848316199E+04  0.13851912283E+04  0.00000000000E+00 0. -1.
         11    1    3    3    0    0 -0.36955331378E+02  0.37556846373E+02 -0.24071358905E+03  0.24641275369E+03  0.00000000000E+00 0. -1.
        -12    1    3    3    0    0  0.39139614867E+02  0.43021854133E+02 -0.16160505669E+03  0.17175268188E+03  0.00000000000E+00 0.  1.
          5    1    4    4  501    0  0.52017805064E+02 -0.10799055539E+03  0.31011179437E+02  0.12388291952E+03  0.41800000000E+01 0. -1.
         -5    1    4    4    0  501 -0.88872784924E+01  0.31432440951E+02  0.83822286967E+01  0.33981115653E+02  0.41800000000E+01 0. -1.
</event>
<event>
11    1  0.8037748E-009  0.2056771E+03  0.7561462E-02  0.1050580E+00
         22   -1    0    0    0    0  0.00000000000E+00  0.00000000000E+00  0.11335985164E+04  0.11335985164E+04  0.00000000000E+00 0. -1.
         22   -1    0    0    0    0 -0.00000000000E+00 -0.00000000000E+00 -0.91991508447E+03  0.91991508447E+03  0.00000000000E+00 0.  1.
         24    2    1    2    0    0 -0.15864241629E+02  0.15936680781E+01 -0.84609984575E+03  0.84994706501E+03  0.79188701185E+02 0.  0.
         25    2    1    2    0    0  0.15784512531E+03 -0.78465886472E+02  0.12217595116E+03  0.24828709549E+03  0.12509012679E+03 0.  0.
        -24    2    1    2    0    0 -0.14198088368E+03  0.76872218394E+02  0.93760732654E+03  0.95527944040E+03  0.85926719768E+02 0.  0.
        -11    1    3    3    0    0 -0.45951302752E+02 -0.10375540049E+02 -0.57330882244E+03  0.57524097555E+03  0.00000000000E+00 0.  1.
         12    1    3    3    0    0  0.30087061122E+02  0.11969208127E+02 -0.27279102330E+03  0.27470608946E+03  0.00000000000E+00 0. -1.
         11    1    5    5    0    0 -0.10203959884E+03  0.92818127812E+02  0.76901085250E+03  0.78128418379E+03  0.00000000000E+00 0. -1.
        -12    1    5    5    0    0 -0.39941284835E+02 -0.15945909418E+02  0.16859647405E+03  0.17399525661E+03  0.00000000000E+00 0.  1.
          5    1    4    4  501    0  0.10028134039E+03 -0.91729177038E+02  0.30826242364E+02  0.13942137128E+03  0.41800000000E+01 0. -1.
         -5    1    4    4    0  501  0.57563784915E+02  0.13263290565E+02  0.91349708796E+02  0.10886572421E+03  0.41800000000E+01 0. -1.
</event>
<event>
11    1  0.8037748E-009  0.4107782E+03  0.7561462E-02  0.9618481E-01
         22   -1    0    0    0    0  0.00000000000E+00  0.00000000000E+00  0.12385169021E+04  0.12385169021E+04  0.00000000000E+00 0.  1.
         22   -1    0    0    0    0 -0.00000000000E+00 -0.00000000000E+00 -0.26966340987E+03  0.26966340987E+03  0.00000000000E+00 0. -1.
         24    2    1    2    0    0  0.17983497037E+03  0.34563089791E+03 -0.25306405936E+01  0.40003881414E+03  0.90682492901E+02 0.  0.
         25    2    1    2    0    0 -0.24502078725E+03 -0.32032575021E+03  0.80778664289E+03  0.91148787760E+03  0.12508844129E+03 0.  0.
        -24    2    1    2    0    0  0.65185816879E+02 -0.25305147697E+02  0.16359748990E+03  0.19665362020E+03  0.83779271987E+02 0.  0.
        -11    1    3    3    0    0  0.72719420780E+02  0.57760519093E+02 -0.17814379127E+01  0.92884687896E+02  0.00000000000E+00 0.  1.
         12    1    3    3    0    0  0.10711554959E+03  0.28787037882E+03 -0.74920268090E+00  0.30715412624E+03  0.00000000000E+00 0. -1.
         11    1    5    5    0    0  0.61471915652E+02 -0.37642666112E+02  0.64513734662E+02  0.96735663982E+02  0.00000000000E+00 0. -1.
        -12    1    5    5    0    0  0.37139012271E+01  0.12337518415E+02  0.99083755241E+02  0.99917956222E+02  0.00000000000E+00 0.  1.
          5    1    4    4  501    0 -0.69871941133E+02 -0.17024353132E+03  0.44497062036E+03  0.48154052114E+03  0.41800000000E+01 0. -1.
         -5    1    4    4    0  501 -0.17514884611E+03 -0.15008221889E+03  0.36281602254E+03  0.42994735646E+03  0.41800000000E+01 0. -1.
</event>
<event>
11    1  0.8037748E-009  0.1549210E+03  0.7561462E-02  0.1091954E+00
         22   -1    0    0    0    0  0.00000000000E+00  0.00000000000E+00  0.52181406729E+03  0.52181406729E+03  0.00000000000E+00 0.  1.
         22   -1    0    0    0    0 -0.00000000000E+00 -0.00000000000E+00 -0.16156234066E+04  0.16156234066E+04  0.00000000000E+00 0.  1.
        -24    2    1    2    0    0 -0.24675487902E+02  0.44635654034E+02 -0.15296141994E+04  0.15322895525E+04  0.74769327947E+02 0.  0.
         25    2    1    2    0    0 -0.59300094807E+02 -0.81524376913E+02  0.88406021028E+01  0.16089900175E+03  0.12509039629E+03 0.  0.
         24    2    1    2    0    0  0.83975582710E+02  0.36888722879E+02  0.42696425800E+03  0.44424891961E+03  0.81522687653E+02 0.  0.
        -13    1    5    5    0    0 -0.46604952600E+01  0.12430464303E+02  0.18383239950E+03  0.18431111677E+03  0.00000000000E+00 0.  1.
         14    1    5    5    0    0  0.88636077970E+02  0.24458258575E+02  0.24313185850E+03  0.25993780284E+03  0.00000000000E+00 0. -1.
         11    1    3    3    0    0  0.25814435550E+02  0.50890970123E+01 -0.47131035863E+03  0.47204421207E+03  0.00000000000E+00 0. -1.
        -12    1    3    3    0    0 -0.50489923453E+02  0.39546557022E+02 -0.10583038408E+04  0.10602453405E+04  0.00000000000E+00 0.  1.
          5    1    4    4  501    0 -0.16069135212E+02 -0.39107483355E+02  0.65358610029E+02  0.77954042011E+02  0.41800000000E+01 0.  1.
         -5    1    4    4    0  501 -0.43230959595E+02 -0.42416893558E+02 -0.56518007927E+02  0.82944959742E+02  0.41800000000E+01 0.  1.
</event>
<event>
11    1  0.8037748E-009  0.2861643E+03  0.7561462E-02  0.1006223E+00
         22   -1    0    0    0    0  0.00000000000E+00  0.00000000000E+00  0.11876579530E+04  0.11876579530E+04  0.00000000000E+00 0. -1.
         22   -1    0    0    0    0 -0.00000000000E+00 -0.00000000000E+00 -0.12699784155E+03  0.12699784155E+03  0.00000000000E+00 0.  1.
        -24    2    1    2    0    0  0.46023485940E+00 -0.20148972462E+02  0.97658686085E+02  0.12740780486E+03  0.79305339441E+02 0.  0.
         25    2    1    2    0    0 -0.14756215257E+03 -0.19483393948E+03  0.11708816827E+03  0.29848391453E+03  0.12509258668E+03 0.  0.
         24    2    1    2    0    0  0.14710191771E+03  0.21498291194E+03  0.84591325709E+03  0.88876407515E+03  0.80471834482E+02 0.  0.
        -11    1    5    5    0    0 -0.51338786407E+01  0.30026916873E+02  0.14120480706E+03  0.14445334881E+03  0.00000000000E+00 0.  1.
         12    1    5    5    0    0  0.15223579635E+03  0.18495599507E+03  0.70470845003E+03  0.74431072634E+03  0.00000000000E+00 0. -1.
         13    1    3    3    0    0 -0.32644325957E+02  0.99921739853E+00  0.75605058889E+02  0.82357606705E+02  0.00000000000E+00 0. -1.
        -14    1    3    3    0    0  0.33104560816E+02 -0.21148189861E+02  0.22053627196E+02  0.45050198154E+02  0.00000000000E+00 0.  1.
          5    1    4    4  501    0 -0.14380139377E+03 -0.21080875022E+03  0.99115391973E+02  0.27378915856E+03  0.41800000000E+01 0.  1.
         -5    1    4    4    0  501 -0.37607587987E+01  0.15974810737E+02  0.17972776293E+02  0.24694755972E+02  0.41800000000E+01 0.  1.
</event>
<event>
11    1  0.8037748E-009  0.4979468E+03  0.7561462E-02  0.9398121E-01
         22   -1    0    0    0    0  0.00000000000E+00  0.00000000000E+00  0.11437596355E+04  0.11437596355E+04  0.00000000000E+00 0.  1.
         22   -1    0    0    0    0 -0.00000000000E+00 -0.00000000000E+00 -0.13604696354E+04  0.13604696354E+04  0.00000000000E+00 0.  1.
         24    2    1    2    0    0  0.38590973117E+03  0.57851083107E+02 -0.92089836990E+03  0.10034647980E+04  0.81330958164E+02 0.  0.
         25    2    1    2    0    0 -0.73320120647E+03 -0.28688464507E+03  0.16353366533E+03  0.81380467194E+03  0.12509186878E+03 0.  0.
        -24    2    1    2    0    0  0.34729147530E+03  0.22903356196E+03  0.54065470472E+03  0.68695980097E+03  0.80861097540E+02 0.  0.
        -13    1    3    3    0    0  0.24786580630E+03  0.27091064193E+02 -0.48735465354E+03  0.54743578803E+03  0.00000000000E+00 0.  1.
         14    1    3    3    0    0  0.13804392488E+03  0.30760018914E+02 -0.43354371636E+03  0.45602900999E+03  0.00000000000E+00 0. -1.
         13    1    5    5    0    0  0.27795760651E+03  0.20049339570E+03  0.39364165671E+03  0.52193082552E+03  0.00000000000E+00 0. -1.
        -14    1    5    5    0    0  0.69333868787E+02  0.28540166263E+02  0.14701304802E+03  0.16502897545E+03  0.00000000000E+00 0.  1.
          5    1    4    4  501    0 -0.54981493633E+03 -0.15909947686E+03  0.13806912437E+03  0.58880358631E+03  0.41800000000E+01 0. -1.
         -5    1    4    4    0  501 -0.18338627015E+03 -0.12778516820E+03  0.25464540960E+02  0.22500108564E+03  0.41800000000E+01 0. -1.
</event>
<event>
11    1  0.8037748E-009  0.1622572E+03  0.7561462E-02  0.1084973E+00
         22   -1    0    0    0    0  0.00000000000E+00  0.00000000000E+00  0.61827062547E+03  0.61827062547E+03  0.00000000000E+00 0. -1.
         22   -1    0    0    0    0 -0.00000000000E+00 -0.00000000000E+00 -0.45247426896E+03  0.45247426896E+03  0.00000000000E+00 0. -1.
         24    2    1    2    0    0 -0.73595033097E+02 -0.10443783541E+01 -0.40153399415E+03  0.41597382545E+03  0.79920932047E+02 0.  0.
         25    2    1    2    0    0 -0.23181914993E+02  0.67324874865E+02  0.12276138618E+03  0.18917618449E+03  0.12508889192E+03 0.  0.
        -24    2    1    2    0    0  0.96776948089E+02 -0.66280496511E+02  0.44456896448E+03  0.46559488449E+03  0.73335873791E+02 0.  0.
        -11    1    3    3    0    0 -0.13440307890E+02 -0.33409337702E+02 -0.87966482783E+02  0.95052237297E+02  0.00000000000E+00 0.  1.
         12    1    3    3    0    0 -0.60154725207E+02  0.32364959348E+02 -0.31356751137E+03  0.32092158816E+03  0.00000000000E+00 0. -1.
         13    1    5    5    0    0  0.62705561163E+02 -0.53803344865E+02  0.39838288726E+03  0.40686080197E+03  0.00000000000E+00 0. -1.
        -14    1    5    5    0    0  0.34071386927E+02 -0.12477151646E+02  0.46186077224E+02  0.58734082521E+02  0.00000000000E+00 0.  1.
          5    1    4    4  501    0 -0.60560278586E+02  0.18933609194E+02  0.15201775182E+02  0.65380389018E+02  0.41800000000E+01 0.  1.
         -5    1    4    4    0  501  0.37378363593E+02  0.48391265671E+02  0.10755961100E+03  0.12379579547E+03  0.41800000000E+01 0.  1.
</event>
<event>
11    1  0.8037748E-009  0.1573322E+03  0.7561462E-02  0.1089614E+00
         22   -1    0    0    0    0  0.00000000000E+00  0.00000000000E+00  0.68511838142E+02  0.68511838142E+02  0.00000000000E+00 0. -1.
         22   -1    0    0    0    0 -0.00000000000E+00 -0.00000000000E+00 -0.29063724880E+04  0.29063724880E+04  0.00000000000E+00 0. -1.
         24    2    1    2    0    0 -0.23889600920E+02  0.37741836592E+02 -0.23427192107E+04  0.23446347134E+04  0.83567218338E+02 0.  0.
         25    2    1    2    0    0  0.57182069495E+02 -0.12159309880E+03 -0.47897680381E+03  0.51295237610E+03  0.12508673315E+03 0.  0.
        -24    2    1    2    0    0 -0.33292468574E+02  0.83851262208E+02 -0.16164635342E+02  0.11729723661E+03  0.73197839053E+02 0.  0.
        -13    1    3    3    0    0 -0.42701033802E+02  0.23618567690E+02 -0.67980901932E+03  0.68155815437E+03  0.00000000000E+00 0.  1.
         14    1    3    3    0    0  0.18811432881E+02  0.14123268903E+02 -0.16629101914E+04  0.16630765591E+04  0.00000000000E+00 0. -1.
         13    1    5    5    0    0 -0.42758875530E+02  0.92823529013E+02 -0.94690157668E+01  0.10263620820E+03  0.00000000000E+00 0. -1.
        -14    1    5    5    0    0  0.94664069554E+01 -0.89722668055E+01 -0.66956195757E+01  0.14661028401E+02  0.00000000000E+00 0.  1.
          5    1    4    4  501    0  0.19758571465E+02 -0.13303729865E+03 -0.42735277416E+03  0.44803704084E+03  0.41800000000E+01 0. -1.
         -5    1    4    4    0  501  0.37423498030E+02  0.11444199850E+02 -0.51624029645E+02  0.64915335259E+02  0.41800000000E+01 0. -1.
</event>
<event>
11    1  0.8037748E-009  0.1508432E+03  0.7561462E-02  0.1096020E+00
         22   -1    0    0    0    0  0.00000000000E+00  0.00000000000E+00  0.54652176507E+03  0.54652176507E+03  0.00000000000E+00 0. -1.
         22   -1    0    0    0    0 -0.00000000000E+00 -0.00000000000E+00 -0.84205277544E+03  0.84205277544E+03  0.00000000000E+00 0.  1.
         24    2    1    2    0    0  0.20809882553E+02  0.52786899870E+02 -0.65002943364E+03  0.65746444158E+03  0.80633239632E+02 0.  0.
         25    2    1    2    0    0 -0.15020865108E+02  0.33178633240E+02 -0.15844122999E+03  0.20513130482E+03  0.12509508688E+03 0.  0.
        -24    2    1    2    0    0 -0.57890174451E+01 -0.85965533110E+02  0.51293965326E+03  0.52597879411E+03  0.78249717931E+02 0.  0.
        -11    1    3    3    0    0  0.36074071233E+02  0.36919056695E+02 -0.60641148820E+03  0.60860434470E+03  0.00000000000E+00 0.  1.
         12    1    3    3    0    0 -0.15264188680E+02  0.15867843175E+02 -0.43617945446E+02  0.48860096889E+02  0.00000000000E+00 0. -1.
         13    1    5    5    0    0  0.22952245321E+02 -0.73939990289E+02  0.26464270875E+03  0.27573482012E+03  0.00000000000E+00 0. -1.
        -14    1    5    5    0    0 -0.28741262766E+02 -0.12025542820E+02  0.24829694451E+03  0.25024397399E+03  0.00000000000E+00 0.  1.
          5    1    4    4  501    0 -0.20745249107E+02  0.20860379518E+02  0.13475642696E+02  0.32627996264E+02  0.41800000000E+01 0.  1.
         -5    1    4    4    0  501  0.57243839991E+01  0.12318253722E+02 -0.17191687269E+03  0.17250330855E+03  0.41800000000E+01 0.  1.
</event>
<event>
11    1  0.8037748E-009  0.1259964E+03  0.7561462E-02  0.1124288E+00
         22   -1    0    0    0    0  0.00000000000E+00  0.00000000000E+00  0.55774180057E+03  0.55774180057E+03  0.00000000000E+00 0.  1.
         22   -1    0    0    0    0 -0.00000000000E+00 -0.00000000000E+00 -0.14024966801E+04  0.14024966801E+04  0.00000000000E+00 0.  1.
         24    2    1    2    0    0  0.23938307016E+02  0.14352801853E+02 -0.13672539467E+04  0.13692196766E+04  0.67824202385E+02 0.  0.
         25    2    1    2    0    0 -0.84576512780E+01 -0.20702397618E+02  0.10286303751E+03  0.16349331449E+03  0.12509651580E+03 0.  0.
        -24    2    1    2    0    0 -0.15480655738E+02  0.63495957655E+01  0.41963602970E+03  0.42752548959E+03  0.80022988912E+02 0.  0.
        -13    1    3    3    0    0  0.24154458510E+02 -0.20927157299E+02 -0.92838032482E+03  0.92893025104E+03  0.00000000000E+00 0.  1.
         14    1    3    3    0    0 -0.21615149409E+00  0.35279959152E+02 -0.43887362192E+03  0.44028942556E+03  0.00000000000E+00 0. -1.
         11    1    5    5    0    0 -0.44864485046E+02 -0.12744701250E+02  0.23072850679E+03  0.23539518532E+03  0.00000000000E+00 0. -1.
        -12    1    5    5    0    0  0.29383829308E+02  0.19094297016E+02  0.18890752292E+03  0.19213030427E+03  0.00000000000E+00 0.  1.
          5    1    4    4  501    0 -0.81268133666E+01  0.28529154405E+02 -0.16576278703E+02  0.34237452624E+02  0.41800000000E+01 0. -1.
         -5    1    4    4    0  501 -0.33083791142E+00 -0.49231552023E+02  0.11943931622E+03  0.12925586187E+03  0.41800000000E+01 0. -1.
</event>
<event>
11    1  0.8037748E-009  0.1484575E+03  0.7561462E-02  0.1098465E+00
         22   -1    0    0    0    0  0.00000000000E+00  0.00000000000E+00  0.73535742885E+03  0.73535742885E+03  0.00000000000E+00 0.  1.
         22   -1    0    0    0    0 -0.00000000000E+00 -0.00000000000E+00 -0.70660013433E+03  0.70660013433E+03  0.00000000000E+00 0.  1.
         24    2    1    2    0    0 -0.39690807447E+01  0.47852745227E+02 -0.66793163403E+03  0.67441272705E+03  0.79963865847E+02 0.  0.
         25    2    1    2    0    0 -0.14230982110E+02 -0.11775498557E+03  0.22300878078E+03  0.28186767279E+03  0.12509081174E+03 0.  0.
        -24    2    1    2    0    0  0.18200062855E+02  0.69902240345E+02  0.47368014776E+03  0.48567716334E+03  0.79321239999E+02 0.  0.
        -13    1    3    3    0    0  0.31373311392E+02  0.80829815076E+01 -0.39613544903E+03  0.39745806475E+03  0.00000000000E+00 0.  1.
         14    1    3    3    0    0 -0.35342392137E+02  0.39769763719E+02 -0.27179618500E+03  0.27695466229E+03  0.00000000000E+00 0. -1.
         13    1    5    5    0    0  0.20889822955E+02 -0.12557135529E+02  0.12671928234E+03  0.12904201980E+03  0.00000000000E+00 0. -1.
        -14    1    5    5    0    0 -0.26897601005E+01  0.82459375874E+02  0.34696086541E+03  0.35663514354E+03  0.00000000000E+00 0.  1.
          5    1    4    4  501    0 -0.77058329742E+01 -0.45752779632E+02  0.20078201109E+03  0.20611546542E+03  0.41800000000E+01 0. -1.
         -5    1    4    4    0  501 -0.65251491359E+01 -0.72002205940E+02  0.22226769689E+02  0.75752207375E+02  0.41800000000E+01 0. -1.
</event>
<event>
11    1  0.8037748E-009  0.1284542E+03  0.7561462E-02  0.1121183E+00
         22   -1    0    0    0    0  0.00000000000E+00  0.00000000000E+00  0.18213721619E+03  0.18213721619E+03  0.00000000000E+00 0. -1.
         22   -1    0    0    0    0 -0.00000000000E+00 -0.00000000000E+00 -0.22733822748E+04  0.22733822748E+04  0.00000000000E+00 0. -1.
         24    2    1    2    0    0 -0.18101180390E+02 -0.67035515557E+00 -0.19636190728E+04  0.19652533544E+04  0.78056274367E+02 0.  0.
         25    2    1    2    0    0  0.23857809409E+02  0.29121303186E+02 -0.28372922877E+03  0.31235923829E+03  0.12509505635E+03 0.  0.
        -24    2    1    2    0    0 -0.57566290190E+01 -0.28450948031E+02  0.15610324291E+03  0.17790689830E+03  0.80249902154E+02 0.  0.
        -11    1    3    3    0    0 -0.32143815385E+01  0.15704610356E+02 -0.84678254156E+02  0.86182212561E+02  0.00000000000E+00 0.  1.
         12    1    3    3    0    0 -0.14886798852E+02 -0.16374965511E+02 -0.18789408186E+04  0.18790711419E+04  0.00000000000E+00 0. -1.
         13    1    5    5    0    0 -0.52557613890E+01 -0.56189997825E+02  0.11770022748E+03  0.13053077197E+03  0.00000000000E+00 0. -1.
        -14    1    5    5    0    0 -0.50086762999E+00  0.27739049795E+02  0.38403015431E+02  0.47376126330E+02  0.00000000000E+00 0.  1.
          5    1    4    4  501    0  0.63980078874E+02  0.34295256105E+02 -0.96859302451E+02  0.12111487091E+03  0.41800000000E+01 0. -1.
         -5    1    4    4    0  501 -0.40122269465E+02 -0.51739529187E+01 -0.18686992631E+03  0.19124436739E+03  0.41800000000E+01 0. -1.
</event>
<event>
11    1  0.8037748E-009  0.1570380E+03  0.7561462E-02  0.1089897E+00
         22   -1    0    0    0    0  0.00000000000E+00  0.00000000000E+00  0.16770189515E+04  0.16770189515E+04  0.00000000000E+00 0. -1.
         22   -1    0    0    0    0 -0.00000000000E+00 -0.00000000000E+00 -0.22959252293E+03  0.22959252293E+03  0.00000000000E+00 0.  1.
        -24    2    1    2    0    0 -0.89032739150E+02  0.18906593233E+02 -0.16059328736E+03  0.20170919974E+03  0.81314878142E+02 0.  0.
         25    2    1    2    0    0  0.65171890377E+02  0.75130178481E+02  0.93565733523E+02  0.18518772153E+03  0.12509207289E+03 0.  0.
         24    2    1    2    0    0  0.23860848773E+02 -0.94036771714E+02  0.15144539824E+04  0.15197145531E+04  0.80927150803E+02 0.  0.
        -13    1    5    5    0    0  0.26988534178E+02 -0.71483965942E+02  0.58342818302E+03  0.58841038664E+03  0.00000000000E+00 0.  1.
         14    1    5    5    0    0 -0.31276854052E+01 -0.22552805771E+02  0.93102579935E+03  0.93130416649E+03  0.00000000000E+00 0. -1.
         13    1    3    3    0    0 -0.61820377885E+02  0.31774459075E+02 -0.46296106308E+02  0.83514698291E+02  0.00000000000E+00 0. -1.
        -14    1    3    3    0    0 -0.27212361265E+02 -0.12867865842E+02 -0.11429718105E+03  0.11819450145E+03  0.00000000000E+00 0.  1.
          5    1    4    4  501    0  0.90291303154E+02  0.34312398628E+02  0.22328085075E+02  0.99226387156E+02  0.41800000000E+01 0.  1.
         -5    1    4    4    0  501 -0.25119412777E+02  0.40817779853E+02  0.71237648448E+02  0.85961334371E+02  0.41800000000E+01 0.  1.
</event>
<event>
11    1  0.8037748E-009  0.2350239E+03  0.7561462E-02  0.1032194E+00
         22   -1    0    0    0    0  0.00000000000E+00  0.00000000000E+00  0.39048986920E+03  0.39048986920E+03  0.00000000000E+00 0.  1.
         22   -1    0    0    0    0 -0.00000000000E+00 -0.00000000000E+00 -0.44068559190E+03  0.44068559190E+03  0.00000000000E+00 0.  1.
         24    2    1    2    0    0 -0.14800653310E+03  0.11802893407E+03 -0.24294793301E+03  0.31925329631E+03  0.84036931927E+02 0.  0.
         25    2    1    2    0    0  0.12449955578E+03 -0.21016302740E+03 -0.91261345565E+01  0.27458774408E+03  0.12508599199E+03 0.  0.
        -24    2    1    2    0    0  0.23506977324E+02  0.92134093323E+02  0.20187834487E+03  0.23733442072E+03  0.80817646563E+02 0.  0.
        -13    1    3    3    0    0 -0.13762154370E+03  0.11615891085E+03 -0.17715385576E+03  0.25261842860E+03  0.00000000000E+00 0.  1.
         14    1    3    3    0    0 -0.10384989397E+02  0.18700232264E+01 -0.65794077258E+02  0.66634867703E+02  0.00000000000E+00 0. -1.
         11    1    5    5    0    0  0.54696754518E+01 -0.13338567040E+02  0.46437646007E+02  0.48623962066E+02  0.00000000000E+00 0. -1.
        -12    1    5    5    0    0  0.18037301872E+02  0.10547266036E+03  0.15544069886E+03  0.18871045865E+03  0.00000000000E+00 0.  1.
          5    1    4    4  501    0  0.47646232460E+02 -0.12203589686E+03 -0.63406160755E+02  0.14560472936E+03  0.41800000000E+01 0. -1.
         -5    1    4    4    0  501  0.76853323317E+02 -0.88127130538E+02  0.54280026198E+02  0.12898301472E+03  0.41800000000E+01 0. -1.
</event>
<event>
11    1  0.8037748E-009  0.1435955E+03  0.7561462E-02  0.1103609E+00
         22   -1    0    0    0    0  0.00000000000E+00  0.00000000000E+00  0.13945077508E+03  0.13945077508E+03  0.00000000000E+00 0.  1.
         22   -1    0    0    0    0 -0.00000000000E+00 -0.00000000000E+00 -0.41082122788E+03  0.41082122788E+03  0.00000000000E+00 0. -1.
         24    2    1    2    0    0 -0.12542992621E+02  0.26814076053E+02 -0.26787066157E+03  0.28138458739E+03  0.80909043688E+02 0.  0.
         25    2    1    2    0    0 -0.54518836338E+02 -0.49873083847E+02 -0.46287213272E+02  0.15247703250E+03  0.12508841401E+03 0.  0.
        -24    2    1    2    0    0  0.67061828959E+02  0.23059007794E+02  0.42787422038E+02  0.11641038306E+03  0.81802243592E+02 0.  0.
        -11    1    3    3    0    0 -0.24718896672E+02  0.28418809246E+02 -0.47263494527E+02  0.60435837766E+02  0.00000000000E+00 0.  1.
         12    1    3    3    0    0  0.12175904051E+02 -0.16047331933E+01 -0.22060716704E+03  0.22094874962E+03  0.00000000000E+00 0. -1.
         11    1    5    5    0    0 -0.16424093353E+02  0.89720660485E+01 -0.47546372126E+01  0.19309463656E+02  0.00000000000E+00 0. -1.
        -12    1    5    5    0    0  0.83485922313E+02  0.14086941746E+02  0.47542059251E+02  0.97100919408E+02  0.00000000000E+00 0.  1.
          5    1    4    4  501    0 -0.26629039995E+02  0.13985645574E+02  0.34331311928E+02  0.45834653177E+02  0.41800000000E+01 0. -1.
         -5    1    4    4    0  501 -0.27889796344E+02 -0.63858729421E+02 -0.80618525199E+02  0.10664237933E+03  0.41800000000E+01 0. -1.
</event>
<event>
11    1  0.8037748E-009  0.1597208E+03  0.7561462E-02  0.1087340E+00
         22   -1    0    0    0    0  0.00000000000E+00  0.00000000000E+00  0.88503318409E+03  0.88503318409E+03  0.00000000000E+00 0. -1.
         22   -1    0    0    0    0 -0.00000000000E+00 -0.00000000000E+00 -0.94535339164E+03  0.94535339164E+03  0.00000000000E+00 0.  1.
        -24    2    1    2    0    0 -0.19414211243E+01 -0.44917783800E+02 -0.60288692387E+03  0.60997756421E+03  0.81108627456E+02 0.  0.
         25    2    1    2    0    0 -0.56188619397E+02  0.12483790434E+03 -0.30852398211E+03  0.35996779189E+03  0.12509236729E+03 0.  0.
         24    2    1    2    0    0  0.58130040522E+02 -0.79920120544E+02  0.85109069843E+03  0.86044121963E+03  0.78977137165E+02 0.  0.
        -11    1    5    5    0    0 -0.17157606137E+02 -0.32864107422E+02  0.21277217310E+03  0.21597784759E+03  0.00000000000E+00 0.  1.
         12    1    5    5    0    0  0.75287646659E+02 -0.47056013123E+02  0.63831852533E+03  0.64446337203E+03  0.00000000000E+00 0. -1.
         11    1    3    3    0    0 -0.20488637641E+01  0.21190201405E+02 -0.74855521509E+02  0.77823978174E+02  0.00000000000E+00 0. -1.
        -12    1    3    3    0    0  0.10744263981E+00 -0.66107985205E+02 -0.52803140236E+03  0.53215358603E+03  0.00000000000E+00 0.  1.
          5    1    4    4  501    0 -0.19736377916E+02 -0.19964390408E+02 -0.18927209099E+02  0.34114705654E+02  0.41800000000E+01 0. -1.
         -5    1    4    4    0  501 -0.36452241481E+02  0.14480229475E+03 -0.28959677301E+03  0.32585308624E+03  0.41800000000E+01 0. -1.
</event>
<event>
11    1  0.8037748E-009  0.1305503E+03  0.7561462E-02  0.1118595E+00
         22   -1    0    0    0    0  0.00000000000E+00  0.00000000000E+00  0.21187476039E+03  0.21187476039E+03  0.00000000000E+00 0. -1.
         22   -1    0    0    0    0 -0.00000000000E+00 -0.00000000000E+00 -0.17814418639E+03  0.17814418639E+03  0.00000000000E+00 0. -1.
         24    2    1    2    0    0 -0.13365797239E+02  0.41295448849E+01 -0.10121728517E+03  0.13003320265E+03  0.80423860240E+02 0.  0.
         25    2    1    2    0    0  0.31676213920E+02 -0.32364313221E+02  0.64718293222E+02  0.14794136549E+03  0.12508940341E+03 0.  0.
        -24    2    1    2    0    0 -0.18310416681E+02  0.28234768336E+02  0.70229565947E+02  0.11204437864E+03  0.80556050988E+02 0.  0.
        -11    1    3    3    0    0  0.28591712111E+02  0.77091208251E+01 -0.13119981724E+02  0.32389048547E+02  0.00000000000E+00 0.  1.
         12    1    3    3    0    0 -0.41957509350E+02 -0.35795759402E+01 -0.88097303450E+02  0.97644154100E+02  0.00000000000E+00 0. -1.
         11    1    5    5    0    0 -0.59505242726E+01  0.32049643334E+02  0.85810731463E+02  0.91793627290E+02  0.00000000000E+00 0. -1.
        -12    1    5    5    0    0 -0.12359892409E+02 -0.38148749984E+01 -0.15581165516E+02  0.20250751355E+02  0.00000000000E+00 0.  1.
          5    1    4    4  501    0  0.75821582326E+02 -0.36468197863E+02  0.23979974015E+02  0.87586262368E+02  0.41800000000E+01 0.  1.
         -5    1    4    4    0  501 -0.44145368406E+02  0.41038846429E+01  0.40738319207E+02  0.60355103120E+02  0.41800000000E+01 0.  1.
</event>
<event>
11    1  0.8037748E-009  0.1428054E+03  0.7561462E-02  0.1104466E+00
         22   -1    0    0    0    0  0.00000000000E+00  0.00000000000E+00  0.25594048659E+04  0.25594048659E+04  0.00000000000E+00 0.  1.
         22   -1    0    0    0    0 -0.00000000000E+00 -0.00000000000E+00 -0.69962637116E+02  0.69962637116E+02  0.00000000000E+00 0. -1.
         24    2    1    2    0    0  0.79390034779E+00  0.68134535945E+02 -0.17897160447E+02  0.10640389722E+03  0.79740427166E+02 0.  0.
         25    2    1    2    0    0  0.39724674496E+02 -0.84889174372E+02  0.93726871153E+03  0.95021263870E+03  0.12508876628E+03 0.  0.
        -24    2    1    2    0    0 -0.40518574844E+02  0.16754638427E+02  0.15700706777E+04  0.15727509671E+04  0.80630011222E+02 0.  0.
        -11    1    3    3    0    0  0.11476199946E+02  0.75935755281E+02  0.81110314511E+01  0.77225196189E+02  0.00000000000E+00 0.  1.
         12    1    3    3    0    0 -0.10682299599E+02 -0.78012193360E+01 -0.26008191898E+02  0.29178701027E+02  0.00000000000E+00 0. -1.
         13    1    5    5    0    0  0.14486292345E+02  0.66096888382E+01  0.76807416171E+02  0.78440549662E+02  0.00000000000E+00 0. -1.
        -14    1    5    5    0    0 -0.55004867189E+02  0.10144949588E+02  0.14932632616E+04  0.14943104175E+04  0.00000000000E+00 0.  1.
          5    1    4    4  501    0 -0.35223731665E+02 -0.89731530476E+01  0.10644818781E+03  0.11256072955E+03  0.41800000000E+01 0. -1.
         -5    1    4    4    0  501  0.74948406161E+02 -0.75916021324E+02  0.83082052372E+03  0.83765190915E+03  0.41800000000E+01 0. -1.
</event>
<event>
11    1  0.8037748E-009  0.2418323E+03  0.7561462E-02  0.1028342E+00
         22   -1    0    0    0    0  0.00000000000E+00  0.00000000000E+00  0.13369911809E+04  0.13369911809E+04  0.00000000000E+00 0.  1.
         22   -1    0    0    0    0 -0.00000000000E+00 -0.00000000000E+00 -0.21279956937E+03  0.21279956937E+03  0.00000000000E+00 0.  1.
        -24    2    1    2    0    0 -0.23088424026E+02 -0.91221243563E+01 -0.12701035831E+03  0.15079134255E+03  0.77395797010E+02 0.  0.
         25    2    1    2    0    0 -0.18668676220E+02 -0.19567076972E+03  0.15401863604E+03  0.27929417646E+03  0.12509167503E+03 0.  0.
         24    2    1    2    0    0  0.41757100246E+02  0.20479289408E+03  0.10971833338E+04  0.11197052313E+04  0.79023743541E+02 0.  0.
        -13    1    5    5    0    0  0.61462601523E+02  0.15243475649E+03  0.89285349761E+03  0.90785537096E+03  0.00000000000E+00 0.  1.
         14    1    5    5    0    0 -0.19705501277E+02  0.52358137596E+02  0.20432983619E+03  0.21184986031E+03  0.00000000000E+00 0. -1.
         13    1    3    3    0    0  0.26123046560E+02  0.34052199226E+01 -0.22692254894E+02  0.34769922584E+02  0.00000000000E+00 0. -1.
        -14    1    3    3    0    0 -0.49211470586E+02 -0.12527344279E+02 -0.10431810341E+03  0.11602141997E+03  0.00000000000E+00 0.  1.
          5    1    4    4  501    0 -0.43819458684E+02 -0.56482543693E+02  0.10971571230E+03  0.13101691733E+03  0.41800000000E+01 0. -1.
         -5    1    4    4    0  501  0.25150782464E+02 -0.13918822603E+03  0.44302923743E+02  0.14827725913E+03  0.41800000000E+01 0. -1.
</event>
<event>
11    1  0.8037748E-009  0.1422445E+03  0.7561462E-02  0.1105078E+00
         22   -1    0    0    0    0  0.00000000000E+00  0.00000000000E+00  0.14263388623E+04  0.14263388623E+04  0.00000000000E+00 0.  1.
         22   -1    0    0    0    0 -0.00000000000E+00 -0.00000000000E+00 -0.13627088582E+03  0.13627088582E+03  0.00000000000E+00 0. -1.
        -24    2    1    2    0    0 -0.17285663432E+02 -0.51775892275E+01 -0.11071297298E+03  0.13772009996E+03  0.79899073569E+02 0.  0.
         25    2    1    2    0    0 -0.37183919465E+01  0.69491449680E+02  0.58446211749E+03  0.60173564220E+03  0.12508768241E+03 0.  0.
         24    2    1    2    0    0  0.21004055378E+02 -0.64313860452E+02  0.81631883200E+03  0.82315400599E+03  0.81416454772E+02 0.  0.
        -13    1    5    5    0    0  0.47797189272E+02 -0.56289697932E+02  0.47673341309E+03  0.48241874814E+03  0.00000000000E+00 0.  1.
         14    1    5    5    0    0 -0.26793133894E+02 -0.80241625200E+01  0.33958541891E+03  0.34073525785E+03  0.00000000000E+00 0. -1.
         11    1    3    3    0    0 -0.27342200539E+02 -0.43440562648E+01 -0.12051381786E+03  0.12365292981E+03  0.00000000000E+00 0. -1.
        -12    1    3    3    0    0  0.10056537108E+02 -0.83353296270E+00  0.98008448795E+01  0.14067170154E+02  0.00000000000E+00 0.  1.
          5    1    4    4  501    0  0.75056610993E+01  0.12397070011E+01 -0.37503063915E+01  0.94556343001E+01  0.41800000000E+01 0. -1.
         -5    1    4    4    0  501 -0.11224053046E+02  0.68251742678E+02  0.58821242388E+03  0.59228000790E+03  0.41800000000E+01 0. -1.
</event>
<event>
11    1  0.8037748E-009  0.1291169E+03  0.7561462E-02  0.1120359E+00
         22   -1    0    0    0    0  0.00000000000E+00  0.00000000000E+00  0.89880449017E+03  0.89880449017E+03  0.00000000000E+00 0. -1.
         22   -1    0    0    0    0 -0.00000000000E+00 -0.00000000000E+00 -0.55849629543E+03  0.55849629543E+03  0.00000000000E+00 0.  1.
         24    2    1    2    0    0 -0.27628008845E+02 -0.13016163376E+02 -0.52436811609E+03  0.53615812228E+03  0.10756804140E+03 0.  0.
         25    2    1    2    0    0  0.83503189246E+02  0.56346222480E+02  0.24910056919E+03  0.29638790875E+03  0.12508804691E+03 0.  0.
        -24    2    1    2    0    0 -0.55875180401E+02 -0.43330059104E+02  0.61557574165E+03  0.62475475457E+03  0.79909197486E+02 0.  0.
        -13    1    3    3    0    0 -0.10854266937E+02 -0.52306661989E+02 -0.42001686133E+03  0.42340047921E+03  0.00000000000E+00 0.  1.
         14    1    3    3    0    0 -0.16773741908E+02  0.39290498613E+02 -0.10435125477E+03  0.11275764307E+03  0.00000000000E+00 0. -1.
         13    1    5    5    0    0 -0.69945314393E+02 -0.14993378045E+02  0.34517555864E+03  0.35251002067E+03  0.00000000000E+00 0. -1.
        -14    1    5    5    0    0  0.14070133992E+02 -0.28336681059E+02  0.27040018301E+03  0.27224473390E+03  0.00000000000E+00 0.  1.
          5    1    4    4  501    0  0.23881791868E+02  0.13459475811E+02 -0.80879955231E+01  0.28885732525E+02  0.41800000000E+01 0. -1.
         -5    1    4    4    0  501  0.59621397378E+02  0.42886746669E+02  0.25718856472E+03  0.26750217623E+03  0.41800000000E+01 0. -1.
</event>
<event>
11    1  0.8037748E-009  0.1432795E+03  0.7561462E-02  0.1103951E+00
         22   -1    0    0    0    0  0.00000000000E+00  0.00000000000E+00  0.35383758700E+03  0.35383758700E+03  0.00000000000E+00 0.  1.
         22   -1    0    0    0    0 -0.00000000000E+00 -0.00000000000E+00 -0.47030526093E+03  0.47030526093E+03  0.00000000000E+00 0. -1.
         24    2    1    2    0    0  0.15354433516E+02  0.95454078021E+01 -0.38841705154E+03  0.39648119109E+03  0.77476806378E+02 0.  0.
         25    2    1    2    0    0 -0.13364604597E+02  0.61592819207E+02  0.51726966375E+01  0.14016603200E+03  0.12508985451E+03 0.  0.
        -24    2    1    2    0    0 -0.19898289191E+01 -0.71138227009E+02  0.26677668096E+03  0.28749562484E+03  0.80120721617E+02 0.  0.
        -13    1    3    3    0    0 -0.80294619853E+01  0.93070874721E+00 -0.86568968539E+00  0.81294463020E+01  0.00000000000E+00 0.  1.
         14    1    3    3    0    0  0.23383895502E+02  0.86146990549E+01 -0.38755136185E+03  0.38835174479E+03  0.00000000000E+00 0. -1.
         11    1    5    5    0    0  0.10370680392E+02  0.15199670213E+02  0.30324129055E+02  0.35470181693E+02  0.00000000000E+00 0. -1.
        -12    1    5    5    0    0 -0.12360509311E+02 -0.86337897222E+02  0.23645255191E+03  0.25202544314E+03  0.00000000000E+00 0.  1.
          5    1    4    4  501    0 -0.58561402515E+01  0.99931395897E+02 -0.20833539109E+01  0.10021173099E+03  0.41800000000E+01 0. -1.
         -5    1    4    4    0  501 -0.75084643460E+01 -0.38338576690E+02  0.72560505484E+01  0.39954301007E+02  0.41800000000E+01 0. -1.
</event>
<event>
11    1  0.8037748E-009  0.2509946E+03  0.7561462E-02  0.1023371E+00
         22   -1    0    0    0    0  0.00000000000E+00  0.00000000000E+00  0.11084266130E+04  0.11084266130E+04  0.00000000000E+00 0.  1.
         22   -1    0    0    0    0 -0.00000000000E+00 -0.00000000000E+00 -0.13315536339E+04  0.13315536339E+04  0.00000000000E+00 0. -1.
        -24    2    1    2    0    0 -0.21719656648E+03  0.39423910289E+02 -0.11911271997E+04  0.12140101636E+04  0.79423410844E+02 0.  0.
         25    2    1    2    0    0  0.19191712089E+03 -0.45002772714E+00 -0.23239274559E+02  0.23025989187E+03  0.12508864899E+03 0.  0.
         24    2    1    2    0    0  0.25279445588E+02 -0.38973882562E+02  0.99123945335E+03  0.99571019146E+03  0.82006814417E+02 0.  0.
        -11    1    5    5    0    0  0.36376977911E+02 -0.59298372134E+02  0.65804899587E+03  0.66171599831E+03  0.00000000000E+00 0.  1.
         12    1    5    5    0    0 -0.11097532324E+02  0.20324489572E+02  0.33319045748E+03  0.33399419315E+03  0.00000000000E+00 0. -1.
         13    1    3    3    0    0 -0.16239131723E+03  0.74937142092E+01 -0.69035509321E+03  0.70923709039E+03  0.00000000000E+00 0. -1.
        -14    1    3    3    0    0 -0.54805249248E+02  0.31930196080E+02 -0.50077210653E+03  0.50477307321E+03  0.00000000000E+00 0.  1.
          5    1    4    4  501    0  0.18952890625E+03 -0.62598765036E+01 -0.55098903133E+02  0.19751899627E+03  0.41800000000E+01 0. -1.
         -5    1    4    4    0  501  0.23882146358E+01  0.58098487765E+01  0.31859628574E+02  0.32740895602E+02  0.41800000000E+01 0. -1.
</event>
<event>
11    1  0.8037748E-009  0.1264225E+03  0.7561462E-02  0.1123744E+00
         22   -1    0    0    0    0  0.00000000000E+00  0.00000000000E+00  0.20174641639E+03  0.20174641639E+03  0.00000000000E+00 0. -1.
         22   -1    0    0    0    0 -0.00000000000E+00 -0.00000000000E+00 -0.13861882087E+04  0.13861882087E+04  0.00000000000E+00 0.  1.
         24    2    1    2    0    0  0.22540190595E+02 -0.98532288854E+01 -0.13215132139E+04  0.13241809183E+04  0.80329221335E+02 0.  0.
         25    2    1    2    0    0 -0.10010899100E+01 -0.11499289327E+01  0.33000358703E+02  0.12937741247E+03  0.12508863524E+03 0.  0.
        -24    2    1    2    0    0 -0.21539100685E+02  0.11003157818E+02  0.10407106284E+03  0.13437629428E+03  0.81493558045E+02 0.  0.
        -13    1    3    3    0    0  0.47219831769E+02 -0.52013321566E+01 -0.11338436747E+04  0.11348384225E+04  0.00000000000E+00 0.  1.
         14    1    3    3    0    0 -0.24679641173E+02 -0.46518967288E+01 -0.18766953911E+03  0.18934249587E+03  0.00000000000E+00 0. -1.
         13    1    5    5    0    0 -0.26499623662E+02 -0.23921640590E+02  0.89229233721E+02  0.96105832774E+02  0.00000000000E+00 0. -1.
        -14    1    5    5    0    0  0.49605229772E+01  0.34924798408E+02  0.14841829117E+02  0.38270461502E+02  0.00000000000E+00 0.  1.
          5    1    4    4  501    0 -0.62759823823E+02  0.14159703191E+01  0.20546962181E+02  0.66184971958E+02  0.41800000000E+01 0. -1.
         -5    1    4    4    0  501  0.61758733912E+02 -0.25658992518E+01  0.12453396523E+02  0.63192440516E+02  0.41800000000E+01 0. -1.
</event>
<event>
11    1  0.8037748E-009  0.1341068E+03  0.7561462E-02  0.1114324E+00
         22   -1    0    0    0    0  0.00000000000E+00  0.00000000000E+00  0.25362055161E+04  0.25362055161E+04  0.00000000000E+00 0.  1.
         22   -1    0    0    0    0 -0.00000000000E+00 -0.00000000000E+00 -0.12019730717E+03  0.12019730717E+03  0.00000000000E+00 0.  1.
        -24    2    1    2    0    0  0.12292241806E+02  0.29319491227E+02 -0.80963583336E+02  0.11827760261E+03  0.80148347945E+02 0.  0.
         25    2    1    2    0    0  0.34286836084E+02 -0.13030344965E+02  0.19734886638E+03  0.23651758172E+03  0.12509442186E+03 0.  0.
         24    2    1    2    0    0 -0.46579077890E+02 -0.16289146262E+02  0.22996229259E+04  0.23016076389E+04  0.81836272978E+02 0.  0.
        -11    1    5    5    0    0  0.20818330701E+02  0.98687220305E+01  0.62658858568E+03  0.62701200169E+03  0.00000000000E+00 0.  1.
         12    1    5    5    0    0 -0.67397408591E+02 -0.26157868292E+02  0.16730343402E+04  0.16745956372E+04  0.00000000000E+00 0. -1.
         11    1    3    3    0    0  0.28104131591E+02 -0.19956103274E+02 -0.32958179226E+02  0.47689934455E+02  0.00000000000E+00 0. -1.
        -12    1    3    3    0    0 -0.15811889785E+02  0.49275594501E+02 -0.48005404110E+02  0.70587668156E+02  0.00000000000E+00 0.  1.
          5    1    4    4  501    0  0.53277010071E+01  0.33350031596E+02  0.17334847889E+03  0.17665722894E+03  0.41800000000E+01 0. -1.
         -5    1    4    4    0  501  0.28959135077E+02 -0.46380376561E+02  0.24000387496E+02  0.59860352775E+02  0.41800000000E+01 0. -1.
</event>
<event>
11    1  0.8037748E-009  0.1949753E+03  0.7561462E-02  0.1058135E+00
         22   -1    0    0    0    0  0.00000000000E+00  0.00000000000E+00  0.18946345554E+03  0.18946345554E+03  0.00000000000E+00 0. -1.
         22   -1    0    0    0    0 -0.00000000000E+00 -0.00000000000E+00 -0.93238101767E+03  0.93238101767E+03  0.00000000000E+00 0.  1.
         24    2    1    2    0    0  0.77737896705E+02  0.12554043165E+03 -0.74139121270E+03  0.75999580393E+03  0.78288640017E+02 0.  0.
         25    2    1    2    0    0 -0.56251128079E+02 -0.15720141485E+03 -0.87060301118E+02  0.22606042902E+03  0.12508935725E+03 0.  0.
        -24    2    1    2    0    0 -0.21486768626E+02  0.31660983197E+02  0.85533951688E+02  0.13578824027E+03  0.98276600573E+02 0.  0.
        -13    1    3    3    0    0  0.49658695040E+02  0.98462739211E+02 -0.35734796522E+03  0.37397655709E+03  0.00000000000E+00 0.  1.
         14    1    3    3    0    0  0.28079201665E+02  0.27077692439E+02 -0.38404324748E+03  0.38601924684E+03  0.00000000000E+00 0. -1.
         11    1    5    5    0    0 -0.21587437574E+02 -0.24028478296E+02  0.71349370052E+02  0.78320609275E+02  0.00000000000E+00 0. -1.
        -12    1    5    5    0    0  0.10066894872E+00  0.55689461493E+02  0.14184581636E+02  0.57467630992E+02  0.00000000000E+00 0.  1.
          5    1    4    4  501    0 -0.57542229739E+02 -0.79950501758E+02 -0.10766651620E+03  0.14598884219E+03  0.41800000000E+01 0.  1.
         -5    1    4    4    0  501  0.12911016598E+01 -0.77250913088E+02  0.20606215081E+02  0.80071586824E+02  0.41800000000E+01 0.  1.
</event>
<event>
11    1  0.8037748E-009  0.1431652E+03  0.7561462E-02  0.1104075E+00
         22   -1    0    0    0    0  0.00000000000E+00  0.00000000000E+00  0.94692568902E+02  0.94692568902E+02  0.00000000000E+00 0. -1.
         22   -1    0    0    0    0 -0.00000000000E+00 -0.00000000000E+00 -0.18717212337E+04  0.18717212337E+04  0.00000000000E+00 0. -1.
        -24    2    1    2    0    0  0.23720695204E+01  0.72238912986E+02 -0.16355804014E+04  0.16391348670E+04  0.80098534701E+02 0.  0.
         25    2    1    2    0    0 -0.25752004416E+02 -0.36478643010E+02 -0.18346133470E+03  0.22649327893E+03  0.12508911602E+03 0.  0.
         24    2    1    2    0    0  0.23379934896E+02 -0.35760269976E+02  0.42013071294E+02  0.10078565675E+03  0.81038461131E+02 0.  0.
        -11    1    5    5    0    0  0.10131401766E+02  0.13077454392E+02 -0.16542207428E+02  0.23394651990E+02  0.00000000000E+00 0.  1.
         12    1    5    5    0    0  0.13248533130E+02 -0.48837724368E+02  0.58555278722E+02  0.77391004760E+02  0.00000000000E+00 0. -1.
         13    1    3    3    0    0  0.34258957734E+02  0.67254358912E+02 -0.11826539998E+04  0.11850600442E+04  0.00000000000E+00 0. -1.
        -14    1    3    3    0    0 -0.31886888214E+02  0.49845540738E+01 -0.45292640161E+03  0.45407482279E+03  0.00000000000E+00 0.  1.
          5    1    4    4  501    0 -0.33788760199E+02  0.18391247673E+02 -0.43416377788E+01  0.38938933285E+02  0.41800000000E+01 0.  1.
         -5    1    4    4    0  501  0.80367557828E+01 -0.54869890683E+02 -0.17911969692E+03  0.18755434565E+03  0.41800000000E+01 0.  1.
</event>
<event>
11    1  0.8037748E-009  0.1351869E+03  0.7561462E-02  0.1113055E+00
         22   -1    0    0    0    0  0.00000000000E+00  0.00000000000E+00  0.18829011797E+03  0.18829011797E+03  0.00000000000E+00 0. -1.
         22   -1    0    0    0    0 -0.00000000000E+00 -0.00000000000E+00 -0.27672925106E+03  0.27672925106E+03  0.00000000000E+00 0. -1.
         24    2    1    2    0    0  0.54423620618E+02  0.79988592918E+01 -0.17758247373E+03  0.20289661230E+03  0.81274768999E+02 0.  0.
         25    2    1    2    0    0 -0.18959587081E+02 -0.50885310501E+02  0.10961212007E+02  0.13680825146E+03  0.12509024236E+03 0.  0.
        -24    2    1    2    0    0 -0.35464033537E+02  0.42886451209E+02  0.78182128628E+02  0.12531450527E+03  0.80587434636E+02 0.  0.
        -11    1    3    3    0    0  0.42797181042E+02 -0.33853754882E+02 -0.10412558643E+03  0.11755770147E+03  0.00000000000E+00 0.  1.
         12    1    3    3    0    0  0.11626439576E+02  0.41852614174E+02 -0.73456887293E+02  0.85338910827E+02  0.00000000000E+00 0. -1.
         13    1    5    5    0    0 -0.35493593134E+02  0.65660430915E+02  0.65160093168E+02  0.99080397068E+02  0.00000000000E+00 0. -1.
        -14    1    5    5    0    0  0.29559597634E-01 -0.22773979706E+02  0.13022035460E+02  0.26234108198E+02  0.00000000000E+00 0.  1.
          5    1    4    4  501    0  0.45705199010E+02 -0.13151164064E+02  0.33713706986E+02  0.58446597605E+02  0.41800000000E+01 0.  1.
         -5    1    4    4    0  501 -0.64664786092E+02 -0.37734146437E+02 -0.22752494980E+02  0.78361653858E+02  0.41800000000E+01 0.  1.
</event>
<event>
11    1  0.9557260E-009  0.1619302E+03  0.7561462E-02  0.1085276E+00
         22   -1    0    0    0    0  0.00000000000E+00  0.00000000000E+00  0.55342265520E+03  0.55342265520E+03  0.00000000000E+00 0.  1.
         22   -1    0    0    0    0 -0.00000000000E+00 -0.00000000000E+00 -0.54676531239E+03  0.54676531239E+03  0.00000000000E+00 0.  1.
         24    2    1    2    0    0 -0.96642866224E+01 -0.88824641095E+01 -0.41122289278E+03  0.41922619162E+03  0.80461391922E+02 0.  0.
         25    2    1    2    0    0 -0.35822509121E+02 -0.84233287493E+02 -0.73987888799E+02  0.17175770978E+03  0.12509198335E+03 0.  0.
        -24    2    1    2    0    0  0.45486795744E+02  0.93115751602E+02  0.49186812439E+03  0.50920406619E+03  0.81332265717E+02 0.  0.
        -11    1    3    3    0    0 -0.34697770532E+02  0.18430263461E+02 -0.13735479321E+03  0.14286339317E+03  0.00000000000E+00 0.  1.
         12    1    3    3    0    0  0.25033483909E+02 -0.27312727571E+02 -0.27386809957E+03  0.27636279844E+03  0.00000000000E+00 0. -1.
         11    1    5    5    0    0 -0.20018619060E+02  0.11839793220E+02  0.14878314339E+03  0.15059000488E+03  0.00000000000E+00 0. -1.
        -12    1    5    5    0    0  0.65505414803E+02  0.81275958383E+02  0.34308498100E+03  0.35861406131E+03  0.00000000000E+00 0.  1.
          5    1    4    4  501    0  0.12278719960E+02 -0.76172416424E+02 -0.91506925159E+02  0.11976641324E+03  0.41800000000E+01 0. -1.
         -5    1    4    4    0  501 -0.48101229081E+02 -0.80608710689E+01  0.17519036360E+02  0.51991296545E+02  0.41800000000E+01 0. -1.
</event>
<event>
11    1  0.8037748E-009  0.1682203E+03  0.7561462E-02  0.1079591E+00
         22   -1    0    0    0    0  0.00000000000E+00  0.00000000000E+00  0.90867305944E+03  0.90867305944E+03  0.00000000000E+00 0. -1.
         22   -1    0    0    0    0 -0.00000000000E+00 -0.00000000000E+00 -0.33940914539E+03  0.33940914539E+03  0.00000000000E+00 0. -1.
        -24    2    1    2    0    0 -0.27747152412E+02 -0.10559520492E+03 -0.28025243262E+03  0.31118470620E+03  0.79838860310E+02 0.  0.
         25    2    1    2    0    0  0.14440448668E+02  0.18522074387E+03  0.29313729486E+03  0.36890634298E+03  0.12508863151E+03 0.  0.
         24    2    1    2    0    0  0.13306703744E+02 -0.79625538947E+02  0.55637905181E+03  0.56799115565E+03  0.80864137802E+02 0.  0.
        -11    1    5    5    0    0 -0.92261573504E+01  0.18193143620E+01  0.24985935085E+03  0.25003625155E+03  0.00000000000E+00 0.  1.
         12    1    5    5    0    0  0.22532861095E+02 -0.81444853309E+02  0.30651970096E+03  0.31795490409E+03  0.00000000000E+00 0. -1.
         13    1    3    3    0    0 -0.24926709740E+02 -0.10300424849E+03 -0.28558774379E+03  0.30461709648E+03  0.00000000000E+00 0. -1.
        -14    1    3    3    0    0 -0.28204426724E+01 -0.25909564333E+01  0.53353111733E+01  0.65676097192E+01  0.00000000000E+00 0.  1.
          5    1    4    4  501    0 -0.15048851183E+02  0.17992273592E+03  0.19309186615E+03  0.26438721602E+03  0.41800000000E+01 0. -1.
         -5    1    4    4    0  501  0.29489299850E+02  0.52980079517E+01  0.10004542871E+03  0.10451912695E+03  0.41800000000E+01 0. -1.
</event>
<event>
11    1  0.8037748E-009  0.1428168E+03  0.7561462E-02  0.1104453E+00
         22   -1    0    0    0    0  0.00000000000E+00  0.00000000000E+00  0.14611147829E+04  0.14611147829E+04  0.00000000000E+00 0.  1.
         22   -1    0    0    0    0 -0.00000000000E+00 -0.00000000000E+00 -0.16805730818E+03  0.16805730818E+03  0.00000000000E+00 0.  1.
        -24    2    1    2    0    0 -0.68232718038E+02  0.19664995366E+02 -0.10258283988E+03  0.14718440250E+03  0.78087088870E+02 0.  0.
         25    2    1    2    0    0  0.59340095206E+02 -0.26061307390E+01  0.73031312184E+02  0.15656494208E+03  0.12510383572E+03 0.  0.
         24    2    1    2    0    0  0.88926228319E+01 -0.17058864628E+02  0.13226090024E+04  0.13254227465E+04  0.84147490078E+02 0.  0.
        -11    1    5    5    0    0 -0.19033248459E+02 -0.17017382119E+02  0.11700724283E+04  0.11703509487E+04  0.00000000000E+00 0.  1.
         12    1    5    5    0    0  0.27925871291E+02 -0.41482508308E-01  0.15253657419E+03  0.15507179780E+03  0.00000000000E+00 0. -1.
         11    1    3    3    0    0 -0.52218764965E+01 -0.10366833337E+02  0.95968235115E+01  0.15061150324E+02  0.00000000000E+00 0. -1.
        -12    1    3    3    0    0 -0.63010841541E+02  0.30031828704E+02 -0.11217966339E+03  0.13212325218E+03  0.00000000000E+00 0.  1.
          5    1    4    4  501    0  0.75547234510E+02  0.17609153123E+02 -0.13423039827E+01  0.77696467717E+02  0.41800000000E+01 0.  1.
         -5    1    4    4    0  501 -0.16207139304E+02 -0.20215283862E+02  0.74373616167E+02  0.78868474360E+02  0.41800000000E+01 0.  1.
</event>
<event>
11    1  0.8037748E-009  0.1570592E+03  0.7561462E-02  0.1089876E+00
         22   -1    0    0    0    0  0.00000000000E+00  0.00000000000E+00  0.53409794323E+03  0.53409794323E+03  0.00000000000E+00 0.  1.
         22   -1    0    0    0    0 -0.00000000000E+00 -0.00000000000E+00 -0.62409004779E+03  0.62409004779E+03  0.00000000000E+00 0.  1.
        -24    2    1    2    0    0 -0.27493080163E+02 -0.11934238171E+02 -0.55330438427E+03  0.56012361239E+03  0.81819459820E+02 0.  0.
         25    2    1    2    0    0  0.10586974171E+03 -0.37505588221E+02  0.62592332722E+02  0.17938870587E+03  0.12508971309E+03 0.  0.
         24    2    1    2    0    0 -0.78376661543E+02  0.49439826393E+02  0.40071994699E+03  0.41867567277E+03  0.78266503335E+02 0.  0.
        -11    1    5    5    0    0 -0.87193253914E+01  0.36680542024E+02  0.24139371917E+03  0.24432031527E+03  0.00000000000E+00 0.  1.
         12    1    5    5    0    0 -0.69657336152E+02  0.12759284369E+02  0.15932622782E+03  0.17435535750E+03  0.00000000000E+00 0. -1.
         13    1    3    3    0    0  0.13379921074E+02  0.23833877435E+02 -0.10335781598E+03  0.10691077647E+03  0.00000000000E+00 0. -1.
        -14    1    3    3    0    0 -0.40873001237E+02 -0.35768115606E+02 -0.44994656829E+03  0.45321283592E+03  0.00000000000E+00 0.  1.
          5    1    4    4  501    0  0.14179354475E+02 -0.57204624410E+02  0.61814426531E+02  0.85509758944E+02  0.41800000000E+01 0. -1.
         -5    1    4    4    0  501  0.91690387231E+02  0.19699036189E+02  0.77790619157E+00  0.93878946923E+02  0.41800000000E+01 0. -1.
</event>
<event>
11    1  0.8037748E-009  0.1318247E+03  0.7561462E-02  0.1117047E+00
         22   -1    0    0    0    0  0.00000000000E+00  0.00000000000E+00  0.15685521138E+04  0.15685521138E+04  0.00000000000E+00 0.  1.
         22   -1    0    0    0    0 -0.00000000000E+00 -0.00000000000E+00 -0.12781395235E+04  0.12781395235E+04  0.00000000000E+00 0. -1.
        -24    2    1    2    0    0  0.32231966113E+02  0.27162405058E+02 -0.11454291295E+04  0.11489874450E+04  0.79922227050E+02 0.  0.
         25    2    1    2    0    0 -0.19023967304E+01 -0.55697176771E+02 -0.93303742257E+02  0.16570823333E+03  0.12509130930E+03 0.  0.
         24    2    1    2    0    0 -0.30329569383E+02  0.28534771713E+02  0.15291454620E+04  0.15319959589E+04  0.83616135993E+02 0.  0.
        -11    1    5    5    0    0 -0.20887096068E+02  0.37227927590E+02  0.14935049590E+04  0.14941148724E+04  0.00000000000E+00 0.  1.
         12    1    5    5    0    0 -0.94424733152E+01 -0.86931558768E+01  0.35640503034E+02  0.37881086546E+02  0.00000000000E+00 0. -1.
         13    1    3    3    0    0 -0.73083734621E+00  0.72108844429E+01 -0.93692644423E+03  0.93695447748E+03  0.00000000000E+00 0. -1.
        -14    1    3    3    0    0  0.32962803459E+02  0.19951520615E+02 -0.20850268523E+03  0.21203296756E+03  0.00000000000E+00 0.  1.
          5    1    4    4  501    0  0.19104807462E+02 -0.86384350381E+02 -0.92798245539E+02  0.12828186323E+03  0.41800000000E+01 0.  1.
         -5    1    4    4    0  501 -0.21007204193E+02  0.30687173610E+02 -0.50549671798E+00  0.37426370103E+02  0.41800000000E+01 0.  1.
</event>
<event>
11    1  0.8037748E-009  0.1287315E+03  0.7561462E-02  0.1120837E+00
         22   -1    0    0    0    0  0.00000000000E+00  0.00000000000E+00  0.25641236338E+03  0.25641236338E+03  0.00000000000E+00 0.  1.
         22   -1    0    0    0    0 -0.00000000000E+00 -0.00000000000E+00 -0.25994056209E+03  0.25994056209E+03  0.00000000000E+00 0.  1.
        -24    2    1    2    0    0  0.30919334169E+01 -0.28255994009E+02 -0.19333618377E+03  0.21181467997E+03  0.81722808615E+02 0.  0.
         25    2    1    2    0    0  0.30896647645E+00  0.52570605605E+02  0.56953375556E+02  0.14715572327E+03  0.12508939151E+03 0.  0.
         24    2    1    2    0    0 -0.34008998933E+01 -0.24314611596E+02  0.13285460951E+03  0.15738252223E+03  0.80722639822E+02 0.  0.
        -11    1    5    5    0    0 -0.66552990584E+01 -0.37829856457E+02  0.13746956351E+03  0.14273497097E+03  0.00000000000E+00 0.  1.
         12    1    5    5    0    0  0.32543991651E+01  0.13515244861E+02 -0.46149540046E+01  0.14647551265E+02  0.00000000000E+00 0. -1.
         11    1    3    3    0    0 -0.85538819037E+01  0.41511467310E+00  0.57645536706E+01  0.10323337388E+02  0.00000000000E+00 0. -1.
        -12    1    3    3    0    0  0.11645815321E+02 -0.28671108682E+02 -0.19910073744E+03  0.20149134258E+03  0.00000000000E+00 0.  1.
          5    1    4    4  501    0  0.51629389533E+02  0.28418985825E+02  0.67078711687E+02  0.89388246322E+02  0.41800000000E+01 0.  1.
         -5    1    4    4    0  501 -0.51320423056E+02  0.24151619780E+02 -0.10125336131E+02  0.57767476944E+02  0.41800000000E+01 0.  1.
</event>
<event>
11    1  0.8037748E-009  0.1467563E+03  0.7561462E-02  0.1100240E+00
         22   -1    0    0    0    0  0.00000000000E+00  0.00000000000E+00  0.14312959154E+04  0.14312959154E+04  0.00000000000E+00 0.  1.
         22   -1    0    0    0    0 -0.00000000000E+00 -0.00000000000E+00 -0.98180572043E+02  0.98180572043E+02  0.00000000000E+00 0.  1.
        -24    2    1    2    0    0 -0.60373658449E+02 -0.30316142094E+02 -0.33064866576E+02  0.11079978383E+03  0.81358832274E+02 0.  0.
         25    2    1    2    0    0  0.26014848877E+02 -0.44198906576E+02  0.17048928687E+03  0.21758737715E+03  0.12508938426E+03 0.  0.
         24    2    1    2    0    0  0.34358809572E+02  0.74515048670E+02  0.11956909230E+04  0.12010893264E+04  0.78776686693E+02 0.  0.
        -11    1    5    5    0    0  0.36776343706E+02  0.75835475445E+02  0.11953454777E+04  0.11983131185E+04  0.00000000000E+00 0.  1.
         12    1    5    5    0    0 -0.24175341336E+01 -0.13204267750E+01  0.34544531000E+00  0.27762079564E+01  0.00000000000E+00 0. -1.
         11    1    3    3    0    0 -0.24703035517E+02  0.27032488014E+02 -0.26066581086E+01  0.36712260057E+02  0.00000000000E+00 0. -1.
        -12    1    3    3    0    0 -0.35670622932E+02 -0.57348630108E+02 -0.30458208468E+02  0.74087523772E+02  0.00000000000E+00 0.  1.
          5    1    4    4  501    0 -0.35212334058E+02 -0.14979156212E+02  0.13604768073E+03  0.14138856893E+03  0.41800000000E+01 0.  1.
         -5    1    4    4    0  501  0.61227182935E+02 -0.29219750364E+02  0.34441606136E+02  0.76198808224E+02  0.41800000000E+01 0.  1.
</event>
<event>
11    1  0.8037748E-009  0.2027813E+03  0.7561462E-02  0.1052574E+00
         22   -1    0    0    0    0  0.00000000000E+00  0.00000000000E+00  0.14768270627E+04  0.14768270627E+04  0.00000000000E+00 0.  1.
         22   -1    0    0    0    0 -0.00000000000E+00 -0.00000000000E+00 -0.30926009114E+03  0.30926009114E+03  0.00000000000E+00 0. -1.
         24    2    1    2    0    0 -0.11960743456E+03  0.10244078788E+03 -0.25553850943E+03  0.31118438190E+03  0.82071531673E+02 0.  0.
         25    2    1    2    0    0  0.16876888793E+03 -0.17125784036E+03  0.10320227364E+04  0.10670195484E+04  0.12509037867E+03 0.  0.
        -24    2    1    2    0    0 -0.49161453369E+02  0.68817052486E+02  0.39108274458E+03  0.40788322351E+03  0.79185703898E+02 0.  0.
        -11    1    3    3    0    0 -0.17627075774E+02  0.31383323434E+02 -0.12317370653E+02  0.38043979943E+02  0.00000000000E+00 0.  1.
         12    1    3    3    0    0 -0.10198035879E+03  0.71057464445E+02 -0.24322113877E+03  0.27314040195E+03  0.00000000000E+00 0. -1.
         11    1    5    5    0    0  0.13423259514E+02  0.17330629368E+02  0.18728172466E+03  0.18856027949E+03  0.00000000000E+00 0. -1.
        -12    1    5    5    0    0 -0.62584712883E+02  0.51486423118E+02  0.20380101992E+03  0.21932294402E+03  0.00000000000E+00 0.  1.
          5    1    4    4  501    0  0.18780391654E+03 -0.15573128352E+03  0.96898829943E+03  0.99923888063E+03  0.41800000000E+01 0.  1.
         -5    1    4    4    0  501 -0.19035028602E+02 -0.15526556840E+02  0.63034436963E+02  0.67780667778E+02  0.41800000000E+01 0.  1.
</event>
<event>
11    1  0.8037748E-009  0.1744818E+03  0.7561462E-02  0.1074196E+00
         22   -1    0    0    0    0  0.00000000000E+00  0.00000000000E+00  0.14503081181E+04  0.14503081181E+04  0.00000000000E+00 0.  1.
         22   -1    0    0    0    0 -0.00000000000E+00 -0.00000000000E+00 -0.48450419239E+03  0.48450419239E+03  0.00000000000E+00 0.  1.
         24    2    1    2    0    0  0.73334573667E+02 -0.98456889682E+02 -0.45266543864E+03  0.47608322804E+03  0.81716105287E+02 0.  0.
         25    2    1    2    0    0 -0.92858332993E+02  0.38372412133E+02  0.34684442779E+03  0.38215648868E+03  0.12508961882E+03 0.  0.
        -24    2    1    2    0    0  0.19523759326E+02  0.60084477548E+02  0.10716249366E+04  0.10765725938E+04  0.81469155842E+02 0.  0.
        -11    1    3    3    0    0  0.89689851097E+02 -0.70638202026E+02 -0.37459416088E+03  0.39160542686E+03  0.00000000000E+00 0.  1.
         12    1    3    3    0    0 -0.16355277430E+02 -0.27818687656E+02 -0.78071277758E+02  0.84477801187E+02  0.00000000000E+00 0. -1.
         11    1    5    5    0    0 -0.31754580434E+01 -0.14463226282E+02  0.54781669684E+02  0.56747685253E+02  0.00000000000E+00 0. -1.
        -12    1    5    5    0    0  0.22699217370E+02  0.74547703830E+02  0.10168432669E+04  0.10198249085E+04  0.00000000000E+00 0.  1.
          5    1    4    4  501    0 -0.38612079366E+02  0.81097247644E+02  0.17112476590E+03  0.19331015015E+03  0.41800000000E+01 0.  1.
         -5    1    4    4    0  501 -0.54246253627E+02 -0.42724835510E+02  0.17571966189E+03  0.18884633853E+03  0.41800000000E+01 0.  1.
</event>
<event>
11    1  0.8037748E-009  0.1843925E+03  0.7561462E-02  0.1066144E+00
         22   -1    0    0    0    0  0.00000000000E+00  0.00000000000E+00  0.63947210238E+03  0.63947210238E+03  0.00000000000E+00 0. -1.
         22   -1    0    0    0    0 -0.00000000000E+00 -0.00000000000E+00 -0.24532411039E+03  0.24532411039E+03  0.00000000000E+00 0.  1.
         24    2    1    2    0    0  0.97655849379E+01 -0.84655435930E+01 -0.14550898629E+03  0.16429323601E+03  0.75182246774E+02 0.  0.
         25    2    1    2    0    0 -0.96532924505E+02  0.11033261659E+03  0.39387890724E+02  0.19669923703E+03  0.12508913668E+03 0.  0.
        -24    2    1    2    0    0  0.86767339567E+02 -0.10186707300E+03  0.50026908755E+03  0.52380373973E+03  0.78712934250E+02 0.  0.
        -11    1    3    3    0    0  0.21394513500E+02 -0.38062021461E+02 -0.95835144896E+02  0.10531295116E+03  0.00000000000E+00 0.  1.
         12    1    3    3    0    0 -0.11628928562E+02  0.29596477868E+02 -0.49673841395E+02  0.58980284847E+02  0.00000000000E+00 0. -1.
         13    1    5    5    0    0  0.51293326187E+02 -0.15604141491E+02  0.27164557478E+03  0.27688592027E+03  0.00000000000E+00 0. -1.
        -14    1    5    5    0    0  0.35474013380E+02 -0.86262931507E+02  0.22862351277E+03  0.24691781946E+03  0.00000000000E+00 0.  1.
          5    1    4    4  501    0 -0.85849642080E+02  0.55078132454E+01  0.28344748202E+02  0.90671904152E+02  0.41800000000E+01 0.  1.
         -5    1    4    4    0  501 -0.10683282425E+02  0.10482480335E+03  0.11043142522E+02  0.10602733288E+03  0.41800000000E+01 0.  1.
</event>
<event>
11    1  0.8037748E-009  0.1393744E+03  0.7561462E-02  0.1108259E+00
         22   -1    0    0    0    0  0.00000000000E+00  0.00000000000E+00  0.53701470822E+03  0.53701470822E+03  0.00000000000E+00 0.  1.
         22   -1    0    0    0    0 -0.00000000000E+00 -0.00000000000E+00 -0.18104336553E+04  0.18104336553E+04  0.00000000000E+00 0. -1.
         24    2    1    2    0    0 -0.60455002321E+01 -0.60663817080E+02 -0.17227195610E+04  0.17256810220E+04  0.80595639402E+02 0.  0.
         25    2    1    2    0    0  0.18137157811E+02  0.82069734667E+02 -0.13106957721E+02  0.15128432093E+03  0.12510297988E+03 0.  0.
        -24    2    1    2    0    0 -0.12091657579E+02 -0.21405917587E+02  0.46240757165E+03  0.47048302058E+03  0.83241148758E+02 0.  0.
        -13    1    3    3    0    0  0.34621134239E+02 -0.10071818761E+02 -0.58086384180E+03  0.58198184438E+03  0.00000000000E+00 0.  1.
         14    1    3    3    0    0 -0.40666634471E+02 -0.50591998320E+02 -0.11418557192E+04  0.11436991776E+04  0.00000000000E+00 0. -1.
         11    1    5    5    0    0 -0.39776757401E+02 -0.29255983224E+01  0.11985386437E+03  0.12631586741E+03  0.00000000000E+00 0. -1.
        -12    1    5    5    0    0  0.27685099822E+02 -0.18480319264E+02  0.34255370728E+03  0.34416715317E+03  0.00000000000E+00 0.  1.
          5    1    4    4  501    0 -0.26062490346E+02  0.67172292768E+02 -0.53180266209E+02  0.89649224385E+02  0.41800000000E+01 0. -1.
         -5    1    4    4    0  501  0.44199648158E+02  0.14897441899E+02  0.40073308488E+02  0.61635096541E+02  0.41800000000E+01 0. -1.
</event>
<event>
11    1  0.8037748E-009  0.1528134E+03  0.7561462E-02  0.1094038E+00
         22   -1    0    0    0    0  0.00000000000E+00  0.00000000000E+00  0.27173698478E+03  0.27173698478E+03  0.00000000000E+00 0. -1.
         22   -1    0    0    0    0 -0.00000000000E+00 -0.00000000000E+00 -0.46803865429E+03  0.46803865429E+03  0.00000000000E+00 0. -1.
         24    2    1    2    0    0 -0.38993476856E+02 -0.77692338759E+02 -0.39681939590E+03  0.41457161093E+03  0.82748999324E+02 0.  0.
         25    2    1    2    0    0  0.16074294484E+02  0.10679281382E+03  0.11794845200E+03  0.20303497696E+03  0.12509307140E+03 0.  0.
        -24    2    1    2    0    0  0.22919182372E+02 -0.29100475066E+02  0.82569274388E+02  0.12216905118E+03  0.82069881345E+02 0.  0.
        -11    1    3    3    0    0 -0.26566709708E+02 -0.86425812922E+02 -0.23110676295E+03  0.24816435499E+03  0.00000000000E+00 0.  1.
         12    1    3    3    0    0 -0.12426767148E+02  0.87334741628E+01 -0.16571263294E+03  0.16640725594E+03  0.00000000000E+00 0. -1.
         13    1    5    5    0    0  0.36533019168E+02 -0.46968651749E+02  0.79789363457E+02  0.99534206470E+02  0.00000000000E+00 0. -1.
        -14    1    5    5    0    0 -0.13613836797E+02  0.17868176684E+02  0.27799109305E+01  0.22634844711E+02  0.00000000000E+00 0.  1.
          5    1    4    4  501    0  0.67712903013E+02  0.40825438956E+02  0.73836376869E+02  0.10826373654E+03  0.41800000000E+01 0. -1.
         -5    1    4    4    0  501 -0.51638608529E+02  0.65967374869E+02  0.44112075129E+02  0.94771240417E+02  0.41800000000E+01 0. -1.
</event>
<event>
11    1  0.8037748E-009  0.2028350E+03  0.7561462E-02  0.1052537E+00
         22   -1    0    0    0    0  0.00000000000E+00  0.00000000000E+00  0.12357820376E+04  0.12357820376E+04  0.00000000000E+00 0.  1.
         22   -1    0    0    0    0 -0.00000000000E+00 -0.00000000000E+00 -0.10263662982E+04  0.10263662982E+04  0.00000000000E+00 0.  1.
         24    2    1    2    0    0  0.87975385592E+02 -0.12935364310E+03 -0.75951174341E+03  0.77943139254E+03  0.78633159937E+02 0.  0.
         25    2    1    2    0    0 -0.19573856664E+03  0.75394668145E+02 -0.19332698861E+03  0.31147936192E+03  0.12508447514E+03 0.  0.
        -24    2    1    2    0    0  0.10776318105E+03  0.53958974954E+02  0.11622544714E+04  0.11712375814E+04  0.80234291497E+02 0.  0.
        -11    1    3    3    0    0  0.84003530390E+02 -0.72247180610E+02 -0.38705717740E+03  0.40260341131E+03  0.00000000000E+00 0.  1.
         12    1    3    3    0    0  0.39718552021E+01 -0.57106462489E+02 -0.37245456601E+03  0.37682798122E+03  0.00000000000E+00 0. -1.
         13    1    5    5    0    0  0.48267610479E+02 -0.17728933284E+02  0.38424671179E+03  0.38767204286E+03  0.00000000000E+00 0. -1.
        -14    1    5    5    0    0  0.59495570570E+02  0.71687908238E+02  0.77800775963E+03  0.78356553852E+03  0.00000000000E+00 0.  1.
          5    1    4    4  501    0 -0.17922919989E+03  0.14389563888E+02 -0.15513956084E+03  0.23752035992E+03  0.41800000000E+01 0. -1.
         -5    1    4    4    0  501 -0.16509366751E+02  0.61005104258E+02 -0.38187427776E+02  0.73959001995E+02  0.41800000000E+01 0. -1.
</event>
<event>
11    1  0.8037748E-009  0.1324516E+03  0.7561462E-02  0.1116293E+00
         22   -1    0    0    0    0  0.00000000000E+00  0.00000000000E+00  0.36763201490E+03  0.36763201490E+03  0.00000000000E+00 0. -1.
         22   -1    0    0    0    0 -0.00000000000E+00 -0.00000000000E+00 -0.22508222431E+03  0.22508222431E+03  0.00000000000E+00 0.  1.
        -24    2    1    2    0    0 -0.22653001131E+02 -0.32673823362E+02 -0.13134772935E+03  0.15944695324E+03  0.81181079677E+02 0.  0.
         25    2    1    2    0    0  0.36121741966E+02 -0.10946297819E+02 -0.13373388605E+02  0.13135895557E+03  0.12510685836E+03 0.  0.
         24    2    1    2    0    0 -0.13468740835E+02  0.43620121180E+02  0.28727090855E+03  0.30190833039E+03  0.80869914739E+02 0.  0.
        -11    1    5    5    0    0  0.29307391201E+02  0.42191238592E+01  0.54960849136E+02  0.62429313010E+02  0.00000000000E+00 0.  1.
         12    1    5    5    0    0 -0.42776132036E+02  0.39400997321E+02  0.23231005941E+03  0.23947901738E+03  0.00000000000E+00 0. -1.
         13    1    3    3    0    0 -0.46687556847E+02 -0.42192806178E+02 -0.78447673712E+02  0.10056837658E+03  0.00000000000E+00 0. -1.
        -14    1    3    3    0    0  0.24034555716E+02  0.95189828160E+01 -0.52900055641E+02  0.58878576657E+02  0.00000000000E+00 0.  1.
          5    1    4    4  501    0 -0.49236526342E+01 -0.27282029360E+02  0.48021664577E+02  0.55606691594E+02  0.41800000000E+01 0. -1.
         -5    1    4    4    0  501  0.41045394600E+02  0.16335731541E+02 -0.61395053182E+02  0.75752263980E+02  0.41800000000E+01 0. -1.
</event>
<event>
11    1  0.8037748E-009  0.1508714E+03  0.7561462E-02  0.1095992E+00
         22   -1    0    0    0    0  0.00000000000E+00  0.00000000000E+00  0.33222766345E+04  0.33222766345E+04  0.00000000000E+00 0. -1.
         22   -1    0    0    0    0 -0.00000000000E+00 -0.00000000000E+00 -0.26498646947E+03  0.26498646947E+03  0.00000000000E+00 0. -1.
         24    2    1    2    0    0  0.72192835228E+02  0.18754214911E+02 -0.23048629889E+03  0.25543377324E+03  0.80987360131E+02 0.  0.
         25    2    1    2    0    0 -0.92940412049E+02  0.62938297109E+02  0.31706638594E+03  0.35885529174E+03  0.12508748093E+03 0.  0.
        -24    2    1    2    0    0  0.20747576821E+02 -0.81692512020E+02  0.29707100780E+04  0.29729740390E+04  0.79700316895E+02 0.  0.
        -13    1    3    3    0    0  0.29250108220E+02 -0.81524293825E+01 -0.18456623176E+03  0.18704738662E+03  0.00000000000E+00 0.  1.
         14    1    3    3    0    0  0.42942727008E+02  0.26906644294E+02 -0.45920067138E+02  0.68386386628E+02  0.00000000000E+00 0. -1.
         13    1    5    5    0    0  0.17750120698E+02 -0.96208757809E+02  0.22700133403E+04  0.22721205419E+04  0.00000000000E+00 0. -1.
        -14    1    5    5    0    0  0.29974561230E+01  0.14516245789E+02  0.70069673776E+03  0.70085349713E+03  0.00000000000E+00 0.  1.
          5    1    4    4  501    0 -0.46867236451E+02  0.47073640218E+01  0.17866371777E+02  0.50550734605E+02  0.41800000000E+01 0. -1.
         -5    1    4    4    0  501 -0.46073175598E+02  0.58230933087E+02  0.29920001416E+03  0.30830455714E+03  0.41800000000E+01 0. -1.
</event>
<event>
11    1  0.8037748E-009  0.1367450E+03  0.7561462E-02  0.1111249E+00
         22   -1    0    0    0    0  0.00000000000E+00  0.00000000000E+00  0.11437333527E+04  0.11437333527E+04  0.00000000000E+00 0. -1.
         22   -1    0    0    0    0 -0.00000000000E+00 -0.00000000000E+00 -0.25916008695E+03  0.25916008695E+03  0.00000000000E+00 0.  1.
        -24    2    1    2    0    0 -0.16405084684E+02  0.12130702044E+02 -0.21618960757E+03  0.23280405454E+03  0.83925566144E+02 0.  0.
         25    2    1    2    0    0  0.69597273596E+02 -0.10655734541E+01  0.12599680652E+03  0.19070178099E+03  0.12508820121E+03 0.  0.
         24    2    1    2    0    0 -0.53192188912E+02 -0.11065128590E+02  0.97476606685E+03  0.97938760416E+03  0.77970174152E+02 0.  0.
        -13    1    5    5    0    0 -0.27855411016E+02 -0.36924633408E+02  0.29001690743E+03  0.29368207142E+03  0.00000000000E+00 0.  1.
         14    1    5    5    0    0 -0.25336777895E+02  0.25859504818E+02  0.68474915942E+03  0.68570553274E+03  0.00000000000E+00 0. -1.
         11    1    3    3    0    0 -0.21020836905E+02 -0.17189249467E+01 -0.57528135382E+01  0.21861499280E+02  0.00000000000E+00 0. -1.
        -12    1    3    3    0    0  0.46157522212E+01  0.13849626991E+02 -0.21043679404E+03  0.21094255526E+03  0.00000000000E+00 0.  1.
          5    1    4    4  501    0  0.18925277359E+02 -0.16971907969E+02  0.13433156881E+03  0.13677958387E+03  0.41800000000E+01 0.  1.
         -5    1    4    4    0  501  0.50671996237E+02  0.15906334515E+02 -0.83347622936E+01  0.53922197125E+02  0.41800000000E+01 0.  1.
</event>
<event>
11    1  0.8037748E-009  0.3189981E+03  0.7561462E-02  0.9924567E-01
         22   -1    0    0    0    0  0.00000000000E+00  0.00000000000E+00  0.53007499752E+03  0.53007499752E+03  0.00000000000E+00 0. -1.
         22   -1    0    0    0    0 -0.00000000000E+00 -0.00000000000E+00 -0.92425919321E+03  0.92425919321E+03  0.00000000000E+00 0. -1.
        -24    2    1    2    0    0  0.17959518910E+03 -0.24218943444E+03 -0.43936913792E+03  0.53890111770E+03  0.80368035951E+02 0.  0.
         25    2    1    2    0    0 -0.21506710335E+03  0.19085056225E+03 -0.37259054906E+03  0.48698069059E+03  0.12509468296E+03 0.  0.
         24    2    1    2    0    0  0.35471914251E+02  0.51338872193E+02  0.41777549129E+03  0.42845238244E+03  0.71701787957E+02 0.  0.
        -11    1    5    5    0    0  0.12973730128E+02 -0.17847495235E+02  0.11053272354E+03  0.11271350289E+03  0.00000000000E+00 0.  1.
         12    1    5    5    0    0  0.22498184123E+02  0.69186367428E+02  0.30724276775E+03  0.31573887955E+03  0.00000000000E+00 0. -1.
         13    1    3    3    0    0  0.18644138340E+03 -0.21949259457E+03 -0.39880598820E+03  0.49191829072E+03  0.00000000000E+00 0. -1.
        -14    1    3    3    0    0 -0.68461943041E+01 -0.22696839869E+02 -0.40563149711E+02  0.46982826980E+02  0.00000000000E+00 0.  1.
          5    1    4    4  501    0 -0.70463370186E+02  0.66336942704E+02 -0.42718465715E+02  0.10586791874E+03  0.41800000000E+01 0.  1.
         -5    1    4    4    0  501 -0.14460373316E+03  0.12451361954E+03 -0.32987208335E+03  0.38111277185E+03  0.41800000000E+01 0.  1.
</event>
<event>
11    1  0.8037748E-009  0.2971221E+03  0.7561462E-02  0.1001417E+00
         22   -1    0    0    0    0  0.00000000000E+00  0.00000000000E+00  0.50125682181E+03  0.50125682181E+03  0.00000000000E+00 0. -1.
         22   -1    0    0    0    0 -0.00000000000E+00 -0.00000000000E+00 -0.50344771360E+03  0.50344771360E+03  0.00000000000E+00 0. -1.
        -24    2    1    2    0    0  0.24437153484E+03  0.66407860132E+02 -0.28658253480E+03  0.39106732273E+03  0.81710774864E+02 0.  0.
         25    2    1    2    0    0 -0.31490459766E+03 -0.14137830843E+03  0.87655836164E+02  0.37747055720E+03  0.12509094378E+03 0.  0.
         24    2    1    2    0    0  0.70533062827E+02  0.74970448302E+02  0.19673580685E+03  0.23616665548E+03  0.80462602442E+02 0.  0.
        -13    1    5    5    0    0  0.25842508530E+02  0.21969185976E+02  0.76482679358E+01  0.34770337675E+02  0.00000000000E+00 0.  1.
         14    1    5    5    0    0  0.44690554296E+02  0.53001262326E+02  0.18908753891E+03  0.20139631780E+03  0.00000000000E+00 0. -1.
         13    1    3    3    0    0  0.10628531857E+03 -0.11840610348E+01 -0.15913833613E+03  0.19137131700E+03  0.00000000000E+00 0. -1.
        -14    1    3    3    0    0  0.13808621626E+03  0.67591921167E+02 -0.12744419867E+03  0.19969600573E+03  0.00000000000E+00 0.  1.
          5    1    4    4  501    0 -0.11639110512E+03 -0.13610674213E+02  0.78635233041E+02  0.14118467367E+03  0.41800000000E+01 0. -1.
         -5    1    4    4    0  501 -0.19851349254E+03 -0.12776763422E+03  0.90206031235E+01  0.23628588353E+03  0.41800000000E+01 0. -1.
</event>
<event>
11    1  0.8037748E-009  0.1424349E+03  0.7561462E-02  0.1104869E+00
         22   -1    0    0    0    0  0.00000000000E+00  0.00000000000E+00  0.24726672273E+04  0.24726672273E+04  0.00000000000E+00 0. -1.
         22   -1    0    0    0    0 -0.00000000000E+00 -0.00000000000E+00 -0.13838768091E+03  0.13838768091E+03  0.00000000000E+00 0.  1.
         24    2    1    2    0    0 -0.37149886784E+02 -0.56547452741E+02 -0.10366017396E+03  0.14716153228E+03  0.79582387607E+02 0.  0.
         25    2    1    2    0    0  0.32412858714E+02  0.71551749906E+02  0.43737989615E+03  0.46164791928E+03  0.12508949394E+03 0.  0.
        -24    2    1    2    0    0  0.47370280701E+01 -0.15004297164E+02  0.20005598242E+04  0.20022454567E+04  0.80620655899E+02 0.  0.
        -13    1    3    3    0    0 -0.41072603712E+02  0.58454565469E+01 -0.34731497830E+02  0.54105499531E+02  0.00000000000E+00 0.  1.
         14    1    3    3    0    0  0.39227169280E+01 -0.62392909288E+02 -0.68928676128E+02  0.93056032745E+02  0.00000000000E+00 0. -1.
         13    1    5    5    0    0 -0.28021074593E+02 -0.27392762702E+02  0.14747732314E+04  0.14752937430E+04  0.00000000000E+00 0. -1.
        -14    1    5    5    0    0  0.32758102664E+02  0.12388465538E+02  0.52578659281E+03  0.52695171368E+03  0.00000000000E+00 0.  1.
          5    1    4    4  501    0 -0.47095100599E+02  0.22709017323E+02  0.12381291029E+03  0.13446470586E+03  0.41800000000E+01 0. -1.
         -5    1    4    4    0  501  0.79507959313E+02  0.48842732583E+02  0.31356698586E+03  0.32718321342E+03  0.41800000000E+01 0. -1.
</event>
<event>
11    1  0.8037748E-009  0.1956423E+03  0.7561462E-02  0.1057649E+00
         22   -1    0    0    0    0  0.00000000000E+00  0.00000000000E+00  0.16188615014E+03  0.16188615014E+03  0.00000000000E+00 0. -1.
         22   -1    0    0    0    0 -0.00000000000E+00 -0.00000000000E+00 -0.45712006075E+03  0.45712006075E+03  0.00000000000E+00 0.  1.
        -24    2    1    2    0    0  0.32208934863E+02 -0.10780835793E+03 -0.16257327480E+03  0.21373734237E+03  0.81200519212E+02 0.  0.
         25    2    1    2    0    0 -0.36843065577E+02 -0.89888437390E+02 -0.10561815866E+03  0.19036756082E+03  0.12508904875E+03 0.  0.
         24    2    1    2    0    0  0.46341307141E+01  0.19769679532E+03 -0.27042477150E+02  0.21490130770E+03  0.79660394377E+02 0.  0.
        -11    1    5    5    0    0  0.14346123918E+02  0.14872343953E+03 -0.53118227309E+02  0.15857496274E+03  0.00000000000E+00 0.  1.
         12    1    5    5    0    0 -0.97119932042E+01  0.48973355792E+02  0.26075750159E+02  0.56326344954E+02  0.00000000000E+00 0. -1.
         13    1    3    3    0    0  0.43023025354E+02 -0.10959626917E+03 -0.11379438368E+03  0.16374212862E+03  0.00000000000E+00 0. -1.
        -14    1    3    3    0    0 -0.10814090492E+02  0.17879112377E+01 -0.48778891116E+02  0.49995213754E+02  0.00000000000E+00 0.  1.
          5    1    4    4  501    0  0.20743058168E+01 -0.31025629014E+02  0.26145050569E+02  0.40840279989E+02  0.41800000000E+01 0. -1.
         -5    1    4    4    0  501 -0.38917371394E+02 -0.58862808377E+02 -0.13176320923E+03  0.14952728083E+03  0.41800000000E+01 0. -1.
</event>
<event>
11    1  0.8037748E-009  0.1788171E+03  0.7561462E-02  0.1070604E+00
         22   -1    0    0    0    0  0.00000000000E+00  0.00000000000E+00  0.19147451568E+03  0.19147451568E+03  0.00000000000E+00 0. -1.
         22   -1    0    0    0    0 -0.00000000000E+00 -0.00000000000E+00 -0.73700013476E+03  0.73700013476E+03  0.00000000000E+00 0.  1.
         24    2    1    2    0    0  0.38120211609E+02  0.12973393241E+03 -0.54715145560E+03  0.56934388139E+03  0.80583473196E+02 0.  0.
         25    2    1    2    0    0 -0.10207537940E+03 -0.63399270632E+02 -0.99761650224E+02  0.20009618267E+03  0.12508894782E+03 0.  0.
        -24    2    1    2    0    0  0.63955167791E+02 -0.66334661774E+02  0.10138748675E+03  0.15903458639E+03  0.80759063636E+02 0.  0.
        -13    1    3    3    0    0  0.33574629991E+02  0.79967709607E+02 -0.46628353210E+03  0.47428095330E+03  0.00000000000E+00 0.  1.
         14    1    3    3    0    0  0.45455816182E+01  0.49766222799E+02 -0.80867923503E+02  0.95062928083E+02  0.00000000000E+00 0. -1.
         11    1    5    5    0    0  0.41013758706E+02  0.84222177179E+01  0.51101215129E+02  0.66063578030E+02  0.00000000000E+00 0. -1.
        -12    1    5    5    0    0  0.22941409085E+02 -0.74756879491E+02  0.50286271622E+02  0.92971008361E+02  0.00000000000E+00 0.  1.
          5    1    4    4  501    0 -0.72526248095E+02 -0.82865479636E+02 -0.19003833003E+02  0.11182737789E+03  0.41800000000E+01 0.  1.
         -5    1    4    4    0  501 -0.29549131305E+02  0.19466209004E+02 -0.80757817221E+02  0.88268804774E+02  0.41800000000E+01 0.  1.
</event>
<event>
11    1  0.8037748E-009  0.1444191E+03  0.7561462E-02  0.1102722E+00
         22   -1    0    0    0    0  0.00000000000E+00  0.00000000000E+00  0.72011166395E+02  0.72011166395E+02  0.00000000000E+00 0.  1.
         22   -1    0    0    0    0 -0.00000000000E+00 -0.00000000000E+00 -0.11657178819E+04  0.11657178819E+04  0.00000000000E+00 0. -1.
        -24    2    1    2    0    0 -0.36657926858E+02 -0.88205781350E+01 -0.70072910338E+03  0.70677359267E+03  0.84178552900E+02 0.  0.
         25    2    1    2    0    0 -0.47836531854E+01  0.69649576943E+02 -0.39660739008E+03  0.42168326749E+03  0.12508161061E+03 0.  0.
         24    2    1    2    0    0  0.41441580043E+02 -0.60828998808E+02  0.36297779003E+01  0.10927218819E+03  0.80682489867E+02 0.  0.
        -13    1    5    5    0    0  0.24628596060E+02 -0.54982581288E+01  0.35258908235E+02  0.43358842192E+02  0.00000000000E+00 0.  1.
         14    1    5    5    0    0  0.16812983983E+02 -0.55330740679E+02 -0.31629130334E+02  0.65913345995E+02  0.00000000000E+00 0. -1.
         13    1    3    3    0    0 -0.17773149603E+02 -0.46664799317E+02 -0.37487617600E+03  0.37818730237E+03  0.00000000000E+00 0. -1.
        -14    1    3    3    0    0 -0.18884777255E+02  0.37844221182E+02 -0.32585292738E+03  0.32858629030E+03  0.00000000000E+00 0.  1.
          5    1    4    4  501    0  0.31424084210E+01  0.35835651934E+02 -0.38210134907E+03  0.38381373353E+03  0.41800000000E+01 0.  1.
         -5    1    4    4    0  501 -0.79260616064E+01  0.33813925009E+02 -0.14506041004E+02  0.37869533965E+02  0.41800000000E+01 0.  1.
</event>
<event>
11    1  0.8037748E-009  0.2358861E+03  0.7561462E-02  0.1031699E+00
         22   -1    0    0    0    0  0.00000000000E+00  0.00000000000E+00  0.12392687316E+04  0.12392687316E+04  0.00000000000E+00 0.  1.
         22   -1    0    0    0    0 -0.00000000000E+00 -0.00000000000E+00 -0.37998981331E+03  0.37998981331E+03  0.00000000000E+00 0. -1.
        -24    2    1    2    0    0  0.42997099514E+01 -0.46739557946E+01 -0.33002388793E+03  0.34157068026E+03  0.87831825883E+02 0.  0.
         25    2    1    2    0    0 -0.19828602924E+03  0.45088025067E+02  0.47095198424E+03  0.52800953455E+03  0.12509203702E+03 0.  0.
         24    2    1    2    0    0  0.19398631929E+03 -0.40414069272E+02  0.71835082204E+03  0.74967833015E+03  0.82010402429E+02 0.  0.
        -11    1    5    5    0    0  0.16582250675E+03 -0.39428653382E+02  0.68561196251E+03  0.70648105819E+03  0.00000000000E+00 0.  1.
         12    1    5    5    0    0  0.28163812536E+02 -0.98541589006E+00  0.32738859531E+02  0.43197271956E+02  0.00000000000E+00 0. -1.
         11    1    3    3    0    0 -0.66370499473E+01 -0.35109473464E+02 -0.27818762713E+03  0.28047296028E+03  0.00000000000E+00 0. -1.
        -12    1    3    3    0    0  0.10936759899E+02  0.30435517669E+02 -0.51836260803E+02  0.61097719981E+02  0.00000000000E+00 0.  1.
          5    1    4    4  501    0 -0.15560054820E+03  0.69422732011E+02  0.43436608963E+03  0.46660734943E+03  0.41800000000E+01 0. -1.
         -5    1    4    4    0  501 -0.42685481042E+02 -0.24334706945E+02  0.36585894604E+02  0.61402185123E+02  0.41800000000E+01 0. -1.
</event>
<event>
11    1  0.8037748E-009  0.1439499E+03  0.7561462E-02  0.1103226E+00
         22   -1    0    0    0    0  0.00000000000E+00  0.00000000000E+00  0.12331851124E+04  0.12331851124E+04  0.00000000000E+00 0. -1.
         22   -1    0    0    0    0 -0.00000000000E+00 -0.00000000000E+00 -0.34218959225E+03  0.34218959225E+03  0.00000000000E+00 0. -1.
        -24    2    1    2    0    0  0.24946598538E+01  0.36737749446E+02 -0.26559857591E+03  0.28012505034E+03  0.81065126519E+02 0.  0.
         25    2    1    2    0    0 -0.49010429602E+02 -0.89320507098E+02  0.30429920067E+02  0.16417130428E+03  0.12508421930E+03 0.  0.
         24    2    1    2    0    0  0.46515769748E+02  0.52582757652E+02  0.11261641760E+04  0.11310783500E+04  0.78509995433E+02 0.  0.
        -11    1    5    5    0    0  0.25890838663E+01 -0.12365301275E+02  0.37035335028E+02  0.39130807192E+02  0.00000000000E+00 0.  1.
         12    1    5    5    0    0  0.43926685882E+02  0.64948058928E+02  0.10891288409E+04  0.10919475428E+04  0.00000000000E+00 0. -1.
         13    1    3    3    0    0 -0.24375856381E+02  0.48326933566E+02 -0.21466373172E+03  0.22138245775E+03  0.00000000000E+00 0. -1.
        -14    1    3    3    0    0  0.26870516235E+02 -0.11589184120E+02 -0.50934844192E+02  0.58742592590E+02  0.00000000000E+00 0.  1.
          5    1    4    4  501    0 -0.47364082745E+02  0.17511130978E+02 -0.64161905912E+01  0.51074807333E+02  0.41800000000E+01 0. -1.
         -5    1    4    4    0  501 -0.16463468566E+01 -0.10683163808E+03  0.36846110659E+02  0.11309649695E+03  0.41800000000E+01 0. -1.
</event>
<event>
11    1  0.8037748E-009  0.1305251E+03  0.7561462E-02  0.1118625E+00
         22   -1    0    0    0    0  0.00000000000E+00  0.00000000000E+00  0.86146529953E+03  0.86146529953E+03  0.00000000000E+00 0. -1.
         22   -1    0    0    0    0 -0.00000000000E+00 -0.00000000000E+00 -0.18773700213E+03  0.18773700213E+03  0.00000000000E+00 0. -1.
         24    2    1    2    0    0 -0.50301063442E+01 -0.37226675521E+02 -0.12479900706E+03  0.15341999928E+03  0.80943045885E+02 0.  0.
         25    2    1    2    0    0  0.52864736892E+01  0.35513297925E+02  0.44756492913E+02  0.13760402442E+03  0.12507031120E+03 0.  0.
        -24    2    1    2    0    0 -0.25636734504E+00  0.17133775956E+01  0.75377081155E+03  0.75817827796E+03  0.81614112949E+02 0.  0.
        -13    1    3    3    0    0  0.20770431547E+01 -0.10576694088E+01  0.11752234330E+02  0.11981142875E+02  0.00000000000E+00 0.  1.
         14    1    3    3    0    0 -0.71071494988E+01 -0.36169006112E+02 -0.13655124139E+03  0.14143885641E+03  0.00000000000E+00 0. -1.
         11    1    5    5    0    0  0.35784661900E+02  0.18849267414E+02  0.44619001510E+03  0.44801938181E+03  0.00000000000E+00 0. -1.
        -12    1    5    5    0    0 -0.36041029245E+02 -0.17135889819E+02  0.30758079646E+03  0.31015889615E+03  0.00000000000E+00 0.  1.
          5    1    4    4  501    0 -0.35526238859E+02  0.41822593084E+02  0.69983827591E+02  0.89030620935E+02  0.41800000000E+01 0.  1.
         -5    1    4    4    0  501  0.40812712548E+02 -0.63092951593E+01 -0.25227334677E+02  0.48573403482E+02  0.41800000000E+01 0.  1.
</event>
<event>
11    1  0.8037748E-009  0.2496799E+03  0.7561462E-02  0.1024070E+00
         22   -1    0    0    0    0  0.00000000000E+00  0.00000000000E+00  0.37120710918E+03  0.37120710918E+03  0.00000000000E+00 0.  1.
         22   -1    0    0    0    0 -0.00000000000E+00 -0.00000000000E+00 -0.13243413927E+04  0.13243413927E+04  0.00000000000E+00 0.  1.
         24    2    1    2    0    0 -0.13734239013E+03  0.17232273525E+03 -0.12061319851E+04  0.12288864096E+04  0.82761012153E+02 0.  0.
         25    2    1    2    0    0  0.85799390451E+02 -0.15091052046E+03  0.21251975933E+02  0.21502800197E+03  0.12509945868E+03 0.  0.
        -24    2    1    2    0    0  0.51542999677E+02 -0.21412214792E+02  0.23174572563E+03  0.25163409027E+03  0.80613089989E+02 0.  0.
        -11    1    3    3    0    0 -0.87393706690E+02  0.45840167823E+02 -0.55499513190E+03  0.56370078711E+03  0.00000000000E+00 0.  1.
         12    1    3    3    0    0 -0.49948683438E+02  0.12648256743E+03 -0.65113685319E+03  0.66518562253E+03  0.00000000000E+00 0. -1.
         13    1    5    5    0    0  0.10393071222E+02 -0.79516244009E+01 -0.25835748239E+01  0.13338632572E+02  0.00000000000E+00 0. -1.
        -14    1    5    5    0    0  0.41149928455E+02 -0.13460590391E+02  0.23432930046E+03  0.23829545769E+03  0.00000000000E+00 0.  1.
          5    1    4    4  501    0  0.45899124237E+00 -0.81418246595E+02 -0.38020594845E+02  0.89956542752E+02  0.41800000000E+01 0. -1.
         -5    1    4    4    0  501  0.85340399208E+02 -0.69492273865E+02  0.59272570778E+02  0.12507145922E+03  0.41800000000E+01 0. -1.
</event>
<event>
11    1  0.8037748E-009  0.2610877E+03  0.7561462E-02  0.1018153E+00
         22   -1    0    0    0    0  0.00000000000E+00  0.00000000000E+00  0.77404957506E+03  0.77404957506E+03  0.00000000000E+00 0. -1.
         22   -1    0    0    0    0 -0.00000000000E+00 -0.00000000000E+00 -0.29242253726E+03  0.29242253726E+03  0.00000000000E+00 0.  1.
         24    2    1    2    0    0 -0.21102674214E+03  0.53855980059E+02 -0.14065334195E+03  0.27175428273E+03  0.81451059501E+02 0.  0.
         25    2    1    2    0    0  0.31840075455E+03  0.10774267368E+02  0.38983215361E+03  0.51876003363E+03  0.12509092363E+03 0.  0.
        -24    2    1    2    0    0 -0.10737401240E+03 -0.64630247427E+02  0.23244822615E+03  0.27595779596E+03  0.80089199603E+02 0.  0.
        -13    1    3    3    0    0 -0.11335562772E+03 -0.11643664554E+02 -0.56826468183E+02  0.12733546539E+03  0.00000000000E+00 0.  1.
         14    1    3    3    0    0 -0.97671114427E+02  0.65499644613E+02 -0.83826873767E+02  0.14441881734E+03  0.00000000000E+00 0. -1.
         11    1    5    5    0    0 -0.98645342981E+02 -0.39116211595E+02  0.22372461883E+03  0.24761600670E+03  0.00000000000E+00 0. -1.
        -12    1    5    5    0    0 -0.87286694232E+01 -0.25514035832E+02  0.87236073150E+01  0.28341789268E+02  0.00000000000E+00 0.  1.
          5    1    4    4  501    0  0.21304180840E+03 -0.15835067946E+02  0.33404902538E+03  0.39653976504E+03  0.41800000000E+01 0. -1.
         -5    1    4    4    0  501  0.10535894615E+03  0.26609335314E+02  0.55783128230E+02  0.12222026859E+03  0.41800000000E+01 0. -1.
</event>
<event>
11    1  0.8037748E-009  0.1328747E+03  0.7561462E-02  0.1115787E+00
         22   -1    0    0    0    0  0.00000000000E+00  0.00000000000E+00  0.55453633294E+02  0.55453633294E+02  0.00000000000E+00 0.  1.
         22   -1    0    0    0    0 -0.00000000000E+00 -0.00000000000E+00 -0.21916261174E+04  0.21916261174E+04  0.00000000000E+00 0. -1.
        -24    2    1    2    0    0 -0.37887948799E+02  0.64673014183E+01 -0.15813908292E+04  0.15838786354E+04  0.79982838178E+02 0.  0.
         25    2    1    2    0    0 -0.77516603376E+01 -0.22030450968E+02 -0.53940345032E+03  0.55421041693E+03  0.12509066714E+03 0.  0.
         24    2    1    2    0    0  0.45639609136E+02  0.15563149550E+02 -0.15378204641E+02  0.10899069840E+03  0.96526149900E+02 0.  0.
        -11    1    5    5    0    0  0.73048930511E+02  0.22448522216E+02  0.80411460999E+00  0.76424662242E+02  0.00000000000E+00 0.  1.
         12    1    5    5    0    0 -0.27409321375E+02 -0.68853726664E+01 -0.16182319251E+02  0.32566036162E+02  0.00000000000E+00 0. -1.
         13    1    3    3    0    0  0.70005659792E+01  0.12868264076E+02 -0.11533305449E+04  0.11534235761E+04  0.00000000000E+00 0. -1.
        -14    1    3    3    0    0 -0.44888514778E+02 -0.64009626574E+01 -0.42806028424E+03  0.43045505925E+03  0.00000000000E+00 0.  1.
          5    1    4    4  501    0 -0.30662064835E+02 -0.46273979458E+02 -0.49695254493E+03  0.50006074402E+03  0.41800000000E+01 0.  1.
         -5    1    4    4    0  501  0.22910404497E+02  0.24243528490E+02 -0.42450905394E+02  0.54149672914E+02  0.41800000000E+01 0.  1.
</event>
<event>
11    1  0.8037748E-009  0.1787982E+03  0.7561462E-02  0.1070619E+00
         22   -1    0    0    0    0  0.00000000000E+00  0.00000000000E+00  0.92266060557E+03  0.92266060557E+03  0.00000000000E+00 0.  1.
         22   -1    0    0    0    0 -0.00000000000E+00 -0.00000000000E+00 -0.64913030558E+03  0.64913030558E+03  0.00000000000E+00 0. -1.
         24    2    1    2    0    0 -0.10497137671E+03  0.74474674431E+02 -0.38353014620E+03  0.41236045688E+03  0.79876819499E+02 0.  0.
         25    2    1    2    0    0  0.71394712929E+02 -0.11132927674E+03 -0.21538618235E+03  0.28201116219E+03  0.12509066774E+03 0.  0.
        -24    2    1    2    0    0  0.33576663781E+02  0.36854602308E+02  0.87244662854E+03  0.87741929208E+03  0.78840601214E+02 0.  0.
        -11    1    3    3    0    0 -0.10862581928E+02  0.31626939726E+01 -0.26228705480E+00  0.11316674149E+02  0.00000000000E+00 0.  1.
         12    1    3    3    0    0 -0.94108794782E+02  0.71311980459E+02 -0.38326785915E+03  0.40104378273E+03  0.00000000000E+00 0. -1.
         13    1    5    5    0    0 -0.10480409925E+02 -0.78242882610E+01  0.31128716330E+02  0.33764707305E+02  0.00000000000E+00 0. -1.
        -14    1    5    5    0    0  0.44057073706E+02  0.44678890569E+02  0.84131791221E+03  0.84365458477E+03  0.00000000000E+00 0.  1.
          5    1    4    4  501    0  0.54502271954E+01 -0.10502066769E+03 -0.83435534251E+02  0.13430564543E+03  0.41800000000E+01 0.  1.
         -5    1    4    4    0  501  0.65944485734E+02 -0.63086090527E+01 -0.13195064810E+03  0.14770551676E+03  0.41800000000E+01 0.  1.
</event>
<event>
11    1  0.8037748E-009  0.1403577E+03  0.7561462E-02  0.1107160E+00
         22   -1    0    0    0    0  0.00000000000E+00  0.00000000000E+00  0.23631187590E+03  0.23631187590E+03  0.00000000000E+00 0. -1.
         22   -1    0    0    0    0 -0.00000000000E+00 -0.00000000000E+00 -0.66550500010E+03  0.66550500010E+03  0.00000000000E+00 0.  1.
        -24    2    1    2    0    0 -0.30954862418E+02  0.55956672662E+02 -0.31107123059E+03  0.32739004937E+03  0.79558665153E+02 0.  0.
         25    2    1    2    0    0 -0.33137422025E+02 -0.44577497799E+02 -0.31962573716E+03  0.34769860322E+03  0.12509382391E+03 0.  0.
         24    2    1    2    0    0  0.64092284443E+02 -0.11379174863E+02  0.20150384355E+03  0.22672822341E+03  0.81022106734E+02 0.  0.
        -13    1    5    5    0    0  0.38847591360E+02  0.16849530224E+01  0.21377902393E+02  0.44373293002E+02  0.00000000000E+00 0.  1.
         14    1    5    5    0    0  0.25244693083E+02 -0.13064127886E+02  0.18012594116E+03  0.18235493041E+03  0.00000000000E+00 0. -1.
         11    1    3    3    0    0 -0.41434672821E+02  0.16629693916E+02 -0.70841308908E+02  0.83736908705E+02  0.00000000000E+00 0. -1.
        -12    1    3    3    0    0  0.10479810403E+02  0.39326978746E+02 -0.24022992168E+03  0.24365314066E+03  0.00000000000E+00 0.  1.
          5    1    4    4  501    0 -0.17876085977E+02  0.38052116510E+02 -0.51110629004E+02  0.66312041274E+02  0.41800000000E+01 0. -1.
         -5    1    4    4    0  501 -0.15261336048E+02 -0.82629614309E+02 -0.26851510815E+03  0.28138656195E+03  0.41800000000E+01 0. -1.
</event>
<event>
11    1  0.8037748E-009  0.2119050E+03  0.7561462E-02  0.1046410E+00
         22   -1    0    0    0    0  0.00000000000E+00  0.00000000000E+00  0.17488744737E+03  0.17488744737E+03  0.00000000000E+00 0. -1.
         22   -1    0    0    0    0 -0.00000000000E+00 -0.00000000000E+00 -0.12168657391E+04  0.12168657391E+04  0.00000000000E+00 0. -1.
        -24    2    1    2    0    0 -0.40823268080E+02  0.13888017683E+02 -0.95403159694E+03  0.95854117544E+03  0.82252542770E+02 0.  0.
         25    2    1    2    0    0  0.19502690386E+03  0.24360852585E+02 -0.96531894580E+02  0.25217284827E+03  0.12507515486E+03 0.  0.
         24    2    1    2    0    0 -0.15420363578E+03 -0.38248870268E+02  0.85851998185E+01  0.18103916274E+03  0.86369759888E+02 0.  0.
        -11    1    5    5    0    0 -0.54589828492E+02 -0.54620691778E+02  0.19077680291E+02  0.79545127006E+02  0.00000000000E+00 0.  1.
         12    1    5    5    0    0 -0.99613807292E+02  0.16371821510E+02 -0.10492480472E+02  0.10149403573E+03  0.00000000000E+00 0. -1.
         13    1    3    3    0    0 -0.57405424199E+02 -0.14970013983E+02 -0.57585959595E+03  0.57890738317E+03  0.00000000000E+00 0. -1.
        -14    1    3    3    0    0  0.16582156119E+02  0.28858031666E+02 -0.37817200100E+03  0.37963379227E+03  0.00000000000E+00 0.  1.
          5    1    4    4  501    0  0.11879220596E+02  0.13321693494E+02 -0.62992472595E+02  0.65605696423E+02  0.41800000000E+01 0.  1.
         -5    1    4    4    0  501  0.18314768327E+03  0.11039159091E+02 -0.33539421985E+02  0.18656715184E+03  0.41800000000E+01 0.  1.
</event>
<event>
11    1  0.8037748E-009  0.1324837E+03  0.7561462E-02  0.1116254E+00
         22   -1    0    0    0    0  0.00000000000E+00  0.00000000000E+00  0.17880621851E+04  0.17880621851E+04  0.00000000000E+00 0. -1.
         22   -1    0    0    0    0 -0.00000000000E+00 -0.00000000000E+00 -0.75609761666E+03  0.75609761666E+03  0.00000000000E+00 0.  1.
        -24    2    1    2    0    0  0.18778645915E+02  0.45866845809E+01 -0.43966589686E+03  0.44736030325E+03  0.80321011216E+02 0.  0.
         25    2    1    2    0    0 -0.14150340209E+02  0.38831893682E+02 -0.29748121261E+03  0.32534703568E+03  0.12508986240E+03 0.  0.
         24    2    1    2    0    0 -0.46283057058E+01 -0.43418578263E+02  0.17691116779E+04  0.17714524628E+04  0.79881818934E+02 0.  0.
        -13    1    5    5    0    0  0.40908001413E+01 -0.50022254894E+02  0.54841724786E+03  0.55070903242E+03  0.00000000000E+00 0.  1.
         14    1    5    5    0    0 -0.87191058471E+01  0.66036766312E+01  0.12206944300E+04  0.12207434304E+04  0.00000000000E+00 0. -1.
         11    1    3    3    0    0  0.37184477080E+02  0.28987449127E+02 -0.18698596785E+03  0.19283855868E+03  0.00000000000E+00 0. -1.
        -12    1    3    3    0    0 -0.18405831165E+02 -0.24400764547E+02 -0.25267992901E+03  0.25452174456E+03  0.00000000000E+00 0.  1.
          5    1    4    4  501    0  0.27351467164E+02 -0.35042302414E+02 -0.75603022910E+02  0.87802933821E+02  0.41800000000E+01 0.  1.
         -5    1    4    4    0  501 -0.41501807373E+02  0.73874196096E+02 -0.22187818970E+03  0.23754410186E+03  0.41800000000E+01 0.  1.
</event>
<event>
11    1  0.8037748E-009  0.1278490E+03  0.7561462E-02  0.1121940E+00
         22   -1    0    0    0    0  0.00000000000E+00  0.00000000000E+00  0.12786225263E+03  0.12786225263E+03  0.00000000000E+00 0. -1.
         22   -1    0    0    0    0 -0.00000000000E+00 -0.00000000000E+00 -0.15667111687E+04  0.15667111687E+04  0.00000000000E+00 0.  1.
        -24    2    1    2    0    0 -0.57895875713E+01  0.37568015977E+02 -0.12232961323E+04  0.12274144023E+04  0.92993614944E+02 0.  0.
         25    2    1    2    0    0 -0.46456906461E+01 -0.59250888827E+02 -0.30138092083E+03  0.33168011858E+03  0.12509592861E+03 0.  0.
         24    2    1    2    0    0  0.10435278217E+02  0.21682872850E+02  0.85828137075E+02  0.13547890048E+03  0.10202461151E+03 0.  0.
        -11    1    5    5    0    0 -0.36254099101E+02 -0.19981392169E+02  0.25873543663E+02  0.48816554531E+02  0.00000000000E+00 0.  1.
         12    1    5    5    0    0  0.46689377318E+02  0.41664265018E+02  0.59954593412E+02  0.86662345947E+02  0.00000000000E+00 0. -1.
         13    1    3    3    0    0  0.12228101091E+02  0.35643485815E+02 -0.17724975156E+03  0.18121108952E+03  0.00000000000E+00 0. -1.
        -14    1    3    3    0    0 -0.18017688662E+02  0.19245301617E+01 -0.10460463808E+04  0.10462033128E+04  0.00000000000E+00 0.  1.
          5    1    4    4  501    0 -0.25784599294E+02  0.26960661908E+02 -0.16267212053E+03  0.16694733915E+03  0.41800000000E+01 0.  1.
         -5    1    4    4    0  501  0.21138908648E+02 -0.86211550735E+02 -0.13870880029E+03  0.16473277943E+03  0.41800000000E+01 0.  1.
</event>
<event>
11    1  0.8037748E-009  0.1374452E+03  0.7561462E-02  0.1110445E+00
         22   -1    0    0    0    0  0.00000000000E+00  0.00000000000E+00  0.18947940274E+04  0.18947940274E+04  0.00000000000E+00 0. -1.
         22   -1    0    0    0    0 -0.00000000000E+00 -0.00000000000E+00 -0.17210126537E+03  0.17210126537E+03  0.00000000000E+00 0. -1.
         24    2    1    2    0    0  0.33384882093E+02 -0.83646230247E+01 -0.13935835722E+03  0.16467386363E+03  0.80698279816E+02 0.  0.
         25    2    1    2    0    0 -0.60360948166E+02 -0.40956063676E+02  0.26414455920E+03  0.30123468011E+03  0.12509652725E+03 0.  0.
        -24    2    1    2    0    0  0.26976066073E+02  0.49320686701E+02  0.15979065601E+04  0.16009867490E+04  0.81810498358E+02 0.  0.
        -11    1    3    3    0    0  0.19741805583E+02  0.10389016261E+02  0.10789300879E+01  0.22334606258E+02  0.00000000000E+00 0.  1.
         12    1    3    3    0    0  0.13643076510E+02 -0.18753639286E+02 -0.14043728731E+03  0.14233925737E+03  0.00000000000E+00 0. -1.
         11    1    5    5    0    0  0.50589958988E+02  0.54766653296E+02  0.12693199444E+04  0.12715077080E+04  0.00000000000E+00 0. -1.
        -12    1    5    5    0    0 -0.23613892915E+02 -0.54459665946E+01  0.32858661569E+03  0.32947904107E+03  0.00000000000E+00 0.  1.
          5    1    4    4  501    0  0.19281334368E+02  0.30353837059E+02  0.48614635774E+02  0.60613368910E+02  0.41800000000E+01 0.  1.
         -5    1    4    4    0  501 -0.79642282535E+02 -0.71309900735E+02  0.21552992343E+03  0.24062131120E+03  0.41800000000E+01 0.  1.
</event>
<event>
11    1  0.8037748E-009  0.1367049E+03  0.7561462E-02  0.1111295E+00
         22   -1    0    0    0    0  0.00000000000E+00  0.00000000000E+00  0.50718097282E+03  0.50718097282E+03  0.00000000000E+00 0. -1.
         22   -1    0    0    0    0 -0.00000000000E+00 -0.00000000000E+00 -0.11007935181E+04  0.11007935181E+04  0.00000000000E+00 0. -1.
         24    2    1    2    0    0  0.46721443216E+02 -0.29235804349E+02 -0.10479252478E+04  0.10528192132E+04  0.85107844279E+02 0.  0.
         25    2    1    2    0    0 -0.36423275355E+02  0.47821605427E+02  0.57944618212E+02  0.15039494264E+03  0.12508996387E+03 0.  0.
        -24    2    1    2    0    0 -0.10298167862E+02 -0.18585801078E+02  0.39636808431E+03  0.40476033509E+03  0.79194610521E+02 0.  0.
        -11    1    3    3    0    0  0.68913572810E+02 -0.98769100205E+01 -0.62378850769E+03  0.62766132285E+03  0.00000000000E+00 0.  1.
         12    1    3    3    0    0 -0.22192129593E+02 -0.19358894329E+02 -0.42413674015E+03  0.42515789038E+03  0.00000000000E+00 0. -1.
         11    1    5    5    0    0 -0.10317615884E+02  0.10895690936E+02  0.34653403238E+03  0.34685876791E+03  0.00000000000E+00 0. -1.
        -12    1    5    5    0    0  0.19448021730E-01 -0.29481492014E+02  0.49834051933E+02  0.57901567178E+02  0.00000000000E+00 0.  1.
          5    1    4    4  501    0 -0.41369307747E+02  0.15094963862E+02  0.92395328874E+02  0.10243850231E+03  0.41800000000E+01 0. -1.
         -5    1    4    4    0  501  0.49460323929E+01  0.32726641566E+02 -0.34450710661E+02  0.47956440336E+02  0.41800000000E+01 0. -1.
</event>
<event>
11    1  0.8037748E-009  0.2076219E+03  0.7561462E-02  0.1049261E+00
         22   -1    0    0    0    0  0.00000000000E+00  0.00000000000E+00  0.16266144126E+04  0.16266144126E+04  0.00000000000E+00 0.  1.
         22   -1    0    0    0    0 -0.00000000000E+00 -0.00000000000E+00 -0.31920225932E+03  0.31920225932E+03  0.00000000000E+00 0.  1.
        -24    2    1    2    0    0  0.16381488900E+03  0.11312127990E+00 -0.25925035016E+03  0.31683041494E+03  0.79595459171E+02 0.  0.
         25    2    1    2    0    0 -0.19651670473E+03 -0.29037584610E+02  0.44186665131E+03  0.50035577323E+03  0.12509102969E+03 0.  0.
         24    2    1    2    0    0  0.32701815726E+02  0.28924463330E+02  0.11247958521E+04  0.11286304837E+04  0.82067207457E+02 0.  0.
        -13    1    5    5    0    0  0.21740746408E+02  0.30955958255E+02  0.11069022539E+04  0.11075484329E+04  0.00000000000E+00 0.  1.
         14    1    5    5    0    0  0.10961069319E+02 -0.20314949251E+01  0.17893598172E+02  0.21082050844E+02  0.00000000000E+00 0. -1.
         13    1    3    3    0    0  0.10240430799E+02 -0.24342322801E+02 -0.43216536656E+02  0.50646659740E+02  0.00000000000E+00 0. -1.
        -14    1    3    3    0    0  0.15357445820E+03  0.24455444081E+02 -0.21603381351E+03  0.26618375520E+03  0.00000000000E+00 0.  1.
          5    1    4    4  501    0  0.12495618434E+02  0.13016549711E+02  0.17775809893E+02  0.25671440626E+02  0.41800000000E+01 0. -1.
         -5    1    4    4    0  501 -0.20901232316E+03 -0.42054134320E+02  0.42409084141E+03  0.47468433260E+03  0.41800000000E+01 0. -1.
</event>
<event>
11    1  0.8037748E-009  0.1465091E+03  0.7561462E-02  0.1100500E+00
         22   -1    0    0    0    0  0.00000000000E+00  0.00000000000E+00  0.93323548760E+03  0.93323548760E+03  0.00000000000E+00 0. -1.
         22   -1    0    0    0    0 -0.00000000000E+00 -0.00000000000E+00 -0.88441423134E+03  0.88441423134E+03  0.00000000000E+00 0.  1.
        -24    2    1    2    0    0 -0.58996442244E+02  0.16492858094E+02 -0.66112618506E+03  0.66894652587E+03  0.81541568120E+02 0.  0.
         25    2    1    2    0    0  0.95115483577E+02 -0.82917923811E+02 -0.17939037264E+03  0.25248602553E+03  0.12508377188E+03 0.  0.
         24    2    1    2    0    0 -0.36119041332E+02  0.66425065717E+02  0.88933781396E+03  0.89621716753E+03  0.81034496037E+02 0.  0.
        -11    1    5    5    0    0 -0.44989632256E+00  0.29801748901E+02  0.81767057822E+02  0.87029870672E+02  0.00000000000E+00 0.  1.
         12    1    5    5    0    0 -0.35669145010E+02  0.36623316817E+02  0.80757075613E+03  0.80918729686E+03  0.00000000000E+00 0. -1.
         13    1    3    3    0    0  0.18964321299E+02  0.68067195201E+01 -0.78359933638E+02  0.80908937162E+02  0.00000000000E+00 0. -1.
        -14    1    3    3    0    0 -0.77960763544E+02  0.96861385735E+01 -0.58276625143E+03  0.58803758871E+03  0.00000000000E+00 0.  1.
          5    1    4    4  501    0  0.93484193064E+02 -0.54817686774E+02 -0.48965843776E+02  0.11899327457E+03  0.41800000000E+01 0.  1.
         -5    1    4    4    0  501  0.16312905127E+01 -0.28100237037E+02 -0.13042452886E+03  0.13349275096E+03  0.41800000000E+01 0.  1.
</event>
<event>
11    1  0.8037748E-009  0.1929209E+03  0.7561462E-02  0.1059646E+00
         22   -1    0    0    0    0  0.00000000000E+00  0.00000000000E+00  0.15824583917E+04  0.15824583917E+04  0.00000000000E+00 0. -1.
         22   -1    0    0    0    0 -0.00000000000E+00 -0.00000000000E+00 -0.36930698715E+03  0.36930698715E+03  0.00000000000E+00 0.  1.
        -24    2    1    2    0    0 -0.74365918001E+02  0.31443306851E+02 -0.32838784833E+03  0.34740007581E+03  0.79556661792E+02 0.  0.
         25    2    1    2    0    0  0.65952238186E+02  0.12131390435E+03  0.31601185315E+03  0.36684847347E+03  0.12509016764E+03 0.  0.
         24    2    1    2    0    0  0.84136798158E+01 -0.15275721120E+03  0.12255273997E+04  0.12375168296E+04  0.78261998713E+02 0.  0.
        -11    1    5    5    0    0 -0.43697056671E+01  0.85796199184E+01  0.52250560645E+02  0.53130267205E+02  0.00000000000E+00 0.  1.
         12    1    5    5    0    0  0.12783385483E+02 -0.16133683112E+03  0.11732768391E+04  0.11843865624E+04  0.00000000000E+00 0. -1.
         13    1    3    3    0    0 -0.15496382651E+01 -0.22600618710E+02 -0.67990305101E+02  0.71664990983E+02  0.00000000000E+00 0. -1.
        -14    1    3    3    0    0 -0.72816279736E+02  0.54043925561E+02 -0.26039754323E+03  0.27573508482E+03  0.00000000000E+00 0.  1.
          5    1    4    4  501    0  0.10154114895E+03  0.69833664061E+02  0.21891705293E+03  0.25125583382E+03  0.41800000000E+01 0. -1.
         -5    1    4    4    0  501 -0.35588910763E+02  0.51480240289E+02  0.97094800226E+02  0.11559263965E+03  0.41800000000E+01 0. -1.
</event>
<event>
11    1  0.8037748E-009  0.2322980E+03  0.7561462E-02  0.1033776E+00
         22   -1    0    0    0    0  0.00000000000E+00  0.00000000000E+00  0.23181888157E+04  0.23181888157E+04  0.00000000000E+00 0. -1.
         22   -1    0    0    0    0 -0.00000000000E+00 -0.00000000000E+00 -0.21027436585E+03  0.21027436585E+03  0.00000000000E+00 0. -1.
        -24    2    1    2    0    0  0.12833411737E+03  0.14067785174E+03 -0.81409216008E+02  0.22171984456E+03  0.79198013664E+02 0.  0.
         25    2    1    2    0    0 -0.21753203749E+03 -0.93276889808E+02  0.26253983527E+03  0.37495899082E+03  0.12508522771E+03 0.  0.
         24    2    1    2    0    0  0.89197920123E+02 -0.47400961932E+02  0.19267838306E+04  0.19317843462E+04  0.95350459711E+02 0.  0.
        -13    1    5    5    0    0  0.90985404733E+02 -0.14956932939E+02  0.95098640356E+03  0.95544607042E+03  0.00000000000E+00 0.  1.
         14    1    5    5    0    0 -0.17874846106E+01 -0.32444028994E+02  0.97579742703E+03  0.97633827576E+03  0.00000000000E+00 0. -1.
         11    1    3    3    0    0  0.11950742051E+03  0.10053521841E+03 -0.89253402627E+02  0.17987641196E+03  0.00000000000E+00 0. -1.
        -12    1    3    3    0    0  0.88266968557E+01  0.40142633328E+02  0.78441866186E+01  0.41843432598E+02  0.00000000000E+00 0.  1.
          5    1    4    4  501    0 -0.96923083253E+02  0.23420107723E+02  0.95111966967E+02  0.13786349834E+03  0.41800000000E+01 0. -1.
         -5    1    4    4    0  501 -0.12060895424E+03 -0.11669699753E+03  0.16742786830E+03  0.23709549249E+03  0.41800000000E+01 0. -1.
</event>
<event>
11    1  0.8037748E-009  0.1374145E+03  0.7561462E-02  0.1110480E+00
         22   -1    0    0    0    0  0.00000000000E+00  0.00000000000E+00  0.21259631040E+04  0.21259631040E+04  0.00000000000E+00 0. -1.
         22   -1    0    0    0    0 -0.00000000000E+00 -0.00000000000E+00 -0.29208936262E+03  0.29208936262E+03  0.00000000000E+00 0. -1.
        -24    2    1    2    0    0  0.22651019121E+02 -0.34372203589E+02 -0.91825943930E+02  0.14534603713E+03  0.10487587656E+03 0.  0.
         25    2    1    2    0    0 -0.23261995246E+02  0.72584649937E+02 -0.14146336999E+03  0.20363996616E+03  0.12509076281E+03 0.  0.
         24    2    1    2    0    0  0.61097612490E+00 -0.38212446348E+02  0.20671630553E+04  0.20690664633E+04  0.80077263772E+02 0.  0.
        -11    1    5    5    0    0  0.38228483520E+02 -0.17534544542E+02  0.72650952373E+03  0.72772588608E+03  0.00000000000E+00 0.  1.
         12    1    5    5    0    0 -0.37617507395E+02 -0.20677901806E+02  0.13406535316E+04  0.13413405773E+04  0.00000000000E+00 0. -1.
         13    1    3    3    0    0  0.17714346153E+01 -0.32363799526E+02 -0.11178652073E+03  0.11639063414E+03  0.00000000000E+00 0. -1.
        -14    1    3    3    0    0  0.20879584506E+02 -0.20084040630E+01  0.19960576795E+02  0.28955402985E+02  0.00000000000E+00 0.  1.
          5    1    4    4  501    0 -0.43902954882E+02 -0.13683867234E+02 -0.13921595202E+02  0.48228631360E+02  0.41800000000E+01 0.  1.
         -5    1    4    4    0  501  0.20640959637E+02  0.86268517172E+02 -0.12754177479E+03  0.15541133480E+03  0.41800000000E+01 0.  1.
</event>
<event>
11    1  0.8037748E-009  0.2285001E+03  0.7561462E-02  0.1036020E+00
         22   -1    0    0    0    0  0.00000000000E+00  0.00000000000E+00  0.26979642770E+04  0.26979642770E+04  0.00000000000E+00 0. -1.
         22   -1    0    0    0    0 -0.00000000000E+00 -0.00000000000E+00 -0.13076357849E+03  0.13076357849E+03  0.00000000000E+00 0.  1.
         24    2    1    2    0    0  0.10495518294E+03 -0.36981623111E+02 -0.46959479546E+02  0.14231430799E+03  0.75265786828E+02 0.  0.
         25    2    1    2    0    0 -0.27668811183E+03 -0.11226506538E+02  0.71085271982E+03  0.77307186707E+03  0.12508467809E+03 0.  0.
        -24    2    1    2    0    0  0.17173292889E+03  0.48208129649E+02  0.19033074582E+04  0.19133416804E+04  0.80503930696E+02 0.  0.
        -11    1    3    3    0    0  0.49687085328E+02 -0.54935802672E+02 -0.13606895140E+02  0.75311994124E+02  0.00000000000E+00 0.  1.
         12    1    3    3    0    0  0.55268097613E+02  0.17954179561E+02 -0.33352584407E+02  0.67002313871E+02  0.00000000000E+00 0. -1.
         11    1    5    5    0    0  0.17710723606E+03  0.48794578677E+02  0.18909604048E+04  0.18998629257E+04  0.00000000000E+00 0. -1.
        -12    1    5    5    0    0 -0.53743071684E+01 -0.58644902772E+00  0.12347053364E+02  0.13478754645E+02  0.00000000000E+00 0.  1.
          5    1    4    4  501    0 -0.39915000840E+02  0.10598055186E+02  0.28200620268E+02  0.50182401789E+02  0.41800000000E+01 0. -1.
         -5    1    4    4    0  501 -0.23677311099E+03 -0.21824561724E+02  0.68265209955E+03  0.72288946528E+03  0.41800000000E+01 0. -1.
</event>
<event>
11    1  0.8037748E-009  0.1722740E+03  0.7561462E-02  0.1076070E+00
         22   -1    0    0    0    0  0.00000000000E+00  0.00000000000E+00  0.51693336670E+03  0.51693336670E+03  0.00000000000E+00 0.  1.
         22   -1    0    0    0    0 -0.00000000000E+00 -0.00000000000E+00 -0.35982406794E+03  0.35982406794E+03  0.00000000000E+00 0.  1.
         24    2    1    2    0    0  0.61327123293E+02  0.24863754079E+02 -0.25589906037E+03  0.27663735545E+03  0.81637460837E+02 0.  0.
         25    2    1    2    0    0  0.26503867405E+02 -0.10932792920E+03  0.68638561367E+01  0.16837267323E+03  0.12508874242E+03 0.  0.
        -24    2    1    2    0    0 -0.87830990698E+02  0.84464175123E+02  0.40614450300E+03  0.43174740596E+03  0.81264908935E+02 0.  0.
        -11    1    3    3    0    0  0.70725388224E+02  0.65093667101E+01 -0.24086438038E+03  0.25111770573E+03  0.00000000000E+00 0.  1.
         12    1    3    3    0    0 -0.93982649313E+01  0.18354387368E+02 -0.15034679993E+02  0.25519649721E+02  0.00000000000E+00 0. -1.
         13    1    5    5    0    0 -0.92880514237E+02  0.39354908298E+02  0.29036644771E+03  0.30738944791E+03  0.00000000000E+00 0. -1.
        -14    1    5    5    0    0  0.50495235386E+01  0.45109266826E+02  0.11577805529E+03  0.12435795804E+03  0.00000000000E+00 0.  1.
          5    1    4    4  501    0  0.62152646539E+02 -0.86332785678E+02 -0.31501444460E+02  0.11102303706E+03  0.41800000000E+01 0.  1.
         -5    1    4    4    0  501 -0.35648779134E+02 -0.22995143524E+02  0.38365300597E+02  0.57349636174E+02  0.41800000000E+01 0.  1.
</event>
<event>
11    1  0.8037748E-009  0.2352619E+03  0.7561462E-02  0.1032057E+00
         22   -1    0    0    0    0  0.00000000000E+00  0.00000000000E+00  0.20315926394E+04  0.20315926394E+04  0.00000000000E+00 0. -1.
         22   -1    0    0    0    0 -0.00000000000E+00 -0.00000000000E+00 -0.17677377560E+03  0.17677377560E+03  0.00000000000E+00 0.  1.
         24    2    1    2    0    0 -0.18151297330E+03  0.86788768091E+02 -0.86527618307E+02  0.23321677652E+03  0.80148526975E+02 0.  0.
         25    2    1    2    0    0  0.18998139836E+03  0.23883328727E+02  0.13795655501E+04  0.13983961142E+04  0.12508892833E+03 0.  0.
        -24    2    1    2    0    0 -0.84684250580E+01 -0.11067209682E+03  0.56178093200E+03  0.57675352432E+03  0.68751618242E+02 0.  0.
        -11    1    3    3    0    0 -0.17675222664E+03  0.64725773617E+02 -0.92697314925E+02  0.20981793915E+03  0.00000000000E+00 0.  1.
         12    1    3    3    0    0 -0.47607466564E+01  0.22062994474E+02  0.61696966185E+01  0.23398837370E+02  0.00000000000E+00 0. -1.
         11    1    5    5    0    0 -0.68444244536E+01 -0.29620687583E+02  0.32621432875E+03  0.32762786749E+03  0.00000000000E+00 0. -1.
        -12    1    5    5    0    0 -0.16240006044E+01 -0.81051409235E+02  0.23556660326E+03  0.24912565682E+03  0.00000000000E+00 0.  1.
          5    1    4    4  501    0  0.63254982719E+02  0.64245575556E+02  0.41542799475E+03  0.42511948678E+03  0.41800000000E+01 0. -1.
         -5    1    4    4    0  501  0.12672641564E+03 -0.40362246829E+02  0.96413755534E+03  0.97327662739E+03  0.41800000000E+01 0. -1.
</event>
<event>
11    1  0.8037748E-009  0.1515814E+03  0.7561462E-02  0.1095274E+00
         22   -1    0    0    0    0  0.00000000000E+00  0.00000000000E+00  0.10084512234E+03  0.10084512234E+03  0.00000000000E+00 0.  1.
         22   -1    0    0    0    0 -0.00000000000E+00 -0.00000000000E+00 -0.11794227608E+04  0.11794227608E+04  0.00000000000E+00 0.  1.
         24    2    1    2    0    0  0.36637879878E+02  0.60539351200E+01 -0.93349266685E+03  0.93747959282E+03  0.77977198699E+02 0.  0.
         25    2    1    2    0    0  0.46358706494E+02 -0.45448442095E+02 -0.16720383767E+03  0.21867738390E+03  0.12509190358E+03 0.  0.
        -24    2    1    2    0    0 -0.82996586372E+02  0.39394506975E+02  0.22118866064E+02  0.12411090642E+03  0.80460625943E+02 0.  0.
        -13    1    3    3    0    0  0.46000749311E+02  0.20042232936E+02 -0.33375841550E+03  0.33750917018E+03  0.00000000000E+00 0.  1.
         14    1    3    3    0    0 -0.93628694327E+01 -0.13988297816E+02 -0.59973425135E+03  0.59997042264E+03  0.00000000000E+00 0. -1.
         13    1    5    5    0    0 -0.38155858208E+02 -0.35388614043E+01 -0.25363946055E+02  0.45953485343E+02  0.00000000000E+00 0. -1.
        -14    1    5    5    0    0 -0.44840728163E+02  0.42933368379E+02  0.47482812119E+02  0.78157421077E+02  0.00000000000E+00 0.  1.
          5    1    4    4  501    0 -0.38356063164E+02  0.92028404718E+01 -0.40247521194E+02  0.56508541093E+02  0.41800000000E+01 0.  1.
         -5    1    4    4    0  501  0.84714769657E+02 -0.54651282567E+02 -0.12695631647E+03  0.16216884281E+03  0.41800000000E+01 0.  1.
</event>
<event>
11    1  0.8037748E-009  0.1282103E+03  0.7561462E-02  0.1121488E+00
         22   -1    0    0    0    0  0.00000000000E+00  0.00000000000E+00  0.25427286866E+03  0.25427286866E+03  0.00000000000E+00 0.  1.
         22   -1    0    0    0    0 -0.00000000000E+00 -0.00000000000E+00 -0.22319589322E+03  0.22319589322E+03  0.00000000000E+00 0.  1.
        -24    2    1    2    0    0 -0.28912508884E+02 -0.10570034048E+02 -0.15866849908E+03  0.18067880963E+03  0.80755686250E+02 0.  0.
         25    2    1    2    0    0  0.15311732845E+01 -0.11400465186E+02  0.56913643773E+02  0.13790975886E+03  0.12509046184E+03 0.  0.
         24    2    1    2    0    0  0.27381335600E+02  0.21970499234E+02  0.13283183074E+03  0.15888019339E+03  0.79788346381E+02 0.  0.
        -11    1    5    5    0    0  0.13070848363E+02  0.20090466191E+02  0.14050446204E+03  0.14253412841E+03  0.00000000000E+00 0.  1.
         12    1    5    5    0    0  0.14310487236E+02  0.18800330432E+01 -0.76726313010E+01  0.16346064978E+02  0.00000000000E+00 0. -1.
         13    1    3    3    0    0 -0.19096114346E+02  0.15279332119E+02 -0.55428957260E+01  0.25076747519E+02  0.00000000000E+00 0. -1.
        -14    1    3    3    0    0 -0.98163945388E+01 -0.25849366167E+02 -0.15312560335E+03  0.15560206212E+03  0.00000000000E+00 0.  1.
          5    1    4    4  501    0 -0.52633673346E+02 -0.37071240085E+02  0.38209593564E+02  0.74980169723E+02  0.41800000000E+01 0.  1.
         -5    1    4    4    0  501  0.54164846630E+02  0.25670774899E+02  0.18704050209E+02  0.62929589134E+02  0.41800000000E+01 0.  1.
</event>
<event>
11    1  0.8037748E-009  0.1738826E+03  0.7561462E-02  0.1074701E+00
         22   -1    0    0    0    0  0.00000000000E+00  0.00000000000E+00  0.34324347312E+04  0.34324347312E+04  0.00000000000E+00 0. -1.
         22   -1    0    0    0    0 -0.00000000000E+00 -0.00000000000E+00 -0.26980174061E+04  0.26980174061E+04  0.00000000000E+00 0.  1.
         24    2    1    2    0    0 -0.40920622011E+02  0.11364892228E+03 -0.26804544390E+04  0.26843450228E+04  0.79256716971E+02 0.  0.
         25    2    1    2    0    0  0.40542836981E+02 -0.11040927177E+03  0.47342863240E+03  0.50360325814E+03  0.12509053805E+03 0.  0.
        -24    2    1    2    0    0  0.37778503042E+00 -0.32396505096E+01  0.29414431317E+04  0.29425038564E+04  0.78934209706E+02 0.  0.
        -13    1    3    3    0    0 -0.61928295105E+02  0.84556920149E+02 -0.22309231944E+04  0.22333838196E+04  0.00000000000E+00 0.  1.
         14    1    3    3    0    0  0.21007673094E+02  0.29092002128E+02 -0.44953124459E+03  0.45096120319E+03  0.00000000000E+00 0. -1.
         11    1    5    5    0    0 -0.45925770341E+01 -0.22169104361E+02  0.27439438646E+04  0.27440372616E+04  0.00000000000E+00 0. -1.
        -12    1    5    5    0    0  0.49703620645E+01  0.18929453851E+02  0.19749926716E+03  0.19846659479E+03  0.00000000000E+00 0.  1.
          5    1    4    4  501    0 -0.11918601668E+02  0.17964706874E+02  0.21023246957E+02  0.30401201809E+02  0.41800000000E+01 0.  1.
         -5    1    4    4    0  501  0.52461438649E+02 -0.12837397864E+03  0.45240538544E+03  0.47320205633E+03  0.41800000000E+01 0.  1.
</event>
<event>
11    1  0.8037748E-009  0.1453604E+03  0.7561462E-02  0.1101716E+00
         22   -1    0    0    0    0  0.00000000000E+00  0.00000000000E+00  0.30067128546E+03  0.30067128546E+03  0.00000000000E+00 0. -1.
         22   -1    0    0    0    0 -0.00000000000E+00 -0.00000000000E+00 -0.30386217070E+03  0.30386217070E+03  0.00000000000E+00 0.  1.
        -24    2    1    2    0    0 -0.67001176746E+02 -0.27911107923E+02 -0.21835682212E+03  0.24324395088E+03  0.78865266368E+02 0.  0.
         25    2    1    2    0    0  0.77112458638E+02  0.34147548866E+02  0.22556555072E+02  0.15254024851E+03  0.12508933955E+03 0.  0.
         24    2    1    2    0    0 -0.10111281892E+02 -0.62364409431E+01  0.19260938181E+03  0.20874925677E+03  0.79603687254E+02 0.  0.
        -13    1    5    5    0    0  0.11943453215E+02  0.22406408926E+02  0.19797518684E+02  0.32196816329E+02  0.00000000000E+00 0.  1.
         14    1    5    5    0    0 -0.22054735107E+02 -0.28642849869E+02  0.17281186312E+03  0.17655244044E+03  0.00000000000E+00 0. -1.
         11    1    3    3    0    0 -0.44030588762E+01 -0.16892541313E+00  0.66905335868E+01  0.80111611480E+01  0.00000000000E+00 0. -1.
        -12    1    3    3    0    0 -0.62598117870E+02 -0.27742182509E+02 -0.22504735571E+03  0.23523278973E+03  0.00000000000E+00 0.  1.
          5    1    4    4  501    0  0.82172070579E+02  0.49955359595E+02  0.58563774323E+02  0.11267198054E+03  0.41800000000E+01 0.  1.
         -5    1    4    4    0  501 -0.50596119414E+01 -0.15807810730E+02 -0.36007219250E+02  0.39868267974E+02  0.41800000000E+01 0.  1.
</event>
<event>
11    1  0.8037748E-009  0.2254481E+03  0.7561462E-02  0.1037857E+00
         22   -1    0    0    0    0  0.00000000000E+00  0.00000000000E+00  0.59030392312E+03  0.59030392312E+03  0.00000000000E+00 0.  1.
         22   -1    0    0    0    0 -0.00000000000E+00 -0.00000000000E+00 -0.19627127697E+04  0.19627127697E+04  0.00000000000E+00 0. -1.
         24    2    1    2    0    0 -0.11022028154E+03  0.51231726919E+01 -0.18258398180E+04  0.18308761916E+04  0.79005257547E+02 0.  0.
         25    2    1    2    0    0  0.22029277108E+03  0.13184550972E+03  0.72183963940E+02  0.29456750681E+03  0.12508936004E+03 0.  0.
        -24    2    1    2    0    0 -0.11007248954E+03 -0.13696868241E+03  0.38124700750E+03  0.42757299436E+03  0.81197363657E+02 0.  0.
        -11    1    3    3    0    0  0.99945744380E+01  0.11518238970E+02 -0.22502162720E+03  0.22553778853E+03  0.00000000000E+00 0.  1.
         12    1    3    3    0    0 -0.12021485598E+03 -0.63950662778E+01 -0.16008181908E+04  0.16053384031E+04  0.00000000000E+00 0. -1.
         11    1    5    5    0    0  0.87851196891E+01 -0.31206063384E+02  0.90660489170E+02  0.96282506285E+02  0.00000000000E+00 0. -1.
        -12    1    5    5    0    0 -0.11885760923E+03 -0.10576261902E+03  0.29058651833E+03  0.33129048808E+03  0.00000000000E+00 0.  1.
          5    1    4    4  501    0  0.15297283135E+03  0.14793054593E+03  0.34410407123E+02  0.21560538507E+03  0.41800000000E+01 0.  1.
         -5    1    4    4    0  501  0.67319939730E+02 -0.16085036216E+02  0.37773556817E+02  0.78962121742E+02  0.41800000000E+01 0.  1.
</event>
<event>
11    1  0.8037748E-009  0.2048879E+03  0.7561462E-02  0.1051120E+00
         22   -1    0    0    0    0  0.00000000000E+00  0.00000000000E+00  0.11915556226E+04  0.11915556226E+04  0.00000000000E+00 0.  1.
         22   -1    0    0    0    0 -0.00000000000E+00 -0.00000000000E+00 -0.83877484484E+03  0.83877484484E+03  0.00000000000E+00 0. -1.
        -24    2    1    2    0    0 -0.12888628901E+03  0.85194857330E+02 -0.67575063054E+03  0.69786577275E+03  0.80671450345E+02 0.  0.
         25    2    1    2    0    0  0.20306092509E+03 -0.18099389497E+03  0.57238361033E+01  0.29945382277E+03  0.12508916962E+03 0.  0.
         24    2    1    2    0    0 -0.74174636080E+02  0.95799037640E+02  0.10228075722E+04  0.10330108719E+04  0.79352375692E+02 0.  0.
        -13    1    5    5    0    0 -0.22673509335E+02  0.30093440895E+02  0.64453654300E+03  0.64563694014E+03  0.00000000000E+00 0.  1.
         14    1    5    5    0    0 -0.51501126745E+02  0.65705596745E+02  0.37827102921E+03  0.38737393180E+03  0.00000000000E+00 0. -1.
         11    1    3    3    0    0 -0.11151611429E+03  0.30891192601E+02 -0.49454294122E+03  0.50790041370E+03  0.00000000000E+00 0. -1.
        -12    1    3    3    0    0 -0.17370174719E+02  0.54303664729E+02 -0.18120768932E+03  0.18996535905E+03  0.00000000000E+00 0.  1.
          5    1    4    4  501    0  0.12101603235E+03 -0.10051298878E+03 -0.58308957980E+02  0.16782475378E+03  0.41800000000E+01 0. -1.
         -5    1    4    4    0  501  0.82044892736E+02 -0.80480906194E+02  0.64032794083E+02  0.13162906899E+03  0.41800000000E+01 0. -1.
</event>
<event>
11    1  0.8037748E-009  0.1774030E+03  0.7561462E-02  0.1071763E+00
         22   -1    0    0    0    0  0.00000000000E+00  0.00000000000E+00  0.17942108435E+03  0.17942108435E+03  0.00000000000E+00 0.  1.
         22   -1    0    0    0    0 -0.00000000000E+00 -0.00000000000E+00 -0.21245963673E+04  0.21245963673E+04  0.00000000000E+00 0. -1.
        -24    2    1    2    0    0  0.10004245493E+03  0.81771321399E+02 -0.19575292384E+04  0.19632880350E+04  0.76708195954E+02 0.  0.
         25    2    1    2    0    0 -0.71608329086E+02 -0.39294166510E+02 -0.10735284686E+03  0.18396691907E+03  0.12508960494E+03 0.  0.
         24    2    1    2    0    0 -0.28434125849E+02 -0.42477154889E+02  0.11970680232E+03  0.15676249759E+03  0.87361054986E+02 0.  0.
        -13    1    5    5    0    0 -0.34143586401E+02 -0.32585154637E+02  0.13187940163E+03  0.14007052998E+03  0.00000000000E+00 0.  1.
         14    1    5    5    0    0  0.57094605528E+01 -0.98920002523E+01 -0.12172599306E+02  0.16691967609E+02  0.00000000000E+00 0. -1.
         13    1    3    3    0    0  0.88321239559E+02  0.95173792167E+02 -0.15742389158E+04  0.15795843935E+04  0.00000000000E+00 0. -1.
        -14    1    3    3    0    0  0.11721215376E+02 -0.13402470768E+02 -0.38329032262E+03  0.38370364153E+03  0.00000000000E+00 0.  1.
          5    1    4    4  501    0  0.10947090688E+02 -0.28403385958E+01 -0.91442761374E+02  0.92234252453E+02  0.41800000000E+01 0. -1.
         -5    1    4    4    0  501 -0.82555419774E+02 -0.36453827914E+02 -0.15910085487E+02  0.91732666613E+02  0.41800000000E+01 0. -1.
</event>
<event>
11    1  0.8037748E-009  0.1484961E+03  0.7561462E-02  0.1098425E+00
         22   -1    0    0    0    0  0.00000000000E+00  0.00000000000E+00  0.15540714284E+03  0.15540714284E+03  0.00000000000E+00 0.  1.
         22   -1    0    0    0    0 -0.00000000000E+00 -0.00000000000E+00 -0.21231569641E+04  0.21231569641E+04  0.00000000000E+00 0. -1.
         24    2    1    2    0    0  0.64429003012E+02 -0.74664534504E+01 -0.18537140717E+04  0.18566026496E+04  0.80688874355E+02 0.  0.
         25    2    1    2    0    0 -0.13799962004E+03 -0.23543186933E+01 -0.20770080040E+03  0.27899268634E+03  0.12509140097E+03 0.  0.
        -24    2    1    2    0    0  0.73570617032E+02  0.98207721437E+01  0.93665050868E+02  0.14296877100E+03  0.78471934284E+02 0.  0.
        -11    1    3    3    0    0  0.59854287151E+02 -0.43347653537E+01 -0.62464554400E+03  0.62752161837E+03  0.00000000000E+00 0.  1.
         12    1    3    3    0    0  0.45747158613E+01 -0.31316880967E+01 -0.12290685277E+04  0.12290810312E+04  0.00000000000E+00 0. -1.
         11    1    5    5    0    0 -0.16985179116E+02  0.74815926912E+00  0.15117366603E+02  0.22750622517E+02  0.00000000000E+00 0. -1.
        -12    1    5    5    0    0  0.90555796148E+02  0.90726128746E+01  0.78547684264E+02  0.12021814848E+03  0.00000000000E+00 0.  1.
          5    1    4    4  501    0  0.23469664061E+02  0.25808198457E+01 -0.35524119644E+02  0.42859319158E+02  0.41800000000E+01 0. -1.
         -5    1    4    4    0  501 -0.16146928411E+03 -0.49351385390E+01 -0.17217668076E+03  0.23613336718E+03  0.41800000000E+01 0. -1.
</event>
<event>
11    1  0.8037748E-009  0.1347882E+03  0.7561462E-02  0.1113522E+00
         22   -1    0    0    0    0  0.00000000000E+00  0.00000000000E+00  0.31722287866E+03  0.31722287866E+03  0.00000000000E+00 0. -1.
         22   -1    0    0    0    0 -0.00000000000E+00 -0.00000000000E+00 -0.28363226139E+04  0.28363226139E+04  0.00000000000E+00 0.  1.
        -24    2    1    2    0    0  0.38700803258E+02 -0.12869259223E+02 -0.15883632960E+04  0.15909552662E+04  0.81100733514E+02 0.  0.
         25    2    1    2    0    0 -0.11925062454E+02 -0.29811933934E+02 -0.12358303667E+04  0.12425601882E+04  0.12509263546E+03 0.  0.
         24    2    1    2    0    0 -0.26775740803E+02  0.42681193157E+02  0.30509392750E+03  0.32003003815E+03  0.82451780938E+02 0.  0.
        -11    1    5    5    0    0  0.16298543874E+02  0.43440811423E+02  0.97027514755E+02  0.10755038470E+03  0.00000000000E+00 0.  1.
         12    1    5    5    0    0 -0.43074284677E+02 -0.75961826673E+00  0.20806641274E+03  0.21247965345E+03  0.00000000000E+00 0. -1.
         11    1    3    3    0    0 -0.21325029624E+02 -0.20036849306E+02 -0.41043203875E+03  0.41147380311E+03  0.00000000000E+00 0. -1.
        -12    1    3    3    0    0  0.60025832881E+02  0.71675900834E+01 -0.11779312572E+04  0.11794814631E+04  0.00000000000E+00 0.  1.
          5    1    4    4  501    0 -0.54246910478E+02 -0.51683283785E+00 -0.98327283878E+03  0.98477710285E+03  0.41800000000E+01 0. -1.
         -5    1    4    4    0  501  0.42321848024E+02 -0.29295101096E+02 -0.25255752793E+03  0.25778308533E+03  0.41800000000E+01 0. -1.
</event>
<event>
11    1  0.8037748E-009  0.1406621E+03  0.7561462E-02  0.1106821E+00
         22   -1    0    0    0    0  0.00000000000E+00  0.00000000000E+00  0.56744021482E+03  0.56744021482E+03  0.00000000000E+00 0.  1.
         22   -1    0    0    0    0 -0.00000000000E+00 -0.00000000000E+00 -0.87151805999E+03  0.87151805999E+03  0.00000000000E+00 0. -1.
         24    2    1    2    0    0 -0.28575083991E+02 -0.14704134120E+01 -0.70946786561E+03  0.71427968459E+03  0.77666710647E+02 0.  0.
         25    2    1    2    0    0  0.80808102897E+02 -0.34856600619E+02 -0.11706653416E+03  0.19261368342E+03  0.12510206041E+03 0.  0.
        -24    2    1    2    0    0 -0.52233018905E+02  0.36327014031E+02  0.52245655461E+03  0.53206490680E+03  0.78001752392E+02 0.  0.
        -11    1    3    3    0    0 -0.26859311922E+01  0.80561396248E+01 -0.63072303456E+01  0.10578126803E+02  0.00000000000E+00 0.  1.
         12    1    3    3    0    0 -0.25889152799E+02 -0.95265530368E+01 -0.70316063527E+03  0.70370155779E+03  0.00000000000E+00 0. -1.
         11    1    5    5    0    0 -0.53342963733E+02  0.25009568151E+02  0.17952588237E+03  0.18894574014E+03  0.00000000000E+00 0. -1.
        -12    1    5    5    0    0  0.11099448273E+01  0.11317445880E+02  0.34293067225E+03  0.34311916666E+03  0.00000000000E+00 0.  1.
          5    1    4    4  501    0  0.50141155553E+02 -0.18250166280E+02 -0.14052732349E+03  0.15037488187E+03  0.41800000000E+01 0.  1.
         -5    1    4    4    0  501  0.30666947343E+02 -0.16606434339E+02  0.23460789328E+02  0.42238801554E+02  0.41800000000E+01 0.  1.
</event>
<event>
11    1  0.8037748E-009  0.1317616E+03  0.7561462E-02  0.1117123E+00
         22   -1    0    0    0    0  0.00000000000E+00  0.00000000000E+00  0.12505109183E+04  0.12505109183E+04  0.00000000000E+00 0.  1.
         22   -1    0    0    0    0 -0.00000000000E+00 -0.00000000000E+00 -0.85521915216E+03  0.85521915216E+03  0.00000000000E+00 0.  1.
        -24    2    1    2    0    0  0.62185597966E+01  0.40783519065E+02 -0.81044196342E+03  0.81694542918E+03  0.94242730586E+02 0.  0.
         25    2    1    2    0    0  0.47730972598E+02 -0.54426520543E+02  0.93438039722E+02  0.17209877363E+03  0.12508728446E+03 0.  0.
         24    2    1    2    0    0 -0.53949532395E+02  0.13643001478E+02  0.11122956898E+04  0.11166858676E+04  0.81785951419E+02 0.  0.
        -11    1    5    5    0    0 -0.68555058921E+01  0.40066649281E+02  0.64516721414E+03  0.64644649318E+03  0.00000000000E+00 0.  1.
         12    1    5    5    0    0 -0.47094026503E+02 -0.26423647803E+02  0.46712847565E+03  0.47023937443E+03  0.00000000000E+00 0. -1.
         13    1    3    3    0    0  0.48213116132E+02  0.74990378319E+01 -0.34631005922E+03  0.34973046372E+03  0.00000000000E+00 0. -1.
        -14    1    3    3    0    0 -0.41994556335E+02  0.33284481233E+02 -0.46413190420E+03  0.46721496546E+03  0.00000000000E+00 0.  1.
          5    1    4    4  501    0 -0.29285268188E+02 -0.14830425526E+02 -0.12350856160E+02  0.35321162240E+02  0.41800000000E+01 0.  1.
         -5    1    4    4    0  501  0.77016240786E+02 -0.39596095016E+02  0.10578889588E+03  0.13677761139E+03  0.41800000000E+01 0.  1.
</event>
<event>
11    1  0.8037748E-009  0.1714654E+03  0.7561462E-02  0.1076763E+00
         22   -1    0    0    0    0  0.00000000000E+00  0.00000000000E+00  0.23124646211E+03  0.23124646211E+03  0.00000000000E+00 0. -1.
         22   -1    0    0    0    0 -0.00000000000E+00 -0.00000000000E+00 -0.11465043834E+04  0.11465043834E+04  0.00000000000E+00 0.  1.
        -24    2    1    2    0    0  0.71549465658E+02 -0.10091092948E+03 -0.76007760495E+03  0.77444345640E+03  0.82111874228E+02 0.  0.
         25    2    1    2    0    0 -0.40939187481E+02  0.94579160443E+02 -0.35271800195E+03  0.38817461630E+03  0.12509320197E+03 0.  0.
         24    2    1    2    0    0 -0.30610278177E+02  0.63317690391E+01  0.19753768562E+03  0.21513277279E+03  0.79271005147E+02 0.  0.
        -11    1    5    5    0    0 -0.68092783915E+01 -0.93593572984E+01 -0.34937429512E+01  0.12090081929E+02  0.00000000000E+00 0.  1.
         12    1    5    5    0    0 -0.23800999785E+02  0.15691126337E+02  0.20103142857E+03  0.20304269086E+03  0.00000000000E+00 0. -1.
         11    1    3    3    0    0  0.34007171614E+02 -0.55716018499E+01 -0.86411235556E+02  0.93029200247E+02  0.00000000000E+00 0. -1.
        -12    1    3    3    0    0  0.37542294044E+02 -0.95339327632E+02 -0.67366636939E+03  0.68141425615E+03  0.00000000000E+00 0.  1.
          5    1    4    4  501    0 -0.32741487172E+01  0.70927894114E+01  0.98687452685E+01  0.13262437356E+02  0.41800000000E+01 0. -1.
         -5    1    4    4    0  501 -0.37665038764E+02  0.87486371031E+02 -0.36258674722E+03  0.37491217895E+03  0.41800000000E+01 0. -1.
</event>
<event>
11    1  0.8037748E-009  0.2255268E+03  0.7561462E-02  0.1037810E+00
         22   -1    0    0    0    0  0.00000000000E+00  0.00000000000E+00  0.19899371668E+04  0.19899371668E+04  0.00000000000E+00 0.  1.
         22   -1    0    0    0    0 -0.00000000000E+00 -0.00000000000E+00 -0.14995003462E+03  0.14995003462E+03  0.00000000000E+00 0.  1.
        -24    2    1    2    0    0  0.57101185047E+02 -0.95184222712E+02 -0.76602258426E+02  0.15697914109E+03  0.80336561760E+02 0.  0.
         25    2    1    2    0    0 -0.16323078962E+03 -0.71626251522E+02  0.43926670819E+03  0.49028316684E+03  0.12509089564E+03 0.  0.
         24    2    1    2    0    0  0.10612960457E+03  0.16681047423E+03  0.14773226825E+04  0.14926248935E+04  0.79734166974E+02 0.  0.
        -11    1    5    5    0    0  0.59330846281E+02  0.12795833208E+03  0.12241294633E+04  0.12322282366E+04  0.00000000000E+00 0.  1.
         12    1    5    5    0    0  0.46798758291E+02  0.38852142157E+02  0.25319321912E+03  0.26039665692E+03  0.00000000000E+00 0. -1.
         13    1    3    3    0    0 -0.18057008301E+02 -0.74613673717E+01 -0.21312193865E+02  0.28912577871E+02  0.00000000000E+00 0. -1.
        -14    1    3    3    0    0  0.75158193348E+02 -0.87722855340E+02 -0.55290064562E+02  0.12806656322E+03  0.00000000000E+00 0.  1.
          5    1    4    4  501    0 -0.10295289582E+03 -0.67266149930E+01  0.11703929518E+03  0.15607759328E+03  0.41800000000E+01 0.  1.
         -5    1    4    4    0  501 -0.60277893798E+02 -0.64899636529E+02  0.32222741301E+03  0.33420557356E+03  0.41800000000E+01 0.  1.
</event>
<event>
11    1  0.8037748E-009  0.1472402E+03  0.7561462E-02  0.1099733E+00
         22   -1    0    0    0    0  0.00000000000E+00  0.00000000000E+00  0.10556579045E+03  0.10556579045E+03  0.00000000000E+00 0. -1.
         22   -1    0    0    0    0 -0.00000000000E+00 -0.00000000000E+00 -0.22741130739E+04  0.22741130739E+04  0.00000000000E+00 0.  1.
        -24    2    1    2    0    0  0.82259617884E+02  0.12013490164E+02 -0.18126887729E+04  0.18164073204E+04  0.81141835367E+02 0.  0.
         25    2    1    2    0    0 -0.46696287027E+02  0.56279702260E+02 -0.41329399185E+03  0.43795925131E+03  0.12509370088E+03 0.  0.
         24    2    1    2    0    0 -0.35563330857E+02 -0.68293192424E+02  0.57435481271E+02  0.12531229268E+03  0.80471271613E+02 0.  0.
        -13    1    5    5    0    0  0.58113185750E+01  0.14233060566E+02 -0.20203616306E+01  0.15505911704E+02  0.00000000000E+00 0.  1.
         14    1    5    5    0    0 -0.41374649432E+02 -0.82526252990E+02  0.59455842902E+02  0.10980638098E+03  0.00000000000E+00 0. -1.
         11    1    3    3    0    0 -0.32709280386E+01  0.29456797044E+01 -0.49519887914E+01  0.66255710806E+01  0.00000000000E+00 0. -1.
        -12    1    3    3    0    0  0.85530545923E+02  0.90678104599E+01 -0.18077367841E+04  0.18097817493E+04  0.00000000000E+00 0.  1.
          5    1    4    4  501    0  0.20105209454E+01  0.23257061787E+02 -0.35372043613E+01  0.23977433810E+02  0.41800000000E+01 0. -1.
         -5    1    4    4    0  501 -0.48706807973E+02  0.33022640474E+02 -0.40975678749E+03  0.41398181750E+03  0.41800000000E+01 0. -1.
</event>
<event>
11    1  0.8037748E-009  0.2528864E+03  0.7561462E-02  0.1022373E+00
         22   -1    0    0    0    0  0.00000000000E+00  0.00000000000E+00  0.24662975342E+04  0.24662975342E+04  0.00000000000E+00 0.  1.
         22   -1    0    0    0    0 -0.00000000000E+00 -0.00000000000E+00 -0.87409485842E+03  0.87409485842E+03  0.00000000000E+00 0. -1.
         24    2    1    2    0    0  0.20329294981E+03 -0.87113332660E+02 -0.75984708220E+03  0.79549291203E+03  0.80775173108E+02 0.  0.
         25    2    1    2    0    0 -0.18427621608E+03  0.97249313449E+02  0.58552312979E+02  0.24998235076E+03  0.12509056543E+03 0.  0.
        -24    2    1    2    0    0 -0.19016733734E+02 -0.10135980790E+02  0.22934974450E+04  0.22949171298E+04  0.77779999399E+02 0.  0.
        -13    1    3    3    0    0  0.29426925451E+02 -0.19823125528E+02 -0.48325672767E+02  0.59952238453E+02  0.00000000000E+00 0.  1.
         14    1    3    3    0    0  0.17386602436E+03 -0.67290207132E+02 -0.71152140943E+03  0.73554067358E+03  0.00000000000E+00 0. -1.
         11    1    5    5    0    0  0.23225399097E+02  0.18463890672E+02  0.87186365828E+03  0.87236837004E+03  0.00000000000E+00 0. -1.
        -12    1    5    5    0    0 -0.42242132831E+02 -0.28599871462E+02  0.14216337867E+04  0.14225487598E+04  0.00000000000E+00 0.  1.
          5    1    4    4  501    0 -0.15588249381E+03  0.22016648258E+02  0.62333964924E+02  0.16937260776E+03  0.41800000000E+01 0. -1.
         -5    1    4    4    0  501 -0.28393722270E+02  0.75232665191E+02 -0.37816519442E+01  0.80609743006E+02  0.41800000000E+01 0. -1.
</event>
<event>
11    1  0.8037748E-009  0.1624634E+03  0.7561462E-02  0.1084783E+00
         22   -1    0    0    0    0  0.00000000000E+00  0.00000000000E+00  0.13738385177E+04  0.13738385177E+04  0.00000000000E+00 0.  1.
         22   -1    0    0    0    0 -0.00000000000E+00 -0.00000000000E+00 -0.96773814092E+03  0.96773814092E+03  0.00000000000E+00 0.  1.
        -24    2    1    2    0    0  0.10265095651E+03  0.17150669919E+02 -0.80614393629E+03  0.81660676794E+03  0.78404101242E+02 0.  0.
         25    2    1    2    0    0 -0.10540903692E+03  0.29897144241E+02 -0.11000996388E+03  0.19938775151E+03  0.12509348104E+03 0.  0.
         24    2    1    2    0    0  0.27580804126E+01 -0.47047814160E+02  0.13222542769E+04  0.13255821391E+04  0.81182085159E+02 0.  0.
        -13    1    5    5    0    0  0.14459041150E+02 -0.54985902531E+02  0.12747733919E+04  0.12760406397E+04  0.00000000000E+00 0.  1.
         14    1    5    5    0    0 -0.11700960738E+02  0.79380883712E+01  0.47480884997E+02  0.49541499466E+02  0.00000000000E+00 0. -1.
         11    1    3    3    0    0 -0.72841982309E+01  0.42173827918E+01 -0.11290651983E+02  0.14082779686E+02  0.00000000000E+00 0. -1.
        -12    1    3    3    0    0  0.10993515474E+03  0.12933287127E+02 -0.79485328430E+03  0.80252398826E+03  0.00000000000E+00 0.  1.
          5    1    4    4  501    0  0.14656368742E+02 -0.49655581366E+01  0.15418578957E+02  0.22241198020E+02  0.41800000000E+01 0.  1.
         -5    1    4    4    0  501 -0.12006540566E+03  0.34862702378E+02 -0.12542854284E+03  0.17714655349E+03  0.41800000000E+01 0.  1.
</event>
<event>
11    1  0.8037748E-009  0.1884439E+03  0.7561462E-02  0.1063010E+00
         22   -1    0    0    0    0  0.00000000000E+00  0.00000000000E+00  0.96021518277E+03  0.96021518277E+03  0.00000000000E+00 0.  1.
         22   -1    0    0    0    0 -0.00000000000E+00 -0.00000000000E+00 -0.76585615953E+02  0.76585615953E+02  0.00000000000E+00 0.  1.
        -24    2    1    2    0    0 -0.28200489398E+02  0.15337265364E+03  0.10942292198E+03  0.20689521538E+03  0.80708213987E+02 0.  0.
         25    2    1    2    0    0 -0.11046232700E+02 -0.11375205654E+03  0.29222200284E+03  0.33779090647E+03  0.12508975947E+03 0.  0.
         24    2    1    2    0    0  0.39246722098E+02 -0.39620597099E+02  0.48198464199E+03  0.49211467687E+03  0.82204398701E+02 0.  0.
        -13    1    5    5    0    0 -0.85579156172E+01 -0.45782313216E+02  0.31092210101E+03  0.31439117516E+03  0.00000000000E+00 0.  1.
         14    1    5    5    0    0  0.47804637715E+02  0.61617161166E+01  0.17106254098E+03  0.17772350171E+03  0.00000000000E+00 0. -1.
         13    1    3    3    0    0 -0.27979383154E+02  0.80252871854E+02  0.10293509163E+03  0.13348783619E+03  0.00000000000E+00 0. -1.
        -14    1    3    3    0    0 -0.22110624331E+00  0.73119781787E+02  0.64878303516E+01  0.73407379187E+02  0.00000000000E+00 0.  1.
          5    1    4    4  501    0  0.40555064043E+02 -0.86702658593E+02  0.24369316276E+03  0.26185090071E+03  0.41800000000E+01 0. -1.
         -5    1    4    4    0  501 -0.51601296743E+02 -0.27049397949E+02  0.48528840079E+02  0.75940005757E+02  0.41800000000E+01 0. -1.
</event>
<event>
11    1  0.8037748E-009  0.2654775E+03  0.7561462E-02  0.1015963E+00
         22   -1    0    0    0    0  0.00000000000E+00  0.00000000000E+00  0.20584198537E+04  0.20584198537E+04  0.00000000000E+00 0.  1.
         22   -1    0    0    0    0 -0.00000000000E+00 -0.00000000000E+00 -0.35851175344E+04  0.35851175344E+04  0.00000000000E+00 0.  1.
        -24    2    1    2    0    0  0.22584719996E+03 -0.60912802869E+02 -0.35402381397E+04  0.35488759581E+04  0.80728883857E+02 0.  0.
         25    2    1    2    0    0 -0.27332217446E+03  0.11295035277E+02  0.54587624127E+03  0.62326657378E+03  0.12509101618E+03 0.  0.
         24    2    1    2    0    0  0.47474974493E+02  0.49617767593E+02  0.14676642177E+04  0.14713948563E+04  0.79049169210E+02 0.  0.
        -13    1    5    5    0    0  0.21780582853E+02 -0.66753340784E+01  0.91392288103E+03  0.91420675252E+03  0.00000000000E+00 0.  1.
         14    1    5    5    0    0  0.25694391640E+02  0.56293101671E+02  0.55374133671E+03  0.55718810382E+03  0.00000000000E+00 0. -1.
         13    1    3    3    0    0  0.24710688366E+02 -0.49540791900E+01 -0.91583084385E+03  0.91617754588E+03  0.00000000000E+00 0. -1.
        -14    1    3    3    0    0  0.20113651160E+03 -0.55958723679E+02 -0.26244072959E+04  0.26326984122E+04  0.00000000000E+00 0.  1.
          5    1    4    4  501    0 -0.78097462937E+02 -0.18430198931E+02  0.64815686565E+02  0.10323483702E+03  0.41800000000E+01 0.  1.
         -5    1    4    4    0  501 -0.19522471152E+03  0.29725234208E+02  0.48106055471E+03  0.52003173675E+03  0.41800000000E+01 0.  1.
</event>
<event>
11    1  0.8037748E-009  0.2540654E+03  0.7561462E-02  0.1021756E+00
         22   -1    0    0    0    0  0.00000000000E+00  0.00000000000E+00  0.18915637812E+04  0.18915637812E+04  0.00000000000E+00 0.  1.
         22   -1    0    0    0    0 -0.00000000000E+00 -0.00000000000E+00 -0.10743853399E+03  0.10743853399E+03  0.00000000000E+00 0.  1.
        -24    2    1    2    0    0 -0.94792714751E+01 -0.27694541072E+02 -0.40918854240E+02  0.93879688790E+02  0.79260325145E+02 0.  0.
         25    2    1    2    0    0 -0.20691077556E+03  0.76527039174E+02  0.51478407824E+03  0.57386291435E+03  0.12509012946E+03 0.  0.
         24    2    1    2    0    0  0.21639004704E+03 -0.48832498102E+02  0.13102600232E+04  0.13312597121E+04  0.79131707828E+02 0.  0.
        -13    1    5    5    0    0  0.48898133181E+02 -0.61434679705E+01  0.51934441283E+03  0.52167747580E+03  0.00000000000E+00 0.  1.
         14    1    5    5    0    0  0.16749191386E+03 -0.42689030132E+02  0.79091561042E+03  0.80958223628E+03  0.00000000000E+00 0. -1.
         11    1    3    3    0    0 -0.25475763246E+01  0.14399338928E+02  0.16693214258E+02  0.22192217306E+02  0.00000000000E+00 0. -1.
        -12    1    3    3    0    0 -0.69316951505E+01 -0.42093880000E+02 -0.57612068498E+02  0.71687471483E+02  0.00000000000E+00 0.  1.
          5    1    4    4  501    0 -0.18193325736E+03  0.10754943441E+03  0.40216447827E+03  0.45433504262E+03  0.41800000000E+01 0. -1.
         -5    1    4    4    0  501 -0.24977518205E+02 -0.31022395234E+02  0.11261959998E+03  0.11952787173E+03  0.41800000000E+01 0. -1.
</event>
<event>
11    1  0.8037748E-009  0.1703561E+03  0.7561462E-02  0.1077722E+00
         22   -1    0    0    0    0  0.00000000000E+00  0.00000000000E+00  0.28030471493E+03  0.28030471493E+03  0.00000000000E+00 0. -1.
         22   -1    0    0    0    0 -0.00000000000E+00 -0.00000000000E+00 -0.17522395575E+04  0.17522395575E+04  0.00000000000E+00 0.  1.
        -24    2    1    2    0    0 -0.10241205069E+03 -0.65776823579E+02 -0.15271712156E+04  0.15340979983E+04  0.79937025254E+02 0.  0.
         25    2    1    2    0    0  0.90956337693E+02 -0.32564231171E+02 -0.17159170648E+03  0.23329440574E+03  0.12509628890E+03 0.  0.
         24    2    1    2    0    0  0.11455713002E+02  0.98341054750E+02  0.22682807958E+03  0.26515186832E+03  0.95143781618E+02 0.  0.
        -13    1    5    5    0    0  0.33277790883E+02  0.78496346255E+02  0.85375799211E+02  0.12065701319E+03  0.00000000000E+00 0.  1.
         14    1    5    5    0    0 -0.21822077881E+02  0.19844708494E+02  0.14145228037E+03  0.14449485513E+03  0.00000000000E+00 0. -1.
         13    1    3    3    0    0  0.11826013691E+02 -0.10900194862E+02 -0.29183053732E+03  0.29227338462E+03  0.00000000000E+00 0. -1.
        -14    1    3    3    0    0 -0.11423806439E+03 -0.54876628717E+02 -0.12353406783E+04  0.12418246137E+04  0.00000000000E+00 0.  1.
          5    1    4    4  501    0  0.66999969619E+02 -0.16002931277E+02 -0.10822054330E+02  0.69854699185E+02  0.41800000000E+01 0.  1.
         -5    1    4    4    0  501  0.23956368074E+02 -0.16561299894E+02 -0.16076965215E+03  0.16343970655E+03  0.41800000000E+01 0.  1.
</event>
<event>
11    1  0.1476681E-008  0.1811464E+03  0.7561462E-02  0.1068719E+00
         22   -1    0    0    0    0  0.00000000000E+00  0.00000000000E+00  0.71770239324E+03  0.71770239324E+03  0.00000000000E+00 0.  1.
         22   -1    0    0    0    0 -0.00000000000E+00 -0.00000000000E+00 -0.11734800692E+04  0.11734800692E+04  0.00000000000E+00 0. -1.
        -24    2    1    2    0    0  0.38996791250E+02  0.48770048397E+02 -0.84047547710E+03  0.84669217705E+03  0.81174797335E+02 0.  0.
         25    2    1    2    0    0  0.84608252452E+02 -0.93783363780E+02 -0.29664688359E+03  0.34582939311E+03  0.12507885469E+03 0.  0.
         24    2    1    2    0    0 -0.12360504370E+03  0.45013315383E+02  0.68134468478E+03  0.69866089223E+03  0.81191486414E+02 0.  0.
        -13    1    5    5    0    0 -0.68490315558E+02  0.65214636539E+02  0.46323898983E+03  0.47279407128E+03  0.00000000000E+00 0.  1.
         14    1    5    5    0    0 -0.55114728143E+02 -0.20201321156E+02  0.21810569496E+03  0.22586682095E+03  0.00000000000E+00 0. -1.
         11    1    3    3    0    0  0.19867656583E+00  0.54150562359E+02 -0.64877370685E+03  0.65102968103E+03  0.00000000000E+00 0. -1.
        -12    1    3    3    0    0  0.38798114684E+02 -0.53805139614E+01 -0.19170177025E+03  0.19566249603E+03  0.00000000000E+00 0.  1.
          5    1    4    4  501    0 -0.17581697471E+02  0.18493230540E+02 -0.41065020411E+02  0.48527558800E+02  0.41800000000E+01 0.  1.
         -5    1    4    4    0  501  0.10218994992E+03 -0.11227659432E+03 -0.25558186318E+03  0.29730183431E+03  0.41800000000E+01 0.  1.
</event>
<event>
11    1  0.8037748E-009  0.1357782E+03  0.7561462E-02  0.1112366E+00
         22   -1    0    0    0    0  0.00000000000E+00  0.00000000000E+00  0.87723089013E+03  0.87723089013E+03  0.00000000000E+00 0. -1.
         22   -1    0    0    0    0 -0.00000000000E+00 -0.00000000000E+00 -0.32080288923E+03  0.32080288923E+03  0.00000000000E+00 0.  1.
        -24    2    1    2    0    0 -0.14665168434E+02  0.48152789121E+02 -0.29620904899E+03  0.31097819286E+03  0.80211454694E+02 0.  0.
         25    2    1    2    0    0  0.21204561019E+02  0.17294325666E+02  0.32097034037E+03  0.34556862470E+03  0.12508792055E+03 0.  0.
         24    2    1    2    0    0 -0.65393925853E+01 -0.65447114787E+02  0.53166670953E+03  0.54148696180E+03  0.78819739226E+02 0.  0.
        -11    1    5    5    0    0  0.53905838569E+01  0.32044845997E+01  0.11033037724E+01  0.63674480824E+01  0.00000000000E+00 0.  1.
         12    1    5    5    0    0 -0.11929976442E+02 -0.68651599387E+02  0.53056340576E+03  0.53511951372E+03  0.00000000000E+00 0. -1.
         13    1    3    3    0    0 -0.42987720218E+02  0.15897438855E+02 -0.20654090148E+03  0.21156515931E+03  0.00000000000E+00 0. -1.
        -14    1    3    3    0    0  0.28322551785E+02  0.32255350267E+02 -0.89668147516E+02  0.99413033548E+02  0.00000000000E+00 0.  1.
          5    1    4    4  501    0  0.48272071258E+02  0.43093368026E+02  0.86541146323E+02  0.10813914018E+03  0.41800000000E+01 0.  1.
         -5    1    4    4    0  501 -0.27067510239E+02 -0.25799042359E+02  0.23442919405E+03  0.23742948452E+03  0.41800000000E+01 0.  1.
</event>
<event>
11    1  0.8037748E-009  0.1602280E+03  0.7561462E-02  0.1086863E+00
         22   -1    0    0    0    0  0.00000000000E+00  0.00000000000E+00  0.13877345574E+03  0.13877345574E+03  0.00000000000E+00 0.  1.
         22   -1    0    0    0    0 -0.00000000000E+00 -0.00000000000E+00 -0.34190826622E+04  0.34190826622E+04  0.00000000000E+00 0.  1.
         24    2    1    2    0    0  0.91915940900E+02 -0.43605558790E+02 -0.31298793560E+04  0.31326903835E+04  0.85172007227E+02 0.  0.
         25    2    1    2    0    0 -0.97630087949E+02 -0.47557793979E+02 -0.22682477889E+03  0.28086767772E+03  0.12507515432E+03 0.  0.
        -24    2    1    2    0    0  0.57141470487E+01  0.91163352769E+02  0.76394928433E+02  0.14429805673E+03  0.81500525888E+02 0.  0.
        -13    1    3    3    0    0  0.41731678243E+01 -0.17486192750E+02 -0.15843732054E+04  0.15844751927E+04  0.00000000000E+00 0.  1.
         14    1    3    3    0    0  0.87742773076E+02 -0.26119366040E+02 -0.15455061506E+04  0.15482151908E+04  0.00000000000E+00 0. -1.
         13    1    5    5    0    0 -0.36932649976E+01  0.91556107625E+02  0.29196489391E+02  0.96169621205E+02  0.00000000000E+00 0. -1.
        -14    1    5    5    0    0  0.94074120462E+01 -0.39275485643E+00  0.47198439041E+02  0.48128435521E+02  0.00000000000E+00 0.  1.
          5    1    4    4  501    0 -0.31956456321E+02 -0.82673492980E+02 -0.99630485164E+02  0.13341599423E+03  0.41800000000E+01 0.  1.
         -5    1    4    4    0  501 -0.65673631628E+02  0.35115699001E+02 -0.12719429372E+03  0.14745168349E+03  0.41800000000E+01 0.  1.
</event>
<event>
11    1  0.8037748E-009  0.1442889E+03  0.7561462E-02  0.1102862E+00
         22   -1    0    0    0    0  0.00000000000E+00  0.00000000000E+00  0.43557314508E+03  0.43557314508E+03  0.00000000000E+00 0. -1.
         22   -1    0    0    0    0 -0.00000000000E+00 -0.00000000000E+00 -0.12746758918E+03  0.12746758918E+03  0.00000000000E+00 0. -1.
         24    2    1    2    0    0  0.11170219752E+02  0.68172130822E+02 -0.61212609164E+02  0.12168480286E+03  0.79296875710E+02 0.  0.
         25    2    1    2    0    0 -0.11528242473E+02 -0.94214183571E+02  0.21965829287E+03  0.27001236190E+03  0.12509075583E+03 0.  0.
        -24    2    1    2    0    0  0.35802272078E+00  0.26042052749E+02  0.14965987220E+03  0.17134356950E+03  0.79260486823E+02 0.  0.
        -11    1    3    3    0    0 -0.13633231274E+02  0.25751240719E+02 -0.66164253651E+02  0.72295918659E+02  0.00000000000E+00 0.  1.
         12    1    3    3    0    0  0.24803451026E+02  0.42420890102E+02  0.49516444875E+01  0.49388884205E+02  0.00000000000E+00 0. -1.
         11    1    5    5    0    0 -0.18753179212E+01  0.27202887726E+02  0.15917885410E+03  0.16149743499E+03  0.00000000000E+00 0. -1.
        -12    1    5    5    0    0  0.22333406420E+01 -0.11608349775E+01 -0.95189819010E+01  0.98461345054E+01  0.00000000000E+00 0.  1.
          5    1    4    4  501    0  0.26983052853E+02 -0.11092460438E+03  0.14954109298E+03  0.18818173102E+03  0.41800000000E+01 0.  1.
         -5    1    4    4    0  501 -0.38511295326E+02  0.16710420810E+02  0.70117199887E+02  0.81830630887E+02  0.41800000000E+01 0.  1.
</event>
<event>
11    1  0.8037748E-009  0.1601954E+03  0.7561462E-02  0.1086894E+00
         22   -1    0    0    0    0  0.00000000000E+00  0.00000000000E+00  0.48006007594E+02  0.48006007594E+02  0.00000000000E+00 0.  1.
         22   -1    0    0    0    0 -0.00000000000E+00 -0.00000000000E+00 -0.13658037065E+04  0.13658037065E+04  0.00000000000E+00 0. -1.
         24    2    1    2    0    0  0.21146066198E+02 -0.60620790358E+02 -0.74309216542E+03  0.75037209760E+03  0.82160101049E+02 0.  0.
         25    2    1    2    0    0  0.23391146451E+02 -0.44892735535E+02 -0.46985564081E+03  0.48885073954E+03  0.12509284119E+03 0.  0.
        -24    2    1    2    0    0 -0.44537212649E+02  0.10551352589E+03 -0.10484989265E+03  0.17458687692E+03  0.79814849172E+02 0.  0.
        -11    1    3    3    0    0 -0.23063997830E+02 -0.35258547967E+02 -0.51177308438E+03  0.51350443338E+03  0.00000000000E+00 0.  1.
         12    1    3    3    0    0  0.44210064028E+02 -0.25362242391E+02 -0.23131908104E+03  0.23686766422E+03  0.00000000000E+00 0. -1.
         11    1    5    5    0    0  0.86014810336E+01  0.62292893178E+02 -0.79922790472E+02  0.10169583302E+03  0.00000000000E+00 0. -1.
        -12    1    5    5    0    0 -0.53138693683E+02  0.43220632715E+02 -0.24927102177E+02  0.72891043905E+02  0.00000000000E+00 0.  1.
          5    1    4    4  501    0  0.11838640110E+02 -0.76287374198E+02 -0.16589304633E+03  0.18302429369E+03  0.41800000000E+01 0. -1.
         -5    1    4    4    0  501  0.11552506341E+02  0.31394638663E+02 -0.30396259448E+03  0.30582644585E+03  0.41800000000E+01 0. -1.
</event>
<event>
11    1  0.8037748E-009  0.1286852E+03  0.7561462E-02  0.1120895E+00
         22   -1    0    0    0    0  0.00000000000E+00  0.00000000000E+00  0.78364811275E+03  0.78364811275E+03  0.00000000000E+00 0.  1.
         22   -1    0    0    0    0 -0.00000000000E+00 -0.00000000000E+00 -0.20602215952E+04  0.20602215952E+04  0.00000000000E+00 0. -1.
        -24    2    1    2    0    0 -0.91448909554E+01 -0.15720849062E+02 -0.19325559568E+04  0.19343158850E+04  0.80465163396E+02 0.  0.
         25    2    1    2    0    0 -0.19341318813E+02  0.49379004247E+01 -0.92143802069E+02  0.15664354366E+03  0.12509296558E+03 0.  0.
         24    2    1    2    0    0  0.28486209768E+02  0.10782948637E+02  0.74812627643E+03  0.75291027933E+03  0.79077348902E+02 0.  0.
        -13    1    5    5    0    0  0.46223973914E+02  0.31294314460E+02  0.57073538904E+03  0.57345869440E+03  0.00000000000E+00 0.  1.
         14    1    5    5    0    0 -0.17737764146E+02 -0.20511365823E+02  0.17739088739E+03  0.17945158493E+03  0.00000000000E+00 0. -1.
         11    1    3    3    0    0 -0.28461148313E+02 -0.15966293135E+01 -0.17458515924E+04  0.17460842961E+04  0.00000000000E+00 0. -1.
        -12    1    3    3    0    0  0.19316257358E+02 -0.14124219748E+02 -0.18670436441E+03  0.18823158893E+03  0.00000000000E+00 0.  1.
          5    1    4    4  501    0 -0.49868296497E+02 -0.40020284671E+02 -0.21861670999E+02  0.67704322162E+02  0.41800000000E+01 0. -1.
         -5    1    4    4    0  501  0.30526977684E+02  0.44958185095E+02 -0.70282131071E+02  0.88939221502E+02  0.41800000000E+01 0. -1.
</event>
<event>
11    1  0.8037748E-009  0.1645506E+03  0.7561462E-02  0.1082874E+00
         22   -1    0    0    0    0  0.00000000000E+00  0.00000000000E+00  0.12314806698E+04  0.12314806698E+04  0.00000000000E+00 0.  1.
         22   -1    0    0    0    0 -0.00000000000E+00 -0.00000000000E+00 -0.53644455836E+03  0.53644455836E+03  0.00000000000E+00 0.  1.
        -24    2    1    2    0    0 -0.50761667968E+02 -0.40134577118E+02 -0.50866968107E+03  0.51830938239E+03  0.75579363731E+02 0.  0.
         25    2    1    2    0    0  0.14218779807E+03  0.52900928307E+01  0.50208572667E+03  0.53663631317E+03  0.12507238174E+03 0.  0.
         24    2    1    2    0    0 -0.91426130105E+02  0.34844484288E+02  0.70162006583E+03  0.71297953258E+03  0.80599142436E+02 0.  0.
        -11    1    5    5    0    0 -0.79041303444E+02  0.42243260645E+02  0.68555241456E+03  0.69138566215E+03  0.00000000000E+00 0.  1.
         12    1    5    5    0    0 -0.12384826661E+02 -0.73987763573E+01  0.16067651267E+02  0.21593870432E+02  0.00000000000E+00 0. -1.
         11    1    3    3    0    0 -0.15735094168E+02 -0.12697111332E+02 -0.23072911540E+02  0.30678478965E+02  0.00000000000E+00 0. -1.
        -12    1    3    3    0    0 -0.35026573799E+02 -0.27437465786E+02 -0.48559676953E+03  0.48763090343E+03  0.00000000000E+00 0.  1.
          5    1    4    4  501    0  0.15786379599E+03 -0.18839289091E+02  0.44512640282E+03  0.47268476153E+03  0.41800000000E+01 0.  1.
         -5    1    4    4    0  501 -0.15675997914E+02  0.24129381921E+02  0.56959323856E+02  0.63951551636E+02  0.41800000000E+01 0.  1.
</event>
<event>
11    1  0.8037748E-009  0.2912901E+03  0.7561462E-02  0.1003946E+00
         22   -1    0    0    0    0  0.00000000000E+00  0.00000000000E+00  0.81197740567E+03  0.81197740567E+03  0.00000000000E+00 0.  1.
         22   -1    0    0    0    0 -0.00000000000E+00 -0.00000000000E+00 -0.53902378671E+03  0.53902378671E+03  0.00000000000E+00 0. -1.
         24    2    1    2    0    0 -0.80721741378E+02 -0.42017533562E+02 -0.36249218250E+03  0.38329713054E+03  0.85056659064E+02 0.  0.
         25    2    1    2    0    0 -0.17625194988E+03  0.13759195358E+03 -0.13530600002E+02  0.25657001564E+03  0.12509516482E+03 0.  0.
        -24    2    1    2    0    0  0.25697369125E+03 -0.95574420016E+02  0.64897640146E+03  0.71113404621E+03  0.96805548736E+02 0.  0.
        -11    1    3    3    0    0 -0.15805112785E+02 -0.18914970283E+02 -0.14603681707E+02  0.28650396339E+02  0.00000000000E+00 0.  1.
         12    1    3    3    0    0 -0.64916628593E+02 -0.23102563279E+02 -0.34788850079E+03  0.35464673420E+03  0.00000000000E+00 0. -1.
         11    1    5    5    0    0  0.80601866126E+02 -0.24361246796E+02  0.32230676186E+03  0.33312427097E+03  0.00000000000E+00 0. -1.
        -12    1    5    5    0    0  0.17637182513E+03 -0.71213173220E+02  0.32666963960E+03  0.37800977524E+03  0.00000000000E+00 0.  1.
          5    1    4    4  501    0 -0.85317142719E+02  0.14109963834E+03 -0.41948791210E+01  0.16499452170E+03  0.41800000000E+01 0.  1.
         -5    1    4    4    0  501 -0.90934807157E+02 -0.35076847581E+01 -0.93357208812E+01  0.91575493935E+02  0.41800000000E+01 0.  1.
</event>
<event>
11    1  0.8037748E-009  0.2155772E+03  0.7561462E-02  0.1044024E+00
         22   -1    0    0    0    0  0.00000000000E+00  0.00000000000E+00  0.13923345903E+04  0.13923345903E+04  0.00000000000E+00 0.  1.
         22   -1    0    0    0    0 -0.00000000000E+00 -0.00000000000E+00 -0.55624429794E+02  0.55624429794E+02  0.00000000000E+00 0.  1.
        -24    2    1    2    0    0 -0.15422088167E+03 -0.83116925043E+02  0.26319742951E+03  0.33027780127E+03  0.95488405288E+02 0.  0.
         25    2    1    2    0    0  0.17379167686E+03  0.46719183463E+02  0.71928167858E+03  0.75192840245E+03  0.12507581790E+03 0.  0.
         24    2    1    2    0    0 -0.19570795195E+02  0.36397741580E+02  0.35423105239E+03  0.36575281634E+03  0.81164478469E+02 0.  0.
        -13    1    5    5    0    0  0.12203565931E+02 -0.20655568381E+02  0.66252752179E+02  0.70462803648E+02  0.00000000000E+00 0.  1.
         14    1    5    5    0    0 -0.31774361126E+02  0.57053309960E+02  0.28797830021E+03  0.29529001269E+03  0.00000000000E+00 0. -1.
         11    1    3    3    0    0 -0.57984645759E+02 -0.56255978471E+02  0.50480172766E+02  0.95263855160E+02  0.00000000000E+00 0. -1.
        -12    1    3    3    0    0 -0.96236235909E+02 -0.26860946572E+02  0.21271725674E+03  0.23501394611E+03  0.00000000000E+00 0.  1.
          5    1    4    4  501    0  0.25989875733E+02  0.28501206060E+02  0.37230024480E+03  0.37431635960E+03  0.41800000000E+01 0.  1.
         -5    1    4    4    0  501  0.14780180113E+03  0.18217977402E+02  0.34698143377E+03  0.37761204285E+03  0.41800000000E+01 0.  1.
</event>
<event>
11    1  0.8037748E-009  0.1736310E+03  0.7561462E-02  0.1074914E+00
         22   -1    0    0    0    0  0.00000000000E+00  0.00000000000E+00  0.20538685953E+04  0.20538685953E+04  0.00000000000E+00 0. -1.
         22   -1    0    0    0    0 -0.00000000000E+00 -0.00000000000E+00 -0.42001643233E+04  0.42001643233E+04  0.00000000000E+00 0. -1.
         24    2    1    2    0    0 -0.36547094053E+02 -0.18046444123E+02 -0.41306981441E+04  0.41315795131E+04  0.74971669161E+02 0.  0.
         25    2    1    2    0    0  0.15457897992E+03  0.22185227979E+01  0.82770130679E+02  0.21540020471E+03  0.12508705281E+03 0.  0.
        -24    2    1    2    0    0 -0.11803188587E+03  0.15827921325E+02  0.19016322853E+04  0.19070532008E+04  0.80402195577E+02 0.  0.
        -11    1    3    3    0    0 -0.57417321152E+02 -0.75001669102E+01 -0.22863775684E+04  0.22871107071E+04  0.00000000000E+00 0.  1.
         12    1    3    3    0    0  0.20870227099E+02 -0.10546277213E+02 -0.18443205757E+04  0.18444688060E+04  0.00000000000E+00 0. -1.
         13    1    5    5    0    0 -0.12409216282E+03  0.55963597680E+00  0.17794312054E+04  0.17837529517E+04  0.00000000000E+00 0. -1.
        -14    1    5    5    0    0  0.60602769450E+01  0.15268285349E+02  0.12220107995E+03  0.12330024913E+03  0.00000000000E+00 0.  1.
          5    1    4    4  501    0 -0.55202745648E+00 -0.27928438601E+02  0.44563273088E+02  0.52760403006E+02  0.41800000000E+01 0.  1.
         -5    1    4    4    0  501  0.15513100738E+03  0.30146961399E+02  0.38206857591E+02  0.16263980171E+03  0.41800000000E+01 0.  1.
</event>
<event>
11    1  0.8037748E-009  0.1584574E+03  0.7561462E-02  0.1088537E+00
         22   -1    0    0    0    0  0.00000000000E+00  0.00000000000E+00  0.36044987954E+04  0.36044987954E+04  0.00000000000E+00 0. -1.
         22   -1    0    0    0    0 -0.00000000000E+00 -0.00000000000E+00 -0.15747686680E+03  0.15747686680E+03  0.00000000000E+00 0. -1.
         24    2    1    2    0    0 -0.15991033601E+02 -0.27609899895E+02 -0.65876998824E+02  0.10882905768E+03  0.80535489657E+02 0.  0.
         25    2    1    2    0    0  0.10976928424E+03  0.52037375950E+02  0.41199573464E+02  0.17916853023E+03  0.12508706214E+03 0.  0.
        -24    2    1    2    0    0 -0.93778250635E+02 -0.24427476055E+02  0.34716993540E+04  0.34739780743E+04  0.80225896168E+02 0.  0.
        -13    1    3    3    0    0  0.14353800803E+02 -0.98801647610E+01  0.13484672580E+02  0.22033738852E+02  0.00000000000E+00 0.  1.
         14    1    3    3    0    0 -0.30344834404E+02 -0.17729735134E+02 -0.79361671403E+02  0.86795318830E+02  0.00000000000E+00 0. -1.
         11    1    5    5    0    0 -0.60626683718E+02 -0.36717641817E+02  0.30423089917E+04  0.30431345322E+04  0.00000000000E+00 0. -1.
        -12    1    5    5    0    0 -0.33151566917E+02  0.12290165762E+02  0.42939036232E+03  0.43084354216E+03  0.00000000000E+00 0.  1.
          5    1    4    4  501    0  0.12505916559E+02 -0.35049957043E+02 -0.10177682735E+02  0.38806636849E+02  0.41800000000E+01 0. -1.
         -5    1    4    4    0  501  0.97263367677E+02  0.87087332993E+02  0.51377256198E+02  0.14036189338E+03  0.41800000000E+01 0. -1.
</event>
<event>
11    1  0.8037748E-009  0.1290148E+03  0.7561462E-02  0.1120485E+00
         22   -1    0    0    0    0  0.00000000000E+00  0.00000000000E+00  0.96980104188E+03  0.96980104188E+03  0.00000000000E+00 0. -1.
         22   -1    0    0    0    0 -0.00000000000E+00 -0.00000000000E+00 -0.24197680400E+03  0.24197680400E+03  0.00000000000E+00 0.  1.
        -24    2    1    2    0    0 -0.10916237635E+02 -0.21692268490E+02 -0.17311367425E+03  0.18971125981E+03  0.73704132369E+02 0.  0.
         25    2    1    2    0    0  0.42067039559E+02  0.19628481822E+02  0.17949319881E+02  0.13462837231E+03  0.12509079675E+03 0.  0.
         24    2    1    2    0    0 -0.31150801924E+02  0.20637866684E+01  0.88298859226E+03  0.88743821376E+03  0.83084881313E+02 0.  0.
        -13    1    5    5    0    0  0.13720745903E+02  0.16566289094E+02  0.73649449225E+02  0.76726411187E+02  0.00000000000E+00 0.  1.
         14    1    5    5    0    0 -0.44871547827E+02 -0.14502502426E+02  0.80933914303E+03  0.81071180257E+03  0.00000000000E+00 0. -1.
         11    1    3    3    0    0  0.10967597979E+02 -0.42754669898E+02 -0.12737835038E+03  0.13480910262E+03  0.00000000000E+00 0. -1.
        -12    1    3    3    0    0 -0.21883835614E+02  0.21062401407E+02 -0.45735323874E+02  0.54902157190E+02  0.00000000000E+00 0.  1.
          5    1    4    4  501    0 -0.20608374998E+02 -0.36158421665E+02 -0.14929260665E+02  0.44412743682E+02  0.41800000000E+01 0.  1.
         -5    1    4    4    0  501  0.62675414558E+02  0.55786903487E+02  0.32878580545E+02  0.90215628631E+02  0.41800000000E+01 0.  1.
</event>
<event>
11    1  0.8037748E-009  0.1439198E+03  0.7561462E-02  0.1103259E+00
         22   -1    0    0    0    0  0.00000000000E+00  0.00000000000E+00  0.23286021652E+03  0.23286021652E+03  0.00000000000E+00 0. -1.
         22   -1    0    0    0    0 -0.00000000000E+00 -0.00000000000E+00 -0.98462198302E+03  0.98462198302E+03  0.00000000000E+00 0. -1.
        -24    2    1    2    0    0  0.17645258660E+02  0.70546411995E+02 -0.89150013193E+03  0.89813269362E+03  0.81127669246E+02 0.  0.
         25    2    1    2    0    0 -0.55676636131E+02 -0.27445936691E+02 -0.10296492116E+02  0.14002365759E+03  0.12508972653E+03 0.  0.
         24    2    1    2    0    0  0.38031377471E+02 -0.43100475304E+02  0.15003485755E+03  0.17932584833E+03  0.79644615365E+02 0.  0.
        -11    1    5    5    0    0  0.30847641242E+02 -0.45589266049E+02  0.37662243668E+02  0.66696347330E+02  0.00000000000E+00 0.  1.
         12    1    5    5    0    0  0.71837362291E+01  0.24887907448E+01  0.11237261388E+03  0.11262950100E+03  0.00000000000E+00 0. -1.
         13    1    3    3    0    0  0.34314029117E+02  0.58174134838E+02 -0.83844691868E+03  0.84116283679E+03  0.00000000000E+00 0. -1.
        -14    1    3    3    0    0 -0.16668770456E+02  0.12372277157E+02 -0.53053213252E+02  0.56969856828E+02  0.00000000000E+00 0.  1.
          5    1    4    4  501    0  0.26763495138E+01 -0.11378003516E+02 -0.60200553889E+02  0.61467071666E+02  0.41800000000E+01 0. -1.
         -5    1    4    4    0  501 -0.58352985645E+02 -0.16067933175E+02  0.49904061773E+02  0.78556585921E+02  0.41800000000E+01 0. -1.
</event>
<event>
11    1  0.8037748E-009  0.1434215E+03  0.7561462E-02  0.1103797E+00
         22   -1    0    0    0    0  0.00000000000E+00  0.00000000000E+00  0.61155462712E+03  0.61155462712E+03  0.00000000000E+00 0. -1.
         22   -1    0    0    0    0 -0.00000000000E+00 -0.00000000000E+00 -0.35277117163E+03  0.35277117163E+03  0.00000000000E+00 0.  1.
        -24    2    1    2    0    0  0.64885263026E+02 -0.21826309957E+02 -0.24499874200E+03  0.26686017980E+03  0.80644198901E+02 0.  0.
         25    2    1    2    0    0 -0.58469543662E+02  0.70417522543E+02 -0.27768501915E+02  0.15746678118E+03  0.12508949780E+03 0.  0.
         24    2    1    2    0    0 -0.64157193637E+01 -0.48591212586E+02  0.53155069940E+03  0.53999883777E+03  0.81549563829E+02 0.  0.
        -13    1    5    5    0    0 -0.30603932842E+02 -0.38137752426E+02  0.15506806917E+03  0.16259518733E+03  0.00000000000E+00 0.  1.
         14    1    5    5    0    0  0.24188213478E+02 -0.10453460160E+02  0.37648263023E+03  0.37740365044E+03  0.00000000000E+00 0. -1.
         13    1    3    3    0    0  0.88890904995E+01  0.44770472381E+01  0.36724007340E+01  0.10608789235E+02  0.00000000000E+00 0. -1.
        -14    1    3    3    0    0  0.55996172526E+02 -0.26303357196E+02 -0.24867114273E+03  0.25625139056E+03  0.00000000000E+00 0.  1.
          5    1    4    4  501    0 -0.53087159874E+02  0.38274777486E+02 -0.75192357507E+02  0.99772582219E+02  0.41800000000E+01 0. -1.
         -5    1    4    4    0  501 -0.53823837879E+01  0.32142745057E+02  0.47423855592E+02  0.57694198966E+02  0.41800000000E+01 0. -1.
</event>
<event>
11    1  0.8037748E-009  0.2671475E+03  0.7561462E-02  0.1015141E+00
         22   -1    0    0    0    0  0.00000000000E+00  0.00000000000E+00  0.82445893546E+03  0.82445893546E+03  0.00000000000E+00 0. -1.
         22   -1    0    0    0    0 -0.00000000000E+00 -0.00000000000E+00 -0.66334099481E+03  0.66334099481E+03  0.00000000000E+00 0.  1.
         24    2    1    2    0    0  0.27583005536E+02 -0.30496129230E+02 -0.53108636478E+03  0.53856011166E+03  0.79394149154E+02 0.  0.
         25    2    1    2    0    0  0.12049029166E+03 -0.16316002478E+03  0.31862324474E+02  0.24042020807E+03  0.12509022608E+03 0.  0.
        -24    2    1    2    0    0 -0.14807329719E+03  0.19365615401E+03  0.66034198096E+03  0.70881961055E+03  0.83338473418E+02 0.  0.
        -11    1    3    3    0    0  0.26597768931E+02 -0.18636067454E+00 -0.46596871038E+03  0.46672723843E+03  0.00000000000E+00 0.  1.
         12    1    3    3    0    0  0.98523660491E+00 -0.30309768556E+02 -0.65117654409E+02  0.71832873232E+02  0.00000000000E+00 0. -1.
         13    1    5    5    0    0 -0.52655526382E+02  0.13350490071E+03  0.40494205435E+03  0.42962103109E+03  0.00000000000E+00 0. -1.
        -14    1    5    5    0    0 -0.95417770810E+02  0.60151253300E+02  0.25539992661E+03  0.27919857946E+03  0.00000000000E+00 0.  1.
          5    1    4    4  501    0  0.82965744928E+02 -0.50076731186E+02 -0.35734277918E+02  0.10337023196E+03  0.41800000000E+01 0. -1.
         -5    1    4    4    0  501  0.37524546729E+02 -0.11308329359E+03  0.67596602392E+02  0.13704997611E+03  0.41800000000E+01 0. -1.
</event>
<event>
11    1  0.8037748E-009  0.1315743E+03  0.7561462E-02  0.1117350E+00
         22   -1    0    0    0    0  0.00000000000E+00  0.00000000000E+00  0.20171137864E+04  0.20171137864E+04  0.00000000000E+00 0.  1.
         22   -1    0    0    0    0 -0.00000000000E+00 -0.00000000000E+00 -0.76202308930E+03  0.76202308930E+03  0.00000000000E+00 0. -1.
        -24    2    1    2    0    0  0.39490659317E+02  0.77229568474E+01 -0.72317814882E+03  0.72869971846E+03  0.79984301703E+02 0.  0.
         25    2    1    2    0    0 -0.69089215415E+02 -0.92220860836E+01  0.11113192901E+03  0.18126568689E+03  0.12509427261E+03 0.  0.
         24    2    1    2    0    0  0.29598556098E+02  0.14991292362E+01  0.18671369169E+04  0.18691714703E+04  0.81996324525E+02 0.  0.
        -11    1    5    5    0    0  0.38387829959E+01  0.21791979822E+02  0.15820473776E+04  0.15822021147E+04  0.00000000000E+00 0.  1.
         12    1    5    5    0    0  0.25759773102E+02 -0.20292850586E+02  0.28508953921E+03  0.28696935562E+03  0.00000000000E+00 0. -1.
         11    1    3    3    0    0  0.28142949196E+02 -0.35020404158E+02 -0.33068896332E+03  0.33372690146E+03  0.00000000000E+00 0. -1.
        -12    1    3    3    0    0  0.11347710121E+02  0.42743361005E+02 -0.39248918549E+03  0.39497281699E+03  0.00000000000E+00 0.  1.
          5    1    4    4  501    0 -0.12299685734E+02  0.53782584029E+01 -0.27389188475E+02  0.30787139814E+02  0.41800000000E+01 0.  1.
         -5    1    4    4    0  501 -0.56789529681E+02 -0.14600344487E+02  0.13852111749E+03  0.15047854708E+03  0.41800000000E+01 0.  1.
</event>
<event>
11    1  0.8037748E-009  0.1419330E+03  0.7561462E-02  0.1105419E+00
         22   -1    0    0    0    0  0.00000000000E+00  0.00000000000E+00  0.41019769727E+03  0.41019769727E+03  0.00000000000E+00 0. -1.
         22   -1    0    0    0    0 -0.00000000000E+00 -0.00000000000E+00 -0.17506478272E+04  0.17506478272E+04  0.00000000000E+00 0. -1.
         24    2    1    2    0    0  0.29564610043E+00 -0.51937508708E+02 -0.15848172645E+04  0.15877551775E+04  0.81382735090E+02 0.  0.
         25    2    1    2    0    0 -0.53832629942E+02  0.92712401309E+01 -0.12749446624E+03  0.18677623603E+03  0.12508643205E+03 0.  0.
        -24    2    1    2    0    0  0.53536983842E+02  0.42666268577E+02  0.37186160083E+03  0.38631411094E+03  0.79189159752E+02 0.  0.
        -13    1    3    3    0    0 -0.37708135140E+02 -0.39421709450E+02 -0.10674335519E+04  0.10688266288E+04  0.00000000000E+00 0.  1.
         14    1    3    3    0    0  0.38003781240E+02 -0.12515799257E+02 -0.51738371263E+03  0.51892854876E+03  0.00000000000E+00 0. -1.
         13    1    5    5    0    0  0.30122951237E+02  0.59281991699E+02  0.17209821689E+03  0.18449808397E+03  0.00000000000E+00 0. -1.
        -14    1    5    5    0    0  0.23414032605E+02 -0.16615723122E+02  0.19976338394E+03  0.20181602697E+03  0.00000000000E+00 0.  1.
          5    1    4    4  501    0  0.16188745000E+02  0.38493854521E+02 -0.95520898339E+02  0.10433391932E+03  0.41800000000E+01 0. -1.
         -5    1    4    4    0  501 -0.70021374942E+02 -0.29222614390E+02 -0.31973567901E+02  0.82442316712E+02  0.41800000000E+01 0. -1.
</event>
<event>
11    1  0.8037748E-009  0.1319904E+03  0.7561462E-02  0.1116847E+00
         22   -1    0    0    0    0  0.00000000000E+00  0.00000000000E+00  0.73558570285E+02  0.73558570285E+02  0.00000000000E+00 0. -1.
         22   -1    0    0    0    0 -0.00000000000E+00 -0.00000000000E+00 -0.41669517327E+03  0.41669517327E+03  0.00000000000E+00 0. -1.
        -24    2    1    2    0    0 -0.20625879818E+01  0.39143738868E+02 -0.19077723603E+03  0.21385814396E+03  0.88333829235E+02 0.  0.
         25    2    1    2    0    0  0.17857550841E+02 -0.46536897461E+02 -0.16028823230E+03  0.20934349873E+03  0.12509119912E+03 0.  0.
         24    2    1    2    0    0 -0.15794962859E+02  0.73931585934E+01  0.79288653522E+01  0.67052100869E+02  0.64257121624E+02 0.  0.
        -11    1    5    5    0    0 -0.16419385799E+01 -0.10106350050E+02 -0.25086312648E+02  0.27095338269E+02  0.00000000000E+00 0.  1.
         12    1    5    5    0    0 -0.14153024279E+02  0.17499508644E+02  0.33015178000E+02  0.39956762599E+02  0.00000000000E+00 0. -1.
         11    1    3    3    0    0  0.40766275361E+02  0.19263756932E+02 -0.61726361045E+02  0.76440337426E+02  0.00000000000E+00 0. -1.
        -12    1    3    3    0    0 -0.42828863343E+02  0.19879981935E+02 -0.12905087499E+03  0.13741780653E+03  0.00000000000E+00 0.  1.
          5    1    4    4  501    0 -0.29715102396E+02  0.30752909388E+02 -0.40938322681E+02  0.59347682433E+02  0.41800000000E+01 0. -1.
         -5    1    4    4    0  501  0.47572653237E+02 -0.77289806849E+02 -0.11934990962E+03  0.14999581629E+03  0.41800000000E+01 0. -1.
</event>
<event>
11    1  0.8037748E-009  0.1498153E+03  0.7561462E-02  0.1097068E+00
         22   -1    0    0    0    0  0.00000000000E+00  0.00000000000E+00  0.14640826716E+03  0.14640826716E+03  0.00000000000E+00 0.  1.
         22   -1    0    0    0    0 -0.00000000000E+00 -0.00000000000E+00 -0.19011456874E+04  0.19011456874E+04  0.00000000000E+00 0. -1.
        -24    2    1    2    0    0 -0.43764357744E+02 -0.63948411478E+02 -0.17596734438E+04  0.17632274290E+04  0.80719385402E+02 0.  0.
         25    2    1    2    0    0 -0.35767663635E+02 -0.65886210171E+01 -0.50340980472E+02  0.13964380779E+03  0.12507375045E+03 0.  0.
         24    2    1    2    0    0  0.79532021379E+02  0.70537032495E+02  0.55277004003E+02  0.14468271780E+03  0.81097017709E+02 0.  0.
        -11    1    5    5    0    0  0.91766759673E+02  0.55810017205E+02  0.62445019021E+02  0.12423878864E+03  0.00000000000E+00 0.  1.
         12    1    5    5    0    0 -0.12234738294E+02  0.14727015290E+02 -0.71680150173E+01  0.20443929167E+02  0.00000000000E+00 0. -1.
         13    1    3    3    0    0 -0.41692394564E+02 -0.67826842367E+02 -0.17550205236E+04  0.17568254821E+04  0.00000000000E+00 0. -1.
        -14    1    3    3    0    0 -0.20719631802E+01  0.38784308887E+01 -0.46529202162E+01  0.64019469005E+01  0.00000000000E+00 0.  1.
          5    1    4    4  501    0 -0.38501873390E+02  0.20281130393E+02 -0.84953530454E+02  0.95542101930E+02  0.41800000000E+01 0.  1.
         -5    1    4    4    0  501  0.27342097551E+01 -0.26869751410E+02  0.34612549982E+02  0.44101705864E+02  0.41800000000E+01 0.  1.
</event>
<event>
11    1  0.8037748E-009  0.1301331E+03  0.7561462E-02  0.1119106E+00
         22   -1    0    0    0    0  0.00000000000E+00  0.00000000000E+00  0.32714600871E+03  0.32714600871E+03  0.00000000000E+00 0. -1.
         22   -1    0    0    0    0 -0.00000000000E+00 -0.00000000000E+00 -0.26875876569E+04  0.26875876569E+04  0.00000000000E+00 0. -1.
        -24    2    1    2    0    0 -0.22042831794E+02  0.79956937068E+01 -0.26072372361E+04  0.26084583722E+04  0.76284050425E+02 0.  0.
         25    2    1    2    0    0  0.12394937666E+02 -0.42271170599E+02 -0.11363639272E+02  0.13311624572E+03  0.12510122394E+03 0.  0.
         24    2    1    2    0    0  0.96478941273E+01  0.34275476893E+02  0.25815922727E+03  0.27315904766E+03  0.81864452076E+02 0.  0.
        -11    1    5    5    0    0  0.27347861120E+02 -0.48620576858E+01  0.19381232324E+03  0.19579264989E+03  0.00000000000E+00 0.  1.
         12    1    5    5    0    0 -0.17699966993E+02  0.39137534578E+02  0.64346904038E+02  0.77366397768E+02  0.00000000000E+00 0. -1.
         13    1    3    3    0    0 -0.27386000935E+02  0.19592187632E+02 -0.25259521733E+04  0.25261766028E+04  0.00000000000E+00 0. -1.
        -14    1    3    3    0    0  0.53431691411E+01 -0.11596493926E+02 -0.81285062839E+02  0.82281769357E+02  0.00000000000E+00 0.  1.
          5    1    4    4  501    0 -0.31851877417E+02 -0.50800496770E+02 -0.46360631588E+02  0.75907925333E+02  0.41800000000E+01 0.  1.
         -5    1    4    4    0  501  0.44246815083E+02  0.85293261708E+01  0.34996992316E+02  0.57208320384E+02  0.41800000000E+01 0.  1.
</event>
<event>
11    1  0.8037748E-009  0.1376878E+03  0.7561462E-02  0.1110168E+00
         22   -1    0    0    0    0  0.00000000000E+00  0.00000000000E+00  0.26987484643E+03  0.26987484643E+03  0.00000000000E+00 0. -1.
         22   -1    0    0    0    0 -0.00000000000E+00 -0.00000000000E+00 -0.68590481020E+03  0.68590481020E+03  0.00000000000E+00 0. -1.
         24    2    1    2    0    0  0.89950935646E+01 -0.54222175102E+02 -0.52344759860E+03  0.53247899562E+03  0.80718872161E+02 0.  0.
         25    2    1    2    0    0 -0.22162648013E+01  0.78755101461E+02 -0.11395140276E+03  0.18665687138E+03  0.12509431484E+03 0.  0.
        -24    2    1    2    0    0 -0.67788287633E+01 -0.24532926359E+02  0.22136903758E+03  0.23664378963E+03  0.79675688737E+02 0.  0.
        -13    1    3    3    0    0  0.30322459664E+02 -0.37875746761E+02 -0.14149387994E+03  0.14958122145E+03  0.00000000000E+00 0.  1.
         14    1    3    3    0    0 -0.21327366100E+02 -0.16346428341E+02 -0.38195371866E+03  0.38289777417E+03  0.00000000000E+00 0. -1.
         13    1    5    5    0    0 -0.31304025176E+02 -0.80278115683E+01  0.33815255921E+02  0.46774558083E+02  0.00000000000E+00 0. -1.
        -14    1    5    5    0    0  0.24525196413E+02 -0.16505114790E+02  0.18755378166E+03  0.18986923155E+03  0.00000000000E+00 0.  1.
          5    1    4    4  501    0  0.23546067058E+02  0.18547396348E+02  0.20837006243E+02  0.36743385995E+02  0.41800000000E+01 0. -1.
         -5    1    4    4    0  501 -0.25762331860E+02  0.60207705113E+02 -0.13478840900E+03  0.14991348538E+03  0.41800000000E+01 0. -1.
</event>
<event>
11    1  0.8037748E-009  0.1950511E+03  0.7561462E-02  0.1058080E+00
         22   -1    0    0    0    0  0.00000000000E+00  0.00000000000E+00  0.11321366353E+04  0.11321366353E+04  0.00000000000E+00 0. -1.
         22   -1    0    0    0    0 -0.00000000000E+00 -0.00000000000E+00 -0.42611321461E+03  0.42611321461E+03  0.00000000000E+00 0.  1.
         24    2    1    2    0    0 -0.14018544685E+03 -0.29736688643E+02 -0.30287142993E+03  0.34443870507E+03  0.79816591785E+02 0.  0.
         25    2    1    2    0    0  0.19809760545E+03 -0.15112027791E+02  0.39172739605E+02  0.23801990258E+03  0.12509170966E+03 0.  0.
        -24    2    1    2    0    0 -0.57912158596E+02  0.44848716434E+02  0.96972211104E+03  0.97579124228E+03  0.80264253578E+02 0.  0.
        -13    1    3    3    0    0 -0.36800440040E+02  0.10747328397E+02 -0.15413779102E+03  0.15883398904E+03  0.00000000000E+00 0.  1.
         14    1    3    3    0    0 -0.10338500681E+03 -0.40484017040E+02 -0.14873363891E+03  0.18560471603E+03  0.00000000000E+00 0. -1.
         13    1    5    5    0    0  0.59595466957E+01 -0.17660456390E+02  0.21172211926E+03  0.21254096947E+03  0.00000000000E+00 0. -1.
        -14    1    5    5    0    0 -0.63871705291E+02  0.62509172823E+02  0.75799999177E+03  0.76325027282E+03  0.00000000000E+00 0.  1.
          5    1    4    4  501    0  0.18838415880E+03 -0.61399137414E+01 -0.81503725443E+01  0.18870662627E+03  0.41800000000E+01 0. -1.
         -5    1    4    4    0  501  0.97134466519E+01 -0.89721140495E+01  0.47323112149E+02  0.49313276304E+02  0.41800000000E+01 0. -1.
</event>
<event>
11    1  0.8037748E-009  0.1313187E+03  0.7561462E-02  0.1117659E+00
         22   -1    0    0    0    0  0.00000000000E+00  0.00000000000E+00  0.11596222334E+04  0.11596222334E+04  0.00000000000E+00 0. -1.
         22   -1    0    0    0    0 -0.00000000000E+00 -0.00000000000E+00 -0.33459919877E+03  0.33459919877E+03  0.00000000000E+00 0. -1.
         24    2    1    2    0    0 -0.56411021102E+01  0.25500827124E+02 -0.24484062489E+03  0.25874976566E+03  0.79513492023E+02 0.  0.
         25    2    1    2    0    0 -0.33198031010E+02 -0.15011090405E+02 -0.28520109008E+02  0.13337324222E+03  0.12509029948E+03 0.  0.
        -24    2    1    2    0    0  0.38839133120E+02 -0.10489736719E+02  0.10983837686E+04  0.11020984243E+04  0.80966172007E+02 0.  0.
        -13    1    3    3    0    0 -0.18376572694E+02 -0.23508438259E+02 -0.58755229526E+02  0.65897815518E+02  0.00000000000E+00 0.  1.
         14    1    3    3    0    0  0.12735470584E+02  0.49009265383E+02 -0.18608539537E+03  0.19285195014E+03  0.00000000000E+00 0. -1.
         13    1    5    5    0    0  0.34534180093E+02 -0.18173913698E+02  0.10870228203E+04  0.10877230863E+04  0.00000000000E+00 0. -1.
        -14    1    5    5    0    0  0.43049530268E+01  0.76841769785E+01  0.11360948291E+02  0.14375337995E+02  0.00000000000E+00 0.  1.
          5    1    4    4  501    0  0.15012736777E+01  0.97369161990E+00 -0.73824004729E+02  0.73963896411E+02  0.41800000000E+01 0. -1.
         -5    1    4    4    0  501 -0.34699304688E+02 -0.15984782025E+02  0.45303895721E+02  0.59409345811E+02  0.41800000000E+01 0. -1.
</event>
<event>
11    1  0.8037748E-009  0.1456750E+03  0.7561462E-02  0.1101382E+00
         22   -1    0    0    0    0  0.00000000000E+00  0.00000000000E+00  0.64622052670E+03  0.64622052670E+03  0.00000000000E+00 0.  1.
         22   -1    0    0    0    0 -0.00000000000E+00 -0.00000000000E+00 -0.52444873239E+03  0.52444873239E+03  0.00000000000E+00 0. -1.
        -24    2    1    2    0    0 -0.38033953122E+02  0.65991290663E+02 -0.49311890158E+03  0.50570662653E+03  0.82289179053E+02 0.  0.
         25    2    1    2    0    0 -0.18307667128E+02 -0.33883376096E+02  0.20809429754E+03  0.24583163822E+03  0.12508678519E+03 0.  0.
         24    2    1    2    0    0  0.56341620250E+02 -0.32107914567E+02  0.40679639835E+03  0.41913099435E+03  0.77344582003E+02 0.  0.
        -13    1    5    5    0    0  0.58352563118E+02 -0.17724422917E+02  0.39689628534E+03  0.40155427791E+03  0.00000000000E+00 0.  1.
         14    1    5    5    0    0 -0.20109428680E+01 -0.14383491650E+02  0.99001130081E+01  0.17576716441E+02  0.00000000000E+00 0. -1.
         11    1    3    3    0    0  0.21606723348E+02  0.36028770416E+02 -0.25385663236E+03  0.25730937135E+03  0.00000000000E+00 0. -1.
        -12    1    3    3    0    0 -0.59640676470E+02  0.29962520246E+02 -0.23926226922E+03  0.24839725518E+03  0.00000000000E+00 0.  1.
          5    1    4    4  501    0  0.15328462190E+02 -0.20278026407E+02  0.20771478676E+03  0.20930615172E+03  0.41800000000E+01 0.  1.
         -5    1    4    4    0  501 -0.33636129317E+02 -0.13605349688E+02  0.37951078052E+00  0.36525486500E+02  0.41800000000E+01 0.  1.
</event>
<event>
11    1  0.8037748E-009  0.1886029E+03  0.7561462E-02  0.1062889E+00
         22   -1    0    0    0    0  0.00000000000E+00  0.00000000000E+00  0.29703854787E+03  0.29703854787E+03  0.00000000000E+00 0. -1.
         22   -1    0    0    0    0 -0.00000000000E+00 -0.00000000000E+00 -0.21882327360E+03  0.21882327360E+03  0.00000000000E+00 0. -1.
        -24    2    1    2    0    0 -0.16744177566E+03 -0.29141891244E+02 -0.37656008574E+02  0.19207695739E+03  0.81176255853E+02 0.  0.
         25    2    1    2    0    0  0.78378043755E+02  0.83023904759E+02  0.52967467211E+02  0.17745377813E+03  0.12509278271E+03 0.  0.
         24    2    1    2    0    0  0.89063731908E+02 -0.53882013515E+02  0.62903815627E+02  0.14633108595E+03  0.81365084479E+02 0.  0.
        -13    1    5    5    0    0 -0.47918477258E-02 -0.72515685261E+01 -0.16627825041E+02  0.18140282099E+02  0.00000000000E+00 0.  1.
         14    1    5    5    0    0  0.89068523756E+02 -0.46630444989E+02  0.79531640668E+02  0.12819080385E+03  0.00000000000E+00 0. -1.
         13    1    3    3    0    0 -0.16184599399E+03 -0.21259752919E+02 -0.54973237518E+02  0.17224447657E+03  0.00000000000E+00 0. -1.
        -14    1    3    3    0    0 -0.55957816744E+01 -0.78821383250E+01  0.17317228944E+02  0.19832480819E+02  0.00000000000E+00 0.  1.
          5    1    4    4  501    0  0.51847660237E+02 -0.17138526222E+02  0.49300840693E+02  0.73688223253E+02  0.41800000000E+01 0.  1.
         -5    1    4    4    0  501  0.26530383518E+02  0.10016243098E+03  0.36666265176E+01  0.10376555488E+03  0.41800000000E+01 0.  1.
</event>
<event>
11    1  0.8037748E-009  0.1468361E+03  0.7561462E-02  0.1100156E+00
         22   -1    0    0    0    0  0.00000000000E+00  0.00000000000E+00  0.22068013795E+03  0.22068013795E+03  0.00000000000E+00 0. -1.
         22   -1    0    0    0    0 -0.00000000000E+00 -0.00000000000E+00 -0.15816706545E+04  0.15816706545E+04  0.00000000000E+00 0. -1.
        -24    2    1    2    0    0 -0.15637375684E+02 -0.44784851499E+02 -0.14888174117E+04  0.14918362789E+04  0.82146133814E+02 0.  0.
         25    2    1    2    0    0  0.13365449657E+02  0.10918792440E+03  0.39316330927E+02  0.17115549075E+03  0.12509112702E+03 0.  0.
         24    2    1    2    0    0  0.22719260269E+01 -0.64403072902E+02  0.88510564230E+02  0.13935902275E+03  0.86220066081E+02 0.  0.
        -11    1    5    5    0    0 -0.14232596727E+02  0.17306423652E+02  0.30305720574E+02  0.37689730813E+02  0.00000000000E+00 0.  1.
         12    1    5    5    0    0  0.16504522754E+02 -0.81709496554E+02  0.58204843656E+02  0.10166929194E+03  0.00000000000E+00 0. -1.
         11    1    3    3    0    0 -0.10876538052E+02 -0.69078773586E+02 -0.11378630234E+04  0.11400098403E+04  0.00000000000E+00 0. -1.
        -12    1    3    3    0    0 -0.47608376322E+01  0.24293922087E+02 -0.35095438825E+03  0.35182643854E+03  0.00000000000E+00 0.  1.
          5    1    4    4  501    0  0.14928965133E+02  0.13687483909E+03  0.38785429057E+02  0.14310617556E+03  0.41800000000E+01 0. -1.
         -5    1    4    4    0  501 -0.15635154760E+01 -0.27686914694E+02  0.53090186974E+00  0.28049315191E+02  0.41800000000E+01 0. -1.
</event>
<event>
11    1  0.8037748E-009  0.2449523E+03  0.7561462E-02  0.1026623E+00
         22   -1    0    0    0    0  0.00000000000E+00  0.00000000000E+00  0.42772888682E+03  0.42772888682E+03  0.00000000000E+00 0. -1.
         22   -1    0    0    0    0 -0.00000000000E+00 -0.00000000000E+00 -0.19704214915E+04  0.19704214915E+04  0.00000000000E+00 0. -1.
        -24    2    1    2    0    0  0.63211681880E+02 -0.19761480490E+03 -0.16442709044E+04  0.16592451759E+04  0.80127515394E+02 0.  0.
         25    2    1    2    0    0 -0.23594189239E+03  0.17893889905E+03 -0.20218500835E+03  0.37975515797E+03  0.12508995254E+03 0.  0.
         24    2    1    2    0    0  0.17273021051E+03  0.18675905851E+02  0.30376330812E+03  0.35915004444E+03  0.80821358430E+02 0.  0.
        -11    1    5    5    0    0  0.74381961779E+02  0.41143953870E+02  0.96232340802E+02  0.12839846025E+03  0.00000000000E+00 0.  1.
         12    1    5    5    0    0  0.98348248732E+02 -0.22468048019E+02  0.20753096732E+03  0.23075158419E+03  0.00000000000E+00 0. -1.
         11    1    3    3    0    0  0.80747417154E+02 -0.17454035111E+03 -0.14792441603E+04  0.14916929193E+04  0.00000000000E+00 0. -1.
        -12    1    3    3    0    0 -0.17535735274E+02 -0.23074453796E+02 -0.16502674409E+03  0.16755225661E+03  0.00000000000E+00 0.  1.
          5    1    4    4  501    0 -0.23222282437E+03  0.18851340569E+03 -0.21060027952E+03  0.36583424445E+03  0.41800000000E+01 0.  1.
         -5    1    4    4    0  501 -0.37190680263E+01 -0.95745066368E+01  0.84152711724E+01  0.13920913520E+02  0.41800000000E+01 0.  1.
</event>
<event>
11    1  0.9101351E-009  0.1529710E+03  0.7561462E-02  0.1093881E+00
         22   -1    0    0    0    0  0.00000000000E+00  0.00000000000E+00  0.15021173728E+04  0.15021173728E+04  0.00000000000E+00 0. -1.
         22   -1    0    0    0    0 -0.00000000000E+00 -0.00000000000E+00 -0.22674017137E+03  0.22674017137E+03  0.00000000000E+00 0.  1.
        -24    2    1    2    0    0  0.52154962831E+01 -0.46452791935E+02 -0.12313442267E+03  0.15462163628E+03  0.80998154794E+02 0.  0.
         25    2    1    2    0    0  0.78430999620E+02  0.17155999561E+02 -0.20651289747E+02  0.15006023649E+03  0.12508336734E+03 0.  0.
         24    2    1    2    0    0 -0.83646495903E+02  0.29296792373E+02  0.14191629139E+04  0.14241756714E+04  0.79987053248E+02 0.  0.
        -11    1    5    5    0    0 -0.58319442877E+02  0.22064275804E+02  0.41414753408E+03  0.41881519751E+03  0.00000000000E+00 0.  1.
         12    1    5    5    0    0 -0.25327053027E+02  0.72325165693E+01  0.10050153798E+04  0.10053604739E+04  0.00000000000E+00 0. -1.
         13    1    3    3    0    0  0.91560694230E+01  0.49548955434E+01  0.83783321085E+01  0.13363421944E+02  0.00000000000E+00 0. -1.
        -14    1    3    3    0    0 -0.39405731400E+01 -0.51407687478E+02 -0.13151275478E+03  0.14125821434E+03  0.00000000000E+00 0.  1.
          5    1    4    4  501    0  0.66124612700E+02  0.66152793800E+02  0.39577766629E+01  0.93711220931E+02  0.41800000000E+01 0. -1.
         -5    1    4    4    0  501  0.12306386921E+02 -0.48996794239E+02 -0.24609066410E+02  0.56349015558E+02  0.41800000000E+01 0. -1.
</event>
<event>
11    1  0.8037748E-009  0.1351382E+03  0.7561462E-02  0.1113112E+00
         22   -1    0    0    0    0  0.00000000000E+00  0.00000000000E+00  0.55846267872E+02  0.55846267872E+02  0.00000000000E+00 0.  1.
         22   -1    0    0    0    0 -0.00000000000E+00 -0.00000000000E+00 -0.25721465436E+04  0.25721465436E+04  0.00000000000E+00 0.  1.
         24    2    1    2    0    0 -0.20445123354E+02 -0.53379842040E+01 -0.21027639408E+04  0.21044781804E+04  0.82254020104E+02 0.  0.
         25    2    1    2    0    0 -0.24543356781E+02 -0.23431857238E+02 -0.40534201685E+03  0.42556044398E+03  0.12509241608E+03 0.  0.
        -24    2    1    2    0    0  0.44988480134E+02  0.28769841442E+02 -0.81943181367E+01  0.97954187171E+02  0.81708070673E+02 0.  0.
        -13    1    3    3    0    0 -0.35854867075E+02 -0.33383594662E+02 -0.15621391049E+04  0.15629071050E+04  0.00000000000E+00 0.  1.
         14    1    3    3    0    0  0.15409743721E+02  0.28045610458E+02 -0.54062483591E+03  0.54157107536E+03  0.00000000000E+00 0. -1.
         11    1    5    5    0    0  0.84023859461E+01  0.75670467349E+01 -0.42201496532E+02  0.43690120112E+02  0.00000000000E+00 0. -1.
        -12    1    5    5    0    0  0.36586094188E+02  0.21202794707E+02  0.34007178395E+02  0.54264067059E+02  0.00000000000E+00 0.  1.
          5    1    4    4  501    0  0.38301140075E+02  0.14185017185E+01 -0.28400823983E+03  0.28661322749E+03  0.41800000000E+01 0.  1.
         -5    1    4    4    0  501 -0.62844496856E+02 -0.24850358957E+02 -0.12133377702E+03  0.13894721649E+03  0.41800000000E+01 0.  1.
</event>
<event>
11    1  0.8037748E-009  0.1847377E+03  0.7561462E-02  0.1065874E+00
         22   -1    0    0    0    0  0.00000000000E+00  0.00000000000E+00  0.51834516955E+03  0.51834516955E+03  0.00000000000E+00 0. -1.
         22   -1    0    0    0    0 -0.00000000000E+00 -0.00000000000E+00 -0.40688776568E+03  0.40688776568E+03  0.00000000000E+00 0.  1.
        -24    2    1    2    0    0  0.94582821705E+02  0.10723629330E+03 -0.32446908483E+03  0.36358567835E+03  0.80429010479E+02 0.  0.
         25    2    1    2    0    0 -0.45005790780E+02 -0.87733903243E+02  0.54188675163E+02  0.16824479479E+03  0.12508852655E+03 0.  0.
         24    2    1    2    0    0 -0.49577030925E+02 -0.19502390052E+02  0.38173781353E+03  0.39340246210E+03  0.78762387555E+02 0.  0.
        -11    1    5    5    0    0  0.14845653327E+02 -0.14927863815E+02  0.36168425860E+02  0.41849606569E+02  0.00000000000E+00 0.  1.
         12    1    5    5    0    0 -0.64422684252E+02 -0.45745262378E+01  0.34556938767E+03  0.35155285553E+03  0.00000000000E+00 0. -1.
         11    1    3    3    0    0  0.75343868359E+02  0.27873737979E+02 -0.13222029381E+03  0.15471215164E+03  0.00000000000E+00 0. -1.
        -12    1    3    3    0    0  0.19238953346E+02  0.79362555317E+02 -0.19224879102E+03  0.20887352671E+03  0.00000000000E+00 0.  1.
          5    1    4    4  501    0  0.34233555978E+02 -0.36515085081E+02  0.54071725715E+02  0.73800485874E+02  0.41800000000E+01 0. -1.
         -5    1    4    4    0  501 -0.79239346759E+02 -0.51218818163E+02  0.11694944786E+00  0.94444308912E+02  0.41800000000E+01 0. -1.
</event>
<event>
11    1  0.8037748E-009  0.1333145E+03  0.7561462E-02  0.1115262E+00
         22   -1    0    0    0    0  0.00000000000E+00  0.00000000000E+00  0.31884679389E+03  0.31884679389E+03  0.00000000000E+00 0.  1.
         22   -1    0    0    0    0 -0.00000000000E+00 -0.00000000000E+00 -0.30052393255E+03  0.30052393255E+03  0.00000000000E+00 0.  1.
         24    2    1    2    0    0  0.45989389913E+02  0.18494311830E+02 -0.23698002322E+03  0.26366356922E+03  0.10441208156E+03 0.  0.
         25    2    1    2    0    0 -0.22349372972E+02 -0.59646712567E+01  0.43489099651E+02  0.13443913085E+03  0.12508999296E+03 0.  0.
        -24    2    1    2    0    0 -0.23640016940E+02 -0.12529640573E+02  0.21181378490E+03  0.22126802637E+03  0.58125878283E+02 0.  0.
        -11    1    3    3    0    0  0.13953996848E+02 -0.22697053607E+02 -0.19466697103E+03  0.19648180547E+03  0.00000000000E+00 0.  1.
         12    1    3    3    0    0  0.32035393064E+02  0.41191365437E+02 -0.42313052183E+02  0.67181763749E+02  0.00000000000E+00 0. -1.
         11    1    5    5    0    0 -0.19606462269E+00 -0.32533977558E+01 -0.33255277945E+01  0.46564120743E+01  0.00000000000E+00 0. -1.
        -12    1    5    5    0    0 -0.23443952318E+02 -0.92762428176E+01  0.21513931270E+03  0.21661161430E+03  0.00000000000E+00 0.  1.
          5    1    4    4  501    0  0.47024094190E+02 -0.24081887452E+02  0.57561276758E+01  0.53308612282E+02  0.41800000000E+01 0. -1.
         -5    1    4    4    0  501 -0.69373467162E+02  0.18117216196E+02  0.37732971975E+02  0.81130518567E+02  0.41800000000E+01 0. -1.
</event>
<event>
11    1  0.8037748E-009  0.1927106E+03  0.7561462E-02  0.1059801E+00
         22   -1    0    0    0    0  0.00000000000E+00  0.00000000000E+00  0.15831516029E+03  0.15831516029E+03  0.00000000000E+00 0. -1.
         22   -1    0    0    0    0 -0.00000000000E+00 -0.00000000000E+00 -0.85810778556E+03  0.85810778556E+03  0.00000000000E+00 0.  1.
         24    2    1    2    0    0  0.59076407666E+02  0.81043818224E+02 -0.58613459563E+03  0.60010918655E+03  0.80741248308E+02 0.  0.
         25    2    1    2    0    0  0.27124483022E+01 -0.19735608141E+03 -0.11671095703E+03  0.26120233541E+03  0.12509369402E+03 0.  0.
        -24    2    1    2    0    0 -0.61788855968E+02  0.11631226319E+03  0.30529273827E+01  0.15511142389E+03  0.81876908625E+02 0.  0.
        -13    1    3    3    0    0  0.40823761777E+02  0.82597861497E+02 -0.56353711088E+03  0.57101931806E+03  0.00000000000E+00 0.  1.
         14    1    3    3    0    0  0.18252645889E+02 -0.15540432724E+01 -0.22597484744E+02  0.29089868498E+02  0.00000000000E+00 0. -1.
         13    1    5    5    0    0 -0.52531227620E+02  0.25040557914E+02  0.20553435572E+02  0.61717121853E+02  0.00000000000E+00 0. -1.
        -14    1    5    5    0    0 -0.92576283478E+01  0.91271705275E+02 -0.17500508189E+02  0.93394302039E+02  0.00000000000E+00 0.  1.
          5    1    4    4  501    0  0.14105466787E+02 -0.14459690477E+03 -0.15172230214E+02  0.14613315172E+03  0.41800000000E+01 0. -1.
         -5    1    4    4    0  501 -0.11393018485E+02 -0.52759176647E+02 -0.10153872682E+03  0.11506918369E+03  0.41800000000E+01 0. -1.
</event>
<event>
11    1  0.8037748E-009  0.1282884E+03  0.7561462E-02  0.1121390E+00
         22   -1    0    0    0    0  0.00000000000E+00  0.00000000000E+00  0.93215004780E+03  0.93215004780E+03  0.00000000000E+00 0. -1.
         22   -1    0    0    0    0 -0.00000000000E+00 -0.00000000000E+00 -0.97821090029E+02  0.97821090029E+02  0.00000000000E+00 0.  1.
        -24    2    1    2    0    0  0.18612705945E+02 -0.99974794211E+01 -0.43571647420E+02  0.93270716229E+02  0.79715466690E+02 0.  0.
         25    2    1    2    0    0 -0.37705500559E+02 -0.10445829150E+02  0.13212646140E+03  0.18610729761E+03  0.12509078424E+03 0.  0.
         24    2    1    2    0    0  0.19092794614E+02  0.20443308572E+02  0.74577414379E+03  0.75059312400E+03  0.80177930694E+02 0.  0.
        -11    1    5    5    0    0  0.15671063944E+02 -0.17929064156E+02  0.74470481760E+02  0.78184948937E+02  0.00000000000E+00 0.  1.
         12    1    5    5    0    0  0.34217306695E+01  0.38372372728E+02  0.67130366203E+03  0.67240817506E+03  0.00000000000E+00 0. -1.
         11    1    3    3    0    0  0.37054498763E+02 -0.44609927126E+01  0.80452712008E+01  0.38179349434E+02  0.00000000000E+00 0. -1.
        -12    1    3    3    0    0 -0.18441792817E+02 -0.55364867085E+01 -0.51616918621E+02  0.55091366794E+02  0.00000000000E+00 0.  1.
          5    1    4    4  501    0 -0.57749980463E+02  0.32566930913E+02  0.28952264917E+02  0.72466345819E+02  0.41800000000E+01 0. -1.
         -5    1    4    4    0  501  0.20044479904E+02 -0.43012760063E+02  0.10317419648E+03  0.11364095179E+03  0.41800000000E+01 0. -1.
</event>
<event>
11    1  0.8037748E-009  0.1872675E+03  0.7561462E-02  0.1063911E+00
         22   -1    0    0    0    0  0.00000000000E+00  0.00000000000E+00  0.43386922415E+03  0.43386922415E+03  0.00000000000E+00 0.  1.
         22   -1    0    0    0    0 -0.00000000000E+00 -0.00000000000E+00 -0.17763303260E+04  0.17763303260E+04  0.00000000000E+00 0. -1.
         24    2    1    2    0    0  0.39311316142E+02 -0.74062480948E+01 -0.16575085260E+04  0.16599098660E+04  0.79787327484E+02 0.  0.
         25    2    1    2    0    0 -0.13855025075E+03  0.97181610847E+02  0.13570344599E+02  0.21088312057E+03  0.12508836404E+03 0.  0.
        -24    2    1    2    0    0  0.99238934607E+02 -0.89775362752E+02  0.30147707950E+03  0.33940656357E+03  0.80002525155E+02 0.  0.
        -13    1    3    3    0    0  0.37710314420E+02 -0.10967270986E+02 -0.32070987516E+03  0.32310551353E+03  0.00000000000E+00 0.  1.
         14    1    3    3    0    0  0.16010017221E+01  0.35610228917E+01 -0.13367986508E+04  0.13368043525E+04  0.00000000000E+00 0. -1.
         13    1    5    5    0    0  0.29073395109E+02 -0.17772163110E+02  0.17806826405E+02  0.38447303565E+02  0.00000000000E+00 0. -1.
        -14    1    5    5    0    0  0.70165539498E+02 -0.72003199643E+02  0.28367025309E+03  0.30095926000E+03  0.00000000000E+00 0.  1.
          5    1    4    4  501    0 -0.76143412285E+02  0.63512558695E+02 -0.53881908572E+02  0.11292651070E+03  0.41800000000E+01 0.  1.
         -5    1    4    4    0  501 -0.62406838465E+02  0.33669052152E+02  0.67452253171E+02  0.97956609873E+02  0.41800000000E+01 0.  1.
</event>
<event>
11    1  0.8037748E-009  0.1426429E+03  0.7561462E-02  0.1104643E+00
         22   -1    0    0    0    0  0.00000000000E+00  0.00000000000E+00  0.31006210573E+03  0.31006210573E+03  0.00000000000E+00 0. -1.
         22   -1    0    0    0    0 -0.00000000000E+00 -0.00000000000E+00 -0.20537587008E+04  0.20537587008E+04  0.00000000000E+00 0. -1.
         24    2    1    2    0    0 -0.78194521786E+00 -0.22327915634E+02 -0.18110132084E+04  0.18129470399E+04  0.80678255943E+02 0.  0.
         25    2    1    2    0    0  0.39719478820E+02  0.77824144598E+02 -0.20684008984E+03  0.25702896247E+03  0.12508729072E+03 0.  0.
        -24    2    1    2    0    0 -0.38937533602E+02 -0.55496228964E+02  0.27415670324E+03  0.29384480416E+03  0.81159768652E+02 0.  0.
        -13    1    3    3    0    0 -0.10261433111E+02  0.84529129163E+01 -0.53106468019E+02  0.54745280087E+02  0.00000000000E+00 0.  1.
         14    1    3    3    0    0  0.94794878929E+01 -0.30780828550E+02 -0.17579067404E+04  0.17582017598E+04  0.00000000000E+00 0. -1.
         11    1    5    5    0    0 -0.21564968276E+02 -0.20572659932E+02  0.24045818177E+03  0.24229820341E+03  0.00000000000E+00 0. -1.
        -12    1    5    5    0    0 -0.17372565325E+02 -0.34923569032E+02  0.33698521468E+02  0.51546600752E+02  0.00000000000E+00 0.  1.
          5    1    4    4  501    0  0.46617177977E+01 -0.27054772563E+02 -0.97821749150E+02  0.10168706574E+03  0.41800000000E+01 0.  1.
         -5    1    4    4    0  501  0.35057761022E+02  0.10487891716E+03 -0.10901834069E+03  0.15534189673E+03  0.41800000000E+01 0.  1.
</event>
<event>
11    1  0.8037748E-009  0.1714799E+03  0.7561462E-02  0.1076751E+00
         22   -1    0    0    0    0  0.00000000000E+00  0.00000000000E+00  0.10348124846E+03  0.10348124846E+03  0.00000000000E+00 0.  1.
         22   -1    0    0    0    0 -0.00000000000E+00 -0.00000000000E+00 -0.17353837517E+04  0.17353837517E+04  0.00000000000E+00 0. -1.
        -24    2    1    2    0    0  0.12393409451E+03 -0.19128074100E+02 -0.14182648047E+04  0.14262689741E+04  0.83920123209E+02 0.  0.
         25    2    1    2    0    0 -0.79097004410E+02  0.17835847341E+01 -0.26670221936E+03  0.30501730690E+03  0.12508383756E+03 0.  0.
         24    2    1    2    0    0 -0.44837090101E+02  0.17344489366E+02  0.53064520785E+02  0.10757871925E+03  0.80287866510E+02 0.  0.
        -11    1    5    5    0    0 -0.12151628391E+02  0.83137299949E+01  0.68683915638E+02  0.70244291201E+02  0.00000000000E+00 0.  1.
         12    1    5    5    0    0 -0.32685461710E+02  0.90307593710E+01 -0.15619394853E+02  0.37334428047E+02  0.00000000000E+00 0. -1.
         11    1    3    3    0    0  0.10049071775E+03 -0.46491089890E+02 -0.11945996512E+04  0.11997200226E+04  0.00000000000E+00 0. -1.
        -12    1    3    3    0    0  0.23443376765E+02  0.27363015790E+02 -0.22366515348E+03  0.22654895150E+03  0.00000000000E+00 0.  1.
          5    1    4    4  501    0 -0.80608273154E+02  0.53022176904E+02 -0.17419167734E+03  0.19917142817E+03  0.41800000000E+01 0. -1.
         -5    1    4    4    0  501  0.15112687441E+01 -0.51238592169E+02 -0.92510542013E+02  0.10584587873E+03  0.41800000000E+01 0. -1.
</event>
<event>
11    1  0.8037748E-009  0.5841542E+03  0.7561462E-02  0.9222936E-01
         22   -1    0    0    0    0  0.00000000000E+00  0.00000000000E+00  0.14616531203E+04  0.14616531203E+04  0.00000000000E+00 0.  1.
         22   -1    0    0    0    0 -0.00000000000E+00 -0.00000000000E+00 -0.29375018615E+04  0.29375018615E+04  0.00000000000E+00 0.  1.
        -24    2    1    2    0    0  0.28440057846E+03 -0.49712754359E+03 -0.28078576454E+04  0.28668484526E+04  0.82073199046E+02 0.  0.
         25    2    1    2    0    0 -0.38713204558E+03  0.36147490908E+03  0.80328303873E+03  0.97028153192E+03  0.12508908935E+03 0.  0.
         24    2    1    2    0    0  0.10273146711E+03  0.13565263450E+03  0.52872586544E+03  0.56202499727E+03  0.85823453622E+02 0.  0.
        -13    1    5    5    0    0  0.68159988562E+02  0.98561696403E+02  0.46707109367E+03  0.48219871275E+03  0.00000000000E+00 0.  1.
         14    1    5    5    0    0  0.34571478551E+02  0.37090938100E+02  0.61654771773E+02  0.79826284522E+02  0.00000000000E+00 0. -1.
         13    1    3    3    0    0  0.13443171921E+03 -0.18018414864E+03 -0.12458373605E+04  0.12659577178E+04  0.00000000000E+00 0. -1.
        -14    1    3    3    0    0  0.14996885925E+03 -0.31694339495E+03 -0.15620202849E+04  0.16008907348E+04  0.00000000000E+00 0.  1.
          5    1    4    4  501    0 -0.26845029719E+03  0.32059876387E+03  0.60051585350E+03  0.73176901558E+03  0.41800000000E+01 0. -1.
         -5    1    4    4    0  501 -0.11868174839E+03  0.40876145216E+02  0.20276718522E+03  0.23851251634E+03  0.41800000000E+01 0. -1.
</event>
<event>
11    1  0.8037748E-009  0.1381690E+03  0.7561462E-02  0.1109620E+00
         22   -1    0    0    0    0  0.00000000000E+00  0.00000000000E+00  0.37978384947E+03  0.37978384947E+03  0.00000000000E+00 0.  1.
         22   -1    0    0    0    0 -0.00000000000E+00 -0.00000000000E+00 -0.18755218249E+04  0.18755218249E+04  0.00000000000E+00 0.  1.
        -24    2    1    2    0    0 -0.26301681178E+02 -0.52485497193E+02 -0.17922758215E+04  0.17950321765E+04  0.80258260870E+02 0.  0.
         25    2    1    2    0    0  0.50426659203E+02  0.38732882936E+02 -0.11402727188E+02  0.14078559896E+03  0.12508988171E+03 0.  0.
         24    2    1    2    0    0 -0.24124978025E+02  0.13752614257E+02  0.30794057328E+03  0.31948789890E+03  0.80460996208E+02 0.  0.
        -13    1    5    5    0    0 -0.34125185340E+02  0.39911109850E+02  0.24552467283E+03  0.25107725889E+03  0.00000000000E+00 0.  1.
         14    1    5    5    0    0  0.10000207315E+02 -0.26158495593E+02  0.62415900444E+02  0.68410640008E+02  0.00000000000E+00 0. -1.
         11    1    3    3    0    0 -0.36492971853E+02 -0.50482260756E+02 -0.71553882529E+03  0.71824508780E+03  0.00000000000E+00 0. -1.
        -12    1    3    3    0    0  0.10191290675E+02 -0.20032364364E+01 -0.10767369962E+04  0.10767870887E+04  0.00000000000E+00 0.  1.
          5    1    4    4  501    0 -0.26307220217E+02 -0.26501785925E+02  0.72603109940E+01  0.38270079807E+02  0.41800000000E+01 0. -1.
         -5    1    4    4    0  501  0.76733879419E+02  0.65234668861E+02 -0.18663038182E+02  0.10251551915E+03  0.41800000000E+01 0. -1.
</event>
<event>
11    1  0.8037748E-009  0.1598458E+03  0.7561462E-02  0.1087222E+00
         22   -1    0    0    0    0  0.00000000000E+00  0.00000000000E+00  0.14848082528E+04  0.14848082528E+04  0.00000000000E+00 0. -1.
         22   -1    0    0    0    0 -0.00000000000E+00 -0.00000000000E+00 -0.36398793309E+03  0.36398793309E+03  0.00000000000E+00 0.  1.
        -24    2    1    2    0    0 -0.31150213322E+02  0.43369378992E+01 -0.23237775094E+03  0.24805528499E+03  0.80887950030E+02 0.  0.
         25    2    1    2    0    0  0.10284981928E+03  0.64089288273E+02 -0.57976910173E+02  0.18351931881E+03  0.12502998068E+03 0.  0.
         24    2    1    2    0    0 -0.71699605955E+02 -0.68426226173E+02  0.14111749809E+04  0.14172215821E+04  0.85318253011E+02 0.  0.
        -11    1    5    5    0    0 -0.59409158602E+02 -0.71876763327E+02  0.73061894823E+03  0.73654583343E+03  0.00000000000E+00 0.  1.
         12    1    5    5    0    0 -0.12290447353E+02  0.34505371544E+01  0.68055603264E+03  0.68067574870E+03  0.00000000000E+00 0. -1.
         11    1    3    3    0    0 -0.90753552222E+01 -0.27169153536E-01  0.44870396776E+01  0.10124047394E+02  0.00000000000E+00 0. -1.
        -12    1    3    3    0    0 -0.22074858100E+02  0.43641070527E+01 -0.23686479062E+03  0.23793123760E+03  0.00000000000E+00 0.  1.
          5    1    4    4  501    0  0.38226585567E+02  0.13362596348E+02  0.38983662952E+02  0.56365141732E+02  0.41800000000E+01 0.  1.
         -5    1    4    4    0  501  0.64623233710E+02  0.50726691926E+02 -0.96960573125E+02  0.12715417708E+03  0.41800000000E+01 0.  1.
</event>
<event>
11    1  0.9515649E-009  0.1562975E+03  0.7561462E-02  0.1090612E+00
         22   -1    0    0    0    0  0.00000000000E+00  0.00000000000E+00  0.74403579101E+03  0.74403579101E+03  0.00000000000E+00 0. -1.
         22   -1    0    0    0    0 -0.00000000000E+00 -0.00000000000E+00 -0.82038517707E+03  0.82038517707E+03  0.00000000000E+00 0.  1.
        -24    2    1    2    0    0  0.58668653276E+02  0.32988594574E+02 -0.40701909638E+03  0.42031541765E+03  0.80437847112E+02 0.  0.
         25    2    1    2    0    0 -0.11560584709E+02 -0.11400737755E+03 -0.38350227792E+03  0.41934786655E+03  0.12508919520E+03 0.  0.
         24    2    1    2    0    0 -0.47108068567E+02  0.81018782980E+02  0.71417198824E+03  0.72475768388E+03  0.80304783375E+02 0.  0.
        -13    1    5    5    0    0 -0.17330890193E+02  0.16554384633E+01  0.25426870795E+02  0.30816002171E+02  0.00000000000E+00 0.  1.
         14    1    5    5    0    0 -0.29777178374E+02  0.79363344517E+02  0.68874511744E+03  0.69394168171E+03  0.00000000000E+00 0. -1.
         13    1    3    3    0    0 -0.19877115106E+02  0.31332027246E+01 -0.10003342007E+03  0.10203725690E+03  0.00000000000E+00 0. -1.
        -14    1    3    3    0    0  0.78545768382E+02  0.29855391849E+02 -0.30698567631E+03  0.31827816075E+03  0.00000000000E+00 0.  1.
          5    1    4    4  501    0  0.32235113054E+02 -0.64055439827E+02 -0.31781097587E+03  0.32582739398E+03  0.41800000000E+01 0. -1.
         -5    1    4    4    0  501 -0.43795697763E+02 -0.49951937726E+02 -0.65691302055E+02  0.93520472576E+02  0.41800000000E+01 0. -1.
</event>
<event>
11    1  0.8037748E-009  0.1483752E+03  0.7561462E-02  0.1098551E+00
         22   -1    0    0    0    0  0.00000000000E+00  0.00000000000E+00  0.30768457035E+03  0.30768457035E+03  0.00000000000E+00 0. -1.
         22   -1    0    0    0    0 -0.00000000000E+00 -0.00000000000E+00 -0.18199145150E+03  0.18199145150E+03  0.00000000000E+00 0. -1.
        -24    2    1    2    0    0  0.11094255352E+02 -0.80301110484E+02 -0.80061058149E+02  0.13983796939E+03  0.81077332244E+02 0.  0.
         25    2    1    2    0    0 -0.14011427030E+02  0.74958708140E+02  0.20913044743E+02  0.14799045397E+03  0.12509472816E+03 0.  0.
         24    2    1    2    0    0  0.29171716780E+01  0.53424023432E+01  0.18484113226E+03  0.20184759850E+03  0.80865058522E+02 0.  0.
        -13    1    5    5    0    0 -0.62158361818E+01 -0.32504854333E+02  0.40259253257E+02  0.52115349442E+02  0.00000000000E+00 0.  1.
         14    1    5    5    0    0  0.91330078598E+01  0.37847256676E+02  0.14458187900E+03  0.14973224905E+03  0.00000000000E+00 0. -1.
         13    1    3    3    0    0  0.34326525787E+02 -0.85608118373E+01 -0.43393362374E+02  0.55987335801E+02  0.00000000000E+00 0. -1.
        -14    1    3    3    0    0 -0.23232270435E+02 -0.71740298646E+02 -0.36667695776E+02  0.83850633587E+02  0.00000000000E+00 0.  1.
          5    1    4    4  501    0 -0.16067149114E+02  0.43655372582E+02 -0.51161153203E+02  0.69273954939E+02  0.41800000000E+01 0.  1.
         -5    1    4    4    0  501  0.20557220837E+01  0.31303335559E+02  0.72074197945E+02  0.78716499032E+02  0.41800000000E+01 0.  1.
</event>
<event>
11    1  0.8037748E-009  0.1415573E+03  0.7561462E-02  0.1105832E+00
         22   -1    0    0    0    0  0.00000000000E+00  0.00000000000E+00  0.23694086125E+02  0.23694086125E+02  0.00000000000E+00 0.  1.
         22   -1    0    0    0    0 -0.00000000000E+00 -0.00000000000E+00 -0.12432689724E+04  0.12432689724E+04  0.00000000000E+00 0.  1.
        -24    2    1    2    0    0 -0.66051752949E+02 -0.18091205978E+02 -0.70011246074E+03  0.70831918030E+03  0.82876279453E+02 0.  0.
         25    2    1    2    0    0  0.58484703473E+02  0.10430737574E+02 -0.35378383304E+03  0.37991984048E+03  0.12508726490E+03 0.  0.
         24    2    1    2    0    0  0.75670494760E+01  0.76604684033E+01 -0.16567859250E+03  0.17872403776E+03  0.66158466166E+02 0.  0.
        -11    1    5    5    0    0 -0.63361459746E+01  0.16459778699E+02 -0.16051209884E+03  0.16147818718E+03  0.00000000000E+00 0.  1.
         12    1    5    5    0    0  0.13903195451E+02 -0.87993102955E+01 -0.51664936601E+01  0.17245850578E+02  0.00000000000E+00 0. -1.
         13    1    3    3    0    0  0.11965447163E+02 -0.13065408699E+02 -0.30685978722E+03  0.30737079536E+03  0.00000000000E+00 0. -1.
        -14    1    3    3    0    0 -0.78017200113E+02 -0.50257972790E+01 -0.39325267352E+03  0.40094838494E+03  0.00000000000E+00 0.  1.
          5    1    4    4  501    0  0.68571750738E+02  0.28116064579E+02 -0.96251128838E+02  0.12154978523E+03  0.41800000000E+01 0. -1.
         -5    1    4    4    0  501 -0.10087047265E+02 -0.17685327004E+02 -0.25753270421E+03  0.25837005525E+03  0.41800000000E+01 0. -1.
</event>
<event>
11    1  0.8037748E-009  0.2256979E+03  0.7561462E-02  0.1037706E+00
         22   -1    0    0    0    0  0.00000000000E+00  0.00000000000E+00  0.12086169192E+04  0.12086169192E+04  0.00000000000E+00 0.  1.
         22   -1    0    0    0    0 -0.00000000000E+00 -0.00000000000E+00 -0.19324228239E+04  0.19324228239E+04  0.00000000000E+00 0.  1.
        -24    2    1    2    0    0  0.73617934883E+02 -0.10825096504E+03 -0.50970373895E+03  0.53223934177E+03  0.79642599481E+02 0.  0.
         25    2    1    2    0    0 -0.22778600295E+03  0.89129093261E+00 -0.13905085192E+04  0.14145845977E+04  0.12509350296E+03 0.  0.
         24    2    1    2    0    0  0.15416806807E+03  0.10735967411E+03  0.11764063535E+04  0.11942158037E+04  0.83220095939E+02 0.  0.
        -11    1    5    5    0    0  0.13656455462E+03  0.74716320137E+02  0.10755476717E+04  0.10867544342E+04  0.00000000000E+00 0.  1.
         12    1    5    5    0    0  0.17603513442E+02  0.32643353970E+02  0.10085868180E+03  0.10746136951E+03  0.00000000000E+00 0. -1.
         13    1    3    3    0    0 -0.15633646016E+02 -0.54609080570E+01 -0.70698724751E+02  0.72612272282E+02  0.00000000000E+00 0. -1.
        -14    1    3    3    0    0  0.89251580899E+02 -0.10279005698E+03 -0.43900501420E+03  0.45962706948E+03  0.00000000000E+00 0.  1.
          5    1    4    4  501    0 -0.24075782117E+03  0.10615012367E+02 -0.12450348784E+04  0.12681507512E+04  0.41800000000E+01 0.  1.
         -5    1    4    4    0  501  0.12971818222E+02 -0.97237214341E+01 -0.14547364073E+03  0.14643384641E+03  0.41800000000E+01 0.  1.
</event>
<event>
11    1  0.8037748E-009  0.1811019E+03  0.7561462E-02  0.1068755E+00
         22   -1    0    0    0    0  0.00000000000E+00  0.00000000000E+00  0.77894926612E+03  0.77894926612E+03  0.00000000000E+00 0.  1.
         22   -1    0    0    0    0 -0.00000000000E+00 -0.00000000000E+00 -0.97210813945E+03  0.97210813945E+03  0.00000000000E+00 0. -1.
         24    2    1    2    0    0 -0.10615111504E+03  0.74523083402E+02 -0.91125719126E+03  0.92377320225E+03  0.78393312126E+02 0.  0.
         25    2    1    2    0    0  0.11850065328E+03 -0.16878200668E+03  0.26917350143E+03  0.36143108017E+03  0.12509309027E+03 0.  0.
        -24    2    1    2    0    0 -0.12349538245E+02  0.94258923278E+02  0.44892481649E+03  0.46585312315E+03  0.80301841669E+02 0.  0.
        -13    1    3    3    0    0  0.98765540733E+01  0.67689220106E+01 -0.29492441277E+02  0.31830311309E+02  0.00000000000E+00 0.  1.
         14    1    3    3    0    0 -0.11602766911E+03  0.67754161392E+02 -0.88176474998E+03  0.89194289094E+03  0.00000000000E+00 0. -1.
         11    1    5    5    0    0  0.29901785213E+02  0.52634102105E+02  0.16387676064E+03  0.17469990882E+03  0.00000000000E+00 0. -1.
        -12    1    5    5    0    0 -0.42251323458E+02  0.41624821173E+02  0.28504805585E+03  0.29115321433E+03  0.00000000000E+00 0.  1.
          5    1    4    4  501    0  0.14781035212E+02 -0.12875035266E+03  0.15356348952E+03  0.20098345710E+03  0.41800000000E+01 0.  1.
         -5    1    4    4    0  501  0.10371961807E+03 -0.40031654019E+02  0.11561001191E+03  0.16044762308E+03  0.41800000000E+01 0.  1.
</event>
<event>
11    1  0.8037748E-009  0.1600809E+03  0.7561462E-02  0.1087001E+00
         22   -1    0    0    0    0  0.00000000000E+00  0.00000000000E+00  0.15457974283E+04  0.15457974283E+04  0.00000000000E+00 0. -1.
         22   -1    0    0    0    0 -0.00000000000E+00 -0.00000000000E+00 -0.23072913190E+04  0.23072913190E+04  0.00000000000E+00 0. -1.
        -24    2    1    2    0    0 -0.98182274882E+02 -0.19204560960E+02 -0.22781425791E+04  0.22817656135E+04  0.80697768067E+02 0.  0.
         25    2    1    2    0    0  0.77448194133E+02  0.42520872954E+02  0.20036522846E+03  0.25218040005E+03  0.12506990840E+03 0.  0.
         24    2    1    2    0    0  0.20734080748E+02 -0.23316311994E+02  0.13162834600E+04  0.13191427338E+04  0.81005262826E+02 0.  0.
        -11    1    5    5    0    0  0.17078709469E+02  0.26959730385E+02  0.32072802307E+03  0.32231192060E+03  0.00000000000E+00 0.  1.
         12    1    5    5    0    0  0.36553712796E+01 -0.50276042379E+02  0.99555543692E+03  0.99683081321E+03  0.00000000000E+00 0. -1.
         11    1    3    3    0    0 -0.10484828982E+03 -0.27231691306E+02 -0.22234101514E+04  0.22260474906E+04  0.00000000000E+00 0. -1.
        -12    1    3    3    0    0  0.66660149350E+01  0.80271303462E+01 -0.54732427709E+02  0.55718122901E+02  0.00000000000E+00 0.  1.
          5    1    4    4  501    0  0.38591361927E+02 -0.24170095266E+02  0.10123066537E+02  0.46834128546E+02  0.41800000000E+01 0. -1.
         -5    1    4    4    0  501  0.38856832206E+02  0.66690968220E+02  0.19024216192E+03  0.20534627151E+03  0.41800000000E+01 0. -1.
</event>
<event>
11    1  0.8037748E-009  0.1680834E+03  0.7561462E-02  0.1079712E+00
         22   -1    0    0    0    0  0.00000000000E+00  0.00000000000E+00  0.65878100519E+03  0.65878100519E+03  0.00000000000E+00 0.  1.
         22   -1    0    0    0    0 -0.00000000000E+00 -0.00000000000E+00 -0.26383798100E+03  0.26383798100E+03  0.00000000000E+00 0. -1.
        -24    2    1    2    0    0 -0.84521680795E+02 -0.56299044732E+02 -0.15950811042E+03  0.21011946312E+03  0.91617981473E+02 0.  0.
         25    2    1    2    0    0  0.15678137137E+03  0.10406762306E+03  0.10839309288E+03  0.25061868872E+03  0.12510074328E+03 0.  0.
         24    2    1    2    0    0 -0.72259690576E+02 -0.47768578332E+02  0.44605804173E+03  0.46188083435E+03  0.82842190870E+02 0.  0.
        -13    1    5    5    0    0 -0.60763915378E+02 -0.41685055454E+01  0.35592305284E+03  0.36109673135E+03  0.00000000000E+00 0.  1.
         14    1    5    5    0    0 -0.11495775199E+02 -0.43600072787E+02  0.90134988888E+02  0.10078410299E+03  0.00000000000E+00 0. -1.
         11    1    3    3    0    0 -0.74334681465E+02 -0.15085259005E+02 -0.14772597786E+03  0.16606075528E+03  0.00000000000E+00 0. -1.
        -12    1    3    3    0    0 -0.10186999330E+02 -0.41213785728E+02 -0.11782132564E+02  0.44058707846E+02  0.00000000000E+00 0.  1.
          5    1    4    4  501    0  0.35184945708E-01  0.42756997925E+02 -0.10845925229E+02  0.44308786980E+02  0.41800000000E+01 0. -1.
         -5    1    4    4    0  501  0.15674618643E+03  0.61310625139E+02  0.11923901811E+03  0.20630990174E+03  0.41800000000E+01 0. -1.
</event>
<event>
11    1  0.8037748E-009  0.2335109E+03  0.7561462E-02  0.1033069E+00
         22   -1    0    0    0    0  0.00000000000E+00  0.00000000000E+00  0.38617015135E+03  0.38617015135E+03  0.00000000000E+00 0. -1.
         22   -1    0    0    0    0 -0.00000000000E+00 -0.00000000000E+00 -0.58537845453E+03  0.58537845453E+03  0.00000000000E+00 0. -1.
        -24    2    1    2    0    0  0.50943228678E+02  0.16175389623E+02 -0.36188677594E+03  0.37523641783E+03  0.83567187856E+02 0.  0.
         25    2    1    2    0    0  0.15461555128E+03  0.15264622323E+01 -0.12342267247E+03  0.23407424505E+03  0.12509715157E+03 0.  0.
         24    2    1    2    0    0 -0.20555877996E+03 -0.17701851855E+02  0.28610114523E+03  0.36223794300E+03  0.82429936741E+02 0.  0.
        -13    1    5    5    0    0 -0.74047653333E+02 -0.24956886360E+02  0.16820354339E+03  0.18546787633E+03  0.00000000000E+00 0.  1.
         14    1    5    5    0    0 -0.13151112663E+03  0.72550345051E+01  0.11789760184E+03  0.17677006668E+03  0.00000000000E+00 0. -1.
         11    1    3    3    0    0  0.77619432842E+01  0.42078365906E+02 -0.23234447714E+03  0.23625154539E+03  0.00000000000E+00 0. -1.
        -12    1    3    3    0    0  0.43181285394E+02 -0.25902976283E+02 -0.12954229880E+03  0.13898487244E+03  0.00000000000E+00 0.  1.
          5    1    4    4  501    0  0.89608864645E+02 -0.14115077445E+02  0.31513539242E+01  0.90864665661E+02  0.41800000000E+01 0. -1.
         -5    1    4    4    0  501  0.65006686638E+02  0.15641539677E+02 -0.12657402639E+03  0.14320957939E+03  0.41800000000E+01 0. -1.
</event>
<event>
11    1  0.8037748E-009  0.2988634E+03  0.7561462E-02  0.1000673E+00
         22   -1    0    0    0    0  0.00000000000E+00  0.00000000000E+00  0.11989326269E+04  0.11989326269E+04  0.00000000000E+00 0. -1.
         22   -1    0    0    0    0 -0.00000000000E+00 -0.00000000000E+00 -0.33195655778E+03  0.33195655778E+03  0.00000000000E+00 0.  1.
         24    2    1    2    0    0 -0.32200018251E+02 -0.75042207281E+02 -0.19900893349E+03  0.23003773067E+03  0.81514586888E+02 0.  0.
         25    2    1    2    0    0  0.28318295126E+03  0.14907435524E+03  0.21144171811E+03  0.40344787326E+03  0.12508732553E+03 0.  0.
        -24    2    1    2    0    0 -0.25098293301E+03 -0.74032147956E+02  0.85454328449E+03  0.89740358074E+03  0.81337384154E+02 0.  0.
        -11    1    3    3    0    0  0.20479795936E+02 -0.47842194837E+02 -0.12363023383E+03  0.13413699104E+03  0.00000000000E+00 0.  1.
         12    1    3    3    0    0 -0.52679814187E+02 -0.27200012444E+02 -0.75378699658E+02  0.95900739632E+02  0.00000000000E+00 0. -1.
         11    1    5    5    0    0 -0.19715072602E+03 -0.38604879843E+02  0.73047873249E+03  0.75760010832E+03  0.00000000000E+00 0. -1.
        -12    1    5    5    0    0 -0.53832206984E+02 -0.35427268113E+02  0.12406455201E+03  0.13980347242E+03  0.00000000000E+00 0.  1.
          5    1    4    4  501    0  0.25586215748E+03  0.92102744514E+02  0.13332024490E+03  0.30288631411E+03  0.41800000000E+01 0.  1.
         -5    1    4    4    0  501  0.27320793777E+02  0.56971610723E+02  0.78121473213E+02  0.10056155915E+03  0.41800000000E+01 0.  1.
</event>
<event>
11    1  0.8037748E-009  0.1813708E+03  0.7561462E-02  0.1068539E+00
         22   -1    0    0    0    0  0.00000000000E+00  0.00000000000E+00  0.10136362554E+03  0.10136362554E+03  0.00000000000E+00 0. -1.
         22   -1    0    0    0    0 -0.00000000000E+00 -0.00000000000E+00 -0.14572645368E+04  0.14572645368E+04  0.00000000000E+00 0. -1.
         24    2    1    2    0    0 -0.96159479609E+02 -0.10469007649E+03 -0.99490043585E+03  0.10083115038E+04  0.81599962052E+02 0.  0.
         25    2    1    2    0    0  0.89363914518E+02  0.59808765143E+02 -0.40377421613E+03  0.43616821228E+03  0.12508434826E+03 0.  0.
        -24    2    1    2    0    0  0.67955650904E+01  0.44881311343E+02  0.42773740716E+02  0.11414844626E+03  0.95602108120E+02 0.  0.
        -13    1    3    3    0    0 -0.71840673622E+02 -0.66864880808E+02 -0.40587984119E+03  0.41757686736E+03  0.00000000000E+00 0.  1.
         14    1    3    3    0    0 -0.24318805986E+02 -0.37825195678E+02 -0.58902059466E+03  0.59073463643E+03  0.00000000000E+00 0. -1.
         13    1    5    5    0    0  0.13540923150E+02  0.26804458516E+02  0.72633819532E+02  0.78597120404E+02  0.00000000000E+00 0. -1.
        -14    1    5    5    0    0 -0.67453580593E+01  0.18076852827E+02 -0.29860078816E+02  0.35551325860E+02  0.00000000000E+00 0.  1.
          5    1    4    4  501    0  0.94237889506E+02  0.57937720839E+02 -0.17357636417E+03  0.20587322777E+03  0.41800000000E+01 0.  1.
         -5    1    4    4    0  501 -0.48739749879E+01  0.18710443042E+01 -0.23019785197E+03  0.23029498451E+03  0.41800000000E+01 0.  1.
</event>
<event>
11    1  0.8037748E-009  0.1360008E+03  0.7561462E-02  0.1112108E+00
         22   -1    0    0    0    0  0.00000000000E+00  0.00000000000E+00  0.51892852151E+03  0.51892852151E+03  0.00000000000E+00 0.  1.
         22   -1    0    0    0    0 -0.00000000000E+00 -0.00000000000E+00 -0.13566762647E+04  0.13566762647E+04  0.00000000000E+00 0. -1.
        -24    2    1    2    0    0 -0.31495770237E+01  0.51778529971E+02 -0.11865037396E+04  0.11903936251E+04  0.80962476494E+02 0.  0.
         25    2    1    2    0    0  0.17795707550E+02 -0.79200234441E+02 -0.13055952819E+03  0.19818703227E+03  0.12507175946E+03 0.  0.
         24    2    1    2    0    0 -0.14646130527E+02  0.27421704470E+02  0.47931552460E+03  0.48702412883E+03  0.80515035370E+02 0.  0.
        -13    1    5    5    0    0  0.10046788481E+02  0.11555777088E+02  0.42508228635E+03  0.42535799524E+03  0.00000000000E+00 0.  1.
         14    1    5    5    0    0 -0.24692919008E+02  0.15865927382E+02  0.54233238250E+02  0.61666133590E+02  0.00000000000E+00 0. -1.
         13    1    3    3    0    0  0.12316517462E+02  0.69731175198E+02 -0.97462621765E+03  0.97719516860E+03  0.00000000000E+00 0. -1.
        -14    1    3    3    0    0 -0.15466094486E+02 -0.17952645227E+02 -0.21187752195E+03  0.21319845651E+03  0.00000000000E+00 0.  1.
          5    1    4    4  501    0 -0.35166956705E+02 -0.69974222478E+02 -0.11982214018E+03  0.14320588093E+03  0.41800000000E+01 0.  1.
         -5    1    4    4    0  501  0.52962664255E+02 -0.92260119627E+01 -0.10737388019E+02  0.54981151345E+02  0.41800000000E+01 0.  1.
</event>
<event>
11    1  0.8037748E-009  0.1319092E+03  0.7561462E-02  0.1116945E+00
         22   -1    0    0    0    0  0.00000000000E+00  0.00000000000E+00  0.11490619396E+03  0.11490619396E+03  0.00000000000E+00 0.  1.
         22   -1    0    0    0    0 -0.00000000000E+00 -0.00000000000E+00 -0.92439370366E+03  0.92439370366E+03  0.00000000000E+00 0.  1.
        -24    2    1    2    0    0  0.12756709249E+02 -0.86168923881E+01 -0.73628323196E+03  0.74153284498E+03  0.86723572696E+02 0.  0.
         25    2    1    2    0    0  0.39918440930E+00 -0.32769326953E+02 -0.13544144987E+03  0.18725647235E+03  0.12508641796E+03 0.  0.
         24    2    1    2    0    0 -0.13155893659E+02  0.41386219342E+02  0.62237172119E+02  0.11051058028E+03  0.80331974158E+02 0.  0.
        -13    1    5    5    0    0 -0.18620719286E+02  0.67570713998E+01  0.71546379093E+02  0.74237952301E+02  0.00000000000E+00 0.  1.
         14    1    5    5    0    0  0.54648256275E+01  0.34629147942E+02 -0.93092069736E+01  0.36272627983E+02  0.00000000000E+00 0. -1.
         13    1    3    3    0    0 -0.34607896347E+01  0.34575532582E+02 -0.17889818702E+03  0.18224161390E+03  0.00000000000E+00 0. -1.
        -14    1    3    3    0    0  0.16217498884E+02 -0.43192424970E+02 -0.55738504494E+03  0.55929123108E+03  0.00000000000E+00 0.  1.
          5    1    4    4  501    0 -0.26107847748E+02 -0.74153067750E+02 -0.70273907144E+02  0.10552815547E+03  0.41800000000E+01 0. -1.
         -5    1    4    4    0  501  0.26507032158E+02  0.41383740796E+02 -0.65167542726E+02  0.81728316886E+02  0.41800000000E+01 0. -1.
</event>
<event>
11    1  0.8037748E-009  0.1438251E+03  0.7561462E-02  0.1103361E+00
         22   -1    0    0    0    0  0.00000000000E+00  0.00000000000E+00  0.61871317004E+03  0.61871317004E+03  0.00000000000E+00 0. -1.
         22   -1    0    0    0    0 -0.00000000000E+00 -0.00000000000E+00 -0.28759087366E+03  0.28759087366E+03  0.00000000000E+00 0. -1.
         24    2    1    2    0    0 -0.61906439666E+02  0.17030932859E+02 -0.15174057461E+03  0.18318941372E+03  0.80066843137E+02 0.  0.
         25    2    1    2    0    0  0.87103831719E+02 -0.35564507430E+02 -0.64196020805E+02  0.16917317990E+03  0.12508606646E+03 0.  0.
        -24    2    1    2    0    0 -0.25197392053E+02  0.18533574572E+02  0.54705889179E+03  0.55394145008E+03  0.81236057753E+02 0.  0.
        -13    1    3    3    0    0 -0.24971241182E+02  0.28622797626E+02 -0.14606538937E+02  0.40696171930E+02  0.00000000000E+00 0.  1.
         14    1    3    3    0    0 -0.36935198484E+02 -0.11591864767E+02 -0.13713403567E+03  0.14249324179E+03  0.00000000000E+00 0. -1.
         13    1    5    5    0    0 -0.49412265169E+02  0.11582547972E+01  0.21786406019E+03  0.22340022879E+03  0.00000000000E+00 0. -1.
        -14    1    5    5    0    0  0.24214873116E+02  0.17375319774E+02  0.32919483160E+03  0.33054122129E+03  0.00000000000E+00 0.  1.
          5    1    4    4  501    0 -0.13568300271E+02  0.32027551064E+02 -0.11267203877E+02  0.36800612531E+02  0.41800000000E+01 0.  1.
         -5    1    4    4    0  501  0.10067213199E+03 -0.67592058495E+02 -0.52928816928E+02  0.13237256737E+03  0.41800000000E+01 0.  1.
</event>
<event>
11    1  0.8037748E-009  0.2020132E+03  0.7561462E-02  0.1053109E+00
         22   -1    0    0    0    0  0.00000000000E+00  0.00000000000E+00  0.66472741393E+03  0.66472741393E+03  0.00000000000E+00 0. -1.
         22   -1    0    0    0    0 -0.00000000000E+00 -0.00000000000E+00 -0.36548583357E+03  0.36548583357E+03  0.00000000000E+00 0.  1.
        -24    2    1    2    0    0 -0.24925818337E+01  0.29340676557E+02 -0.21497237131E+03  0.23230843237E+03  0.82987945244E+02 0.  0.
         25    2    1    2    0    0  0.14411461406E+03  0.44408812446E+02 -0.53830992432E+02  0.20318786608E+03  0.12508544507E+03 0.  0.
         24    2    1    2    0    0 -0.14162203223E+03 -0.73749489003E+02  0.56804494411E+03  0.59471694904E+03  0.74279228686E+02 0.  0.
        -11    1    5    5    0    0 -0.10829055094E+03 -0.22246262021E+02  0.29945795791E+03  0.31921279446E+03  0.00000000000E+00 0.  1.
         12    1    5    5    0    0 -0.33331481291E+02 -0.51503226982E+02  0.26858698620E+03  0.27550415458E+03  0.00000000000E+00 0. -1.
         13    1    3    3    0    0 -0.80368728630E+01  0.58002382479E+02 -0.13405610514E+03  0.14628707060E+03  0.00000000000E+00 0. -1.
        -14    1    3    3    0    0  0.55442910294E+01 -0.28661705921E+02 -0.80916266173E+02  0.86021361769E+02  0.00000000000E+00 0.  1.
          5    1    4    4  501    0 -0.12252903420E+02  0.26484452767E+02 -0.33193408140E+02  0.44394083215E+02  0.41800000000E+01 0. -1.
         -5    1    4    4    0  501  0.15636751748E+03  0.17924359679E+02 -0.20637584292E+02  0.15879378287E+03  0.41800000000E+01 0. -1.
</event>
<event>
11    1  0.8037748E-009  0.1554872E+03  0.7561462E-02  0.1091400E+00
         22   -1    0    0    0    0  0.00000000000E+00  0.00000000000E+00  0.38045509599E+03  0.38045509599E+03  0.00000000000E+00 0. -1.
         22   -1    0    0    0    0 -0.00000000000E+00 -0.00000000000E+00 -0.37099234514E+03  0.37099234514E+03  0.00000000000E+00 0.  1.
         24    2    1    2    0    0  0.91608565333E+02  0.11797671777E+02 -0.26603289271E+03  0.29278186364E+03  0.80102467956E+02 0.  0.
         25    2    1    2    0    0 -0.89349157895E+02 -0.27018152116E+02 -0.15229604706E+02  0.15682115226E+03  0.12509068861E+03 0.  0.
        -24    2    1    2    0    0 -0.22594074379E+01  0.15220480339E+02  0.29072524827E+03  0.30184442523E+03  0.79700182646E+02 0.  0.
        -11    1    3    3    0    0  0.10302346884E+03 -0.13356373162E+00 -0.24675870221E+03  0.26740177653E+03  0.00000000000E+00 0.  1.
         12    1    3    3    0    0 -0.11414903505E+02  0.11931235508E+02 -0.19274190496E+02  0.25380087117E+02  0.00000000000E+00 0. -1.
         13    1    5    5    0    0 -0.20422932077E+02 -0.66607029631E+00  0.26773959835E+03  0.26851821601E+03  0.00000000000E+00 0. -1.
        -14    1    5    5    0    0  0.18163524639E+02  0.15886550635E+02  0.22985649920E+02  0.33326209215E+02  0.00000000000E+00 0.  1.
          5    1    4    4  501    0 -0.10021005008E+03  0.21390714745E+02 -0.26182882680E+02  0.10584248939E+03  0.41800000000E+01 0. -1.
         -5    1    4    4    0  501  0.10860892187E+02 -0.48408866860E+02  0.10953277975E+02  0.50978662872E+02  0.41800000000E+01 0. -1.
</event>
<event>
11    1  0.8037748E-009  0.1284095E+03  0.7561462E-02  0.1121239E+00
         22   -1    0    0    0    0  0.00000000000E+00  0.00000000000E+00  0.29086628383E+03  0.29086628383E+03  0.00000000000E+00 0.  1.
         22   -1    0    0    0    0 -0.00000000000E+00 -0.00000000000E+00 -0.10268785133E+04  0.10268785133E+04  0.00000000000E+00 0. -1.
        -24    2    1    2    0    0 -0.20185706932E+02  0.21819623726E+02 -0.92767557729E+03  0.93184375317E+03  0.82868841405E+02 0.  0.
         25    2    1    2    0    0  0.14768659326E+02 -0.56826581672E+01 -0.46246839852E+02  0.13429716292E+03  0.12508617777E+03 0.  0.
         24    2    1    2    0    0  0.54170476063E+01 -0.16136965558E+02  0.23791018771E+03  0.25160388100E+03  0.80084389568E+02 0.  0.
        -13    1    5    5    0    0 -0.21210486082E+02  0.11635940406E+02  0.18278634592E+03  0.18438038964E+03  0.00000000000E+00 0.  1.
         14    1    5    5    0    0  0.26627533688E+02 -0.27772905964E+02  0.55123841790E+02  0.67223491353E+02  0.00000000000E+00 0. -1.
         13    1    3    3    0    0  0.27731253560E+02  0.26161119825E+02 -0.50545376779E+03  0.50688947315E+03  0.00000000000E+00 0. -1.
        -14    1    3    3    0    0 -0.47916960492E+02 -0.43414960991E+01 -0.42222180950E+03  0.42495428002E+03  0.00000000000E+00 0.  1.
          5    1    4    4  501    0  0.35558905458E+02 -0.58825117715E+02 -0.25573061240E+02  0.73459404386E+02  0.41800000000E+01 0. -1.
         -5    1    4    4    0  501 -0.20790246132E+02  0.53142459547E+02 -0.20673778612E+02  0.60837758531E+02  0.41800000000E+01 0. -1.
</event>
<event>
11    1  0.8037748E-009  0.1432988E+03  0.7561462E-02  0.1103930E+00
         22   -1    0    0    0    0  0.00000000000E+00  0.00000000000E+00  0.33742553289E+03  0.33742553289E+03  0.00000000000E+00 0.  1.
         22   -1    0    0    0    0 -0.00000000000E+00 -0.00000000000E+00 -0.23119599016E+03  0.23119599016E+03  0.00000000000E+00 0. -1.
        -24    2    1    2    0    0 -0.17985871863E+02  0.88290166087E+02 -0.12579663294E+03  0.17920671272E+03  0.90396946907E+02 0.  0.
         25    2    1    2    0    0  0.26485955969E+02 -0.17041179971E+02 -0.52991560838E+01  0.12910403797E+03  0.12509142212E+03 0.  0.
         24    2    1    2    0    0 -0.85000841063E+01 -0.71248986116E+02  0.23732533175E+03  0.26031077235E+03  0.79307727599E+02 0.  0.
        -11    1    5    5    0    0 -0.34652062929E+02 -0.29823317425E+02  0.17588633595E+03  0.18173111704E+03  0.00000000000E+00 0.  1.
         12    1    5    5    0    0  0.26151978823E+02 -0.41425668691E+02  0.61438995803E+02  0.78579655307E+02  0.00000000000E+00 0. -1.
         11    1    3    3    0    0 -0.67354417743E+01  0.61752690104E+02 -0.13528202950E+03  0.14886231362E+03  0.00000000000E+00 0. -1.
        -12    1    3    3    0    0 -0.11250430088E+02  0.26537475983E+02  0.94853965598E+01  0.30344399098E+02  0.00000000000E+00 0.  1.
          5    1    4    4  501    0  0.54673988458E+02  0.13414111961E+02 -0.44487841746E+02  0.71873666087E+02  0.41800000000E+01 0. -1.
         -5    1    4    4    0  501 -0.28188032489E+02 -0.30455291932E+02  0.39188685662E+02  0.57230371886E+02  0.41800000000E+01 0. -1.
</event>
<event>
11    1  0.8037748E-009  0.1795581E+03  0.7561462E-02  0.1070001E+00
         22   -1    0    0    0    0  0.00000000000E+00  0.00000000000E+00  0.19952598405E+04  0.19952598405E+04  0.00000000000E+00 0. -1.
         22   -1    0    0    0    0 -0.00000000000E+00 -0.00000000000E+00 -0.89514685475E+03  0.89514685475E+03  0.00000000000E+00 0. -1.
         24    2    1    2    0    0 -0.10140030114E+03 -0.83804349779E+02 -0.76898462302E+03  0.78468781353E+03  0.84216531307E+02 0.  0.
         25    2    1    2    0    0  0.27562534560E+02  0.12674888012E+03 -0.46848514098E+02  0.18619456784E+03  0.12509461178E+03 0.  0.
        -24    2    1    2    0    0  0.73837766581E+02 -0.42944530340E+02  0.19159461229E+04  0.19195243139E+04  0.80173545670E+02 0.  0.
        -11    1    3    3    0    0 -0.90608798538E+01  0.92369807069E+01 -0.17003173694E+02  0.21366545626E+02  0.00000000000E+00 0.  1.
         12    1    3    3    0    0 -0.92339421288E+02 -0.93041330486E+02 -0.75198144932E+03  0.76332126790E+03  0.00000000000E+00 0. -1.
         13    1    5    5    0    0  0.25395627857E+02 -0.60507992332E+02  0.10761525525E+04  0.10781514139E+04  0.00000000000E+00 0. -1.
        -14    1    5    5    0    0  0.48442138724E+02  0.17563461992E+02  0.83979357036E+03  0.84137289998E+03  0.00000000000E+00 0.  1.
          5    1    4    4  501    0 -0.12461258935E+02  0.46171613395E+02 -0.77406997572E+02  0.91084666826E+02  0.41800000000E+01 0.  1.
         -5    1    4    4    0  501  0.40023793495E+02  0.80577266724E+02  0.30558483474E+02  0.95109901013E+02  0.41800000000E+01 0.  1.
</event>
<event>
11    1  0.8037748E-009  0.1297963E+03  0.7561462E-02  0.1119519E+00
         22   -1    0    0    0    0  0.00000000000E+00  0.00000000000E+00  0.98499692509E+03  0.98499692509E+03  0.00000000000E+00 0.  1.
         22   -1    0    0    0    0 -0.00000000000E+00 -0.00000000000E+00 -0.51617970070E+02  0.51617970070E+02  0.00000000000E+00 0. -1.
        -24    2    1    2    0    0 -0.23197169092E+01 -0.12414528252E+02  0.99528337877E+01  0.86171856182E+02  0.84658303191E+02 0.  0.
         25    2    1    2    0    0 -0.31761889591E+02  0.18077119116E+02  0.42575640692E+03  0.44525284794E+03  0.12508389464E+03 0.  0.
         24    2    1    2    0    0  0.34081606501E+02 -0.56625908641E+01  0.49766971431E+03  0.50519019103E+03  0.79676619804E+02 0.  0.
        -11    1    5    5    0    0  0.55348818773E+02 -0.52725146047E+01  0.44386237187E+03  0.44733108132E+03  0.00000000000E+00 0.  1.
         12    1    5    5    0    0 -0.21267212273E+02 -0.39007625943E+00  0.53807342435E+02  0.57859109717E+02  0.00000000000E+00 0. -1.
         11    1    3    3    0    0 -0.20345221447E+02 -0.11337019861E+01 -0.32690236297E+02  0.38520966564E+02  0.00000000000E+00 0. -1.
        -12    1    3    3    0    0  0.18025504538E+02 -0.11280826266E+02  0.42643070085E+02  0.47650889617E+02  0.00000000000E+00 0.  1.
          5    1    4    4  501    0  0.23961272755E+02  0.53122819349E+02  0.26739599478E+03  0.27370470758E+03  0.41800000000E+01 0.  1.
         -5    1    4    4    0  501 -0.55723162346E+02 -0.35045700234E+02  0.15836041215E+03  0.17154814036E+03  0.41800000000E+01 0.  1.
</event>
<event>
11    1  0.8037748E-009  0.1360285E+03  0.7561462E-02  0.1112076E+00
         22   -1    0    0    0    0  0.00000000000E+00  0.00000000000E+00  0.48879630581E+03  0.48879630581E+03  0.00000000000E+00 0. -1.
         22   -1    0    0    0    0 -0.00000000000E+00 -0.00000000000E+00 -0.16773338074E+04  0.16773338074E+04  0.00000000000E+00 0. -1.
         24    2    1    2    0    0 -0.56561683348E+02  0.42237313472E+01 -0.13610863986E+04  0.13646354537E+04  0.80353426289E+02 0.  0.
         25    2    1    2    0    0  0.25088054299E+02 -0.29443659145E+02 -0.29638848872E+03  0.32402020189E+03  0.12508643193E+03 0.  0.
        -24    2    1    2    0    0  0.31473629049E+02  0.25219927798E+02  0.46893738574E+03  0.47747445762E+03  0.80330267306E+02 0.  0.
        -11    1    3    3    0    0 -0.25490665943E+01  0.13701091600E+02 -0.39051044449E+02  0.41463257519E+02  0.00000000000E+00 0.  1.
         12    1    3    3    0    0 -0.54012616754E+02 -0.94773602530E+01 -0.13220353541E+04  0.13231721962E+04  0.00000000000E+00 0. -1.
         13    1    5    5    0    0  0.37024619342E+02  0.40799090072E+02  0.44489251252E+03  0.44829090542E+03  0.00000000000E+00 0. -1.
        -14    1    5    5    0    0 -0.55509902926E+01 -0.15579162274E+02  0.24044873224E+02  0.29183552195E+02  0.00000000000E+00 0.  1.
          5    1    4    4  501    0  0.64619904775E+02 -0.34406588991E+02 -0.10245492665E+03  0.12599218172E+03  0.41800000000E+01 0.  1.
         -5    1    4    4    0  501 -0.39531850476E+02  0.49629298462E+01 -0.19393356207E+03  0.19802802017E+03  0.41800000000E+01 0.  1.
</event>
<event>
11    1  0.1118345E-008  0.1732193E+03  0.7561462E-02  0.1075264E+00
         22   -1    0    0    0    0  0.00000000000E+00  0.00000000000E+00  0.18572607580E+04  0.18572607580E+04  0.00000000000E+00 0. -1.
         22   -1    0    0    0    0 -0.00000000000E+00 -0.00000000000E+00 -0.46239419429E+03  0.46239419429E+03  0.00000000000E+00 0.  1.
        -24    2    1    2    0    0 -0.38536625767E+02 -0.98937789039E+02 -0.40545380427E+03  0.42874285867E+03  0.90298913841E+02 0.  0.
         25    2    1    2    0    0  0.10083564153E+03 -0.88171646124E+01  0.11171891286E+03  0.19585524271E+03  0.12503036277E+03 0.  0.
         24    2    1    2    0    0 -0.62299015758E+02  0.10775495365E+03  0.16886014552E+04  0.16950568509E+04  0.79690376681E+02 0.  0.
        -11    1    5    5    0    0  0.17339924442E+02  0.64189154361E+01  0.25779922899E+03  0.25846144378E+03  0.00000000000E+00 0.  1.
         12    1    5    5    0    0 -0.79638940200E+02  0.10133603822E+03  0.14308022262E+04  0.14365954072E+04  0.00000000000E+00 0. -1.
         11    1    3    3    0    0  0.26716915585E+02 -0.16036229482E+02 -0.61056000528E+02  0.68547716482E+02  0.00000000000E+00 0. -1.
        -12    1    3    3    0    0 -0.65253541353E+02 -0.82901559557E+02 -0.34439780374E+03  0.36019514219E+03  0.00000000000E+00 0.  1.
          5    1    4    4  501    0  0.56886702245E+02 -0.66860782992E+02  0.63626946961E+02  0.10850033168E+03  0.41800000000E+01 0. -1.
         -5    1    4    4    0  501  0.43948939281E+02  0.58043618380E+02  0.48091965894E+02  0.87354911036E+02  0.41800000000E+01 0. -1.
</event>
<event>
11    1  0.8037748E-009  0.2250949E+03  0.7561462E-02  0.1038072E+00
         22   -1    0    0    0    0  0.00000000000E+00  0.00000000000E+00  0.26752883541E+04  0.26752883541E+04  0.00000000000E+00 0.  1.
         22   -1    0    0    0    0 -0.00000000000E+00 -0.00000000000E+00 -0.97771119607E+02  0.97771119607E+02  0.00000000000E+00 0. -1.
        -24    2    1    2    0    0  0.89769363262E+02 -0.16521446192E+03  0.16691959985E+03  0.26499530157E+03  0.83701852026E+02 0.  0.
         25    2    1    2    0    0 -0.12694520087E+03  0.14001941954E+03  0.22114148901E+03  0.31665838640E+03  0.12509377941E+03 0.  0.
         24    2    1    2    0    0  0.37175837608E+02  0.25195042379E+02  0.21894561457E+04  0.21914057858E+04  0.80772959776E+02 0.  0.
        -13    1    5    5    0    0  0.53517621887E+02  0.11127741201E+02  0.19965738103E+04  0.19973219426E+04  0.00000000000E+00 0.  1.
         14    1    5    5    0    0 -0.16341784279E+02  0.14067301178E+02  0.19288233538E+03  0.19408384317E+03  0.00000000000E+00 0. -1.
         13    1    3    3    0    0  0.54540939490E+02 -0.80627831459E+02  0.33109587850E+02  0.10281928853E+03  0.00000000000E+00 0. -1.
        -14    1    3    3    0    0  0.35228423772E+02 -0.84586630457E+02  0.13381001200E+03  0.16217601304E+03  0.00000000000E+00 0.  1.
          5    1    4    4  501    0 -0.10190493387E+03  0.14405923882E+03  0.22959177151E+03  0.28959891882E+03  0.41800000000E+01 0. -1.
         -5    1    4    4    0  501 -0.25040266997E+02 -0.40398192837E+01 -0.84502825070E+01  0.27059467577E+02  0.41800000000E+01 0. -1.
</event>
<event>
11    1  0.8037748E-009  0.1382653E+03  0.7561462E-02  0.1109511E+00
         22   -1    0    0    0    0  0.00000000000E+00  0.00000000000E+00  0.92814525959E+03  0.92814525959E+03  0.00000000000E+00 0.  1.
         22   -1    0    0    0    0 -0.00000000000E+00 -0.00000000000E+00 -0.69780456441E+03  0.69780456441E+03  0.00000000000E+00 0.  1.
         24    2    1    2    0    0  0.58142280016E+02 -0.14276156418E+02 -0.33682723813E+03  0.35316719730E+03  0.87693486265E+02 0.  0.
         25    2    1    2    0    0 -0.39343955206E+02  0.55018634661E+02 -0.33534493260E+03  0.36424014491E+03  0.12505863573E+03 0.  0.
        -24    2    1    2    0    0 -0.18798324810E+02 -0.40742478243E+02  0.90251286591E+03  0.90854248179E+03  0.94375004828E+02 0.  0.
        -13    1    3    3    0    0  0.47980745829E+02  0.60833561943E+01 -0.32287175928E+03  0.32647409106E+03  0.00000000000E+00 0.  1.
         14    1    3    3    0    0  0.10161534187E+02 -0.20359512612E+02 -0.13955478857E+02  0.26693106244E+02  0.00000000000E+00 0. -1.
         11    1    5    5    0    0 -0.36799246811E+02  0.94693873499E+01  0.61163817215E+03  0.61281735248E+03  0.00000000000E+00 0. -1.
        -12    1    5    5    0    0  0.18000922001E+02 -0.50211865593E+02  0.29087469376E+03  0.29572512932E+03  0.00000000000E+00 0.  1.
          5    1    4    4  501    0 -0.57891600860E+01  0.71551221130E+02 -0.31148097597E+03  0.31967321191E+03  0.41800000000E+01 0.  1.
         -5    1    4    4    0  501 -0.33554795120E+02 -0.16532586469E+02 -0.23863956628E+02  0.44566932998E+02  0.41800000000E+01 0.  1.
</event>
<event>
11    1  0.8037748E-009  0.1358348E+03  0.7561462E-02  0.1112301E+00
         22   -1    0    0    0    0  0.00000000000E+00  0.00000000000E+00  0.74967747852E+03  0.74967747852E+03  0.00000000000E+00 0. -1.
         22   -1    0    0    0    0 -0.00000000000E+00 -0.00000000000E+00 -0.61393489397E+03  0.61393489397E+03  0.00000000000E+00 0. -1.
        -24    2    1    2    0    0 -0.34261711731E+02 -0.15813158363E+02 -0.59172640237E+03  0.59845464471E+03  0.81141269681E+02 0.  0.
         25    2    1    2    0    0  0.70889764699E+02  0.29239868244E+02  0.44156782121E+03  0.46530682370E+03  0.12509184953E+03 0.  0.
         24    2    1    2    0    0 -0.36628052968E+02 -0.13426709881E+02  0.28590116571E+03  0.29985090408E+03  0.81542610470E+02 0.  0.
        -11    1    5    5    0    0  0.22689007194E+02 -0.20530030518E+02  0.10182552111E+03  0.10632360956E+03  0.00000000000E+00 0.  1.
         12    1    5    5    0    0 -0.59317060162E+02  0.71033206367E+01  0.18407564460E+03  0.19352729452E+03  0.00000000000E+00 0. -1.
         11    1    3    3    0    0 -0.41300682902E+02 -0.11173170958E+02 -0.58744148481E+03  0.58899752481E+03  0.00000000000E+00 0. -1.
        -12    1    3    3    0    0  0.70389711707E+01 -0.46399874049E+01 -0.42849175562E+01  0.94571198958E+01  0.00000000000E+00 0.  1.
          5    1    4    4  501    0  0.12432763380E+02 -0.42690888407E+02  0.22988118903E+03  0.23417924551E+03  0.41800000000E+01 0. -1.
         -5    1    4    4    0  501  0.58457001319E+02  0.71930756652E+02  0.21168663218E+03  0.23112757818E+03  0.41800000000E+01 0. -1.
</event>
<event>
11    1  0.8037748E-009  0.2266025E+03  0.7561462E-02  0.1037159E+00
         22   -1    0    0    0    0  0.00000000000E+00  0.00000000000E+00  0.75822773915E+03  0.75822773915E+03  0.00000000000E+00 0. -1.
         22   -1    0    0    0    0 -0.00000000000E+00 -0.00000000000E+00 -0.28270239386E+03  0.28270239386E+03  0.00000000000E+00 0. -1.
         24    2    1    2    0    0  0.78932104052E+02 -0.13926309439E+03  0.11983395133E+02  0.18019909290E+03  0.81875666810E+02 0.  0.
         25    2    1    2    0    0 -0.22914930868E+03  0.23015500773E+03 -0.11346416974E+02  0.34822060775E+03  0.12509243473E+03 0.  0.
        -24    2    1    2    0    0  0.15021720463E+03 -0.90891913347E+02  0.47488836712E+03  0.51251043236E+03  0.79507443509E+02 0.  0.
        -13    1    3    3    0    0  0.50115900015E+02 -0.12021004656E+03  0.39431300431E+02  0.13607676577E+03  0.00000000000E+00 0.  1.
         14    1    3    3    0    0  0.28816204037E+02 -0.19053047829E+02 -0.27447905298E+02  0.44122327136E+02  0.00000000000E+00 0. -1.
         11    1    5    5    0    0  0.11715756361E+03 -0.72693156452E+02  0.25963125412E+03  0.29397036896E+03  0.00000000000E+00 0. -1.
        -12    1    5    5    0    0  0.33059641016E+02 -0.18198756896E+02  0.21525711300E+03  0.21854006340E+03  0.00000000000E+00 0.  1.
          5    1    4    4  501    0 -0.64030337691E+02  0.19954570406E+02  0.36760316629E+02  0.76595445710E+02  0.41800000000E+01 0. -1.
         -5    1    4    4    0  501 -0.16511897099E+03  0.21020043733E+03 -0.48106733603E+02  0.27162516204E+03  0.41800000000E+01 0. -1.
</event>
<event>
11    1  0.8037748E-009  0.1428092E+03  0.7561462E-02  0.1104461E+00
         22   -1    0    0    0    0  0.00000000000E+00  0.00000000000E+00  0.27690675975E+03  0.27690675975E+03  0.00000000000E+00 0.  1.
         22   -1    0    0    0    0 -0.00000000000E+00 -0.00000000000E+00 -0.25670245352E+04  0.25670245352E+04  0.00000000000E+00 0. -1.
         24    2    1    2    0    0 -0.30264092214E+02  0.62141294820E+02 -0.24852611788E+04  0.24875398350E+04  0.80955839345E+02 0.  0.
         25    2    1    2    0    0  0.64545698587E+02 -0.28450682673E+02  0.81552606119E+01  0.14383946533E+03  0.12509074690E+03 0.  0.
        -24    2    1    2    0    0 -0.34281606373E+02 -0.33690612147E+02  0.18698814279E+03  0.21255199459E+03  0.88901625288E+02 0.  0.
        -13    1    3    3    0    0 -0.24737992730E+02  0.44033551299E+01 -0.20402818749E+03  0.20556959676E+03  0.00000000000E+00 0.  1.
         14    1    3    3    0    0 -0.55260994835E+01  0.57737939690E+02 -0.22812329913E+04  0.22819702382E+04  0.00000000000E+00 0. -1.
         11    1    5    5    0    0 -0.38435516430E+02 -0.26080788000E+02  0.29934247867E+02  0.55258986792E+02  0.00000000000E+00 0. -1.
        -12    1    5    5    0    0  0.41539100577E+01 -0.76098241469E+01  0.15705389492E+03  0.15729300780E+03  0.00000000000E+00 0.  1.
          5    1    4    4  501    0  0.53777534542E+02  0.43370987151E+02  0.14845355565E+02  0.70787871346E+02  0.41800000000E+01 0. -1.
         -5    1    4    4    0  501  0.10768164045E+02 -0.71821669824E+02 -0.66900949535E+01  0.73051593985E+02  0.41800000000E+01 0. -1.
</event>
<event>
11    1  0.8037748E-009  0.1748674E+03  0.7561462E-02  0.1073872E+00
         22   -1    0    0    0    0  0.00000000000E+00  0.00000000000E+00  0.32849705482E+04  0.32849705482E+04  0.00000000000E+00 0.  1.
         22   -1    0    0    0    0 -0.00000000000E+00 -0.00000000000E+00 -0.79276996148E+02  0.79276996148E+02  0.00000000000E+00 0. -1.
         24    2    1    2    0    0 -0.62651033616E+02  0.98871875020E+02  0.44866559758E+02  0.14910364241E+03  0.80734678500E+02 0.  0.
         25    2    1    2    0    0  0.82591285569E+02 -0.11305240285E+03  0.30536697470E+03  0.35846795733E+03  0.12509244965E+03 0.  0.
        -24    2    1    2    0    0 -0.19940251952E+02  0.14180527826E+02  0.28554600176E+04  0.28566759446E+04  0.79667053196E+02 0.  0.
        -13    1    3    3    0    0 -0.34530964302E+01  0.27194132839E+02  0.48893371259E+02  0.56053603710E+02  0.00000000000E+00 0.  1.
         14    1    3    3    0    0 -0.59197937186E+02  0.71677742181E+02 -0.40268115014E+01  0.93050038700E+02  0.00000000000E+00 0. -1.
         13    1    5    5    0    0 -0.10430501754E+02  0.27880117389E+02  0.38145025841E+03  0.38260997890E+03  0.00000000000E+00 0. -1.
        -14    1    5    5    0    0 -0.95097501983E+01 -0.13699589563E+02  0.24740097592E+04  0.24740659657E+04  0.00000000000E+00 0.  1.
          5    1    4    4  501    0  0.83695315048E+02 -0.13757911431E+03  0.27922659999E+03  0.32236297089E+03  0.41800000000E+01 0.  1.
         -5    1    4    4    0  501 -0.11040294788E+01  0.24526711468E+02  0.26140374702E+02  0.36104986444E+02  0.41800000000E+01 0.  1.
</event>
<event>
11    1  0.8037748E-009  0.1391764E+03  0.7561462E-02  0.1108482E+00
         22   -1    0    0    0    0  0.00000000000E+00  0.00000000000E+00  0.16060716681E+03  0.16060716681E+03  0.00000000000E+00 0. -1.
         22   -1    0    0    0    0 -0.00000000000E+00 -0.00000000000E+00 -0.16592738193E+04  0.16592738193E+04  0.00000000000E+00 0.  1.
         24    2    1    2    0    0  0.57995124291E+02 -0.16924291689E+02 -0.14183479444E+04  0.14219714710E+04  0.81499120947E+02 0.  0.
         25    2    1    2    0    0 -0.52725623439E+02  0.62586235778E+02 -0.19820404346E+03  0.24825262720E+03  0.12508995080E+03 0.  0.
        -24    2    1    2    0    0 -0.52695008521E+01 -0.45661944089E+02  0.11788533538E+03  0.14965688796E+03  0.79921530504E+02 0.  0.
        -11    1    3    3    0    0  0.63520751955E+02 -0.41700852681E+02 -0.10384165587E+04  0.10411929680E+04  0.00000000000E+00 0.  1.
         12    1    3    3    0    0 -0.55256276644E+01  0.24776560992E+02 -0.37993138568E+03  0.38077850302E+03  0.00000000000E+00 0. -1.
         11    1    5    5    0    0 -0.36403835364E+02 -0.84648476330E+01  0.79329501721E+02  0.87693002674E+02  0.00000000000E+00 0. -1.
        -12    1    5    5    0    0  0.31134334512E+02 -0.37197096456E+02  0.38555833661E+02  0.61963885285E+02  0.00000000000E+00 0.  1.
          5    1    4    4  501    0 -0.34366045630E+02  0.83895401411E+02 -0.20013371782E+03  0.21975086093E+03  0.41800000000E+01 0.  1.
         -5    1    4    4    0  501 -0.18359577809E+02 -0.21309165633E+02  0.19296743600E+01  0.28501766269E+02  0.41800000000E+01 0.  1.
</event>
<event>
11    1  0.8037748E-009  0.1419121E+03  0.7561462E-02  0.1105442E+00
         22   -1    0    0    0    0  0.00000000000E+00  0.00000000000E+00  0.13526534756E+04  0.13526534756E+04  0.00000000000E+00 0. -1.
         22   -1    0    0    0    0 -0.00000000000E+00 -0.00000000000E+00 -0.40858907946E+03  0.40858907946E+03  0.00000000000E+00 0.  1.
        -24    2    1    2    0    0  0.23989811068E+01 -0.68679236984E+02 -0.38352977331E+03  0.39788373232E+03  0.80584022778E+02 0.  0.
         25    2    1    2    0    0  0.47233960560E+02  0.12282847450E+02  0.28479274077E+03  0.31485901918E+03  0.12508949352E+03 0.  0.
         24    2    1    2    0    0 -0.49632941666E+02  0.56396389534E+02  0.10428014287E+04  0.10484998036E+04  0.79202504732E+02 0.  0.
        -11    1    5    5    0    0 -0.29669131684E+02  0.21433811955E+02  0.13702927009E+03  0.14183330543E+03  0.00000000000E+00 0.  1.
         12    1    5    5    0    0 -0.19963809982E+02  0.34962577579E+02  0.90577215859E+03  0.90666649813E+03  0.00000000000E+00 0. -1.
         11    1    3    3    0    0 -0.10673791523E+02  0.85294689306E+01 -0.11979621294E+02  0.18171213279E+02  0.00000000000E+00 0. -1.
        -12    1    3    3    0    0  0.13072772629E+02 -0.77208705915E+02 -0.37155015202E+03  0.37971251904E+03  0.00000000000E+00 0.  1.
          5    1    4    4  501    0 -0.25767627736E+02  0.36754486479E+02  0.17487649977E+03  0.18059381354E+03  0.41800000000E+01 0.  1.
         -5    1    4    4    0  501  0.73001588296E+02 -0.24471639029E+02  0.10991624100E+03  0.13426520564E+03  0.41800000000E+01 0.  1.
</event>
<event>
11    1  0.8037748E-009  0.1391475E+03  0.7561462E-02  0.1108514E+00
         22   -1    0    0    0    0  0.00000000000E+00  0.00000000000E+00  0.16382594841E+04  0.16382594841E+04  0.00000000000E+00 0. -1.
         22   -1    0    0    0    0 -0.00000000000E+00 -0.00000000000E+00 -0.39335384836E+03  0.39335384836E+03  0.00000000000E+00 0. -1.
         24    2    1    2    0    0 -0.59128579365E+02 -0.40730392921E+01 -0.33283478492E+03  0.34733042012E+03  0.79665853066E+02 0.  0.
         25    2    1    2    0    0  0.85368656200E+02  0.24217101787E+02  0.60855935914E+02  0.16500290633E+03  0.12509292019E+03 0.  0.
        -24    2    1    2    0    0 -0.26240076835E+02 -0.20144062495E+02  0.15168844848E+04  0.15192800060E+04  0.78605799626E+02 0.  0.
        -13    1    3    3    0    0  0.19566051712E+02 -0.63393072925E+01 -0.68995978380E+02  0.71996265383E+02  0.00000000000E+00 0.  1.
         14    1    3    3    0    0 -0.78694631077E+02  0.22662680004E+01 -0.26383880654E+03  0.27533415474E+03  0.00000000000E+00 0. -1.
         11    1    5    5    0    0 -0.26622793641E+02  0.34590531378E+01  0.13874981420E+04  0.13877578435E+04  0.00000000000E+00 0. -1.
        -12    1    5    5    0    0  0.38271680585E+00 -0.23603115632E+02  0.12938634278E+03  0.13152216254E+03  0.00000000000E+00 0.  1.
          5    1    4    4  501    0  0.42528815712E+02 -0.45449461035E+02  0.54547951166E+02  0.82869204477E+02  0.41800000000E+01 0. -1.
         -5    1    4    4    0  501  0.42839840488E+02  0.69666562822E+02  0.63079847484E+01  0.82133701853E+02  0.41800000000E+01 0. -1.
</event>
<event>
11    1  0.8037748E-009  0.4170627E+03  0.7561462E-02  0.9600713E-01
         22   -1    0    0    0    0  0.00000000000E+00  0.00000000000E+00  0.10441719145E+04  0.10441719145E+04  0.00000000000E+00 0.  1.
         22   -1    0    0    0    0 -0.00000000000E+00 -0.00000000000E+00 -0.24449051183E+03  0.24449051183E+03  0.00000000000E+00 0. -1.
         24    2    1    2    0    0  0.37245465176E+02 -0.60103983385E+02 -0.21349823509E+02  0.10888485242E+03  0.80002391388E+02 0.  0.
         25    2    1    2    0    0 -0.23372683544E+03  0.37467269482E+03  0.36372777287E+03  0.58562178980E+03  0.12508847301E+03 0.  0.
        -24    2    1    2    0    0  0.19648137026E+03 -0.31456871143E+03  0.45730345330E+03  0.59415578411E+03  0.79600529620E+02 0.  0.
        -11    1    3    3    0    0  0.42059132793E+01  0.16827791314E+02 -0.18138047876E+02  0.25096873267E+02  0.00000000000E+00 0.  1.
         12    1    3    3    0    0  0.33039551897E+02 -0.76931774699E+02 -0.32117756337E+01  0.83787979154E+02  0.00000000000E+00 0. -1.
         11    1    5    5    0    0  0.93399584092E+02 -0.81124885592E+02  0.16279144407E+03  0.20446462685E+03  0.00000000000E+00 0. -1.
        -12    1    5    5    0    0  0.10308178617E+03 -0.23344382584E+03  0.29451200922E+03  0.38969115725E+03  0.00000000000E+00 0.  1.
          5    1    4    4  501    0 -0.21748977184E+03  0.30965689186E+03  0.35322464245E+03  0.51766235324E+03  0.41800000000E+01 0. -1.
         -5    1    4    4    0  501 -0.16237063599E+02  0.65015802957E+02  0.10503130428E+02  0.67959436558E+02  0.41800000000E+01 0. -1.
</event>
<event>
11    1  0.8037748E-009  0.1462218E+03  0.7561462E-02  0.1100803E+00
         22   -1    0    0    0    0  0.00000000000E+00  0.00000000000E+00  0.27734966463E+03  0.27734966463E+03  0.00000000000E+00 0. -1.
         22   -1    0    0    0    0 -0.00000000000E+00 -0.00000000000E+00 -0.36034255767E+03  0.36034255767E+03  0.00000000000E+00 0. -1.
        -24    2    1    2    0    0  0.39707909302E+02 -0.48171596389E+02 -0.21436169394E+03  0.23709076130E+03  0.79773883605E+02 0.  0.
         25    2    1    2    0    0 -0.90220478236E+02  0.95603045232E+02 -0.52410167333E+02  0.18887361435E+03  0.12508692820E+03 0.  0.
         24    2    1    2    0    0  0.50512568934E+02 -0.47431448842E+02  0.18377896823E+03  0.21172784665E+03  0.79074078697E+02 0.  0.
        -13    1    5    5    0    0 -0.57373050533E+00  0.17793643981E+02  0.13431209399E+02  0.22301128195E+02  0.00000000000E+00 0.  1.
         14    1    5    5    0    0  0.51086299439E+02 -0.65225092824E+02  0.17034775883E+03  0.18942671845E+03  0.00000000000E+00 0. -1.
         13    1    3    3    0    0  0.26311907772E+02 -0.64253951921E+02 -0.19999262745E+03  0.21170247486E+03  0.00000000000E+00 0. -1.
        -14    1    3    3    0    0  0.13396001530E+02  0.16082355532E+02 -0.14369066487E+02  0.25388286436E+02  0.00000000000E+00 0.  1.
          5    1    4    4  501    0  0.29713630296E+02  0.32145331483E+02 -0.18521132196E+01  0.44012780927E+02  0.41800000000E+01 0.  1.
         -5    1    4    4    0  501 -0.11993410853E+03  0.63457713748E+02 -0.50558054114E+02  0.14486083342E+03  0.41800000000E+01 0.  1.
</event>
<event>
11    1  0.8037748E-009  0.1532114E+03  0.7561462E-02  0.1093642E+00
         22   -1    0    0    0    0  0.00000000000E+00  0.00000000000E+00  0.41860829224E+04  0.41860829224E+04  0.00000000000E+00 0. -1.
         22   -1    0    0    0    0 -0.00000000000E+00 -0.00000000000E+00 -0.25272361059E+03  0.25272361059E+03  0.00000000000E+00 0.  1.
        -24    2    1    2    0    0  0.58757351678E+02 -0.84298957725E+01 -0.16869479275E+03  0.19626594013E+03  0.80863444351E+02 0.  0.
         25    2    1    2    0    0  0.15095176687E+02 -0.41475656637E+02 -0.59558581026E+01  0.13278032497E+03  0.12508816091E+03 0.  0.
         24    2    1    2    0    0 -0.73852528365E+02  0.49905552410E+02  0.41080099627E+04  0.41097602679E+04  0.80242420892E+02 0.  0.
        -13    1    5    5    0    0  0.11099487990E+02  0.30236755575E+02  0.12866601977E+04  0.12870632946E+04  0.00000000000E+00 0.  1.
         14    1    5    5    0    0 -0.84952016355E+02  0.19668796834E+02  0.28213497650E+04  0.28226969733E+04  0.00000000000E+00 0. -1.
         11    1    3    3    0    0  0.10556195768E+02  0.22907676564E+02 -0.94067472024E+01  0.26919914703E+02  0.00000000000E+00 0. -1.
        -12    1    3    3    0    0  0.48201155910E+02 -0.31337572337E+02 -0.15928804555E+03  0.16934602542E+03  0.00000000000E+00 0.  1.
          5    1    4    4  501    0  0.46966193153E+01 -0.30412511030E+02  0.58605885728E+02  0.66325721271E+02  0.41800000000E+01 0.  1.
         -5    1    4    4    0  501  0.10398557372E+02 -0.11063145607E+02 -0.64561743831E+02  0.66454603698E+02  0.41800000000E+01 0.  1.
</event>
<event>
11    1  0.8037748E-009  0.2155261E+03  0.7561462E-02  0.1044057E+00
         22   -1    0    0    0    0  0.00000000000E+00  0.00000000000E+00  0.21438547216E+04  0.21438547216E+04  0.00000000000E+00 0.  1.
         22   -1    0    0    0    0 -0.00000000000E+00 -0.00000000000E+00 -0.10839985898E+03  0.10839985898E+03  0.00000000000E+00 0. -1.
        -24    2    1    2    0    0 -0.51532240542E+02 -0.29843592455E+02 -0.61065255476E+02  0.11500721585E+03  0.77145851775E+02 0.  0.
         25    2    1    2    0    0  0.30264586927E+02 -0.15792487547E+03  0.85254994183E+03  0.87655246486E+03  0.12508640545E+03 0.  0.
         24    2    1    2    0    0  0.21267653616E+02  0.18776846792E+03  0.12439701763E+04  0.12606948999E+04  0.78616286184E+02 0.  0.
        -13    1    5    5    0    0  0.48763473780E+02  0.15128837307E+03  0.95639116471E+03  0.96951024138E+03  0.00000000000E+00 0.  1.
         14    1    5    5    0    0 -0.27495820164E+02  0.36480094857E+02  0.28757901159E+03  0.29118465852E+03  0.00000000000E+00 0. -1.
         11    1    3    3    0    0 -0.57844548577E+02 -0.48031081645E+02 -0.59142129840E+02  0.95659647324E+02  0.00000000000E+00 0. -1.
        -12    1    3    3    0    0  0.63123080349E+01  0.18187489191E+02 -0.19231256359E+01  0.19347568530E+02  0.00000000000E+00 0.  1.
          5    1    4    4  501    0  0.13572863083E+02  0.11134602238E+02  0.20434076070E+02  0.27262168734E+02  0.41800000000E+01 0. -1.
         -5    1    4    4    0  501  0.16691723844E+02 -0.16905947771E+03  0.83211586576E+03  0.84929029613E+03  0.41800000000E+01 0. -1.
</event>
<event>
11    1  0.8037748E-009  0.1577419E+03  0.7561462E-02  0.1089221E+00
         22   -1    0    0    0    0  0.00000000000E+00  0.00000000000E+00  0.19579669219E+03  0.19579669219E+03  0.00000000000E+00 0.  1.
         22   -1    0    0    0    0 -0.00000000000E+00 -0.00000000000E+00 -0.35036413033E+04  0.35036413033E+04  0.00000000000E+00 0. -1.
         24    2    1    2    0    0  0.11743119929E+02 -0.39580300159E+02 -0.33902756083E+04  0.33914780843E+04  0.80314350913E+02 0.  0.
         25    2    1    2    0    0  0.87534896009E+02  0.15445409671E+02  0.16839629948E+01  0.15346838252E+03  0.12509512381E+03 0.  0.
        -24    2    1    2    0    0 -0.99278015938E+02  0.24134890488E+02  0.80747034202E+02  0.15449152867E+03  0.83119982622E+02 0.  0.
        -13    1    3    3    0    0 -0.95284946041E+01 -0.26567652266E+02 -0.36161385415E+03  0.36271367753E+03  0.00000000000E+00 0.  1.
         14    1    3    3    0    0  0.21271614533E+02 -0.13012647893E+02 -0.30286617541E+04  0.30287644068E+04  0.00000000000E+00 0. -1.
         11    1    5    5    0    0 -0.18587867454E+02 -0.22725242728E+02 -0.24720244207E+01  0.29462796511E+02  0.00000000000E+00 0. -1.
        -12    1    5    5    0    0 -0.80690148484E+02  0.46860133216E+02  0.83219058623E+02  0.12502873216E+03  0.00000000000E+00 0.  1.
          5    1    4    4  501    0  0.52631453284E+02  0.46615479015E+02 -0.47888525128E+02  0.85169572017E+02  0.41800000000E+01 0. -1.
         -5    1    4    4    0  501  0.34903442725E+02 -0.31170069344E+02  0.49572488123E+02  0.68298810500E+02  0.41800000000E+01 0. -1.
</event>
<event>
11    1  0.8037748E-009  0.1356379E+03  0.7561462E-02  0.1112530E+00
         22   -1    0    0    0    0  0.00000000000E+00  0.00000000000E+00  0.61668216938E+03  0.61668216938E+03  0.00000000000E+00 0.  1.
         22   -1    0    0    0    0 -0.00000000000E+00 -0.00000000000E+00 -0.40114117236E+03  0.40114117236E+03  0.00000000000E+00 0. -1.
        -24    2    1    2    0    0  0.51797271173E+02 -0.50286380686E+01 -0.36889551836E+03  0.38177668584E+03  0.83434344714E+02 0.  0.
         25    2    1    2    0    0 -0.67402042376E+02  0.11107462070E+02  0.23385278202E+03  0.27386354922E+03  0.12509080264E+03 0.  0.
         24    2    1    2    0    0  0.15604771203E+02 -0.60788240018E+01  0.35058373337E+03  0.36218310668E+03  0.89371067342E+02 0.  0.
        -11    1    5    5    0    0  0.13577479738E+02  0.43567317070E+01  0.35124272688E+03  0.35153205011E+03  0.00000000000E+00 0.  1.
         12    1    5    5    0    0  0.20272914649E+01 -0.10435555709E+02 -0.65899351402E+00  0.10651056571E+02  0.00000000000E+00 0. -1.
         13    1    3    3    0    0  0.72951963099E+02  0.71632192835E+01 -0.29406060820E+03  0.30305930430E+03  0.00000000000E+00 0. -1.
        -14    1    3    3    0    0 -0.21154691925E+02 -0.12191857352E+02 -0.74834910166E+02  0.78717381535E+02  0.00000000000E+00 0.  1.
          5    1    4    4  501    0 -0.48294095368E+01  0.86721059857E+01 -0.14297391871E+02  0.17900179692E+02  0.41800000000E+01 0.  1.
         -5    1    4    4    0  501 -0.62572632839E+02  0.24353560847E+01  0.24815017389E+03  0.25596336953E+03  0.41800000000E+01 0.  1.
</event>
<event>
11    1  0.8037748E-009  0.1299486E+03  0.7561462E-02  0.1119332E+00
         22   -1    0    0    0    0  0.00000000000E+00  0.00000000000E+00  0.10520666059E+03  0.10520666059E+03  0.00000000000E+00 0. -1.
         22   -1    0    0    0    0 -0.00000000000E+00 -0.00000000000E+00 -0.11952778137E+04  0.11952778137E+04  0.00000000000E+00 0.  1.
        -24    2    1    2    0    0  0.10747025864E+02 -0.35877631662E+02 -0.89869839542E+03  0.90305734688E+03  0.80318508552E+02 0.  0.
         25    2    1    2    0    0 -0.10534585433E+02  0.17633477916E+02 -0.26033266524E+03  0.28955801049E+03  0.12509527493E+03 0.  0.
         24    2    1    2    0    0 -0.21244043128E+00  0.18244153747E+02  0.68959907533E+02  0.10786911694E+03  0.80915902426E+02 0.  0.
        -11    1    5    5    0    0 -0.14765383599E+02  0.12375165285E+02 -0.13759457180E+02  0.23674541823E+02  0.00000000000E+00 0.  1.
         12    1    5    5    0    0  0.14552943168E+02  0.58689884614E+01  0.82719364713E+02  0.84194575116E+02  0.00000000000E+00 0. -1.
         13    1    3    3    0    0  0.13392449771E+02 -0.65503708566E+01 -0.26846283933E+02  0.30708110170E+02  0.00000000000E+00 0. -1.
        -14    1    3    3    0    0 -0.26454239071E+01 -0.29327260806E+02 -0.87185211149E+03  0.87234923671E+03  0.00000000000E+00 0.  1.
          5    1    4    4  501    0 -0.59876831377E+02  0.14046959153E+02 -0.20999239590E+03  0.21885344579E+03  0.41800000000E+01 0.  1.
         -5    1    4    4    0  501  0.49342245944E+02  0.35865187628E+01 -0.50340269344E+02  0.70704564699E+02  0.41800000000E+01 0.  1.
</event>
<event>
11    1  0.8037748E-009  0.1497086E+03  0.7561462E-02  0.1097177E+00
         22   -1    0    0    0    0  0.00000000000E+00  0.00000000000E+00  0.72098068290E+03  0.72098068290E+03  0.00000000000E+00 0. -1.
         22   -1    0    0    0    0 -0.00000000000E+00 -0.00000000000E+00 -0.22000432376E+03  0.22000432376E+03  0.00000000000E+00 0.  1.
        -24    2    1    2    0    0  0.23082918850E+02 -0.24068408612E+02 -0.10884811909E+03  0.13910578073E+03  0.79939951009E+02 0.  0.
         25    2    1    2    0    0  0.26550510541E+02 -0.43722260565E+02 -0.40655291603E+02  0.14112742783E+03  0.12509009741E+03 0.  0.
         24    2    1    2    0    0 -0.49633429391E+02  0.67790669177E+02  0.65047976983E+03  0.66075179810E+03  0.80062198321E+02 0.  0.
        -13    1    5    5    0    0 -0.11370493309E+02  0.42787638598E+02  0.53076106846E+03  0.53260433901E+03  0.00000000000E+00 0.  1.
         14    1    5    5    0    0 -0.38262936083E+02  0.25003030578E+02  0.11971870137E+03  0.12814745910E+03  0.00000000000E+00 0. -1.
         13    1    3    3    0    0 -0.23953169324E+02  0.12257894490E+02 -0.28884889319E+02  0.39475905676E+02  0.00000000000E+00 0. -1.
        -14    1    3    3    0    0  0.47036088175E+02 -0.36326303102E+02 -0.79963229771E+02  0.99629875054E+02  0.00000000000E+00 0.  1.
          5    1    4    4  501    0  0.34491106609E+02  0.28262230801E+02  0.17568773640E+02  0.48109503553E+02  0.41800000000E+01 0. -1.
         -5    1    4    4    0  501 -0.79405960676E+01 -0.71984491365E+02 -0.58224065243E+02  0.93017924275E+02  0.41800000000E+01 0. -1.
</event>
<event>
11    1  0.8037748E-009  0.1428694E+03  0.7561462E-02  0.1104396E+00
         22   -1    0    0    0    0  0.00000000000E+00  0.00000000000E+00  0.20632782605E+03  0.20632782605E+03  0.00000000000E+00 0.  1.
         22   -1    0    0    0    0 -0.00000000000E+00 -0.00000000000E+00 -0.13821011253E+04  0.13821011253E+04  0.00000000000E+00 0.  1.
        -24    2    1    2    0    0 -0.56833099028E+02  0.31272362012E+02 -0.89052267137E+03  0.89635426144E+03  0.78818601936E+02 0.  0.
         25    2    1    2    0    0 -0.12966872755E+02 -0.18803200936E+02 -0.46517437798E+03  0.48224039584E+03  0.12508755850E+03 0.  0.
         24    2    1    2    0    0  0.69799971783E+02 -0.12469161076E+02  0.17992375011E+03  0.20983429406E+03  0.81427016827E+02 0.  0.
        -11    1    5    5    0    0  0.84197489223E+02 -0.71540004308E+01  0.11258363617E+03  0.14076743958E+03  0.00000000000E+00 0.  1.
         12    1    5    5    0    0 -0.14397517440E+02 -0.53151606454E+01  0.67340113944E+02  0.69066854475E+02  0.00000000000E+00 0. -1.
         11    1    3    3    0    0  0.12655769464E+01 -0.92186015853E+01 -0.45629702898E+03  0.45639189624E+03  0.00000000000E+00 0. -1.
        -12    1    3    3    0    0 -0.58098675974E+02  0.40490963597E+02 -0.43422564239E+03  0.43996236520E+03  0.00000000000E+00 0.  1.
          5    1    4    4  501    0  0.30198796905E+02  0.28909483717E+02 -0.68486590859E+02  0.80346817677E+02  0.41800000000E+01 0.  1.
         -5    1    4    4    0  501 -0.43165669660E+02 -0.47712684653E+02 -0.39668778712E+03  0.40189357816E+03  0.41800000000E+01 0.  1.
</event>
<event>
11    1  0.8037748E-009  0.1421456E+03  0.7561462E-02  0.1105186E+00
         22   -1    0    0    0    0  0.00000000000E+00  0.00000000000E+00  0.65141676410E+03  0.65141676410E+03  0.00000000000E+00 0.  1.
         22   -1    0    0    0    0 -0.00000000000E+00 -0.00000000000E+00 -0.18338209047E+03  0.18338209047E+03  0.00000000000E+00 0. -1.
        -24    2    1    2    0    0 -0.28047456000E+02 -0.23295363613E+02 -0.87178665477E+02  0.10881957363E+03  0.53965230821E+02 0.  0.
         25    2    1    2    0    0 -0.41011805843E+02  0.22986557002E+02 -0.25278642845E+02  0.13600464637E+03  0.12509158257E+03 0.  0.
         24    2    1    2    0    0  0.69059261843E+02  0.30880661078E+00  0.58049198196E+03  0.58997463456E+03  0.79560362659E+02 0.  0.
        -11    1    5    5    0    0  0.18979393826E+02  0.37269467007E+02  0.27976729661E+03  0.28287624647E+03  0.00000000000E+00 0.  1.
         12    1    5    5    0    0  0.50079868017E+02 -0.36960660396E+02  0.30072468534E+03  0.30709838810E+03  0.00000000000E+00 0. -1.
         11    1    3    3    0    0 -0.31267184584E+02 -0.36893175936E+01 -0.82646823193E+02  0.88440631386E+02  0.00000000000E+00 0. -1.
        -12    1    3    3    0    0  0.32197285833E+01 -0.19606046020E+02 -0.45318422846E+01  0.20378942248E+02  0.00000000000E+00 0.  1.
          5    1    4    4  501    0  0.38404954886E+02  0.16825925599E+02 -0.36128840626E+02  0.55505115593E+02  0.41800000000E+01 0. -1.
         -5    1    4    4    0  501 -0.79416760728E+02  0.61606314034E+01  0.10850197780E+02  0.80499530780E+02  0.41800000000E+01 0. -1.
</event>
<event>
11    1  0.8037748E-009  0.1383679E+03  0.7561462E-02  0.1109395E+00
         22   -1    0    0    0    0  0.00000000000E+00  0.00000000000E+00  0.40711029693E+03  0.40711029693E+03  0.00000000000E+00 0.  1.
         22   -1    0    0    0    0 -0.00000000000E+00 -0.00000000000E+00 -0.13782063236E+04  0.13782063236E+04  0.00000000000E+00 0.  1.
         24    2    1    2    0    0  0.12231985872E+02 -0.45370394107E+02 -0.83906321580E+03  0.84411900968E+03  0.79383425617E+02 0.  0.
         25    2    1    2    0    0  0.30740458383E+02  0.40846349874E+01 -0.52247986385E+03  0.53814260326E+03  0.12510233127E+03 0.  0.
        -24    2    1    2    0    0 -0.42972444256E+02  0.41285759120E+02  0.39044705294E+03  0.40305500763E+03  0.80332391702E+02 0.  0.
        -11    1    3    3    0    0 -0.27900442343E+02  0.44658300945E+01 -0.25235716827E+03  0.25393408338E+03  0.00000000000E+00 0.  1.
         12    1    3    3    0    0  0.40132428215E+02 -0.49836224202E+02 -0.58670604752E+03  0.59018492631E+03  0.00000000000E+00 0. -1.
         13    1    5    5    0    0 -0.30402699086E+02 -0.19842344007E+02  0.17633049795E+03  0.18002912885E+03  0.00000000000E+00 0. -1.
        -14    1    5    5    0    0 -0.12569745169E+02  0.61128103127E+02  0.21411655499E+03  0.22302587878E+03  0.00000000000E+00 0.  1.
          5    1    4    4  501    0  0.17695245778E+02 -0.54156140971E+02 -0.14322678137E+03  0.15419919789E+03  0.41800000000E+01 0.  1.
         -5    1    4    4    0  501  0.13045212605E+02  0.58240775958E+02 -0.37925308248E+03  0.38394340537E+03  0.41800000000E+01 0.  1.
</event>
<event>
11    1  0.8037748E-009  0.1912344E+03  0.7561462E-02  0.1060901E+00
         22   -1    0    0    0    0  0.00000000000E+00  0.00000000000E+00  0.77368796063E+03  0.77368796063E+03  0.00000000000E+00 0.  1.
         22   -1    0    0    0    0 -0.00000000000E+00 -0.00000000000E+00 -0.12742109911E+04  0.12742109911E+04  0.00000000000E+00 0.  1.
        -24    2    1    2    0    0  0.11235843317E+03  0.83688079668E+02 -0.10771184357E+04  0.10891585336E+04  0.80337254510E+02 0.  0.
         25    2    1    2    0    0 -0.17486249011E+03 -0.10318489481E+03 -0.11149932698E+03  0.26325480800E+03  0.12508789332E+03 0.  0.
         24    2    1    2    0    0  0.62504056941E+02  0.19496815144E+02  0.68809473228E+03  0.69548561013E+03  0.77064845247E+02 0.  0.
        -13    1    5    5    0    0  0.79189221642E+02  0.61389446422E+01  0.51820019090E+03  0.52425190254E+03  0.00000000000E+00 0.  1.
         14    1    5    5    0    0 -0.16685164701E+02  0.13357870502E+02  0.16989454138E+03  0.17123370759E+03  0.00000000000E+00 0. -1.
         11    1    3    3    0    0  0.76393205335E+02  0.36358995870E+02 -0.37016879434E+03  0.37971414868E+03  0.00000000000E+00 0. -1.
        -12    1    3    3    0    0  0.35965227833E+02  0.47329083798E+02 -0.70694964138E+03  0.70944438488E+03  0.00000000000E+00 0.  1.
          5    1    4    4  501    0 -0.13250083979E+03 -0.12182961140E+03 -0.11950758006E+03  0.21609826666E+03  0.41800000000E+01 0. -1.
         -5    1    4    4    0  501 -0.42361650317E+02  0.18644716589E+02  0.80082530808E+01  0.47156541345E+02  0.41800000000E+01 0. -1.
</event>
<event>
11    1  0.8037748E-009  0.2438785E+03  0.7561462E-02  0.1027212E+00
         22   -1    0    0    0    0  0.00000000000E+00  0.00000000000E+00  0.12473792156E+04  0.12473792156E+04  0.00000000000E+00 0.  1.
         22   -1    0    0    0    0 -0.00000000000E+00 -0.00000000000E+00 -0.10443531251E+04  0.10443531251E+04  0.00000000000E+00 0.  1.
        -24    2    1    2    0    0  0.10652025661E+03 -0.17651576492E+03 -0.89299521083E+03  0.92023592401E+03  0.83001981565E+02 0.  0.
         25    2    1    2    0    0 -0.16967753364E+03  0.18034750630E+03  0.68884143673E+01  0.27750770425E+03  0.12508951681E+03 0.  0.
         24    2    1    2    0    0  0.63157277030E+02 -0.38317413747E+01  0.10891328870E+04  0.10939887124E+04  0.81223971312E+02 0.  0.
        -13    1    5    5    0    0  0.68517114807E+02 -0.22916167486E+02  0.10032406812E+04  0.10058387595E+04  0.00000000000E+00 0.  1.
         14    1    5    5    0    0 -0.53598377766E+01  0.19084426111E+02  0.85892205764E+02  0.88149952876E+02  0.00000000000E+00 0. -1.
         11    1    3    3    0    0  0.21455625050E+02 -0.15033214144E+02 -0.39189149369E+02  0.47139482412E+02  0.00000000000E+00 0. -1.
        -12    1    3    3    0    0  0.85064631559E+02 -0.16148255078E+03 -0.85380606146E+03  0.87309644160E+03  0.00000000000E+00 0.  1.
          5    1    4    4  501    0 -0.41628608790E+02  0.21361998683E+02 -0.46878197017E+02  0.66365004431E+02  0.41800000000E+01 0. -1.
         -5    1    4    4    0  501 -0.12804892485E+03  0.15898550761E+03  0.53766611384E+02  0.21114269982E+03  0.41800000000E+01 0. -1.
</event>
<event>
11    1  0.8037748E-009  0.1275367E+03  0.7561462E-02  0.1122333E+00
         22   -1    0    0    0    0  0.00000000000E+00  0.00000000000E+00  0.10088180861E+04  0.10088180861E+04  0.00000000000E+00 0. -1.
         22   -1    0    0    0    0 -0.00000000000E+00 -0.00000000000E+00 -0.13364692039E+04  0.13364692039E+04  0.00000000000E+00 0. -1.
         24    2    1    2    0    0  0.11548924783E+02  0.48314940316E+01 -0.12971121086E+04  0.12983774596E+04  0.55923915294E+02 0.  0.
         25    2    1    2    0    0 -0.32280342274E+02  0.79243201263E+01  0.80161532013E+02  0.15224458350E+03  0.12509087355E+03 0.  0.
        -24    2    1    2    0    0  0.20731417491E+02 -0.12755814158E+02  0.88929945882E+03  0.89466524686E+03  0.94762197151E+02 0.  0.
        -13    1    3    3    0    0  0.24570841536E+02  0.14911203692E+02 -0.36843100529E+03  0.36955036992E+03  0.00000000000E+00 0.  1.
         14    1    3    3    0    0 -0.13021916753E+02 -0.10079709661E+02 -0.92868110332E+03  0.92882708968E+03  0.00000000000E+00 0. -1.
         13    1    5    5    0    0  0.22276719899E+02 -0.26183727068E+02  0.87216027641E+03  0.87283754935E+03  0.00000000000E+00 0. -1.
        -14    1    5    5    0    0 -0.15453024081E+01  0.13427912910E+02  0.17139182413E+02  0.21827697506E+02  0.00000000000E+00 0.  1.
          5    1    4    4  501    0 -0.45929450751E+02 -0.47300970957E+02  0.66191579251E+02  0.93518414569E+02  0.41800000000E+01 0. -1.
         -5    1    4    4    0  501  0.13649108477E+02  0.55225291084E+02  0.13969952762E+02  0.58726168934E+02  0.41800000000E+01 0. -1.
</event>
<event>
11    1  0.8037748E-009  0.2193093E+03  0.7561462E-02  0.1041651E+00
         22   -1    0    0    0    0  0.00000000000E+00  0.00000000000E+00  0.91069352721E+03  0.91069352721E+03  0.00000000000E+00 0. -1.
         22   -1    0    0    0    0 -0.00000000000E+00 -0.00000000000E+00 -0.19142709402E+03  0.19142709402E+03  0.00000000000E+00 0.  1.
         24    2    1    2    0    0  0.55396985620E+02  0.20858568621E+02 -0.80328087263E+02  0.12686404140E+03  0.78345245526E+02 0.  0.
         25    2    1    2    0    0  0.13317636715E+03 -0.21655060375E+02  0.39385491170E+02  0.18815732213E+03  0.12508826703E+03 0.  0.
        -24    2    1    2    0    0 -0.18857335276E+03  0.79649175354E+00  0.76020902928E+03  0.78709925770E+03  0.77762005473E+02 0.  0.
        -13    1    3    3    0    0  0.40557652248E+02  0.11599675311E+02 -0.95057597155E+02  0.10399722304E+03  0.00000000000E+00 0.  1.
         14    1    3    3    0    0  0.14839333372E+02  0.92588933104E+01  0.14729509892E+02  0.22866818360E+02  0.00000000000E+00 0. -1.
         11    1    5    5    0    0 -0.25347794522E+02  0.25834699123E+02  0.93945213415E+02  0.10067594295E+03  0.00000000000E+00 0. -1.
        -12    1    5    5    0    0 -0.16322555824E+03 -0.25038207370E+02  0.66626381587E+03  0.68642331475E+03  0.00000000000E+00 0.  1.
          5    1    4    4  501    0  0.96169923010E+02 -0.63608978021E+02  0.57887701800E+02  0.12908607437E+03  0.41800000000E+01 0.  1.
         -5    1    4    4    0  501  0.37006444135E+02  0.41953917647E+02 -0.18502210630E+02  0.59071247757E+02  0.41800000000E+01 0.  1.
</event>
<event>
11    1  0.8037748E-009  0.2531910E+03  0.7561462E-02  0.1022213E+00
         22   -1    0    0    0    0  0.00000000000E+00  0.00000000000E+00  0.28893398189E+03  0.28893398189E+03  0.00000000000E+00 0.  1.
         22   -1    0    0    0    0 -0.00000000000E+00 -0.00000000000E+00 -0.47684931323E+03  0.47684931323E+03  0.00000000000E+00 0.  1.
         24    2    1    2    0    0 -0.11466828282E+03 -0.12892329024E+03 -0.28041625195E+03  0.33876613508E+03  0.79744530023E+02 0.  0.
         25    2    1    2    0    0  0.99569351269E+02  0.21157042383E+03  0.14282833420E+03  0.30120331588E+03  0.12508958589E+03 0.  0.
        -24    2    1    2    0    0  0.15098931551E+02 -0.82647133590E+02 -0.50327413596E+02  0.12581384416E+03  0.78979417556E+02 0.  0.
        -11    1    3    3    0    0 -0.10317491066E+03 -0.13925642945E+03 -0.26689982147E+03  0.31823408057E+03  0.00000000000E+00 0.  1.
         12    1    3    3    0    0 -0.11493372160E+02  0.10333139212E+02 -0.13516430474E+02  0.20532054509E+02  0.00000000000E+00 0. -1.
         11    1    5    5    0    0  0.46620087957E+02 -0.62218995226E+02 -0.34083210382E+02  0.84889935787E+02  0.00000000000E+00 0. -1.
        -12    1    5    5    0    0 -0.31521156405E+02 -0.20428138365E+02 -0.16244203214E+02  0.40923908369E+02  0.00000000000E+00 0.  1.
          5    1    4    4  501    0  0.12783842975E+03  0.18901319455E+03  0.11623573008E+03  0.25611885753E+03  0.41800000000E+01 0. -1.
         -5    1    4    4    0  501 -0.28269078482E+02  0.22557229272E+02  0.26592604127E+02  0.45084458352E+02  0.41800000000E+01 0. -1.
</event>
<event>
11    1  0.8037748E-009  0.6107762E+03  0.7561462E-02  0.9175221E-01
         22   -1    0    0    0    0  0.00000000000E+00  0.00000000000E+00  0.30664539274E+03  0.30664539274E+03  0.00000000000E+00 0. -1.
         22   -1    0    0    0    0 -0.00000000000E+00 -0.00000000000E+00 -0.30413594375E+03  0.30413594375E+03  0.00000000000E+00 0.  1.
        -24    2    1    2    0    0 -0.15595216933E+03  0.37387221669E+02 -0.33383585139E+02  0.18237974726E+03  0.80181200994E+02 0.  0.
         25    2    1    2    0    0  0.24946804898E+03 -0.65841358072E+02  0.72358449682E+02  0.29572376674E+03  0.12508960420E+03 0.  0.
         24    2    1    2    0    0 -0.93515879655E+02  0.28454136403E+02 -0.36465415555E+02  0.13267782250E+03  0.81968411140E+02 0.  0.
        -11    1    5    5    0    0 -0.26128113057E+02 -0.28535586113E+02 -0.51503960024E+01  0.39031840153E+02  0.00000000000E+00 0.  1.
         12    1    5    5    0    0 -0.67387766598E+02  0.56989722516E+02 -0.31315019553E+02  0.93645982344E+02  0.00000000000E+00 0. -1.
         13    1    3    3    0    0 -0.13222213359E+03  0.22166862649E+02  0.57011689786E+01  0.13418854548E+03  0.00000000000E+00 0. -1.
        -14    1    3    3    0    0 -0.23730035740E+02  0.15220359020E+02 -0.39084754117E+02  0.48191201783E+02  0.00000000000E+00 0.  1.
          5    1    4    4  501    0  0.35035874926E+02 -0.55402571986E+02 -0.85939988538E+01  0.66244144879E+02  0.41800000000E+01 0.  1.
         -5    1    4    4    0  501  0.21443217405E+03 -0.10438786086E+02  0.80952448536E+02  0.22947962186E+03  0.41800000000E+01 0.  1.
</event>
<event>
11    1  0.8037748E-009  0.1274554E+03  0.7561462E-02  0.1122436E+00
         22   -1    0    0    0    0  0.00000000000E+00  0.00000000000E+00  0.72628588019E+03  0.72628588019E+03  0.00000000000E+00 0.  1.
         22   -1    0    0    0    0 -0.00000000000E+00 -0.00000000000E+00 -0.10416116709E+04  0.10416116709E+04  0.00000000000E+00 0. -1.
        -24    2    1    2    0    0 -0.15859584720E+02  0.15236711043E+01 -0.10232287315E+04  0.10262371220E+04  0.76887876611E+02 0.  0.
         25    2    1    2    0    0  0.24001543676E+02 -0.22207119923E+02  0.32515711836E+03  0.34991930017E+03  0.12508850760E+03 0.  0.
         24    2    1    2    0    0 -0.81419589551E+01  0.20683448818E+02  0.38274582247E+03  0.39174112890E+03  0.80452786766E+02 0.  0.
        -11    1    5    5    0    0  0.31462198299E+02  0.23537849720E+02  0.25369601150E+03  0.25672079491E+03  0.00000000000E+00 0.  1.
         12    1    5    5    0    0 -0.39604157254E+02 -0.28544009018E+01  0.12904981098E+03  0.13502033399E+03  0.00000000000E+00 0. -1.
         13    1    3    3    0    0 -0.53903378556E+01  0.29856163933E+02 -0.83902857423E+03  0.83957691407E+03  0.00000000000E+00 0. -1.
        -14    1    3    3    0    0 -0.10469246865E+02 -0.28332492829E+02 -0.18420015729E+03  0.18666020793E+03  0.00000000000E+00 0.  1.
          5    1    4    4  501    0 -0.42039055000E+02  0.23735878241E+02  0.11122990327E+03  0.12132698728E+03  0.41800000000E+01 0. -1.
         -5    1    4    4    0  501  0.66040598675E+02 -0.45942998164E+02  0.21392721509E+03  0.22859231289E+03  0.41800000000E+01 0. -1.
</event>
<event>
11    1  0.8037748E-009  0.1301236E+03  0.7561462E-02  0.1119117E+00
         22   -1    0    0    0    0  0.00000000000E+00  0.00000000000E+00  0.91021782243E+03  0.91021782243E+03  0.00000000000E+00 0. -1.
         22   -1    0    0    0    0 -0.00000000000E+00 -0.00000000000E+00 -0.10133149357E+04  0.10133149357E+04  0.00000000000E+00 0. -1.
         24    2    1    2    0    0  0.12862004567E+01 -0.34572396720E+02 -0.91182557732E+03  0.91601645859E+03  0.80395049856E+02 0.  0.
         25    2    1    2    0    0  0.37537552085E+01  0.64466613126E+02 -0.46252177047E+02  0.14819581326E+03  0.12511075214E+03 0.  0.
        -24    2    1    2    0    0 -0.50399556652E+01 -0.29894216406E+02  0.85498064114E+03  0.85932048623E+03  0.80751074302E+02 0.  0.
        -13    1    3    3    0    0  0.32212690868E+02  0.95729648603E+01 -0.35910873468E+03  0.36067767111E+03  0.00000000000E+00 0.  1.
         14    1    3    3    0    0 -0.30926490411E+02 -0.44145361580E+02 -0.55271684263E+03  0.55533878749E+03  0.00000000000E+00 0. -1.
         11    1    5    5    0    0  0.15868436188E+02  0.12612351300E+02  0.57526711740E+03  0.57562412652E+03  0.00000000000E+00 0. -1.
        -12    1    5    5    0    0 -0.20908391853E+02 -0.42506567706E+02  0.27971352374E+03  0.28369635971E+03  0.00000000000E+00 0.  1.
          5    1    4    4  501    0 -0.12586469438E+01  0.73439669316E+02  0.23759183233E+02  0.77310674614E+02  0.41800000000E+01 0.  1.
         -5    1    4    4    0  501  0.50124021523E+01 -0.89730561898E+01 -0.70011360280E+02  0.70885138647E+02  0.41800000000E+01 0.  1.
</event>
<event>
11    1  0.8037748E-009  0.5669059E+03  0.7561462E-02  0.9255311E-01
         22   -1    0    0    0    0  0.00000000000E+00  0.00000000000E+00  0.11949156253E+04  0.11949156253E+04  0.00000000000E+00 0.  1.
         22   -1    0    0    0    0 -0.00000000000E+00 -0.00000000000E+00 -0.48253598781E+03  0.48253598781E+03  0.00000000000E+00 0.  1.
        -24    2    1    2    0    0  0.26606289300E+03  0.45654968116E+03 -0.56245782207E+02  0.53753021368E+03  0.80920134768E+02 0.  0.
         25    2    1    2    0    0 -0.31395428379E+03 -0.52091756820E+03  0.36447026172E+03  0.72000595002E+03  0.12509033227E+03 0.  0.
         24    2    1    2    0    0  0.47891390789E+02  0.64367887039E+02  0.40415515795E+03  0.41991544938E+03  0.80936905884E+02 0.  0.
        -11    1    5    5    0    0 -0.39016167734E+01  0.60400619872E+02  0.25086085962E+03  0.25805935050E+03  0.00000000000E+00 0.  1.
         12    1    5    5    0    0  0.51793007563E+02  0.39672671673E+01  0.15329429834E+03  0.16185609888E+03  0.00000000000E+00 0. -1.
         11    1    3    3    0    0  0.11793937947E+03  0.27345258023E+03 -0.13024205594E+02  0.29808663304E+03  0.00000000000E+00 0. -1.
        -12    1    3    3    0    0  0.14812351352E+03  0.18309710093E+03 -0.43221576613E+02  0.23944358064E+03  0.00000000000E+00 0.  1.
          5    1    4    4  501    0 -0.13811004968E+03 -0.13555265804E+03  0.15192824660E+03  0.24606619728E+03  0.41800000000E+01 0.  1.
         -5    1    4    4    0  501 -0.17584423410E+03 -0.38536491015E+03  0.21254201512E+03  0.47393975275E+03  0.41800000000E+01 0.  1.
</event>
<event>
11    1  0.8037748E-009  0.1304284E+03  0.7561462E-02  0.1118744E+00
         22   -1    0    0    0    0  0.00000000000E+00  0.00000000000E+00  0.24832500890E+04  0.24832500890E+04  0.00000000000E+00 0.  1.
         22   -1    0    0    0    0 -0.00000000000E+00 -0.00000000000E+00 -0.34389205887E+03  0.34389205887E+03  0.00000000000E+00 0. -1.
         24    2    1    2    0    0  0.26303205916E+02  0.26287630442E+02 -0.33034041811E+03  0.34450535489E+03  0.90422616390E+02 0.  0.
         25    2    1    2    0    0  0.64498343337E+01 -0.19615334366E+02  0.74696792830E+03  0.75765120721E+03  0.12509158310E+03 0.  0.
        -24    2    1    2    0    0 -0.32753040250E+02 -0.66722960763E+01  0.17227305199E+04  0.17249855857E+04  0.81593784122E+02 0.  0.
        -13    1    3    3    0    0  0.40106438538E+01  0.40062218829E+02 -0.56302290874E+02  0.69217155383E+02  0.00000000000E+00 0.  1.
         14    1    3    3    0    0  0.22292562062E+02 -0.13774588387E+02 -0.27403812724E+03  0.27528819951E+03  0.00000000000E+00 0. -1.
         11    1    5    5    0    0  0.60961217924E+01  0.31397003232E+02  0.47926619260E+03  0.48033219534E+03  0.00000000000E+00 0. -1.
        -12    1    5    5    0    0 -0.38849162042E+02 -0.38069299308E+02  0.12434643273E+04  0.12446533904E+04  0.00000000000E+00 0.  1.
          5    1    4    4  501    0  0.14248498178E+02  0.38556779100E+02  0.10266713111E+03  0.11066913357E+03  0.41800000000E+01 0.  1.
         -5    1    4    4    0  501 -0.77986638441E+01 -0.58172113467E+02  0.64430079719E+03  0.64698207364E+03  0.41800000000E+01 0.  1.
</event>
<event>
11    1  0.8037748E-009  0.2456569E+03  0.7561462E-02  0.1026239E+00
         22   -1    0    0    0    0  0.00000000000E+00  0.00000000000E+00  0.32460650064E+03  0.32460650064E+03  0.00000000000E+00 0.  1.
         22   -1    0    0    0    0 -0.00000000000E+00 -0.00000000000E+00 -0.47308146918E+03  0.47308146918E+03  0.00000000000E+00 0. -1.
         24    2    1    2    0    0  0.39594261811E+02  0.21871879748E+03 -0.29506912352E+03  0.37769556886E+03  0.78629111321E+02 0.  0.
         25    2    1    2    0    0 -0.38075513623E+02 -0.18139208508E+03 -0.26197590223E+02  0.22513880167E+03  0.12509329726E+03 0.  0.
        -24    2    1    2    0    0 -0.15187481878E+01 -0.37326712395E+02  0.17279174520E+03  0.19485359929E+03  0.81947226259E+02 0.  0.
        -11    1    3    3    0    0  0.11650587469E+02  0.11483144017E+02 -0.39366108492E+00  0.16363182879E+02  0.00000000000E+00 0.  1.
         12    1    3    3    0    0  0.27943674342E+02  0.20723565346E+03 -0.29467546244E+03  0.36133238599E+03  0.00000000000E+00 0. -1.
         11    1    5    5    0    0 -0.23243114886E+01 -0.35076394491E+02  0.17008153809E+02  0.39051673081E+02  0.00000000000E+00 0. -1.
        -12    1    5    5    0    0  0.80556330086E+00 -0.22503179033E+01  0.15578359139E+03  0.15580192621E+03  0.00000000000E+00 0.  1.
          5    1    4    4  501    0  0.14162025403E+02 -0.48630314732E+02 -0.59827515479E+02  0.78500155942E+02  0.41800000000E+01 0. -1.
         -5    1    4    4    0  501 -0.52237539026E+02 -0.13276177035E+03  0.33629925256E+02  0.14663864573E+03  0.41800000000E+01 0. -1.
</event>
<event>
11    1  0.8037748E-009  0.1294841E+03  0.7561462E-02  0.1119905E+00
         22   -1    0    0    0    0  0.00000000000E+00  0.00000000000E+00  0.12104410160E+04  0.12104410160E+04  0.00000000000E+00 0. -1.
         22   -1    0    0    0    0 -0.00000000000E+00 -0.00000000000E+00 -0.30422927739E+03  0.30422927739E+03  0.00000000000E+00 0.  1.
        -24    2    1    2    0    0 -0.15499641433E+02 -0.29835854879E+02 -0.28021357402E+03  0.29408301730E+03  0.82672588410E+02 0.  0.
         25    2    1    2    0    0  0.14265132995E+02  0.21450580716E+02  0.25050602438E+03  0.28118719854E+03  0.12509736583E+03 0.  0.
         24    2    1    2    0    0  0.12345084378E+01  0.83852741631E+01  0.93591928821E+03  0.93940007752E+03  0.80347711602E+02 0.  0.
        -13    1    5    5    0    0  0.22430553325E+02  0.26063065498E+02  0.19792219473E+03  0.20088705352E+03  0.00000000000E+00 0.  1.
         14    1    5    5    0    0 -0.21196044887E+02 -0.17677791335E+02  0.73799709348E+03  0.73851302400E+03  0.00000000000E+00 0. -1.
         11    1    3    3    0    0 -0.94533404235E+01  0.28699077191E+02 -0.86279349205E+02  0.91417333017E+02  0.00000000000E+00 0. -1.
        -12    1    3    3    0    0 -0.60463010091E+01 -0.58534932070E+02 -0.19393422482E+03  0.20266568428E+03  0.00000000000E+00 0.  1.
          5    1    4    4  501    0  0.13663455700E+02  0.15594952829E+01 -0.11491086898E+02  0.18402160887E+02  0.41800000000E+01 0. -1.
         -5    1    4    4    0  501  0.60167729483E+00  0.19891085433E+02  0.26199711128E+03  0.26278503765E+03  0.41800000000E+01 0. -1.
</event>
<event>
11    1  0.8037748E-009  0.1334896E+03  0.7561462E-02  0.1115054E+00
         22   -1    0    0    0    0  0.00000000000E+00  0.00000000000E+00  0.26570564230E+03  0.26570564230E+03  0.00000000000E+00 0. -1.
         22   -1    0    0    0    0 -0.00000000000E+00 -0.00000000000E+00 -0.22520363588E+04  0.22520363588E+04  0.00000000000E+00 0. -1.
         24    2    1    2    0    0 -0.45492159932E+02 -0.91826271832E+01 -0.21985701414E+04  0.22004316265E+04  0.77684095745E+02 0.  0.
         25    2    1    2    0    0  0.75648931525E+02  0.95707417438E+01  0.10910862606E+03  0.18266686157E+03  0.12509248617E+03 0.  0.
        -24    2    1    2    0    0 -0.30156771593E+02 -0.38811456068E+00  0.10313079891E+03  0.13464351301E+03  0.81137737255E+02 0.  0.
        -11    1    3    3    0    0  0.20462812606E+02  0.12734021872E+01 -0.30746683636E+03  0.30814964500E+03  0.00000000000E+00 0.  1.
         12    1    3    3    0    0 -0.65954972537E+02 -0.10456029370E+02 -0.18911033051E+04  0.18922819815E+04  0.00000000000E+00 0. -1.
         11    1    5    5    0    0 -0.18375405348E+02  0.39785477277E+02  0.62250550667E+02  0.76129303045E+02  0.00000000000E+00 0. -1.
        -12    1    5    5    0    0 -0.11781366245E+02 -0.40173591837E+02  0.40880248239E+02  0.58514209965E+02  0.00000000000E+00 0.  1.
          5    1    4    4  501    0  0.25569438000E+02  0.33777949571E+02 -0.16164941787E+02  0.45535961391E+02  0.41800000000E+01 0. -1.
         -5    1    4    4    0  501  0.50079493525E+02 -0.24207207827E+02  0.12527356785E+03  0.13713090018E+03  0.41800000000E+01 0. -1.
</event>
<event>
11    1  0.8037748E-009  0.2839195E+03  0.7561462E-02  0.1007236E+00
         22   -1    0    0    0    0  0.00000000000E+00  0.00000000000E+00  0.15543803660E+04  0.15543803660E+04  0.00000000000E+00 0. -1.
         22   -1    0    0    0    0 -0.00000000000E+00 -0.00000000000E+00 -0.39933652263E+04  0.39933652263E+04  0.00000000000E+00 0.  1.
         24    2    1    2    0    0 -0.19855045401E+03 -0.18602468743E+03 -0.39242496078E+04  0.39344628613E+04  0.78965537302E+02 0.  0.
         25    2    1    2    0    0 -0.15287112811E+03  0.16299664786E+03  0.46436764498E+03  0.53030550284E+03  0.12509647323E+03 0.  0.
        -24    2    1    2    0    0  0.35142158212E+03  0.23028039575E+02  0.10208971025E+04  0.10829772281E+04  0.81125604211E+02 0.  0.
        -11    1    3    3    0    0 -0.13871393021E+03 -0.17216701207E+03 -0.29434846291E+04  0.29517765492E+04  0.00000000000E+00 0.  1.
         12    1    3    3    0    0 -0.59836523798E+02 -0.13857675359E+02 -0.98076497867E+03  0.98268631217E+03  0.00000000000E+00 0. -1.
         13    1    5    5    0    0  0.24754430651E+03 -0.47733241319E+01  0.61221981070E+03  0.66038932830E+03  0.00000000000E+00 0. -1.
        -14    1    5    5    0    0  0.10387727560E+03  0.27801363707E+02  0.40867729184E+03  0.42258789982E+03  0.00000000000E+00 0.  1.
          5    1    4    4  501    0 -0.22665219933E+02  0.59692464393E+02  0.25525068083E+03  0.26314878865E+03  0.41800000000E+01 0.  1.
         -5    1    4    4    0  501 -0.13020590817E+03  0.10330418346E+03  0.20911696415E+03  0.26715671419E+03  0.41800000000E+01 0.  1.
</event>
<event>
11    1  0.8037748E-009  0.2171306E+03  0.7561462E-02  0.1043030E+00
         22   -1    0    0    0    0  0.00000000000E+00  0.00000000000E+00  0.10543860774E+04  0.10543860774E+04  0.00000000000E+00 0. -1.
         22   -1    0    0    0    0 -0.00000000000E+00 -0.00000000000E+00 -0.14898148362E+04  0.14898148362E+04  0.00000000000E+00 0. -1.
         24    2    1    2    0    0 -0.17257450285E+03  0.49630820498E+02 -0.14509094972E+04  0.14641589588E+04  0.79861820006E+02 0.  0.
         25    2    1    2    0    0  0.10592006614E+03  0.41385834111E+02  0.24841000292E+03  0.30047961028E+03  0.12509444019E+03 0.  0.
        -24    2    1    2    0    0  0.66654436711E+02 -0.91016654609E+02  0.76707073547E+03  0.77956234442E+03  0.81197846493E+02 0.  0.
        -11    1    3    3    0    0 -0.87401734110E+02  0.54692148002E+02 -0.58121122436E+03  0.59028533906E+03  0.00000000000E+00 0.  1.
         12    1    3    3    0    0 -0.85172768741E+02 -0.50613275039E+01 -0.86969827282E+03  0.87387361976E+03  0.00000000000E+00 0. -1.
         11    1    5    5    0    0  0.17528212425E+02 -0.66140782083E+02  0.59436457418E+03  0.59829013725E+03  0.00000000000E+00 0. -1.
        -12    1    5    5    0    0  0.49126224287E+02 -0.24875872526E+02  0.17270616129E+03  0.18127220717E+03  0.00000000000E+00 0.  1.
          5    1    4    4  501    0  0.10709219633E+03  0.37370769029E+01  0.97676189206E+02  0.14505452284E+03  0.41800000000E+01 0.  1.
         -5    1    4    4    0  501 -0.11721301881E+01  0.37648757208E+02  0.15073381372E+03  0.15542508744E+03  0.41800000000E+01 0.  1.
</event>
<event>
11    1  0.8037748E-009  0.1528709E+03  0.7561462E-02  0.1093981E+00
         22   -1    0    0    0    0  0.00000000000E+00  0.00000000000E+00  0.40781813633E+03  0.40781813633E+03  0.00000000000E+00 0.  1.
         22   -1    0    0    0    0 -0.00000000000E+00 -0.00000000000E+00 -0.93218683533E+03  0.93218683533E+03  0.00000000000E+00 0.  1.
         24    2    1    2    0    0 -0.86146605935E+02 -0.30302607180E+02 -0.84044520432E+03  0.84917246134E+03  0.80039002436E+02 0.  0.
         25    2    1    2    0    0  0.40845937613E+02  0.19118148675E+02 -0.26899982407E+02  0.13566729379E+03  0.12509241113E+03 0.  0.
        -24    2    1    2    0    0  0.45300668322E+02  0.11184458505E+02  0.34297648773E+03  0.35516521653E+03  0.79575230047E+02 0.  0.
        -13    1    3    3    0    0 -0.50133563441E+02  0.13411027443E+02 -0.21527708796E+03  0.22144402101E+03  0.00000000000E+00 0.  1.
         14    1    3    3    0    0 -0.36013042494E+02 -0.43713634623E+02 -0.62516811636E+03  0.62772844033E+03  0.00000000000E+00 0. -1.
         11    1    5    5    0    0 -0.95339972419E+01 -0.89635254911E+01  0.84520888894E+01  0.15578180229E+02  0.00000000000E+00 0. -1.
        -12    1    5    5    0    0  0.54834665564E+02  0.20147983996E+02  0.33452439884E+03  0.33958703630E+03  0.00000000000E+00 0.  1.
          5    1    4    4  501    0  0.52202705367E+02  0.43255996883E+02  0.28792342800E+02  0.73774488259E+02  0.41800000000E+01 0. -1.
         -5    1    4    4    0  501 -0.11356767755E+02 -0.24137848208E+02 -0.55692325206E+02  0.61892805534E+02  0.41800000000E+01 0. -1.
</event>
<event>
11    1  0.8037748E-009  0.1376183E+03  0.7561462E-02  0.1110247E+00
         22   -1    0    0    0    0  0.00000000000E+00  0.00000000000E+00  0.18870277226E+04  0.18870277226E+04  0.00000000000E+00 0. -1.
         22   -1    0    0    0    0 -0.00000000000E+00 -0.00000000000E+00 -0.51899309104E+03  0.51899309104E+03  0.00000000000E+00 0. -1.
        -24    2    1    2    0    0  0.40301593467E+02  0.13855884623E+02 -0.49774154103E+03  0.50624399696E+03  0.81976452820E+02 0.  0.
         25    2    1    2    0    0 -0.93870520365E+02 -0.10902818693E+02  0.38350908923E+03  0.41431391515E+03  0.12508498198E+03 0.  0.
         24    2    1    2    0    0  0.53568926898E+02 -0.29530659294E+01  0.14822670833E+04  0.14854629015E+04  0.81277148501E+02 0.  0.
        -13    1    5    5    0    0  0.11606770699E+02  0.19377669360E+02  0.10622283137E+03  0.10859788718E+03  0.00000000000E+00 0.  1.
         14    1    5    5    0    0  0.41962156199E+02 -0.22330735289E+02  0.13760442520E+04  0.13768650143E+04  0.00000000000E+00 0. -1.
         11    1    3    3    0    0  0.37514865801E+02  0.46388226939E+02 -0.31138769376E+03  0.31705130275E+03  0.00000000000E+00 0. -1.
        -12    1    3    3    0    0  0.27867276661E+01 -0.32532342317E+02 -0.18635384728E+03  0.18919269421E+03  0.00000000000E+00 0.  1.
          5    1    4    4  501    0 -0.16777245840E+02  0.43997336236E+02  0.55529147214E+02  0.72925991005E+02  0.41800000000E+01 0.  1.
         -5    1    4    4    0  501 -0.77093274525E+02 -0.54900154929E+02  0.32797994201E+03  0.34138792415E+03  0.41800000000E+01 0.  1.
</event>
<event>
11    1  0.8037748E-009  0.2206543E+03  0.7561462E-02  0.1040808E+00
         22   -1    0    0    0    0  0.00000000000E+00  0.00000000000E+00  0.26025521810E+03  0.26025521810E+03  0.00000000000E+00 0.  1.
         22   -1    0    0    0    0 -0.00000000000E+00 -0.00000000000E+00 -0.45976140987E+03  0.45976140987E+03  0.00000000000E+00 0.  1.
        -24    2    1    2    0    0 -0.28295078930E+01  0.34706181608E+02 -0.15604540686E+03  0.17641119508E+03  0.74553441186E+02 0.  0.
         25    2    1    2    0    0 -0.16776915748E+03  0.35148277957E+02 -0.19809795411E+03  0.29029717015E+03  0.12509099060E+03 0.  0.
         24    2    1    2    0    0  0.17059866537E+03 -0.69854459566E+02  0.15463716920E+03  0.25330826274E+03  0.79176206814E+02 0.  0.
        -11    1    5    5    0    0  0.15694862225E+03 -0.45218761806E+02  0.15495573077E+03  0.22514192178E+03  0.00000000000E+00 0.  1.
         12    1    5    5    0    0  0.13650043116E+02 -0.24635697760E+02 -0.31856156909E+00  0.28166340952E+02  0.00000000000E+00 0. -1.
         11    1    3    3    0    0 -0.11693767022E+02  0.45579029732E+02 -0.15540008534E+03  0.16236803461E+03  0.00000000000E+00 0. -1.
        -12    1    3    3    0    0  0.88642591294E+01 -0.10872848124E+02 -0.64532151520E+00  0.14043160474E+02  0.00000000000E+00 0.  1.
          5    1    4    4  501    0 -0.11972802818E+03  0.80146746285E+02 -0.11621010051E+03  0.18515010540E+03  0.41800000000E+01 0.  1.
         -5    1    4    4    0  501 -0.48041129299E+02 -0.44998468327E+02 -0.81887853604E+02  0.10514706474E+03  0.41800000000E+01 0.  1.
</event>
<event>
11    1  0.8037748E-009  0.1298097E+03  0.7561462E-02  0.1119503E+00
         22   -1    0    0    0    0  0.00000000000E+00  0.00000000000E+00  0.44091531063E+03  0.44091531063E+03  0.00000000000E+00 0. -1.
         22   -1    0    0    0    0 -0.00000000000E+00 -0.00000000000E+00 -0.63554870866E+03  0.63554870866E+03  0.00000000000E+00 0. -1.
        -24    2    1    2    0    0 -0.16380032497E+02 -0.31863831566E+02 -0.52658452430E+03  0.53702334293E+03  0.99091878518E+02 0.  0.
         25    2    1    2    0    0  0.21322504099E+02  0.17705184825E+02 -0.58503555732E+02  0.14084812169E+03  0.12508958629E+03 0.  0.
         24    2    1    2    0    0 -0.49424716016E+01  0.14158646741E+02  0.39045468200E+03  0.39859255468E+03  0.78716393770E+02 0.  0.
        -13    1    5    5    0    0  0.39411135138E+01  0.52215984570E+01 -0.12709541412E+01  0.66642922058E+01  0.00000000000E+00 0.  1.
         14    1    5    5    0    0 -0.88835851154E+01  0.89370482843E+01  0.39172563614E+03  0.39192826247E+03  0.00000000000E+00 0. -1.
         13    1    3    3    0    0 -0.11904062129E+02  0.13318504817E+02 -0.42923314614E+03  0.42960468225E+03  0.00000000000E+00 0. -1.
        -14    1    3    3    0    0 -0.44759703687E+01 -0.45182336383E+02 -0.97351378160E+02  0.10741866068E+03  0.00000000000E+00 0.  1.
          5    1    4    4  501    0 -0.46352512817E+02  0.17011591326E+02 -0.53399641848E+02  0.72848773726E+02  0.41800000000E+01 0.  1.
         -5    1    4    4    0  501  0.67675016916E+02  0.69359349893E+00 -0.51039138836E+01  0.67999347963E+02  0.41800000000E+01 0.  1.
</event>
<event>
11    1  0.9953499E-009  0.1536408E+03  0.7561462E-02  0.1093216E+00
         22   -1    0    0    0    0  0.00000000000E+00  0.00000000000E+00  0.11961683183E+04  0.11961683183E+04  0.00000000000E+00 0. -1.
         22   -1    0    0    0    0 -0.00000000000E+00 -0.00000000000E+00 -0.19332161172E+04  0.19332161172E+04  0.00000000000E+00 0.  1.
         24    2    1    2    0    0  0.16388364550E+02 -0.14382682158E+02 -0.16082658787E+04  0.16104396084E+04  0.80753674031E+02 0.  0.
         25    2    1    2    0    0  0.44172710103E+02  0.79892858827E+02 -0.30208228129E+03  0.33946278575E+03  0.12508869266E+03 0.  0.
        -24    2    1    2    0    0 -0.60561074654E+02 -0.65510176669E+02  0.11733003611E+04  0.11794820413E+04  0.81147528418E+02 0.  0.
        -11    1    3    3    0    0 -0.93365818363E+01  0.17643721256E+02 -0.11886925735E+04  0.11888601713E+04  0.00000000000E+00 0.  1.
         12    1    3    3    0    0  0.25724946386E+02 -0.32026403414E+02 -0.41957330518E+03  0.42157943712E+03  0.00000000000E+00 0. -1.
         13    1    5    5    0    0 -0.26257203087E+02 -0.45419501969E+02  0.10118567809E+04  0.10132159281E+04  0.00000000000E+00 0. -1.
        -14    1    5    5    0    0 -0.34303871567E+02 -0.20090674700E+02  0.16144358027E+03  0.16626611328E+03  0.00000000000E+00 0.  1.
          5    1    4    4  501    0 -0.30012645001E+02 -0.76074049277E+01 -0.26643162457E+02  0.41060467307E+02  0.41800000000E+01 0.  1.
         -5    1    4    4    0  501  0.74185355105E+02  0.87500263755E+02 -0.27543911883E+03  0.29840231844E+03  0.41800000000E+01 0.  1.
</event>
<event>
11    1  0.8037748E-009  0.1425289E+03  0.7561462E-02  0.1104767E+00
         22   -1    0    0    0    0  0.00000000000E+00  0.00000000000E+00  0.73281921217E+03  0.73281921217E+03  0.00000000000E+00 0.  1.
         22   -1    0    0    0    0 -0.00000000000E+00 -0.00000000000E+00 -0.27542384426E+03  0.27542384426E+03  0.00000000000E+00 0. -1.
         24    2    1    2    0    0 -0.31791759100E+00  0.66618268474E+02 -0.23235372209E+03  0.25426505255E+03  0.78894676716E+02 0.  0.
         25    2    1    2    0    0  0.16474672667E+02 -0.10572356546E+03  0.21510070625E+03  0.27085981673E+03  0.12509132406E+03 0.  0.
        -24    2    1    2    0    0 -0.16156755076E+02  0.39105296990E+02  0.47464838375E+03  0.48311818715E+03  0.79509933782E+02 0.  0.
        -11    1    3    3    0    0  0.57770890672E+01 -0.17731794865E+02 -0.39312571486E+02  0.43511717779E+02  0.00000000000E+00 0.  1.
         12    1    3    3    0    0 -0.60950066582E+01  0.84350063339E+02 -0.19304115060E+03  0.21075333477E+03  0.00000000000E+00 0. -1.
         13    1    5    5    0    0  0.13241803760E+00 -0.13758610009E+02  0.15816036589E+02  0.20963394222E+02  0.00000000000E+00 0. -1.
        -14    1    5    5    0    0 -0.16289173113E+02  0.52863906999E+02  0.45883234716E+03  0.46215479292E+03  0.00000000000E+00 0.  1.
          5    1    4    4  501    0 -0.50999296065E+02 -0.57426183775E+02  0.71827094098E+02  0.10523924472E+03  0.41800000000E+01 0. -1.
         -5    1    4    4    0  501  0.67473968732E+02 -0.48297381689E+02  0.14327361216E+03  0.16562057201E+03  0.41800000000E+01 0. -1.
</event>
<event>
11    1  0.8037748E-009  0.1546778E+03  0.7561462E-02  0.1092193E+00
         22   -1    0    0    0    0  0.00000000000E+00  0.00000000000E+00  0.60774477240E+03  0.60774477240E+03  0.00000000000E+00 0.  1.
         22   -1    0    0    0    0 -0.00000000000E+00 -0.00000000000E+00 -0.10711615336E+03  0.10711615336E+03  0.00000000000E+00 0.  1.
        -24    2    1    2    0    0 -0.52591012167E+02 -0.63260467413E+02  0.13795859842E+01  0.11476855491E+03  0.80013852810E+02 0.  0.
         25    2    1    2    0    0  0.71386285762E+02  0.89518129204E+02  0.11062925009E+03  0.20247390313E+03  0.12508938094E+03 0.  0.
         24    2    1    2    0    0 -0.18795273595E+02 -0.26257661791E+02  0.38861978297E+03  0.39761846771E+03  0.77668417243E+02 0.  0.
        -13    1    5    5    0    0 -0.10156700901E+02 -0.35379970979E+02  0.38131135424E+03  0.38308386783E+03  0.00000000000E+00 0.  1.
         14    1    5    5    0    0 -0.86385726932E+01  0.91223091880E+01  0.73084287238E+01  0.14534599874E+02  0.00000000000E+00 0. -1.
         11    1    3    3    0    0 -0.33736884334E+02 -0.52204004050E+02  0.37468936159E+02  0.72576556686E+02  0.00000000000E+00 0. -1.
        -12    1    3    3    0    0 -0.18854127833E+02 -0.11056463362E+02 -0.36089350175E+02  0.42191998228E+02  0.00000000000E+00 0.  1.
          5    1    4    4  501    0 -0.14284559459E+01  0.35024501666E+02 -0.22004964774E+02  0.41598642743E+02  0.41800000000E+01 0. -1.
         -5    1    4    4    0  501  0.72814741708E+02  0.54493627538E+02  0.13263421487E+03  0.16087526039E+03  0.41800000000E+01 0. -1.
</event>
<event>
11    1  0.8037748E-009  0.1300305E+03  0.7561462E-02  0.1119231E+00
         22   -1    0    0    0    0  0.00000000000E+00  0.00000000000E+00  0.57874828208E+03  0.57874828208E+03  0.00000000000E+00 0.  1.
         22   -1    0    0    0    0 -0.00000000000E+00 -0.00000000000E+00 -0.59722551517E+03  0.59722551517E+03  0.00000000000E+00 0.  1.
         24    2    1    2    0    0  0.61262975807E+01  0.14381953506E+01 -0.48667564655E+03  0.49333083217E+03  0.80514129793E+02 0.  0.
         25    2    1    2    0    0 -0.26361478301E+02  0.27673257361E+02 -0.62297101186E+02  0.14486905881E+03  0.12508148813E+03 0.  0.
        -24    2    1    2    0    0  0.20235180720E+02 -0.29111452711E+02  0.53049551465E+03  0.53777390627E+03  0.80736261854E+02 0.  0.
        -13    1    3    3    0    0  0.35787129127E+01 -0.98756053212E+01 -0.47966374972E+03  0.47977874855E+03  0.00000000000E+00 0.  1.
         14    1    3    3    0    0  0.25475846679E+01  0.11313800672E+02 -0.70118968341E+01  0.13552083622E+02  0.00000000000E+00 0. -1.
         13    1    5    5    0    0 -0.24101039632E+02  0.11990710180E+02  0.19872359678E+03  0.20053853784E+03  0.00000000000E+00 0. -1.
        -14    1    5    5    0    0  0.44336220352E+02 -0.41102162891E+02  0.33177191787E+03  0.33723536843E+03  0.00000000000E+00 0.  1.
          5    1    4    4  501    0 -0.55173720542E+02  0.63593444028E+02 -0.44542021936E+02  0.95340073840E+02  0.41800000000E+01 0. -1.
         -5    1    4    4    0  501  0.28812242241E+02 -0.35920186667E+02 -0.17755079251E+02  0.49528984972E+02  0.41800000000E+01 0. -1.
</event>
<event>
11    1  0.8037748E-009  0.1350073E+03  0.7561462E-02  0.1113265E+00
         22   -1    0    0    0    0  0.00000000000E+00  0.00000000000E+00  0.26727286518E+03  0.26727286518E+03  0.00000000000E+00 0. -1.
         22   -1    0    0    0    0 -0.00000000000E+00 -0.00000000000E+00 -0.27118829481E+03  0.27118829481E+03  0.00000000000E+00 0.  1.
        -24    2    1    2    0    0 -0.15187072178E+02  0.25069268966E+02 -0.17089818681E+03  0.19082116200E+03  0.79670635777E+02 0.  0.
         25    2    1    2    0    0 -0.20993456257E+02 -0.59368970076E+02 -0.16480635477E+02  0.14101338173E+03  0.12509101753E+03 0.  0.
         24    2    1    2    0    0  0.36180528436E+02  0.34299701110E+02  0.18346339265E+03  0.20662661626E+03  0.80933565154E+02 0.  0.
        -11    1    5    5    0    0  0.56675571568E+02  0.29167745535E+02  0.86851012740E+02  0.10773103641E+03  0.00000000000E+00 0.  1.
         12    1    5    5    0    0 -0.20495043132E+02  0.51319555745E+01  0.96612379912E+02  0.98895579847E+02  0.00000000000E+00 0. -1.
         13    1    3    3    0    0 -0.12629251499E+02  0.48595756901E+02 -0.64054952783E+02  0.81388466986E+02  0.00000000000E+00 0. -1.
        -14    1    3    3    0    0 -0.25578206792E+01 -0.23526487935E+02 -0.10684323403E+03  0.10943269502E+03  0.00000000000E+00 0.  1.
          5    1    4    4  501    0  0.25651797226E+02 -0.13472863343E+02 -0.56896776907E+02  0.63986313927E+02  0.41800000000E+01 0.  1.
         -5    1    4    4    0  501 -0.46645253483E+02 -0.45896106733E+02  0.40416141430E+02  0.77027067800E+02  0.41800000000E+01 0.  1.
</event>
<event>
11    1  0.8037748E-009  0.1286619E+03  0.7561462E-02  0.1120924E+00
         22   -1    0    0    0    0  0.00000000000E+00  0.00000000000E+00  0.45177175419E+03  0.45177175419E+03  0.00000000000E+00 0. -1.
         22   -1    0    0    0    0 -0.00000000000E+00 -0.00000000000E+00 -0.20654929935E+03  0.20654929935E+03  0.00000000000E+00 0.  1.
         24    2    1    2    0    0 -0.30703729290E+02 -0.70780339041E+01 -0.16246800216E+03  0.18531891763E+03  0.83393236823E+02 0.  0.
         25    2    1    2    0    0  0.31029957544E+01  0.28848873624E+02  0.13426734200E+03  0.18578911007E+03  0.12509191900E+03 0.  0.
        -24    2    1    2    0    0  0.27600733535E+02 -0.21770839719E+02  0.27342311500E+03  0.28721302585E+03  0.80593749442E+02 0.  0.
        -13    1    3    3    0    0 -0.54868820996E+02  0.13441894713E+02 -0.90595075564E+02  0.10676488078E+03  0.00000000000E+00 0.  1.
         14    1    3    3    0    0  0.24165091706E+02 -0.20519928617E+02 -0.71872926598E+02  0.78554036850E+02  0.00000000000E+00 0. -1.
         11    1    5    5    0    0  0.43548615171E+01  0.27772702817E+02  0.14361352200E+03  0.14633909779E+03  0.00000000000E+00 0. -1.
        -12    1    5    5    0    0  0.23245872018E+02 -0.49543542537E+02  0.12980959299E+03  0.14087392806E+03  0.00000000000E+00 0.  1.
          5    1    4    4  501    0  0.89825719971E+01  0.76307081162E+02  0.60984242325E+02  0.98183539593E+02  0.41800000000E+01 0. -1.
         -5    1    4    4    0  501 -0.58795762428E+01 -0.47458207538E+02  0.73283099678E+02  0.87605570473E+02  0.41800000000E+01 0. -1.
</event>
<event>
11    1  0.8037748E-009  0.1400740E+03  0.7561462E-02  0.1107476E+00
         22   -1    0    0    0    0  0.00000000000E+00  0.00000000000E+00  0.49338552088E+03  0.49338552088E+03  0.00000000000E+00 0.  1.
         22   -1    0    0    0    0 -0.00000000000E+00 -0.00000000000E+00 -0.61418539880E+03  0.61418539880E+03  0.00000000000E+00 0.  1.
         24    2    1    2    0    0  0.23196276803E+02 -0.15105467167E+02 -0.47018993735E+03  0.47723551180E+03  0.76869461696E+02 0.  0.
         25    2    1    2    0    0  0.76221434870E+01 -0.40941628808E+02 -0.10240538524E+03  0.16696760722E+03  0.12512795408E+03 0.  0.
        -24    2    1    2    0    0 -0.30818420290E+02  0.56047095975E+02  0.45179544468E+03  0.46336780066E+03  0.80619742388E+02 0.  0.
        -11    1    3    3    0    0  0.23912330366E+02 -0.21147584715E+02 -0.47006721283E+03  0.47114987473E+03  0.00000000000E+00 0.  1.
         12    1    3    3    0    0 -0.71605356264E+00  0.60421175485E+01 -0.12272451780E+00  0.60856370645E+01  0.00000000000E+00 0. -1.
         11    1    5    5    0    0  0.10604097082E+02  0.23780946297E+02  0.36892622750E+02  0.45155795808E+02  0.00000000000E+00 0. -1.
        -12    1    5    5    0    0 -0.41422517373E+02  0.32266149678E+02  0.41490282193E+03  0.41821200486E+03  0.00000000000E+00 0.  1.
          5    1    4    4  501    0  0.33956592292E+02 -0.78165379664E+02 -0.75017891360E+02  0.11361352544E+03  0.41800000000E+01 0. -1.
         -5    1    4    4    0  501 -0.26334448805E+02  0.37223750855E+02 -0.27387493884E+02  0.53354081783E+02  0.41800000000E+01 0. -1.
</event>
<event>
11    1  0.8037748E-009  0.1466094E+03  0.7561462E-02  0.1100395E+00
         22   -1    0    0    0    0  0.00000000000E+00  0.00000000000E+00  0.29579741436E+03  0.29579741436E+03  0.00000000000E+00 0. -1.
         22   -1    0    0    0    0 -0.00000000000E+00 -0.00000000000E+00 -0.33042473332E+03  0.33042473332E+03  0.00000000000E+00 0. -1.
        -24    2    1    2    0    0 -0.20886447078E+02  0.80421425165E+01 -0.12761579830E+03  0.15213245222E+03  0.79734379756E+02 0.  0.
         25    2    1    2    0    0  0.61799172336E+01  0.67847922270E+02 -0.14811979209E+03  0.20549808584E+03  0.12509379897E+03 0.  0.
         24    2    1    2    0    0  0.14706529844E+02 -0.75890064786E+02  0.24110827143E+03  0.26859160963E+03  0.89625165320E+02 0.  0.
        -13    1    5    5    0    0 -0.21170814854E+02  0.81529378724E+01  0.23945131102E+02  0.32985498344E+02  0.00000000000E+00 0.  1.
         14    1    5    5    0    0  0.35877344698E+02 -0.84043002659E+02  0.21716314032E+03  0.23560611128E+03  0.00000000000E+00 0. -1.
         11    1    3    3    0    0 -0.10284196331E+02 -0.35280381921E+01 -0.13454069021E+03  0.13497929127E+03  0.00000000000E+00 0. -1.
        -12    1    3    3    0    0 -0.10602250747E+02  0.11570180709E+02  0.69248919175E+01  0.17153160951E+02  0.00000000000E+00 0.  1.
          5    1    4    4  501    0 -0.33856240692E+02 -0.54900207744E+01  0.94152042646E+00  0.34565072293E+02  0.41800000000E+01 0. -1.
         -5    1    4    4    0  501  0.40036157925E+02  0.73337943044E+02 -0.14906131252E+03  0.17093301355E+03  0.41800000000E+01 0. -1.
</event>
<event>
11    1  0.8037748E-009  0.1991361E+03  0.7561462E-02  0.1055136E+00
         22   -1    0    0    0    0  0.00000000000E+00  0.00000000000E+00  0.44279556554E+03  0.44279556554E+03  0.00000000000E+00 0. -1.
         22   -1    0    0    0    0 -0.00000000000E+00 -0.00000000000E+00 -0.23060868888E+03  0.23060868888E+03  0.00000000000E+00 0. -1.
        -24    2    1    2    0    0  0.67925303522E+01  0.27707559508E+02 -0.12421297144E+03  0.14999570169E+03  0.79094885596E+02 0.  0.
         25    2    1    2    0    0  0.13739952857E+03 -0.81120157803E+02  0.89159674287E+02  0.22148870192E+03  0.12509471253E+03 0.  0.
         24    2    1    2    0    0 -0.14419205892E+03  0.53412598295E+02  0.24724017382E+03  0.30191985082E+03  0.79897667392E+02 0.  0.
        -13    1    5    5    0    0 -0.13265481922E+02  0.18495358045E+02  0.34745464688E+01  0.23024416453E+02  0.00000000000E+00 0.  1.
         14    1    5    5    0    0 -0.13092657700E+03  0.34917240250E+02  0.24376562735E+03  0.27889543437E+03  0.00000000000E+00 0. -1.
         13    1    3    3    0    0  0.23218956540E+02  0.31132026052E+02 -0.12716061070E+03  0.13295918134E+03  0.00000000000E+00 0. -1.
        -14    1    3    3    0    0 -0.16426426187E+02 -0.34244665438E+01  0.29476392563E+01  0.17036520349E+02  0.00000000000E+00 0.  1.
          5    1    4    4  501    0  0.12956408123E+03 -0.22520138492E+02  0.94479910074E+02  0.16198127543E+03  0.41800000000E+01 0.  1.
         -5    1    4    4    0  501  0.78354473450E+01 -0.58600019312E+02 -0.53202357869E+01  0.59507426488E+02  0.41800000000E+01 0.  1.
</event>
<event>
11    1  0.8037748E-009  0.1819654E+03  0.7561462E-02  0.1068064E+00
         22   -1    0    0    0    0  0.00000000000E+00  0.00000000000E+00  0.38816025685E+03  0.38816025685E+03  0.00000000000E+00 0.  1.
         22   -1    0    0    0    0 -0.00000000000E+00 -0.00000000000E+00 -0.58020472411E+03  0.58020472411E+03  0.00000000000E+00 0. -1.
        -24    2    1    2    0    0 -0.13662159914E+02  0.63029751985E+02 -0.47075453024E+03  0.48223148058E+03  0.82328420809E+02 0.  0.
         25    2    1    2    0    0 -0.94243685253E+02  0.30368254713E+02 -0.43348746720E+01  0.15959768909E+03  0.12509407708E+03 0.  0.
         24    2    1    2    0    0  0.10790584517E+03 -0.93398006698E+02  0.28304493766E+03  0.32653581129E+03  0.78385842109E+02 0.  0.
        -13    1    5    5    0    0  0.67960445477E+02 -0.57565679371E+02  0.24519134301E+03  0.26086629579E+03  0.00000000000E+00 0.  1.
         14    1    5    5    0    0  0.39945399689E+02 -0.35832327327E+02  0.37853594643E+02  0.65669515496E+02  0.00000000000E+00 0. -1.
         13    1    3    3    0    0 -0.65514534271E+01  0.45830908822E+02 -0.91737337691E+02  0.10275764143E+03  0.00000000000E+00 0. -1.
        -14    1    3    3    0    0 -0.71107064864E+01  0.17198843164E+02 -0.37901719255E+03  0.37947383915E+03  0.00000000000E+00 0.  1.
          5    1    4    4  501    0 -0.98190933953E+01  0.52825040687E+02  0.34408850479E+02  0.63940135361E+02  0.41800000000E+01 0.  1.
         -5    1    4    4    0  501 -0.84424591858E+02 -0.22456785974E+02 -0.38743725151E+02  0.95657553728E+02  0.41800000000E+01 0.  1.
</event>
<event>
11    1  0.8037748E-009  0.1281692E+03  0.7561462E-02  0.1121539E+00
         22   -1    0    0    0    0  0.00000000000E+00  0.00000000000E+00  0.22440820497E+03  0.22440820497E+03  0.00000000000E+00 0.  1.
         22   -1    0    0    0    0 -0.00000000000E+00 -0.00000000000E+00 -0.14070915077E+04  0.14070915077E+04  0.00000000000E+00 0.  1.
        -24    2    1    2    0    0  0.56220299703E+01 -0.74732859175E+01 -0.12824141999E+04  0.12849350160E+04  0.79902176886E+02 0.  0.
         25    2    1    2    0    0 -0.57171679745E+01  0.34804701560E+02 -0.76830438509E+02  0.15098086037E+03  0.12509296805E+03 0.  0.
         24    2    1    2    0    0  0.95138004216E-01 -0.27331415642E+02  0.17656133571E+03  0.19558383633E+03  0.79574596667E+02 0.  0.
        -11    1    5    5    0    0  0.48660339632E+01 -0.43400032187E+02  0.17302705818E+03  0.17845336630E+03  0.00000000000E+00 0.  1.
         12    1    5    5    0    0 -0.47708959590E+01  0.16068616544E+02  0.35342775261E+01  0.17130470032E+02  0.00000000000E+00 0. -1.
         11    1    3    3    0    0 -0.10833369395E+02  0.18588701216E+02 -0.10830661066E+03  0.11042293067E+03  0.00000000000E+00 0. -1.
        -12    1    3    3    0    0  0.16455399365E+02 -0.26061987133E+02 -0.11741075893E+04  0.11745120853E+04  0.00000000000E+00 0.  1.
          5    1    4    4  501    0  0.12345937771E+00 -0.20422690146E+02 -0.91128336482E+02  0.93482338573E+02  0.41800000000E+01 0.  1.
         -5    1    4    4    0  501 -0.58406273522E+01  0.55227391706E+02  0.14297897973E+02  0.57498521798E+02  0.41800000000E+01 0.  1.
</event>
<event>
11    1  0.8037748E-009  0.1289810E+03  0.7561462E-02  0.1120527E+00
         22   -1    0    0    0    0  0.00000000000E+00  0.00000000000E+00  0.14569411943E+04  0.14569411943E+04  0.00000000000E+00 0. -1.
         22   -1    0    0    0    0 -0.00000000000E+00 -0.00000000000E+00 -0.45728270814E+02  0.45728270814E+02  0.00000000000E+00 0.  1.
        -24    2    1    2    0    0 -0.30164533892E+01 -0.18828870065E+02  0.13109929301E+02  0.80729603615E+02  0.77341924689E+02 0.  0.
         25    2    1    2    0    0  0.40863831842E+01 -0.16344747798E+02  0.40889088354E+03  0.42792985170E+03  0.12509338124E+03 0.  0.
         24    2    1    2    0    0 -0.10699297951E+01  0.35173617863E+02  0.98921211061E+03  0.99401000976E+03  0.90977863152E+02 0.  0.
        -11    1    5    5    0    0 -0.14173387814E+02  0.35417588650E+02  0.15262714004E+03  0.15732238996E+03  0.00000000000E+00 0.  1.
         12    1    5    5    0    0  0.13103458018E+02 -0.24397078724E+00  0.83658497057E+03  0.83668761979E+03  0.00000000000E+00 0. -1.
         11    1    3    3    0    0  0.15986547249E+02  0.24255699397E+02 -0.64200083715E+01  0.29751052984E+02  0.00000000000E+00 0. -1.
        -12    1    3    3    0    0 -0.19003000638E+02 -0.43084569461E+02  0.19529937673E+02  0.50978550631E+02  0.00000000000E+00 0.  1.
          5    1    4    4  501    0  0.51362339933E+02 -0.25800916378E+02  0.10121987784E+03  0.11647623499E+03  0.41800000000E+01 0. -1.
         -5    1    4    4    0  501 -0.47275956749E+02  0.94561685802E+01  0.30767100570E+03  0.31145361671E+03  0.41800000000E+01 0. -1.
</event>
<event>
11    1  0.8037748E-009  0.1990965E+03  0.7561462E-02  0.1055164E+00
         22   -1    0    0    0    0  0.00000000000E+00  0.00000000000E+00  0.89328155009E+03  0.89328155009E+03  0.00000000000E+00 0. -1.
         22   -1    0    0    0    0 -0.00000000000E+00 -0.00000000000E+00 -0.17306367563E+04  0.17306367563E+04  0.00000000000E+00 0.  1.
         24    2    1    2    0    0  0.76646289199E+01  0.15397273276E+02 -0.16301115835E+04  0.16321925023E+04  0.80577710272E+02 0.  0.
         25    2    1    2    0    0  0.60095432169E+02 -0.15357078314E+03  0.28903911581E+02  0.20899556821E+03  0.12509302548E+03 0.  0.
        -24    2    1    2    0    0 -0.67760061089E+02  0.13817350986E+03  0.76385246572E+03  0.78273023585E+03  0.74247478186E+02 0.  0.
        -13    1    3    3    0    0  0.55488533050E+01  0.25172731117E+02 -0.16043558983E+04  0.16045629637E+04  0.00000000000E+00 0.  1.
         14    1    3    3    0    0  0.21157756149E+01 -0.97754578409E+01 -0.25755685240E+02  0.27629538625E+02  0.00000000000E+00 0. -1.
         11    1    5    5    0    0 -0.69183025231E+02  0.13157669001E+03  0.76103369733E+03  0.77541666529E+03  0.00000000000E+00 0. -1.
        -12    1    5    5    0    0  0.14229641420E+01  0.65968198505E+01  0.28187683896E+01  0.73135705592E+01  0.00000000000E+00 0.  1.
          5    1    4    4  501    0 -0.39826476893E+01 -0.54368793118E+02  0.65468814378E+02  0.85296337575E+02  0.41800000000E+01 0. -1.
         -5    1    4    4    0  501  0.64078079858E+02 -0.99201990020E+02 -0.36564902797E+02  0.12369923063E+03  0.41800000000E+01 0. -1.
</event>
<event>
11    1  0.8037748E-009  0.1788629E+03  0.7561462E-02  0.1070566E+00
         22   -1    0    0    0    0  0.00000000000E+00  0.00000000000E+00  0.21278348230E+03  0.21278348230E+03  0.00000000000E+00 0. -1.
         22   -1    0    0    0    0 -0.00000000000E+00 -0.00000000000E+00 -0.19593293969E+04  0.19593293969E+04  0.00000000000E+00 0. -1.
        -24    2    1    2    0    0 -0.28109705702E+02 -0.12624879863E+03 -0.18280378608E+04  0.18345307580E+04  0.83974797058E+02 0.  0.
         25    2    1    2    0    0  0.33469317616E+01  0.10364649484E+03 -0.61322476073E+02  0.17367143845E+03  0.12509006602E+03 0.  0.
         24    2    1    2    0    0  0.24762773940E+02  0.22602303787E+02  0.14281442228E+03  0.16391068281E+03  0.73121088741E+02 0.  0.
        -13    1    5    5    0    0 -0.12942674421E+02 -0.17645381175E+02  0.64614082110E+02  0.68219146176E+02  0.00000000000E+00 0.  1.
         14    1    5    5    0    0  0.37705448362E+02  0.40247684962E+02  0.78200340171E+02  0.95691536636E+02  0.00000000000E+00 0. -1.
         11    1    3    3    0    0  0.20278111739E+01 -0.73923399930E+02 -0.14327666325E+04  0.14346738320E+04  0.00000000000E+00 0. -1.
        -12    1    3    3    0    0 -0.30137516876E+02 -0.52325398700E+02 -0.39527122834E+03  0.39985692595E+03  0.00000000000E+00 0.  1.
          5    1    4    4  501    0  0.29900431040E+02 -0.49557074549E+01  0.18936681644E+02  0.35981455285E+02  0.41800000000E+01 0.  1.
         -5    1    4    4    0  501 -0.26553499278E+02  0.10860220230E+03 -0.80259157717E+02  0.13768998317E+03  0.41800000000E+01 0.  1.
</event>
<event>
11    1  0.8037748E-009  0.1611640E+03  0.7561462E-02  0.1085988E+00
         22   -1    0    0    0    0  0.00000000000E+00  0.00000000000E+00  0.98538660789E+03  0.98538660789E+03  0.00000000000E+00 0.  1.
         22   -1    0    0    0    0 -0.00000000000E+00 -0.00000000000E+00 -0.22036199457E+03  0.22036199457E+03  0.00000000000E+00 0. -1.
         24    2    1    2    0    0  0.75722692842E+02 -0.33594420043E+02 -0.10233656143E+03  0.15413787998E+03  0.80144887368E+02 0.  0.
         25    2    1    2    0    0 -0.11641741108E+03 -0.59435222228E+02  0.65315272912E+01  0.18104404420E+03  0.12509486740E+03 0.  0.
        -24    2    1    2    0    0  0.40694718235E+02  0.93029642270E+02  0.86082964746E+03  0.87056667828E+03  0.80920238209E+02 0.  0.
        -11    1    3    3    0    0  0.25209911637E+00 -0.25265600518E+02  0.17187782464E+01  0.25325250683E+02  0.00000000000E+00 0.  1.
         12    1    3    3    0    0  0.75470593725E+02 -0.83288195246E+01 -0.10405533968E+03  0.12881262930E+03  0.00000000000E+00 0. -1.
         11    1    5    5    0    0  0.59267616170E+01  0.83804250981E+02  0.42303541958E+03  0.43129716578E+03  0.00000000000E+00 0. -1.
        -12    1    5    5    0    0  0.34767956618E+02  0.92253912899E+01  0.43779422788E+03  0.43926951250E+03  0.00000000000E+00 0.  1.
          5    1    4    4  501    0  0.12281449073E+02 -0.60944626490E+01  0.35856196836E+02  0.38614967537E+02  0.41800000000E+01 0. -1.
         -5    1    4    4    0  501 -0.12869886015E+03 -0.53340759579E+02 -0.29324669545E+02  0.14242907667E+03  0.41800000000E+01 0. -1.
</event>
<event>
11    1  0.8037748E-009  0.1796380E+03  0.7561462E-02  0.1069936E+00
         22   -1    0    0    0    0  0.00000000000E+00  0.00000000000E+00  0.28140983076E+03  0.28140983076E+03  0.00000000000E+00 0. -1.
         22   -1    0    0    0    0 -0.00000000000E+00 -0.00000000000E+00 -0.95927334031E+03  0.95927334031E+03  0.00000000000E+00 0.  1.
        -24    2    1    2    0    0 -0.11774547809E+02 -0.44163033270E+02 -0.82598963949E+03  0.83114039183E+03  0.80289805694E+02 0.  0.
         25    2    1    2    0    0 -0.21300958496E+02 -0.93249130457E+02 -0.30094820276E+02  0.16031989405E+03  0.12509052345E+03 0.  0.
         24    2    1    2    0    0  0.33075506305E+02  0.13741216373E+03  0.17822095021E+03  0.24922288519E+03  0.10184914113E+03 0.  0.
        -13    1    5    5    0    0 -0.19775241777E+02 -0.84297846903E+00  0.32721059563E+01  0.20061841327E+02  0.00000000000E+00 0.  1.
         14    1    5    5    0    0  0.52850748082E+02  0.13825514220E+03  0.17494884426E+03  0.22916104386E+03  0.00000000000E+00 0. -1.
         13    1    3    3    0    0  0.76612957350E+01  0.75522027677E+01 -0.16068769997E+02  0.19337440063E+02  0.00000000000E+00 0. -1.
        -14    1    3    3    0    0 -0.19435843544E+02 -0.51715236038E+02 -0.80992086949E+03  0.81180295176E+03  0.00000000000E+00 0.  1.
          5    1    4    4  501    0  0.50707430552E+02 -0.39115394671E+02 -0.28242806754E+02  0.70116946217E+02  0.41800000000E+01 0.  1.
         -5    1    4    4    0  501 -0.72008389048E+02 -0.54133735785E+02 -0.18520135221E+01  0.90202947831E+02  0.41800000000E+01 0.  1.
</event>
<event>
11    1  0.8037748E-009  0.1297644E+03  0.7561462E-02  0.1119559E+00
         22   -1    0    0    0    0  0.00000000000E+00  0.00000000000E+00  0.41582575495E+03  0.41582575495E+03  0.00000000000E+00 0. -1.
         22   -1    0    0    0    0 -0.00000000000E+00 -0.00000000000E+00 -0.50287990472E+03  0.50287990472E+03  0.00000000000E+00 0.  1.
         24    2    1    2    0    0 -0.37556931447E+02  0.22743118203E+02 -0.45342173054E+03  0.46260473614E+03  0.80523932138E+02 0.  0.
         25    2    1    2    0    0  0.35287295825E+02  0.15275754109E+02  0.76527442747E+02  0.15159868876E+03  0.12508865268E+03 0.  0.
        -24    2    1    2    0    0  0.22696356219E+01 -0.38018872311E+02  0.28984013802E+03  0.30450223477E+03  0.85227457283E+02 0.  0.
        -13    1    3    3    0    0 -0.98450668739E+01  0.38488950565E+02 -0.97852381427E+02  0.10560972118E+03  0.00000000000E+00 0.  1.
         14    1    3    3    0    0 -0.27711864573E+02 -0.15745832363E+02 -0.35556934911E+03  0.35699501495E+03  0.00000000000E+00 0. -1.
         13    1    5    5    0    0 -0.16919052595E+02 -0.48405795805E+02  0.27058700456E+03  0.27540280036E+03  0.00000000000E+00 0. -1.
        -14    1    5    5    0    0  0.19188688217E+02  0.10386923494E+02  0.19253133463E+02  0.29099434416E+02  0.00000000000E+00 0.  1.
          5    1    4    4  501    0 -0.29877420966E+02  0.30936646548E+02  0.72408601742E+02  0.84322087199E+02  0.41800000000E+01 0.  1.
         -5    1    4    4    0  501  0.65164716791E+02 -0.15660892440E+02  0.41188410050E+01  0.67276601562E+02  0.41800000000E+01 0.  1.
</event>
<event>
11    1  0.8037748E-009  0.1825257E+03  0.7561462E-02  0.1067618E+00
         22   -1    0    0    0    0  0.00000000000E+00  0.00000000000E+00  0.98973577706E+03  0.98973577706E+03  0.00000000000E+00 0.  1.
         22   -1    0    0    0    0 -0.00000000000E+00 -0.00000000000E+00 -0.40592915207E+03  0.40592915207E+03  0.00000000000E+00 0.  1.
        -24    2    1    2    0    0  0.17059469521E+02  0.22134337892E+02 -0.36466072779E+03  0.37434768364E+03  0.79861050857E+02 0.  0.
         25    2    1    2    0    0 -0.13903963534E+03 -0.58481289448E+02  0.32163534180E+03  0.37663787093E+03  0.12511878882E+03 0.  0.
         24    2    1    2    0    0  0.12198016582E+03  0.36346951556E+02  0.62683201099E+03  0.64467937456E+03  0.80578311231E+02 0.  0.
        -11    1    5    5    0    0  0.13328554207E+03  0.34833894388E+02  0.59822230019E+03  0.61387975725E+03  0.00000000000E+00 0.  1.
         12    1    5    5    0    0 -0.11305376248E+02  0.15130571682E+01  0.28609710797E+02  0.30799617302E+02  0.00000000000E+00 0. -1.
         13    1    3    3    0    0 -0.23279469772E+02  0.12045691391E+02 -0.45661642580E+02  0.52649957237E+02  0.00000000000E+00 0. -1.
        -14    1    3    3    0    0  0.40338939293E+02  0.10088646502E+02 -0.31899908521E+03  0.32169772641E+03  0.00000000000E+00 0.  1.
          5    1    4    4  501    0  0.11931896785E+02 -0.39870968943E+02  0.93235566323E+02  0.10218809888E+03  0.41800000000E+01 0.  1.
         -5    1    4    4    0  501 -0.15097153213E+03 -0.18610320506E+02  0.22839977547E+03  0.27444977205E+03  0.41800000000E+01 0.  1.
</event>
<event>
11    1  0.8037748E-009  0.1614564E+03  0.7561462E-02  0.1085715E+00
         22   -1    0    0    0    0  0.00000000000E+00  0.00000000000E+00  0.15351523326E+04  0.15351523326E+04  0.00000000000E+00 0. -1.
         22   -1    0    0    0    0 -0.00000000000E+00 -0.00000000000E+00 -0.19122844463E+03  0.19122844463E+03  0.00000000000E+00 0. -1.
        -24    2    1    2    0    0  0.35761050274E+02 -0.10271495793E+03 -0.14313988418E+03  0.20102913456E+03  0.89969279201E+02 0.  0.
         25    2    1    2    0    0  0.34033558311E+02  0.47037151786E+02  0.27852906217E+03  0.31079563621E+03  0.12507882423E+03 0.  0.
         24    2    1    2    0    0 -0.69794608585E+02  0.55677806145E+02  0.12085347100E+04  0.12145560065E+04  0.81356266648E+02 0.  0.
        -13    1    5    5    0    0 -0.48033770693E+02  0.33770112299E+02  0.31124155744E+03  0.31673170142E+03  0.00000000000E+00 0.  1.
         14    1    5    5    0    0 -0.21760837892E+02  0.21907693846E+02  0.89729315257E+03  0.89782430507E+03  0.00000000000E+00 0. -1.
         11    1    3    3    0    0  0.56232135203E+02 -0.10634544059E+03 -0.12414150380E+03  0.17286560887E+03  0.00000000000E+00 0. -1.
        -12    1    3    3    0    0 -0.20471084929E+02  0.36304826556E+01 -0.18998380380E+02  0.28163525695E+02  0.00000000000E+00 0.  1.
          5    1    4    4  501    0 -0.40257730651E+02 -0.63636597044E+01  0.50297019467E+02  0.64872518136E+02  0.41800000000E+01 0. -1.
         -5    1    4    4    0  501  0.74291288963E+02  0.53400811491E+02  0.22823204271E+03  0.24592311807E+03  0.41800000000E+01 0. -1.
</event>
<event>
11    1  0.8037748E-009  0.1618759E+03  0.7561462E-02  0.1085326E+00
         22   -1    0    0    0    0  0.00000000000E+00  0.00000000000E+00  0.67729753332E+03  0.67729753332E+03  0.00000000000E+00 0. -1.
         22   -1    0    0    0    0 -0.00000000000E+00 -0.00000000000E+00 -0.18889584715E+03  0.18889584715E+03  0.00000000000E+00 0. -1.
         24    2    1    2    0    0 -0.31827098966E+02  0.14618370458E+02 -0.74606437049E+02  0.11488058768E+03  0.80029794404E+02 0.  0.
         25    2    1    2    0    0  0.99437590811E+02 -0.88540490440E+02  0.93945481770E+01  0.18294718155E+03  0.12511658878E+03 0.  0.
        -24    2    1    2    0    0 -0.67610491845E+02  0.73922119982E+02  0.55361357505E+03  0.56836561125E+03  0.80720623999E+02 0.  0.
        -11    1    3    3    0    0 -0.30575722045E+02 -0.10468796091E+02  0.38075093808E+01  0.32541782339E+02  0.00000000000E+00 0.  1.
         12    1    3    3    0    0 -0.12513769211E+01  0.25087166548E+02 -0.78413946430E+02  0.82338805337E+02  0.00000000000E+00 0. -1.
         13    1    5    5    0    0  0.88737065191E+01  0.38711149576E+02  0.25631267714E+03  0.25937132500E+03  0.00000000000E+00 0. -1.
        -14    1    5    5    0    0 -0.76484198364E+02  0.35210970405E+02  0.29730089791E+03  0.30899428625E+03  0.00000000000E+00 0.  1.
          5    1    4    4  501    0 -0.17588450715E+02 -0.42612771337E+02  0.30457564895E+02  0.55410626589E+02  0.41800000000E+01 0.  1.
         -5    1    4    4    0  501  0.11702604153E+03 -0.45927719102E+02 -0.21063016718E+02  0.12753655496E+03  0.41800000000E+01 0.  1.
</event>
<event>
11    1  0.8037748E-009  0.1481846E+03  0.7561462E-02  0.1098748E+00
         22   -1    0    0    0    0  0.00000000000E+00  0.00000000000E+00  0.68778959984E+03  0.68778959984E+03  0.00000000000E+00 0.  1.
         22   -1    0    0    0    0 -0.00000000000E+00 -0.00000000000E+00 -0.10267228387E+04  0.10267228387E+04  0.00000000000E+00 0. -1.
        -24    2    1    2    0    0  0.94247288538E+01 -0.30986754496E+02 -0.86396390171E+03  0.86828567051E+03  0.80233270360E+02 0.  0.
         25    2    1    2    0    0  0.66525150269E+02  0.54252888732E+02 -0.11882829942E+03  0.19270928095E+03  0.12509088962E+03 0.  0.
         24    2    1    2    0    0 -0.75949879123E+02 -0.23266134236E+02  0.64385896229E+03  0.65351748707E+03  0.78873604200E+02 0.  0.
        -13    1    5    5    0    0 -0.45678732305E+02  0.13123797151E+02  0.49587893940E+03  0.49815128543E+03  0.00000000000E+00 0.  1.
         14    1    5    5    0    0 -0.30271146818E+02 -0.36389931386E+02  0.14798002289E+03  0.15536620164E+03  0.00000000000E+00 0. -1.
         11    1    3    3    0    0 -0.28239426643E+02 -0.29024689564E+02 -0.63011531765E+03  0.63141524479E+03  0.00000000000E+00 0. -1.
        -12    1    3    3    0    0  0.37664155496E+02 -0.19620649322E+01 -0.23384858406E+03  0.23687042571E+03  0.00000000000E+00 0.  1.
          5    1    4    4  501    0 -0.15323256443E+02  0.27975959934E+01 -0.90433262514E+02  0.91860089812E+02  0.41800000000E+01 0. -1.
         -5    1    4    4    0  501  0.81848406712E+02  0.51455292738E+02 -0.28395036905E+02  0.10084919114E+03  0.41800000000E+01 0. -1.
</event>
<event>
11    1  0.8037748E-009  0.4404522E+03  0.7561462E-02  0.9537407E-01
         22   -1    0    0    0    0  0.00000000000E+00  0.00000000000E+00  0.85638415633E+03  0.85638415633E+03  0.00000000000E+00 0.  1.
         22   -1    0    0    0    0 -0.00000000000E+00 -0.00000000000E+00 -0.84498547249E+03  0.84498547249E+03  0.00000000000E+00 0.  1.
        -24    2    1    2    0    0  0.20022154055E+03 -0.16264228296E+03 -0.63825275343E+03  0.69305850857E+03  0.80139512948E+02 0.  0.
         25    2    1    2    0    0 -0.35442957861E+03  0.26049700094E+03  0.66605784721E+03  0.80793505565E+03  0.12508790760E+03 0.  0.
         24    2    1    2    0    0  0.15420803805E+03 -0.97854717982E+02 -0.16406409942E+02  0.20037606461E+03  0.80782003862E+02 0.  0.
        -11    1    5    5    0    0  0.13677527281E+03 -0.74183247200E+02 -0.42251977916E+02  0.16123231393E+03  0.00000000000E+00 0.  1.
         12    1    5    5    0    0  0.17432765242E+02 -0.23671470782E+02  0.25845567974E+02  0.39143750674E+02  0.00000000000E+00 0. -1.
         13    1    3    3    0    0 -0.50452047687E+01 -0.33691308495E+01 -0.45011710393E+02  0.45418709871E+02  0.00000000000E+00 0. -1.
        -14    1    3    3    0    0  0.20526674532E+03 -0.15927315211E+03 -0.59324104304E+03  0.64763979870E+03  0.00000000000E+00 0.  1.
          5    1    4    4  501    0  0.37718071992E+01  0.13347326373E+01 -0.25773405135E+01  0.63342817181E+01  0.41800000000E+01 0.  1.
         -5    1    4    4    0  501 -0.35820138581E+03  0.25916226830E+03  0.66863518772E+03  0.80160077393E+03  0.41800000000E+01 0.  1.
</event>
<event>
11    1  0.8037748E-009  0.1366534E+03  0.7561462E-02  0.1111354E+00
         22   -1    0    0    0    0  0.00000000000E+00  0.00000000000E+00  0.17549989250E+04  0.17549989250E+04  0.00000000000E+00 0. -1.
         22   -1    0    0    0    0 -0.00000000000E+00 -0.00000000000E+00 -0.45552801555E+03  0.45552801555E+03  0.00000000000E+00 0. -1.
        -24    2    1    2    0    0 -0.43654343049E+02 -0.18457215866E+02 -0.31811875249E+03  0.33186723252E+03  0.81792107501E+02 0.  0.
         25    2    1    2    0    0  0.83774521681E+02 -0.18811021408E+02 -0.84582506583E+02  0.17372114988E+03  0.12511120048E+03 0.  0.
         24    2    1    2    0    0 -0.40120178632E+02  0.37268237274E+02  0.17021721686E+04  0.17049385582E+04  0.80167609109E+02 0.  0.
        -11    1    5    5    0    0  0.11328330000E+02 -0.15549938569E+02  0.59673044189E+03  0.59704049438E+03  0.00000000000E+00 0.  1.
         12    1    5    5    0    0 -0.51448508632E+02  0.52818175843E+02  0.11054417267E+04  0.11078980638E+04  0.00000000000E+00 0. -1.
         11    1    3    3    0    0  0.89536900543E+01 -0.36069275461E+02 -0.16125261209E+03  0.16547980573E+03  0.00000000000E+00 0. -1.
        -12    1    3    3    0    0 -0.52608033104E+02  0.17612059595E+02 -0.15686614039E+03  0.16638742678E+03  0.00000000000E+00 0.  1.
          5    1    4    4  501    0 -0.23902651720E+02  0.44027399003E+01  0.11760351551E+02  0.27322136565E+02  0.41800000000E+01 0.  1.
         -5    1    4    4    0  501  0.10767717340E+03 -0.23213761308E+02 -0.96342858133E+02  0.14639901331E+03  0.41800000000E+01 0.  1.
</event>
<event>
11    1  0.8037748E-009  0.2495428E+03  0.7561462E-02  0.1024143E+00
         22   -1    0    0    0    0  0.00000000000E+00  0.00000000000E+00  0.88493935634E+03  0.88493935634E+03  0.00000000000E+00 0. -1.
         22   -1    0    0    0    0 -0.00000000000E+00 -0.00000000000E+00 -0.16038220622E+03  0.16038220622E+03  0.00000000000E+00 0. -1.
         24    2    1    2    0    0  0.10918893321E+01 -0.22568633716E+02  0.87689155765E+02  0.12074394036E+03  0.79869741739E+02 0.  0.
         25    2    1    2    0    0  0.59700217173E+02  0.21111300356E+03  0.28533394332E+00  0.25254738093E+03  0.12508909623E+03 0.  0.
        -24    2    1    2    0    0 -0.60792106505E+02 -0.18854436985E+03  0.63658266041E+03  0.67203024127E+03  0.84513324566E+02 0.  0.
        -11    1    3    3    0    0  0.61968602090E+01  0.24147935991E+02  0.46955884086E+01  0.25368729562E+02  0.00000000000E+00 0.  1.
         12    1    3    3    0    0 -0.51049708769E+01 -0.46716569706E+02  0.82993567357E+02  0.95375210801E+02  0.00000000000E+00 0. -1.
         11    1    5    5    0    0 -0.82080401124E+02 -0.15874598409E+03  0.53337487686E+03  0.56251776770E+03  0.00000000000E+00 0. -1.
        -12    1    5    5    0    0  0.21288294618E+02 -0.29798385758E+02  0.10320778355E+03  0.10951247357E+03  0.00000000000E+00 0.  1.
          5    1    4    4  501    0  0.87438377347E+02  0.20611537602E+03  0.27185292268E+01  0.22395062149E+03  0.41800000000E+01 0.  1.
         -5    1    4    4    0  501 -0.27738160174E+02  0.49976275376E+01 -0.24331952835E+01  0.28596759434E+02  0.41800000000E+01 0.  1.
</event>
<event>
11    1  0.8037748E-009  0.1470630E+03  0.7561462E-02  0.1099918E+00
         22   -1    0    0    0    0  0.00000000000E+00  0.00000000000E+00  0.82899957793E+03  0.82899957793E+03  0.00000000000E+00 0. -1.
         22   -1    0    0    0    0 -0.00000000000E+00 -0.00000000000E+00 -0.32683781995E+03  0.32683781995E+03  0.00000000000E+00 0. -1.
         24    2    1    2    0    0 -0.84214905948E+01  0.73090026095E+02 -0.26157698276E+03  0.29112044956E+03  0.10447738904E+03 0.  0.
         25    2    1    2    0    0  0.45549945160E+02 -0.11400583207E+03  0.11757991378E+03  0.21105906438E+03  0.12509502502E+03 0.  0.
        -24    2    1    2    0    0 -0.37128454565E+02  0.40915805972E+02  0.64615882697E+03  0.65365788394E+03  0.81821600134E+02 0.  0.
        -11    1    3    3    0    0  0.85828780693E+01 -0.18824652184E+02 -0.10485530681E+02  0.23194388965E+02  0.00000000000E+00 0.  1.
         12    1    3    3    0    0 -0.17004368664E+02  0.91914678279E+02 -0.25109145208E+03  0.26792606059E+03  0.00000000000E+00 0. -1.
         11    1    5    5    0    0  0.83487046280E+01  0.14501489655E+02  0.45749700172E+03  0.45780290590E+03  0.00000000000E+00 0. -1.
        -12    1    5    5    0    0 -0.45477159193E+02  0.26414316317E+02  0.18866182525E+03  0.19585497804E+03  0.00000000000E+00 0.  1.
          5    1    4    4  501    0 -0.25614697408E+02 -0.51972138268E+01 -0.10528518226E+02  0.28485888627E+02  0.41800000000E+01 0.  1.
         -5    1    4    4    0  501  0.71164642568E+02 -0.10880861824E+03  0.12810843200E+03  0.18257317575E+03  0.41800000000E+01 0.  1.
</event>
<event>
11    1  0.8037748E-009  0.1325559E+03  0.7561462E-02  0.1116168E+00
         22   -1    0    0    0    0  0.00000000000E+00  0.00000000000E+00  0.81689185874E+02  0.81689185874E+02  0.00000000000E+00 0. -1.
         22   -1    0    0    0    0 -0.00000000000E+00 -0.00000000000E+00 -0.90808701094E+03  0.90808701094E+03  0.00000000000E+00 0.  1.
        -24    2    1    2    0    0  0.11206398640E+02 -0.39497705047E+02 -0.68792308070E+03  0.69429582039E+03  0.84397092288E+02 0.  0.
         25    2    1    2    0    0 -0.25489345348E+02  0.64771113280E+02 -0.15164158664E+03  0.20852736670E+03  0.12507393022E+03 0.  0.
         24    2    1    2    0    0  0.14282946708E+02 -0.25273408233E+02  0.13166842271E+02  0.86953009723E+02  0.80899396995E+02 0.  0.
        -11    1    5    5    0    0  0.10669790906E+02  0.27156789907E+02  0.17826338877E+02  0.34192309571E+02  0.00000000000E+00 0.  1.
         12    1    5    5    0    0  0.36131558021E+01 -0.52430198140E+02 -0.46594966063E+01  0.52760700152E+02  0.00000000000E+00 0. -1.
         11    1    3    3    0    0 -0.24500543781E+02 -0.40000112278E+02 -0.21655468875E+03  0.22157666585E+03  0.00000000000E+00 0. -1.
        -12    1    3    3    0    0  0.35706942420E+02  0.50240723098E+00 -0.47136839195E+03  0.47271915455E+03  0.00000000000E+00 0.  1.
          5    1    4    4  501    0  0.17071150944E+02 -0.21120449717E+02  0.18225737569E+01  0.27537097994E+02  0.41800000000E+01 0. -1.
         -5    1    4    4    0  501 -0.42560496293E+02  0.85891562997E+02 -0.15346416040E+03  0.18099026870E+03  0.41800000000E+01 0. -1.
</event>
<event>
11    1  0.8037748E-009  0.1709006E+03  0.7561462E-02  0.1077251E+00
         22   -1    0    0    0    0  0.00000000000E+00  0.00000000000E+00  0.24541698725E+03  0.24541698725E+03  0.00000000000E+00 0.  1.
         22   -1    0    0    0    0 -0.00000000000E+00 -0.00000000000E+00 -0.80297832223E+03  0.80297832223E+03  0.00000000000E+00 0. -1.
        -24    2    1    2    0    0 -0.31704375104E+02 -0.11348262111E+02 -0.68609241447E+03  0.69148657026E+03  0.79353167533E+02 0.  0.
         25    2    1    2    0    0 -0.80626516515E+02 -0.50582351001E+02  0.10586843644E+02  0.15754667989E+03  0.12509862384E+03 0.  0.
         24    2    1    2    0    0  0.11233089162E+03  0.61930613112E+02  0.11794423585E+03  0.19936205933E+03  0.96854312659E+02 0.  0.
        -13    1    5    5    0    0  0.41650687487E+02  0.77824599435E+02  0.66194037178E+02  0.11033176607E+03  0.00000000000E+00 0.  1.
         14    1    5    5    0    0  0.70680204132E+02 -0.15893986323E+02  0.51750198668E+02  0.89030293269E+02  0.00000000000E+00 0. -1.
         11    1    3    3    0    0 -0.15272845119E+02  0.33364379739E+02 -0.22935712241E+03  0.23227382812E+03  0.00000000000E+00 0. -1.
        -12    1    3    3    0    0 -0.16431529985E+02 -0.44712641850E+02 -0.45673529206E+03  0.45921274213E+03  0.00000000000E+00 0.  1.
          5    1    4    4  501    0  0.31434138711E+01  0.43419854197E+00 -0.44613136329E+02  0.44920751466E+02  0.41800000000E+01 0.  1.
         -5    1    4    4    0  501 -0.83769930386E+02 -0.51016549543E+02  0.55199979973E+02  0.11262592842E+03  0.41800000000E+01 0.  1.
</event>
<event>
11    1  0.8037748E-009  0.1316272E+03  0.7561462E-02  0.1117286E+00
         22   -1    0    0    0    0  0.00000000000E+00  0.00000000000E+00  0.77655016888E+03  0.77655016888E+03  0.00000000000E+00 0.  1.
         22   -1    0    0    0    0 -0.00000000000E+00 -0.00000000000E+00 -0.29902366816E+03  0.29902366816E+03  0.00000000000E+00 0. -1.
         24    2    1    2    0    0  0.35419336994E+02 -0.31129136264E+02 -0.22449042059E+03  0.24329029290E+03  0.81059639297E+02 0.  0.
         25    2    1    2    0    0 -0.33578811846E+02  0.70475866295E+02  0.26359603125E+02  0.14978464144E+03  0.12508487438E+03 0.  0.
        -24    2    1    2    0    0 -0.18405251479E+01 -0.39346730031E+02  0.67565731819E+03  0.68249890270E+03  0.87979474171E+02 0.  0.
        -13    1    3    3    0    0  0.15049151802E+02  0.30887167096E+01 -0.68845681790E-01  0.15363003632E+02  0.00000000000E+00 0.  1.
         14    1    3    3    0    0  0.20370185192E+02 -0.34217852973E+02 -0.22442157491E+03  0.22792728927E+03  0.00000000000E+00 0. -1.
         13    1    5    5    0    0  0.12466883116E+02  0.23722452255E+02  0.11286332728E+03  0.11600132999E+03  0.00000000000E+00 0. -1.
        -14    1    5    5    0    0 -0.14307408264E+02 -0.63069182286E+02  0.56279399091E+03  0.56649757271E+03  0.00000000000E+00 0.  1.
          5    1    4    4  501    0  0.26531515117E+02  0.23634968687E+02 -0.36351811969E+02  0.51004506395E+02  0.41800000000E+01 0.  1.
         -5    1    4    4    0  501 -0.60110326963E+02  0.46840897608E+02  0.62711415093E+02  0.98780135044E+02  0.41800000000E+01 0.  1.
</event>
<event>
11    1  0.8037748E-009  0.1383007E+03  0.7561462E-02  0.1109471E+00
         22   -1    0    0    0    0  0.00000000000E+00  0.00000000000E+00  0.83093726866E+03  0.83093726866E+03  0.00000000000E+00 0. -1.
         22   -1    0    0    0    0 -0.00000000000E+00 -0.00000000000E+00 -0.29762822727E+04  0.29762822727E+04  0.00000000000E+00 0. -1.
         24    2    1    2    0    0 -0.22174947012E+02  0.18217783671E+02 -0.25544532983E+04  0.25558876477E+04  0.80662249313E+02 0.  0.
         25    2    1    2    0    0 -0.36632227554E+02 -0.24112512875E+02 -0.40827307472E+03  0.42925240184E+03  0.12508951821E+03 0.  0.
        -24    2    1    2    0    0  0.58807174567E+02  0.58947292037E+01  0.81738136894E+03  0.82207949188E+03  0.64879558155E+02 0.  0.
        -13    1    3    3    0    0 -0.23744129345E+02 -0.88756461210E+01 -0.25145592192E+03  0.25273037301E+03  0.00000000000E+00 0.  1.
         14    1    3    3    0    0  0.15691823326E+01  0.27093429792E+02 -0.23029973764E+04  0.23031572747E+04  0.00000000000E+00 0. -1.
         13    1    5    5    0    0  0.45183008596E+02 -0.35118391004E+01  0.77852611556E+03  0.77984405485E+03  0.00000000000E+00 0. -1.
        -14    1    5    5    0    0  0.13624165971E+02  0.94065683041E+01  0.38855253376E+02  0.42235437024E+02  0.00000000000E+00 0.  1.
          5    1    4    4  501    0 -0.44945307253E+02 -0.38969659637E+02 -0.40735623336E+03  0.41169805474E+03  0.41800000000E+01 0. -1.
         -5    1    4    4    0  501  0.83130796983E+01  0.14857146762E+02 -0.91684136015E+00  0.17554347099E+02  0.41800000000E+01 0. -1.
</event>
<event>
11    1  0.8037748E-009  0.1789286E+03  0.7561462E-02  0.1070513E+00
         22   -1    0    0    0    0  0.00000000000E+00  0.00000000000E+00  0.20875748992E+03  0.20875748992E+03  0.00000000000E+00 0. -1.
         22   -1    0    0    0    0 -0.00000000000E+00 -0.00000000000E+00 -0.15400097333E+04  0.15400097333E+04  0.00000000000E+00 0. -1.
        -24    2    1    2    0    0  0.71923729565E+02 -0.92331021190E+02 -0.13247059591E+04  0.13323586123E+04  0.81458906046E+02 0.  0.
         25    2    1    2    0    0  0.44692963738E+01  0.18614405853E+03 -0.96974157591E+02  0.24437698795E+03  0.12508612980E+03 0.  0.
         24    2    1    2    0    0 -0.76393025939E+02 -0.93813037336E+02  0.90427873269E+02  0.17203162300E+03  0.82346212184E+02 0.  0.
        -11    1    5    5    0    0 -0.18893611160E+02  0.98872360107E+01  0.35363213600E+02  0.41295070586E+02  0.00000000000E+00 0.  1.
         12    1    5    5    0    0 -0.57499414779E+02 -0.10370027335E+03  0.55064659669E+02  0.13073655241E+03  0.00000000000E+00 0. -1.
         11    1    3    3    0    0  0.83897792495E+02 -0.90482645157E+02 -0.10238559746E+04  0.10312647601E+04  0.00000000000E+00 0. -1.
        -12    1    3    3    0    0 -0.11974062930E+02 -0.18483760332E+01 -0.30084998447E+03  0.30109385220E+03  0.00000000000E+00 0.  1.
          5    1    4    4  501    0 -0.14297942524E+02  0.13149840151E+03 -0.12318013257E+03  0.18079568087E+03  0.41800000000E+01 0. -1.
         -5    1    4    4    0  501  0.18767238897E+02  0.54645657015E+02  0.26205974979E+02  0.63581307088E+02  0.41800000000E+01 0. -1.
</event>
<event>
11    1  0.8037748E-009  0.1273184E+03  0.7561462E-02  0.1122608E+00
         22   -1    0    0    0    0  0.00000000000E+00  0.00000000000E+00  0.27975429374E+03  0.27975429374E+03  0.00000000000E+00 0. -1.
         22   -1    0    0    0    0 -0.00000000000E+00 -0.00000000000E+00 -0.12136465576E+04  0.12136465576E+04  0.00000000000E+00 0. -1.
        -24    2    1    2    0    0  0.12150759076E+02  0.15970989954E+02 -0.11134100190E+04  0.11164765400E+04  0.80220199869E+02 0.  0.
         25    2    1    2    0    0 -0.16683265560E+02  0.83727069758E+01 -0.46935773845E+02  0.13490124396E+03  0.12508774994E+03 0.  0.
         24    2    1    2    0    0  0.45325064839E+01 -0.24343696929E+02  0.22645352899E+03  0.24202306738E+03  0.81736192445E+02 0.  0.
        -11    1    5    5    0    0 -0.81836050698E+01  0.29011814010E+02  0.69280867970E+02  0.75554585637E+02  0.00000000000E+00 0.  1.
         12    1    5    5    0    0  0.12716111554E+02 -0.53355510940E+02  0.15717266102E+03  0.16646848174E+03  0.00000000000E+00 0. -1.
         13    1    3    3    0    0 -0.17290760429E+02  0.27320633402E+02 -0.91518015955E+03  0.91575111894E+03  0.00000000000E+00 0. -1.
        -14    1    3    3    0    0  0.29441519505E+02 -0.11349643448E+02 -0.19822985942E+03  0.20072542102E+03  0.00000000000E+00 0.  1.
          5    1    4    4  501    0 -0.40298357847E+02  0.99186390743E+01 -0.82228876705E+02  0.92203023868E+02  0.41800000000E+01 0.  1.
         -5    1    4    4    0  501  0.23615092287E+02 -0.15459320986E+01  0.35293102860E+02  0.42698220095E+02  0.41800000000E+01 0.  1.
</event>
<event>
11    1  0.8037748E-009  0.1458800E+03  0.7561462E-02  0.1101164E+00
         22   -1    0    0    0    0  0.00000000000E+00  0.00000000000E+00  0.14361204444E+03  0.14361204444E+03  0.00000000000E+00 0.  1.
         22   -1    0    0    0    0 -0.00000000000E+00 -0.00000000000E+00 -0.44555367144E+03  0.44555367144E+03  0.00000000000E+00 0. -1.
        -24    2    1    2    0    0 -0.86223953294E+00 -0.18660529334E+02 -0.20243959369E+03  0.21887966764E+03  0.81102163975E+02 0.  0.
         25    2    1    2    0    0 -0.72473891731E+02  0.32691478441E+02 -0.18022457424E+03  0.23335704474E+03  0.12511361007E+03 0.  0.
         24    2    1    2    0    0  0.73336131264E+02 -0.14030949107E+02  0.80722540934E+02  0.13692900349E+03  0.81598821688E+02 0.  0.
        -13    1    5    5    0    0  0.76442703601E+02 -0.38726806866E+02  0.61415821283E+02  0.10542843833E+03  0.00000000000E+00 0.  1.
         14    1    5    5    0    0 -0.31065723365E+01  0.24695857759E+02  0.19306719651E+02  0.31500565167E+02  0.00000000000E+00 0. -1.
         13    1    3    3    0    0  0.31756019492E+02 -0.33023035055E+02 -0.13561830690E+03  0.14314779350E+03  0.00000000000E+00 0. -1.
        -14    1    3    3    0    0 -0.32618259025E+02  0.14362505721E+02 -0.66821286794E+02  0.75731874143E+02  0.00000000000E+00 0.  1.
          5    1    4    4  501    0 -0.73285367379E+02 -0.33153094910E+02 -0.11645910842E+03  0.14159826661E+03  0.41800000000E+01 0.  1.
         -5    1    4    4    0  501  0.81147564732E+00  0.65844573351E+02 -0.63765465823E+02  0.91758778131E+02  0.41800000000E+01 0.  1.
</event>
<event>
11    1  0.8037748E-009  0.1364861E+03  0.7561462E-02  0.1111547E+00
         22   -1    0    0    0    0  0.00000000000E+00  0.00000000000E+00  0.23297417474E+04  0.23297417474E+04  0.00000000000E+00 0.  1.
         22   -1    0    0    0    0 -0.00000000000E+00 -0.00000000000E+00 -0.33387987642E+02  0.33387987642E+02  0.00000000000E+00 0.  1.
         24    2    1    2    0    0  0.29285502434E+02 -0.57245262914E+02  0.92136345293E+02  0.13724812237E+03  0.78824362936E+02 0.  0.
         25    2    1    2    0    0  0.87034763037E+01  0.24413600871E+02  0.41404915131E+03  0.43331585402E+03  0.12511656660E+03 0.  0.
        -24    2    1    2    0    0 -0.37988978738E+02  0.32831662043E+02  0.17901682632E+04  0.17925657587E+04  0.77900629866E+02 0.  0.
        -13    1    3    3    0    0  0.35889644266E+02 -0.64539947326E+02  0.39594081808E+02  0.83792378416E+02  0.00000000000E+00 0.  1.
         14    1    3    3    0    0 -0.66041418317E+01  0.72946844121E+01  0.52542263485E+02  0.53455743958E+02  0.00000000000E+00 0. -1.
         13    1    5    5    0    0 -0.24339365336E+02  0.72669127618E+01  0.14957065996E+03  0.15171221126E+03  0.00000000000E+00 0. -1.
        -14    1    5    5    0    0 -0.13649613402E+02  0.25564749281E+02  0.16405976032E+04  0.16408535474E+04  0.00000000000E+00 0.  1.
          5    1    4    4  501    0  0.11971165721E+02  0.69611824089E+02  0.15616499873E+03  0.17144705914E+03  0.41800000000E+01 0.  1.
         -5    1    4    4    0  501 -0.32676894176E+01 -0.45198223218E+02  0.25788415259E+03  0.26186879488E+03  0.41800000000E+01 0.  1.
</event>
<event>
11    1  0.8037748E-009  0.2576669E+03  0.7561462E-02  0.1019892E+00
         22   -1    0    0    0    0  0.00000000000E+00  0.00000000000E+00  0.25831833008E+04  0.25831833008E+04  0.00000000000E+00 0.  1.
         22   -1    0    0    0    0 -0.00000000000E+00 -0.00000000000E+00 -0.13900869543E+03  0.13900869543E+03  0.00000000000E+00 0. -1.
        -24    2    1    2    0    0 -0.11028429768E+03 -0.14187383795E+02  0.20221135383E+02  0.13764600093E+03  0.78572381163E+02 0.  0.
         25    2    1    2    0    0  0.16037823436E+03 -0.20437890193E+03  0.20729414555E+03  0.35512104000E+03  0.12509267227E+03 0.  0.
         24    2    1    2    0    0 -0.50093936678E+02  0.21856628573E+03  0.22166593244E+04  0.22294249553E+04  0.80476375392E+02 0.  0.
        -11    1    5    5    0    0 -0.70890415425E+02  0.13946308031E+03  0.14556601494E+04  0.14640429885E+04  0.00000000000E+00 0.  1.
         12    1    5    5    0    0  0.20796478747E+02  0.79103205414E+02  0.76099917505E+03  0.76538196677E+03  0.00000000000E+00 0. -1.
         13    1    3    3    0    0 -0.28053387661E+02  0.31394533162E+02  0.49008275691E+01  0.42386641558E+02  0.00000000000E+00 0. -1.
        -14    1    3    3    0    0 -0.82230910023E+02 -0.45581916957E+02  0.15320307814E+02  0.95259359373E+02  0.00000000000E+00 0.  1.
          5    1    4    4  501    0  0.36116375511E+02 -0.11431927955E+03  0.14808142878E+03  0.19057510910E+03  0.41800000000E+01 0.  1.
         -5    1    4    4    0  501  0.12426185885E+03 -0.90059622381E+02  0.59212716770E+02  0.16454593090E+03  0.41800000000E+01 0.  1.
</event>
<event>
11    1  0.8037748E-009  0.1693550E+03  0.7561462E-02  0.1078594E+00
         22   -1    0    0    0    0  0.00000000000E+00  0.00000000000E+00  0.15592128743E+04  0.15592128743E+04  0.00000000000E+00 0. -1.
         22   -1    0    0    0    0 -0.00000000000E+00 -0.00000000000E+00 -0.20645205022E+03  0.20645205022E+03  0.00000000000E+00 0.  1.
         24    2    1    2    0    0 -0.96670661189E+02  0.52525023406E+02 -0.11397629826E+03  0.17593591013E+03  0.76542492056E+02 0.  0.
         25    2    1    2    0    0  0.12260365858E+03 -0.51824103345E+02  0.78262062594E+02  0.19873049176E+03  0.12510580773E+03 0.  0.
        -24    2    1    2    0    0 -0.25932997393E+02 -0.70092006103E+00  0.13884750598E+04  0.13909985226E+04  0.79629685156E+02 0.  0.
        -13    1    3    3    0    0 -0.50204075517E+02  0.59040556994E+02 -0.10089693858E+03  0.12722589667E+03  0.00000000000E+00 0.  1.
         14    1    3    3    0    0 -0.46466585672E+02 -0.65155335881E+01 -0.13079359685E+02  0.48710013465E+02  0.00000000000E+00 0. -1.
         11    1    5    5    0    0 -0.42675670828E+01 -0.93284121639E+01  0.12801785882E+04  0.12802196878E+04  0.00000000000E+00 0. -1.
        -12    1    5    5    0    0 -0.21665430311E+02  0.86274921028E+01  0.10829647159E+03  0.11077883484E+03  0.00000000000E+00 0.  1.
          5    1    4    4  501    0  0.10187791622E+03  0.20916963035E+02  0.27885956626E+02  0.10775772887E+03  0.41800000000E+01 0.  1.
         -5    1    4    4    0  501  0.20725742366E+02 -0.72741066380E+02  0.50376105968E+02  0.90972762887E+02  0.41800000000E+01 0.  1.
</event>
<event>
11    1  0.8037748E-009  0.1306748E+03  0.7561462E-02  0.1118443E+00
         22   -1    0    0    0    0  0.00000000000E+00  0.00000000000E+00  0.12542070802E+04  0.12542070802E+04  0.00000000000E+00 0.  1.
         22   -1    0    0    0    0 -0.00000000000E+00 -0.00000000000E+00 -0.12668714348E+03  0.12668714348E+03  0.00000000000E+00 0. -1.
        -24    2    1    2    0    0  0.12380057057E+02  0.34868905311E+02 -0.86211116136E+02  0.13613507704E+03  0.98647332885E+02 0.  0.
         25    2    1    2    0    0 -0.36546181376E+02 -0.38129355232E+02  0.32589480409E+03  0.35305005509E+03  0.12508975564E+03 0.  0.
         24    2    1    2    0    0  0.24166124319E+02  0.32604499210E+01  0.88783624876E+03  0.89170909154E+03  0.79355322498E+02 0.  0.
        -13    1    5    5    0    0  0.23557121904E+02  0.26717368733E+02  0.80000126977E+03  0.80079384826E+03  0.00000000000E+00 0.  1.
         14    1    5    5    0    0  0.60900241422E+00 -0.23456918812E+02  0.87834978995E+02  0.90915243272E+02  0.00000000000E+00 0. -1.
         11    1    3    3    0    0  0.23548180942E+02  0.21207396305E+02 -0.10540315687E+03  0.11006405391E+03  0.00000000000E+00 0. -1.
        -12    1    3    3    0    0 -0.11168123885E+02  0.13661509007E+02  0.19192040739E+02  0.26071023132E+02  0.00000000000E+00 0.  1.
          5    1    4    4  501    0 -0.27384516809E+02  0.35372407053E+02  0.21488664445E+03  0.21953328063E+03  0.41800000000E+01 0.  1.
         -5    1    4    4    0  501 -0.91616645663E+01 -0.73501762286E+02  0.11100815963E+03  0.13351677446E+03  0.41800000000E+01 0.  1.
</event>
<event>
11    1  0.8037748E-009  0.1613983E+03  0.7561462E-02  0.1085769E+00
         22   -1    0    0    0    0  0.00000000000E+00  0.00000000000E+00  0.28388501579E+04  0.28388501579E+04  0.00000000000E+00 0.  1.
         22   -1    0    0    0    0 -0.00000000000E+00 -0.00000000000E+00 -0.21312016093E+03  0.21312016093E+03  0.00000000000E+00 0.  1.
        -24    2    1    2    0    0  0.23609989979E+02  0.90110068141E+00 -0.18545280393E+03  0.20261683532E+03  0.78119113287E+02 0.  0.
         25    2    1    2    0    0 -0.12360768732E+03 -0.65635158315E+01  0.42206690314E+03  0.45728659526E+03  0.12509444183E+03 0.  0.
         24    2    1    2    0    0  0.99997697342E+02  0.56624151501E+01  0.23891158977E+04  0.23920668882E+04  0.63856264192E+02 0.  0.
        -11    1    5    5    0    0  0.45772660778E+02 -0.27905693215E+02  0.91114535436E+03  0.91272105320E+03  0.00000000000E+00 0.  1.
         12    1    5    5    0    0  0.54225036564E+02  0.33568108365E+02  0.14779705434E+04  0.14793458350E+04  0.00000000000E+00 0. -1.
         11    1    3    3    0    0 -0.25657314410E+02  0.15228332467E+02 -0.78939796249E+02  0.84390113902E+02  0.00000000000E+00 0. -1.
        -12    1    3    3    0    0  0.49267304389E+02 -0.14327231785E+02 -0.10651300768E+03  0.11822672142E+03  0.00000000000E+00 0.  1.
          5    1    4    4  501    0  0.13007650805E+02 -0.13571614130E+02  0.74203331700E+01  0.20637864083E+02  0.41800000000E+01 0.  1.
         -5    1    4    4    0  501 -0.13661533813E+03  0.70080982984E+01  0.41464656997E+03  0.43664873118E+03  0.41800000000E+01 0.  1.
</event>
<event>
11    1  0.8037748E-009  0.1270728E+03  0.7561462E-02  0.1122919E+00
         22   -1    0    0    0    0  0.00000000000E+00  0.00000000000E+00  0.60240203093E+02  0.60240203093E+02  0.00000000000E+00 0.  1.
         22   -1    0    0    0    0 -0.00000000000E+00 -0.00000000000E+00 -0.18367951743E+04  0.18367951743E+04  0.00000000000E+00 0.  1.
        -24    2    1    2    0    0 -0.10317320161E+02 -0.20521823322E+02 -0.12024784474E+04  0.12056289735E+04  0.84019123087E+02 0.  0.
         25    2    1    2    0    0 -0.19460516804E+02  0.27588126189E+02 -0.58895953806E+03  0.60304316957E+03  0.12509160835E+03 0.  0.
         24    2    1    2    0    0  0.29777836965E+02 -0.70663028673E+01  0.14883014259E+02  0.88363234272E+02  0.81546948729E+02 0.  0.
        -11    1    5    5    0    0  0.38130119615E+02  0.12606025394E+02  0.39109697426E+02  0.56056991810E+02  0.00000000000E+00 0.  1.
         12    1    5    5    0    0 -0.83522826500E+01 -0.19672328262E+02 -0.24226683167E+02  0.32306242462E+02  0.00000000000E+00 0. -1.
         11    1    3    3    0    0 -0.86166578775E+01  0.13964365005E+02 -0.49803450754E+02  0.52436952523E+02  0.00000000000E+00 0. -1.
        -12    1    3    3    0    0 -0.17006622836E+01 -0.34486188326E+02 -0.11526749967E+04  0.11531920210E+04  0.00000000000E+00 0.  1.
          5    1    4    4  501    0  0.18149012709E+02  0.69131066868E+02 -0.27958255000E+03  0.28860416790E+03  0.41800000000E+01 0.  1.
         -5    1    4    4    0  501 -0.37609529513E+02 -0.41542940679E+02 -0.30937698806E+03  0.31443900167E+03  0.41800000000E+01 0.  1.
</event>
<event>
11    1  0.8037748E-009  0.1331879E+03  0.7561462E-02  0.1115413E+00
         22   -1    0    0    0    0  0.00000000000E+00  0.00000000000E+00  0.17786422081E+04  0.17786422081E+04  0.00000000000E+00 0. -1.
         22   -1    0    0    0    0 -0.00000000000E+00 -0.00000000000E+00 -0.71402419810E+03  0.71402419810E+03  0.00000000000E+00 0.  1.
         24    2    1    2    0    0  0.32618175271E+02 -0.33699067883E+02 -0.66117037820E+03  0.66810381700E+03  0.83766752054E+02 0.  0.
         25    2    1    2    0    0 -0.26696372532E+02 -0.22164954441E+01  0.36634610188E+02  0.13306869362E+03  0.12509026101E+03 0.  0.
        -24    2    1    2    0    0 -0.59218027387E+01  0.35915563327E+02  0.16891537780E+04  0.16914938956E+04  0.81154898537E+02 0.  0.
        -13    1    3    3    0    0  0.45508824064E+02  0.31153079976E+00 -0.18382269636E+03  0.18937247375E+03  0.00000000000E+00 0.  1.
         14    1    3    3    0    0 -0.12890648793E+02 -0.34010598683E+02 -0.47734768184E+03  0.47873134325E+03  0.00000000000E+00 0. -1.
         11    1    5    5    0    0 -0.21506843671E+02 -0.18244056296E+02  0.83918337886E+03  0.83965715222E+03  0.00000000000E+00 0. -1.
        -12    1    5    5    0    0  0.15585040932E+02  0.54159619623E+02  0.84997039916E+03  0.85183674337E+03  0.00000000000E+00 0.  1.
          5    1    4    4  501    0 -0.48543963391E+02  0.45296712559E+02  0.44474943543E+02  0.80023756182E+02  0.41800000000E+01 0.  1.
         -5    1    4    4    0  501  0.21847590859E+02 -0.47513208003E+02 -0.78403333552E+01  0.53044937441E+02  0.41800000000E+01 0.  1.
</event>
<event>
11    1  0.8037748E-009  0.1531731E+03  0.7561462E-02  0.1093680E+00
         22   -1    0    0    0    0  0.00000000000E+00  0.00000000000E+00  0.17283477740E+03  0.17283477740E+03  0.00000000000E+00 0.  1.
         22   -1    0    0    0    0 -0.00000000000E+00 -0.00000000000E+00 -0.36114395790E+03  0.36114395790E+03  0.00000000000E+00 0. -1.
         24    2    1    2    0    0 -0.53130714589E+02  0.38011673709E+01 -0.21394887027E+03  0.23452343090E+03  0.79936217355E+02 0.  0.
         25    2    1    2    0    0 -0.29665665156E+02 -0.58805791953E+02 -0.49630083059E+02  0.14982969307E+03  0.12509044298E+03 0.  0.
        -24    2    1    2    0    0  0.82796379745E+02  0.55004624582E+02  0.75269772829E+02  0.14962561132E+03  0.82713575899E+02 0.  0.
        -13    1    3    3    0    0 -0.19329756038E+02  0.12342790215E+02 -0.60462895580E+01  0.23717958517E+02  0.00000000000E+00 0.  1.
         14    1    3    3    0    0 -0.33800958551E+02 -0.85416228440E+01 -0.20790258072E+03  0.21080547239E+03  0.00000000000E+00 0. -1.
         11    1    5    5    0    0 -0.18838740546E+01  0.24237179919E+02 -0.93265236850E+01  0.26037932251E+02  0.00000000000E+00 0. -1.
        -12    1    5    5    0    0  0.84680253800E+02  0.30767444664E+02  0.84596296514E+02  0.12358767907E+03  0.00000000000E+00 0.  1.
          5    1    4    4  501    0  0.23773669147E+02  0.12593811469E+02  0.22287806905E+02  0.35185368673E+02  0.41800000000E+01 0.  1.
         -5    1    4    4    0  501 -0.53439334302E+02 -0.71399603422E+02 -0.71917889964E+02  0.11464432440E+03  0.41800000000E+01 0.  1.
</event>
<event>
11    1  0.8037748E-009  0.1540597E+03  0.7561462E-02  0.1092801E+00
         22   -1    0    0    0    0  0.00000000000E+00  0.00000000000E+00  0.12414259629E+04  0.12414259629E+04  0.00000000000E+00 0.  1.
         22   -1    0    0    0    0 -0.00000000000E+00 -0.00000000000E+00 -0.10329678309E+03  0.10329678309E+03  0.00000000000E+00 0.  1.
         24    2    1    2    0    0 -0.10749665123E+01  0.96802339713E+01 -0.50575624600E+02  0.98476963766E+02  0.83934236794E+02 0.  0.
         25    2    1    2    0    0 -0.70151631960E+02  0.46533910871E+02  0.19827553965E+03  0.24908801038E+03  0.12507993829E+03 0.  0.
        -24    2    1    2    0    0  0.71226598472E+02 -0.56214144842E+02  0.99042926479E+03  0.99715777187E+03  0.71695432467E+02 0.  0.
        -13    1    3    3    0    0  0.73999322242E+01 -0.95066968986E+01 -0.69312487494E+02  0.70351668107E+02  0.00000000000E+00 0.  1.
         14    1    3    3    0    0 -0.84748987365E+01  0.19186930870E+02  0.18736862894E+02  0.28125295659E+02  0.00000000000E+00 0. -1.
         13    1    5    5    0    0  0.14456132692E+02 -0.40242620488E+02  0.19940900903E+03  0.20394215150E+03  0.00000000000E+00 0. -1.
        -14    1    5    5    0    0  0.56770465780E+02 -0.15971524354E+02  0.79102025576E+03  0.79321562037E+03  0.00000000000E+00 0.  1.
          5    1    4    4  501    0 -0.34645150175E+02 -0.17463969176E+02  0.16323937302E+03  0.16783873794E+03  0.41800000000E+01 0. -1.
         -5    1    4    4    0  501 -0.35506481785E+02  0.63997880047E+02  0.35036166629E+02  0.81249272436E+02  0.41800000000E+01 0. -1.
</event>
<event>
11    1  0.8037748E-009  0.1322846E+03  0.7561462E-02  0.1116493E+00
         22   -1    0    0    0    0  0.00000000000E+00  0.00000000000E+00  0.99305064678E+03  0.99305064678E+03  0.00000000000E+00 0. -1.
         22   -1    0    0    0    0 -0.00000000000E+00 -0.00000000000E+00 -0.29481792861E+03  0.29481792861E+03  0.00000000000E+00 0. -1.
         24    2    1    2    0    0  0.42156009836E+02 -0.10314857381E+02 -0.26991287618E+03  0.28498106211E+03  0.80484281607E+02 0.  0.
         25    2    1    2    0    0 -0.36643948880E+02 -0.37600325833E+02  0.30841204133E+03  0.33693053882E+03  0.12509051627E+03 0.  0.
        -24    2    1    2    0    0 -0.55120609557E+01  0.47915183215E+02  0.65973355303E+03  0.66595697446E+03  0.76968066355E+02 0.  0.
        -13    1    3    3    0    0  0.17078828885E+02 -0.78198199520E+01 -0.57862871941E+01  0.19654951022E+02  0.00000000000E+00 0.  1.
         14    1    3    3    0    0  0.25077180950E+02 -0.24950374293E+01 -0.26412658899E+03  0.26532611109E+03  0.00000000000E+00 0. -1.
         11    1    5    5    0    0  0.18298243339E+02  0.39243098283E+02  0.59292742924E+03  0.59450633539E+03  0.00000000000E+00 0. -1.
        -12    1    5    5    0    0 -0.23810304295E+02  0.86720849317E+01  0.66806123785E+02  0.71450639065E+02  0.00000000000E+00 0.  1.
          5    1    4    4  501    0 -0.54717924921E+02  0.20403726455E+02  0.71995034885E+02  0.92796124967E+02  0.41800000000E+01 0. -1.
         -5    1    4    4    0  501  0.18073976041E+02 -0.58004052288E+02  0.23641700645E+03  0.24413441386E+03  0.41800000000E+01 0. -1.
</event>
<event>
11    1  0.8037748E-009  0.1438795E+03  0.7561462E-02  0.1103302E+00
         22   -1    0    0    0    0  0.00000000000E+00  0.00000000000E+00  0.21165651669E+04  0.21165651669E+04  0.00000000000E+00 0.  1.
         22   -1    0    0    0    0 -0.00000000000E+00 -0.00000000000E+00 -0.12004270734E+03  0.12004270734E+03  0.00000000000E+00 0. -1.
         24    2    1    2    0    0 -0.34282895886E+02 -0.48408714550E+02 -0.87914102301E+02  0.12939919908E+03  0.74138672393E+02 0.  0.
         25    2    1    2    0    0  0.99501438396E+02  0.40601416365E+02  0.71110578717E+03  0.72997790886E+03  0.12508915070E+03 0.  0.
        -24    2    1    2    0    0 -0.65218542510E+02  0.78072981855E+01  0.13733307747E+04  0.13772307663E+04  0.80079677514E+02 0.  0.
        -13    1    3    3    0    0 -0.50633730050E+02 -0.47358462123E+02 -0.42980496175E+02  0.81571573510E+02  0.00000000000E+00 0.  1.
         14    1    3    3    0    0  0.16350834165E+02 -0.10502524274E+01 -0.44933606126E+02  0.47827625569E+02  0.00000000000E+00 0. -1.
         11    1    5    5    0    0 -0.14655715720E+02  0.40682219827E+02  0.58685063873E+03  0.58844159030E+03  0.00000000000E+00 0. -1.
        -12    1    5    5    0    0 -0.50562826790E+02 -0.32874921641E+02  0.78648013595E+03  0.78878917600E+03  0.00000000000E+00 0.  1.
          5    1    4    4  501    0  0.11590247468E+03  0.15449123769E+02  0.66205641429E+03  0.67231557112E+03  0.41800000000E+01 0.  1.
         -5    1    4    4    0  501 -0.16401036287E+02  0.25152292596E+02  0.49049372885E+02  0.57662337748E+02  0.41800000000E+01 0.  1.
</event>
<event>
11    1  0.8037748E-009  0.1420317E+03  0.7561462E-02  0.1105311E+00
         22   -1    0    0    0    0  0.00000000000E+00  0.00000000000E+00  0.45625523545E+03  0.45625523545E+03  0.00000000000E+00 0.  1.
         22   -1    0    0    0    0 -0.00000000000E+00 -0.00000000000E+00 -0.49628211546E+03  0.49628211546E+03  0.00000000000E+00 0. -1.
        -24    2    1    2    0    0 -0.16582810187E+02  0.67608345971E+02 -0.40427567049E+03  0.41842589433E+03  0.82435024494E+02 0.  0.
         25    2    1    2    0    0  0.48382620843E+02 -0.35440180657E+02 -0.18957685708E+02  0.14002082352E+03  0.12509817252E+03 0.  0.
         24    2    1    2    0    0 -0.31799810656E+02 -0.32168165314E+02  0.38320647619E+03  0.39409063305E+03  0.80088731076E+02 0.  0.
        -11    1    5    5    0    0 -0.19964090878E+02 -0.56072554477E+02  0.31996509623E+03  0.32545408139E+03  0.00000000000E+00 0.  1.
         12    1    5    5    0    0 -0.11835719778E+02  0.23904389163E+02  0.63241379962E+02  0.68636551657E+02  0.00000000000E+00 0. -1.
         11    1    3    3    0    0 -0.84020186460E+01  0.16478207650E+01 -0.25356726037E+03  0.25371177498E+03  0.00000000000E+00 0. -1.
        -12    1    3    3    0    0 -0.81807915415E+01  0.65960525206E+02 -0.15070841012E+03  0.16471411936E+03  0.00000000000E+00 0.  1.
          5    1    4    4  501    0 -0.12778044506E+02  0.27468079188E+02 -0.39359997889E+02  0.49844313913E+02  0.41800000000E+01 0.  1.
         -5    1    4    4    0  501  0.61160665349E+02 -0.62908259845E+02  0.20402312180E+02  0.90176509607E+02  0.41800000000E+01 0.  1.
</event>
<event>
11    1  0.8037748E-009  0.1883025E+03  0.7561462E-02  0.1063118E+00
         22   -1    0    0    0    0  0.00000000000E+00  0.00000000000E+00  0.71912181538E+03  0.71912181538E+03  0.00000000000E+00 0.  1.
         22   -1    0    0    0    0 -0.00000000000E+00 -0.00000000000E+00 -0.21522995465E+03  0.21522995465E+03  0.00000000000E+00 0. -1.
        -24    2    1    2    0    0 -0.41232236715E+02  0.17395910776E+01 -0.44596005689E+02  0.98611326728E+02  0.77667667108E+02 0.  0.
         25    2    1    2    0    0  0.13078950679E+03 -0.10760135230E+03 -0.49677407188E+02  0.21633235897E+03  0.12509156106E+03 0.  0.
         24    2    1    2    0    0 -0.89557270074E+02  0.10586176122E+03  0.59816527361E+03  0.61940808434E+03  0.81470628310E+02 0.  0.
        -11    1    5    5    0    0 -0.96229016393E+02  0.60303386133E+02  0.38916796990E+03  0.40539885393E+03  0.00000000000E+00 0.  1.
         12    1    5    5    0    0  0.66717463186E+01  0.45558375088E+02  0.20899730371E+03  0.21400923040E+03  0.00000000000E+00 0. -1.
         11    1    3    3    0    0 -0.40574409124E+01 -0.26764690726E+02 -0.44121264326E+02  0.51763862512E+02  0.00000000000E+00 0. -1.
        -12    1    3    3    0    0 -0.37174795803E+02  0.28504281804E+02 -0.47474136362E+00  0.46847464216E+02  0.00000000000E+00 0.  1.
          5    1    4    4  501    0  0.15386310659E+03 -0.83829857171E+02 -0.52117709183E+02  0.18285247751E+03  0.41800000000E+01 0. -1.
         -5    1    4    4    0  501 -0.23073599799E+02 -0.23771495128E+02  0.24403019945E+01  0.33479881453E+02  0.41800000000E+01 0. -1.
</event>
<event>
11    1  0.8037748E-009  0.1442600E+03  0.7561462E-02  0.1102892E+00
         22   -1    0    0    0    0  0.00000000000E+00  0.00000000000E+00  0.45723129368E+03  0.45723129368E+03  0.00000000000E+00 0.  1.
         22   -1    0    0    0    0 -0.00000000000E+00 -0.00000000000E+00 -0.45211797114E+03  0.45211797114E+03  0.00000000000E+00 0. -1.
        -24    2    1    2    0    0 -0.40050176752E+02  0.94548353067E+01 -0.37274189859E+03  0.38372783588E+03  0.81345672879E+02 0.  0.
         25    2    1    2    0    0  0.58325954379E+02 -0.76844381126E+02  0.27169298481E+02  0.16028946164E+03  0.12509022691E+03 0.  0.
         24    2    1    2    0    0 -0.18275777627E+02  0.67389545819E+02  0.35068592264E+03  0.36533196731E+03  0.74909779507E+02 0.  0.
        -13    1    5    5    0    0 -0.32579047160E+01  0.67514545430E+02  0.34059735620E+03  0.34723966772E+03  0.00000000000E+00 0.  1.
         14    1    5    5    0    0 -0.15017872911E+02 -0.12499961097E+00  0.10088566446E+02  0.18092299594E+02  0.00000000000E+00 0. -1.
         11    1    3    3    0    0  0.43374674443E+01  0.13341418246E+02 -0.28476999659E+03  0.28511534161E+03  0.00000000000E+00 0. -1.
        -12    1    3    3    0    0 -0.44387644197E+02 -0.38865829390E+01 -0.87971901999E+02  0.98612494268E+02  0.00000000000E+00 0.  1.
          5    1    4    4  501    0  0.72754582730E+02 -0.53544097542E+02 -0.31207832105E+02  0.95663999887E+02  0.41800000000E+01 0.  1.
         -5    1    4    4    0  501 -0.14428628350E+02 -0.23300283584E+02  0.58377130586E+02  0.64625461752E+02  0.41800000000E+01 0.  1.
</event>
<event>
11    1  0.8037748E-009  0.1561948E+03  0.7561462E-02  0.1090712E+00
         22   -1    0    0    0    0  0.00000000000E+00  0.00000000000E+00  0.12711562395E+04  0.12711562395E+04  0.00000000000E+00 0.  1.
         22   -1    0    0    0    0 -0.00000000000E+00 -0.00000000000E+00 -0.19458905127E+03  0.19458905127E+03  0.00000000000E+00 0.  1.
         24    2    1    2    0    0 -0.92288982855E+02  0.15492833083E+02 -0.14415792073E+03  0.19006567999E+03  0.81155236223E+02 0.  0.
         25    2    1    2    0    0  0.10187186389E+03  0.57623842871E+02  0.28584660627E+03  0.33324851256E+03  0.12509158601E+03 0.  0.
        -24    2    1    2    0    0 -0.95828810351E+01 -0.73116675954E+02  0.93487850268E+03  0.94243109821E+03  0.93491604870E+02 0.  0.
        -13    1    3    3    0    0 -0.64655379489E+02 -0.28770129261E+02 -0.71380995843E+02  0.10051509838E+03  0.00000000000E+00 0.  1.
         14    1    3    3    0    0 -0.27633603367E+02  0.44262962344E+02 -0.72776924885E+02  0.89550581607E+02  0.00000000000E+00 0. -1.
         11    1    5    5    0    0 -0.17631532653E+02  0.15969035488E+02  0.34388293634E+03  0.34470473589E+03  0.00000000000E+00 0. -1.
        -12    1    5    5    0    0  0.80486516184E+01 -0.89085711441E+02  0.59099556634E+03  0.59772636232E+03  0.00000000000E+00 0.  1.
          5    1    4    4  501    0  0.85308813450E+02  0.48419730981E+02  0.80435232762E+02  0.12692266571E+03  0.41800000000E+01 0.  1.
         -5    1    4    4    0  501  0.16563050440E+02  0.92041118899E+01  0.20541137350E+03  0.20632584685E+03  0.41800000000E+01 0.  1.
</event>
<event>
11    1  0.8037748E-009  0.1984429E+03  0.7561462E-02  0.1055630E+00
         22   -1    0    0    0    0  0.00000000000E+00  0.00000000000E+00  0.82572346222E+03  0.82572346222E+03  0.00000000000E+00 0.  1.
         22   -1    0    0    0    0 -0.00000000000E+00 -0.00000000000E+00 -0.12804021926E+04  0.12804021926E+04  0.00000000000E+00 0.  1.
         24    2    1    2    0    0  0.26735332267E+02  0.51674375342E+02 -0.10071437832E+04  0.10118801506E+04  0.78599109805E+02 0.  0.
         25    2    1    2    0    0 -0.26826919331E+01 -0.20213120565E+03 -0.20714313613E+03  0.31531454783E+03  0.12510301393E+03 0.  0.
        -24    2    1    2    0    0 -0.24052640334E+02  0.15045683031E+03  0.75960818894E+03  0.77893095641E+03  0.80703450107E+02 0.  0.
        -11    1    3    3    0    0  0.42874566911E+02  0.59199338301E+02 -0.92207193067E+03  0.92496455903E+03  0.00000000000E+00 0.  1.
         12    1    3    3    0    0 -0.16139234644E+02 -0.75249629588E+01 -0.85071852540E+02  0.86915591565E+02  0.00000000000E+00 0. -1.
         13    1    5    5    0    0 -0.27851328065E+02  0.31136420741E+02  0.96380215493E+02  0.10504436734E+03  0.00000000000E+00 0. -1.
        -14    1    5    5    0    0  0.37986877311E+01  0.11932040957E+03  0.66322797345E+03  0.67388658907E+03  0.00000000000E+00 0.  1.
          5    1    4    4  501    0 -0.33642855387E+02 -0.15517397227E+02 -0.36735919006E+01  0.37464636829E+02  0.41800000000E+01 0.  1.
         -5    1    4    4    0  501  0.30960163454E+02 -0.18661380842E+03 -0.20346954423E+03  0.27784991100E+03  0.41800000000E+01 0.  1.
</event>
<event>
11    1  0.8037748E-009  0.1463008E+03  0.7561462E-02  0.1100720E+00
         22   -1    0    0    0    0  0.00000000000E+00  0.00000000000E+00  0.59393390064E+03  0.59393390064E+03  0.00000000000E+00 0. -1.
         22   -1    0    0    0    0 -0.00000000000E+00 -0.00000000000E+00 -0.39495916131E+03  0.39495916131E+03  0.00000000000E+00 0. -1.
        -24    2    1    2    0    0 -0.38734779847E+02 -0.62771310687E+02 -0.32090444735E+03  0.33867838799E+03  0.79263898135E+02 0.  0.
         25    2    1    2    0    0  0.14270387424E+02  0.11220816337E+03  0.58030803563E+02  0.17835028274E+03  0.12508770246E+03 0.  0.
         24    2    1    2    0    0  0.24464392423E+02 -0.49436852684E+02  0.46184838312E+03  0.47186439122E+03  0.79432775434E+02 0.  0.
        -13    1    5    5    0    0  0.81444924917E+01  0.57916476275E+01  0.45964643230E+01  0.11000155656E+02  0.00000000000E+00 0.  1.
         14    1    5    5    0    0  0.16319899931E+02 -0.55228500311E+02  0.45725191880E+03  0.46086423557E+03  0.00000000000E+00 0. -1.
         11    1    3    3    0    0  0.18293075598E+02 -0.72503257743E+01 -0.13537164200E+03  0.13679431748E+03  0.00000000000E+00 0. -1.
        -12    1    3    3    0    0 -0.57027855445E+02 -0.55520984913E+02 -0.18553280535E+03  0.20188407050E+03  0.00000000000E+00 0.  1.
          5    1    4    4  501    0 -0.34269384596E+02  0.46031985225E+02 -0.23903121427E+02  0.62307030087E+02  0.41800000000E+01 0. -1.
         -5    1    4    4    0  501  0.48539772020E+02  0.66176178146E+02  0.81933924990E+02  0.11604325265E+03  0.41800000000E+01 0. -1.
</event>
<event>
11    1  0.8037748E-009  0.2064061E+03  0.7561462E-02  0.1050084E+00
         22   -1    0    0    0    0  0.00000000000E+00  0.00000000000E+00  0.18161503954E+04  0.18161503954E+04  0.00000000000E+00 0.  1.
         22   -1    0    0    0    0 -0.00000000000E+00 -0.00000000000E+00 -0.13698695294E+03  0.13698695294E+03  0.00000000000E+00 0. -1.
        -24    2    1    2    0    0 -0.14388743144E+02 -0.27748907373E+02 -0.52401830765E+02  0.97827637159E+02  0.76467358624E+02 0.  0.
         25    2    1    2    0    0  0.47877533350E+02 -0.13507793803E+03  0.10315531585E+03  0.21639534883E+03  0.12509044835E+03 0.  0.
         24    2    1    2    0    0 -0.33488790206E+02  0.16282684540E+03  0.16284099574E+04  0.16389143624E+04  0.81775406850E+02 0.  0.
        -11    1    5    5    0    0 -0.31411005056E+01  0.97487622945E+02  0.12435600616E+04  0.12473793849E+04  0.00000000000E+00 0.  1.
         12    1    5    5    0    0 -0.30347689701E+02  0.65339222458E+02  0.38484989583E+03  0.39153497747E+03  0.00000000000E+00 0. -1.
         13    1    3    3    0    0  0.28993108212E+02  0.27572895035E+01 -0.23546126020E+02  0.37451609041E+02  0.00000000000E+00 0. -1.
        -14    1    3    3    0    0 -0.43381851356E+02 -0.30506196876E+02 -0.28855704745E+02  0.60376028118E+02  0.00000000000E+00 0.  1.
          5    1    4    4  501    0  0.62337069611E+02 -0.49041906346E+02 -0.23087132412E+01  0.79459558158E+02  0.41800000000E+01 0.  1.
         -5    1    4    4    0  501 -0.14459536261E+02 -0.86036031685E+02  0.10546402909E+03  0.13693579068E+03  0.41800000000E+01 0.  1.
</event>
<event>
11    1  0.8037748E-009  0.1428610E+03  0.7561462E-02  0.1104405E+00
         22   -1    0    0    0    0  0.00000000000E+00  0.00000000000E+00  0.16105108036E+04  0.16105108036E+04  0.00000000000E+00 0.  1.
         22   -1    0    0    0    0 -0.00000000000E+00 -0.00000000000E+00 -0.64931548569E+03  0.64931548569E+03  0.00000000000E+00 0. -1.
        -24    2    1    2    0    0 -0.54632478895E+02  0.40017896327E+02 -0.60182492649E+03  0.61095753876E+03  0.80558874355E+02 0.  0.
         25    2    1    2    0    0  0.10268013710E+03 -0.64085154075E+02  0.14240838719E+03  0.22489459652E+03  0.12508922125E+03 0.  0.
         24    2    1    2    0    0 -0.48047658204E+02  0.24067257748E+02  0.14206118572E+04  0.14239741540E+04  0.81710048760E+02 0.  0.
        -11    1    5    5    0    0 -0.56557988327E+02  0.78338197655E+01  0.13435430146E+04  0.13447557425E+04  0.00000000000E+00 0.  1.
         12    1    5    5    0    0  0.85103301225E+01  0.16233437982E+02  0.77068842617E+02  0.79218411559E+02  0.00000000000E+00 0. -1.
         13    1    3    3    0    0 -0.69108043875E+02  0.14218754842E+02 -0.49894308959E+03  0.50390703643E+03  0.00000000000E+00 0. -1.
        -14    1    3    3    0    0  0.14475564980E+02  0.25799141485E+02 -0.10288183690E+03  0.10705050232E+03  0.00000000000E+00 0.  1.
          5    1    4    4  501    0  0.30142439284E+02  0.24950473618E+02 -0.31052311058E+01  0.39474138875E+02  0.41800000000E+01 0.  1.
         -5    1    4    4    0  501  0.72537697815E+02 -0.89035627692E+02  0.14551361830E+03  0.18542045765E+03  0.41800000000E+01 0.  1.
</event>
<event>
11    1  0.8037748E-009  0.2073142E+03  0.7561462E-02  0.1049469E+00
         22   -1    0    0    0    0  0.00000000000E+00  0.00000000000E+00  0.12401723116E+04  0.12401723116E+04  0.00000000000E+00 0.  1.
         22   -1    0    0    0    0 -0.00000000000E+00 -0.00000000000E+00 -0.35652434654E+03  0.35652434654E+03  0.00000000000E+00 0.  1.
         24    2    1    2    0    0 -0.22697246698E+02  0.16418682770E+03 -0.28647173181E+03  0.33987213522E+03  0.77295121303E+02 0.  0.
         25    2    1    2    0    0 -0.96354595266E+02 -0.17138672898E+03  0.32772398096E+03  0.40212992435E+03  0.12509136446E+03 0.  0.
        -24    2    1    2    0    0  0.11905184196E+03  0.71999012885E+01  0.84239571589E+03  0.85469459854E+03  0.81529963585E+02 0.  0.
        -13    1    3    3    0    0 -0.10240453776E+02  0.11507355711E+03 -0.25571068837E+03  0.28059712505E+03  0.00000000000E+00 0.  1.
         14    1    3    3    0    0 -0.12456792922E+02  0.49113270588E+02 -0.30761043446E+02  0.59275010178E+02  0.00000000000E+00 0. -1.
         11    1    5    5    0    0  0.39610657808E+02 -0.99247015813E+01  0.10227550406E+03  0.11012621234E+03  0.00000000000E+00 0. -1.
        -12    1    5    5    0    0  0.79441184156E+02  0.17124602870E+02  0.74012021183E+03  0.74456838620E+03  0.00000000000E+00 0.  1.
          5    1    4    4  501    0 -0.74563166911E+02 -0.16953970279E+03  0.33129971840E+03  0.37957917816E+03  0.41800000000E+01 0.  1.
         -5    1    4    4    0  501 -0.21791428355E+02 -0.18470261938E+01 -0.35757374396E+01  0.22550746191E+02  0.41800000000E+01 0.  1.
</event>
<event>
11    1  0.8037748E-009  0.1766620E+03  0.7561462E-02  0.1072375E+00
         22   -1    0    0    0    0  0.00000000000E+00  0.00000000000E+00  0.42892473403E+03  0.42892473403E+03  0.00000000000E+00 0.  1.
         22   -1    0    0    0    0 -0.00000000000E+00 -0.00000000000E+00 -0.19268650164E+04  0.19268650164E+04  0.00000000000E+00 0. -1.
        -24    2    1    2    0    0 -0.43391558055E+02 -0.48345558431E+02 -0.16021566894E+04  0.16054989114E+04  0.80626155250E+02 0.  0.
         25    2    1    2    0    0  0.15147817506E+03  0.10550717888E+03 -0.26982550453E+03  0.35004417547E+03  0.12509084528E+03 0.  0.
         24    2    1    2    0    0 -0.10808661701E+03 -0.57161620444E+02  0.37404191151E+03  0.40024666357E+03  0.73074431227E+02 0.  0.
        -11    1    5    5    0    0 -0.10486620553E+03 -0.47170290642E+02  0.37224028829E+03  0.38959567453E+03  0.00000000000E+00 0.  1.
         12    1    5    5    0    0 -0.32204114779E+01 -0.99913298019E+01  0.18016232210E+01  0.10650989040E+02  0.00000000000E+00 0. -1.
         11    1    3    3    0    0 -0.47082197291E+01 -0.47383049528E+02 -0.13003778562E+04  0.13012493572E+04  0.00000000000E+00 0. -1.
        -12    1    3    3    0    0 -0.38683338326E+02 -0.96250890277E+00 -0.30177883322E+03  0.30424955426E+03  0.00000000000E+00 0.  1.
          5    1    4    4  501    0 -0.21550031515E+02  0.15798139745E+02 -0.44680931542E+02  0.52228757607E+02  0.41800000000E+01 0. -1.
         -5    1    4    4    0  501  0.17302820658E+03  0.89709039130E+02 -0.22514457298E+03  0.29781541786E+03  0.41800000000E+01 0. -1.
</event>
<event>
11    1  0.8037748E-009  0.1387933E+03  0.7561462E-02  0.1108913E+00
         22   -1    0    0    0    0  0.00000000000E+00  0.00000000000E+00  0.42906112228E+03  0.42906112228E+03  0.00000000000E+00 0.  1.
         22   -1    0    0    0    0 -0.00000000000E+00 -0.00000000000E+00 -0.42737481418E+03  0.42737481418E+03  0.00000000000E+00 0. -1.
         24    2    1    2    0    0  0.42318804156E+02 -0.14872011123E+02 -0.37632978325E+03  0.38813924915E+03  0.83761047423E+02 0.  0.
         25    2    1    2    0    0 -0.55458944042E+02 -0.44193049997E+02  0.10994775194E+03  0.18101247832E+03  0.12509312135E+03 0.  0.
        -24    2    1    2    0    0  0.13140139887E+02  0.59065061120E+02  0.26806833941E+03  0.28728420900E+03  0.83727160604E+02 0.  0.
        -11    1    3    3    0    0  0.31960955493E+02 -0.33045027898E+02 -0.90143637865E+02  0.10118968323E+03  0.00000000000E+00 0.  1.
         12    1    3    3    0    0  0.10357848662E+02  0.18173016775E+02 -0.28618614539E+03  0.28694956592E+03  0.00000000000E+00 0. -1.
         11    1    5    5    0    0  0.34858466352E+02  0.24848564421E+01  0.50360879559E+02  0.61298494092E+02  0.00000000000E+00 0. -1.
        -12    1    5    5    0    0 -0.21718326465E+02  0.56580204678E+02  0.21770745985E+03  0.22598571491E+03  0.00000000000E+00 0.  1.
          5    1    4    4  501    0  0.24717366496E+02  0.65473530570E+01 -0.10212984637E+02  0.27849479236E+02  0.41800000000E+01 0. -1.
         -5    1    4    4    0  501 -0.80176310538E+02 -0.50740403054E+02  0.12016073657E+03  0.15316299908E+03  0.41800000000E+01 0. -1.
</event>
<event>
11    1  0.8037748E-009  0.2212388E+03  0.7561462E-02  0.1040444E+00
         22   -1    0    0    0    0  0.00000000000E+00  0.00000000000E+00  0.30961045033E+03  0.30961045033E+03  0.00000000000E+00 0. -1.
         22   -1    0    0    0    0 -0.00000000000E+00 -0.00000000000E+00 -0.37991144758E+03  0.37991144758E+03  0.00000000000E+00 0.  1.
         24    2    1    2    0    0 -0.71619307514E+02  0.15652368070E+03 -0.15179743140E+03  0.24270968527E+03  0.78971788072E+02 0.  0.
         25    2    1    2    0    0  0.20713009715E+03 -0.13851205571E+03  0.61157614106E+02  0.28544304291E+03  0.12509600418E+03 0.  0.
        -24    2    1    2    0    0 -0.13551078964E+03 -0.18011624998E+02  0.20338820048E+02  0.16136916974E+03  0.83299151247E+02 0.  0.
        -13    1    3    3    0    0 -0.14116423462E+01  0.97600535540E+02 -0.82490665545E+02  0.12779893260E+03  0.00000000000E+00 0.  1.
         14    1    3    3    0    0 -0.70207665168E+02  0.58923145165E+02 -0.69306765857E+02  0.11491075266E+03  0.00000000000E+00 0. -1.
         13    1    5    5    0    0 -0.14021487209E+03 -0.22067536005E+02  0.19440871048E+01  0.14195409812E+03  0.00000000000E+00 0. -1.
        -14    1    5    5    0    0  0.47040824495E+01  0.40559110069E+01  0.18394732944E+02  0.19415071616E+02  0.00000000000E+00 0.  1.
          5    1    4    4  501    0  0.16965506237E+02 -0.30451512646E+02 -0.32157066990E+02  0.47609582877E+02  0.41800000000E+01 0. -1.
         -5    1    4    4    0  501  0.19016459091E+03 -0.10806054306E+03  0.93314681096E+02  0.23783346003E+03  0.41800000000E+01 0. -1.
</event>
<event>
11    1  0.8037748E-009  0.1302124E+03  0.7561462E-02  0.1119008E+00
         22   -1    0    0    0    0  0.00000000000E+00  0.00000000000E+00  0.36073449167E+02  0.36073449167E+02  0.00000000000E+00 0. -1.
         22   -1    0    0    0    0 -0.00000000000E+00 -0.00000000000E+00 -0.15519902958E+04  0.15519902958E+04  0.00000000000E+00 0.  1.
         24    2    1    2    0    0 -0.42466444299E+00  0.11176919508E+02 -0.10824410149E+04  0.10855473191E+04  0.81297768936E+02 0.  0.
         25    2    1    2    0    0 -0.23319133866E+02 -0.36536147213E+02 -0.37419488061E+03  0.39692406510E+03  0.12509289639E+03 0.  0.
        -24    2    1    2    0    0  0.23743798309E+02  0.25359227705E+02 -0.59280951089E+02  0.10559236080E+03  0.80178906890E+02 0.  0.
        -11    1    3    3    0    0 -0.29562013767E+02 -0.17013641861E+02 -0.72735631686E+03  0.72815560723E+03  0.00000000000E+00 0.  1.
         12    1    3    3    0    0  0.29137349324E+02  0.28190561369E+02 -0.35508469808E+03  0.35739171183E+03  0.00000000000E+00 0. -1.
         13    1    5    5    0    0 -0.16581190859E+02  0.25231678998E+02  0.41013286024E+01  0.30469565335E+02  0.00000000000E+00 0. -1.
        -14    1    5    5    0    0  0.40324989168E+02  0.12754870627E+00 -0.63382279692E+02  0.75122795468E+02  0.00000000000E+00 0.  1.
          5    1    4    4  501    0 -0.30793255684E+02  0.20887344434E+02 -0.30184895464E+03  0.30416240657E+03  0.41800000000E+01 0.  1.
         -5    1    4    4    0  501  0.74741218182E+01 -0.57423491647E+02 -0.72345925968E+02  0.92761658534E+02  0.41800000000E+01 0.  1.
</event>
<event>
11    1  0.8037748E-009  0.1757224E+03  0.7561462E-02  0.1073156E+00
         22   -1    0    0    0    0  0.00000000000E+00  0.00000000000E+00  0.64797098052E+03  0.64797098052E+03  0.00000000000E+00 0.  1.
         22   -1    0    0    0    0 -0.00000000000E+00 -0.00000000000E+00 -0.74026127552E+03  0.74026127552E+03  0.00000000000E+00 0. -1.
        -24    2    1    2    0    0 -0.83986931040E+01 -0.43052300987E+01 -0.67638561796E+03  0.68108197721E+03  0.79284818497E+02 0.  0.
         25    2    1    2    0    0 -0.61209296516E+02  0.10645422919E+03  0.10164054241E+03  0.20262682478E+03  0.12509096437E+03 0.  0.
         24    2    1    2    0    0  0.69607989620E+02 -0.10214899909E+03  0.48245478056E+03  0.50452345405E+03  0.80632562729E+02 0.  0.
        -13    1    5    5    0    0  0.78042630280E+02 -0.10255868958E+03  0.47781123292E+03  0.49488636196E+03  0.00000000000E+00 0.  1.
         14    1    5    5    0    0 -0.84346406605E+01  0.40969048966E+00  0.46435476407E+01  0.96370920957E+01  0.00000000000E+00 0. -1.
         13    1    3    3    0    0 -0.17037979287E+02 -0.30127176489E+02 -0.57690306527E+03  0.57794038292E+03  0.00000000000E+00 0. -1.
        -14    1    3    3    0    0  0.86392861828E+01  0.25821946390E+02 -0.99482552695E+02  0.10314159429E+03  0.00000000000E+00 0.  1.
          5    1    4    4  501    0  0.38632681372E+02  0.33505300292E+02  0.34870225985E+02  0.62036233589E+02  0.41800000000E+01 0. -1.
         -5    1    4    4    0  501 -0.99841977887E+02  0.72948928895E+02  0.66770316421E+02  0.14059059119E+03  0.41800000000E+01 0. -1.
</event>
<event>
11    1  0.8037748E-009  0.2208083E+03  0.7561462E-02  0.1040712E+00
         22   -1    0    0    0    0  0.00000000000E+00  0.00000000000E+00  0.11912331741E+03  0.11912331741E+03  0.00000000000E+00 0. -1.
         22   -1    0    0    0    0 -0.00000000000E+00 -0.00000000000E+00 -0.16135617527E+04  0.16135617527E+04  0.00000000000E+00 0. -1.
         24    2    1    2    0    0  0.65135218557E+00 -0.16200783773E+03 -0.92594860023E+03  0.94427552344E+03  0.89601842346E+02 0.  0.
         25    2    1    2    0    0 -0.44789199094E+01  0.24823589341E+03 -0.60398831576E+03  0.66489889495E+03  0.12509010923E+03 0.  0.
        -24    2    1    2    0    0  0.38275677238E+01 -0.86228055677E+02  0.35498480742E+02  0.12351065168E+03  0.80900006690E+02 0.  0.
        -13    1    3    3    0    0 -0.33811431318E+02 -0.61576840011E+02 -0.51772362091E+03  0.52246786290E+03  0.00000000000E+00 0.  1.
         14    1    3    3    0    0  0.34462783503E+02 -0.10043099772E+03 -0.40822497932E+03  0.42180766054E+03  0.00000000000E+00 0. -1.
         11    1    5    5    0    0 -0.35666444368E+02 -0.55024672053E+02  0.32245573107E+02  0.73072476168E+02  0.00000000000E+00 0. -1.
        -12    1    5    5    0    0  0.39494012092E+02 -0.31203383624E+02  0.32529076352E+01  0.50438175510E+02  0.00000000000E+00 0.  1.
          5    1    4    4  501    0  0.25156995919E+01  0.62990463089E+02 -0.49598744050E+02  0.80322070416E+02  0.41800000000E+01 0.  1.
         -5    1    4    4    0  501 -0.69946195013E+01  0.18524543032E+03 -0.55438957171E+03  0.58457682453E+03  0.41800000000E+01 0.  1.
</event>
<event>
11    1  0.8037748E-009  0.1433868E+03  0.7561462E-02  0.1103834E+00
         22   -1    0    0    0    0  0.00000000000E+00  0.00000000000E+00  0.37712181206E+03  0.37712181206E+03  0.00000000000E+00 0.  1.
         22   -1    0    0    0    0 -0.00000000000E+00 -0.00000000000E+00 -0.69024572824E+03  0.69024572824E+03  0.00000000000E+00 0. -1.
         24    2    1    2    0    0 -0.53627801565E+02  0.38033019826E+02 -0.51073417884E+03  0.52091661540E+03  0.78627393894E+02 0.  0.
         25    2    1    2    0    0 -0.15259732206E+02 -0.13412464874E+02 -0.14175603873E+03  0.19014515685E+03  0.12509057725E+03 0.  0.
        -24    2    1    2    0    0  0.68887533771E+02 -0.24620554952E+02  0.33936630139E+03  0.35630576805E+03  0.80203801622E+02 0.  0.
        -11    1    3    3    0    0 -0.61241879279E+02  0.44078679949E+02 -0.28033101265E+03  0.29030841265E+03  0.00000000000E+00 0.  1.
         12    1    3    3    0    0  0.76140777132E+01 -0.60456601226E+01 -0.23040316619E+03  0.23060820275E+03  0.00000000000E+00 0. -1.
         13    1    5    5    0    0 -0.74564938791E+01 -0.26532333254E+02  0.50678128094E+02  0.57687404830E+02  0.00000000000E+00 0. -1.
        -14    1    5    5    0    0  0.76344027650E+02  0.19117783021E+01  0.28868817329E+03  0.29861836322E+03  0.00000000000E+00 0.  1.
          5    1    4    4  501    0 -0.32743361905E+02  0.50461104986E+02 -0.64203060320E+02  0.88079261008E+02  0.41800000000E+01 0.  1.
         -5    1    4    4    0  501  0.17483629699E+02 -0.63873569860E+02 -0.77552978407E+02  0.10206589584E+03  0.41800000000E+01 0.  1.
</event>
<event>
11    1  0.8037748E-009  0.1655799E+03  0.7561462E-02  0.1081943E+00
         22   -1    0    0    0    0  0.00000000000E+00  0.00000000000E+00  0.68439236347E+03  0.68439236347E+03  0.00000000000E+00 0.  1.
         22   -1    0    0    0    0 -0.00000000000E+00 -0.00000000000E+00 -0.11411828849E+04  0.11411828849E+04  0.00000000000E+00 0.  1.
         24    2    1    2    0    0  0.36923184960E+02 -0.29395919915E+02 -0.99727619455E+03  0.10016470982E+04  0.80682460630E+02 0.  0.
         25    2    1    2    0    0 -0.94473922146E+02 -0.62851673898E+02 -0.81374316940E+02  0.18747520853E+03  0.12509803946E+03 0.  0.
        -24    2    1    2    0    0  0.57550737185E+02  0.92247593812E+02  0.62185999003E+03  0.63645294165E+03  0.80875174306E+02 0.  0.
        -13    1    3    3    0    0  0.19008295758E+02 -0.23081682652E+02 -0.95299196211E+03  0.95346093744E+03  0.00000000000E+00 0.  1.
         14    1    3    3    0    0  0.17914889202E+02 -0.63142372628E+01 -0.44284232441E+02  0.48186160775E+02  0.00000000000E+00 0. -1.
         11    1    5    5    0    0  0.30793375088E+02  0.23543931763E+02  0.72910271049E+02  0.82573944417E+02  0.00000000000E+00 0. -1.
        -12    1    5    5    0    0  0.26757362097E+02  0.68703662049E+02  0.54894971898E+03  0.55387899724E+03  0.00000000000E+00 0.  1.
          5    1    4    4  501    0 -0.63125936195E+02  0.99774486515E+00 -0.95769576887E+02  0.11478311536E+03  0.41800000000E+01 0.  1.
         -5    1    4    4    0  501 -0.31347985950E+02 -0.63849418763E+02  0.14395259947E+02  0.72692093163E+02  0.41800000000E+01 0.  1.
</event>
<event>
11    1  0.8037748E-009  0.1468242E+03  0.7561462E-02  0.1100169E+00
         22   -1    0    0    0    0  0.00000000000E+00  0.00000000000E+00  0.87238374950E+03  0.87238374950E+03  0.00000000000E+00 0.  1.
         22   -1    0    0    0    0 -0.00000000000E+00 -0.00000000000E+00 -0.19341320355E+03  0.19341320355E+03  0.00000000000E+00 0. -1.
         24    2    1    2    0    0  0.31102244092E+01  0.62944397122E+02 -0.11755819803E+03  0.15504528617E+03  0.79040750344E+02 0.  0.
         25    2    1    2    0    0  0.72458936092E+02 -0.43005097152E+02  0.54632273653E+02  0.16041220645E+03  0.12509058659E+03 0.  0.
        -24    2    1    2    0    0 -0.75569160502E+02 -0.19939299970E+02  0.74189647033E+03  0.75033946043E+03  0.80564629268E+02 0.  0.
        -13    1    3    3    0    0  0.25690107869E+02  0.91944332649E+01 -0.42454633827E+01  0.27614184846E+02  0.00000000000E+00 0.  1.
         14    1    3    3    0    0 -0.22579883460E+02  0.53749963857E+02 -0.11331273465E+03  0.12743110132E+03  0.00000000000E+00 0. -1.
         11    1    5    5    0    0 -0.35511958150E+02 -0.42822108464E+02  0.24167515661E+03  0.24799539002E+03  0.00000000000E+00 0. -1.
        -12    1    5    5    0    0 -0.40057202352E+02  0.22882808493E+02  0.50022131371E+03  0.50234407041E+03  0.00000000000E+00 0.  1.
          5    1    4    4  501    0  0.68594939829E+02 -0.77342710523E+02  0.10192136593E+02  0.10396399708E+03  0.41800000000E+01 0. -1.
         -5    1    4    4    0  501  0.38639962633E+01  0.34337613371E+02  0.44440137060E+02  0.56448209370E+02  0.41800000000E+01 0. -1.
</event>
<event>
11    1  0.8404764E-009  0.2589570E+03  0.7561462E-02  0.1019233E+00
         22   -1    0    0    0    0  0.00000000000E+00  0.00000000000E+00  0.81350777774E+03  0.81350777774E+03  0.00000000000E+00 0. -1.
         22   -1    0    0    0    0 -0.00000000000E+00 -0.00000000000E+00 -0.13062060986E+04  0.13062060986E+04  0.00000000000E+00 0. -1.
        -24    2    1    2    0    0  0.28655956194E+02  0.11465141983E+02 -0.88532230021E+03  0.88945730689E+03  0.79913154256E+02 0.  0.
         25    2    1    2    0    0  0.19873021862E+03 -0.28031104578E+02 -0.36498852000E+03  0.43490686346E+03  0.12509163658E+03 0.  0.
         24    2    1    2    0    0 -0.22738617482E+03  0.16565962595E+02  0.75761249931E+03  0.79534970603E+03  0.81397494854E+02 0.  0.
        -13    1    5    5    0    0 -0.18864445282E+03  0.56996226036E+01  0.49659868159E+03  0.53125273254E+03  0.00000000000E+00 0.  1.
         14    1    5    5    0    0 -0.38741721996E+02  0.10866339992E+02  0.26101381772E+03  0.26409697349E+03  0.00000000000E+00 0. -1.
         13    1    3    3    0    0  0.48616766271E+02 -0.15973457383E+02 -0.58098073207E+03  0.58323010240E+03  0.00000000000E+00 0. -1.
        -14    1    3    3    0    0 -0.19960810077E+02  0.27438599366E+02 -0.30434156814E+03  0.30622720449E+03  0.00000000000E+00 0.  1.
          5    1    4    4  501    0  0.90617337010E+02 -0.21154547849E+02 -0.28595821805E+03  0.30074672322E+03  0.41800000000E+01 0. -1.
         -5    1    4    4    0  501  0.10811288161E+03 -0.68765567295E+01 -0.79030301951E+02  0.13416014024E+03  0.41800000000E+01 0. -1.
</event>
<event>
11    1  0.8037748E-009  0.1512859E+03  0.7561462E-02  0.1095572E+00
         22   -1    0    0    0    0  0.00000000000E+00  0.00000000000E+00  0.21595146266E+03  0.21595146266E+03  0.00000000000E+00 0. -1.
         22   -1    0    0    0    0 -0.00000000000E+00 -0.00000000000E+00 -0.33327057196E+03  0.33327057196E+03  0.00000000000E+00 0.  1.
        -24    2    1    2    0    0  0.32334816159E+02  0.17501196040E+01 -0.12836255338E+03  0.15799098398E+03  0.86229940584E+02 0.  0.
         25    2    1    2    0    0  0.31529023865E+02 -0.61529252631E+02 -0.13939604265E+03  0.19964598017E+03  0.12508929777E+03 0.  0.
         24    2    1    2    0    0 -0.63863840024E+02  0.59779133027E+02  0.15043948674E+03  0.19158507047E+03  0.80129053706E+02 0.  0.
        -13    1    5    5    0    0  0.17618092308E+02  0.21573510333E+02  0.26728682285E+02  0.38603574722E+02  0.00000000000E+00 0.  1.
         14    1    5    5    0    0 -0.81481932332E+02  0.38205622694E+02  0.12371080445E+03  0.15298149574E+03  0.00000000000E+00 0. -1.
         11    1    3    3    0    0 -0.15086706797E+02  0.97501627566E+01  0.29001793591E+01  0.18195753242E+02  0.00000000000E+00 0. -1.
        -12    1    3    3    0    0  0.47421522955E+02 -0.80000431526E+01 -0.13126273274E+03  0.13979523074E+03  0.00000000000E+00 0.  1.
          5    1    4    4  501    0 -0.43363972164E+02 -0.46893104525E+02 -0.82241300285E+02  0.10421372849E+03  0.41800000000E+01 0. -1.
         -5    1    4    4    0  501  0.74892996029E+02 -0.14636148106E+02 -0.57154742366E+02  0.95432251679E+02  0.41800000000E+01 0. -1.
</event>
<event>
11    1  0.8037748E-009  0.2309330E+03  0.7561462E-02  0.1034577E+00
         22   -1    0    0    0    0  0.00000000000E+00  0.00000000000E+00  0.78278731105E+03  0.78278731105E+03  0.00000000000E+00 0.  1.
         22   -1    0    0    0    0 -0.00000000000E+00 -0.00000000000E+00 -0.71549037679E+03  0.71549037679E+03  0.00000000000E+00 0.  1.
        -24    2    1    2    0    0  0.11578954632E+02  0.19423054798E+03 -0.67117130399E+03  0.70300652100E+03  0.76731162603E+02 0.  0.
         25    2    1    2    0    0 -0.11364500436E+02 -0.17735987469E+03  0.56214445958E+03  0.60269131727E+03  0.12507898883E+03 0.  0.
         24    2    1    2    0    0 -0.21445419590E+00 -0.16870673287E+02  0.17632377867E+03  0.19257984957E+03  0.75579480851E+02 0.  0.
        -11    1    5    5    0    0 -0.17096453058E+02  0.20121924476E+02  0.12142107602E+03  0.12425883572E+03  0.00000000000E+00 0.  1.
         12    1    5    5    0    0  0.16881998863E+02 -0.36992597763E+02  0.54902702654E+02  0.68321013851E+02  0.00000000000E+00 0. -1.
         13    1    3    3    0    0 -0.96962301797E+01  0.69761085255E+01 -0.10246403097E+02  0.15737590231E+02  0.00000000000E+00 0. -1.
        -14    1    3    3    0    0  0.21275184811E+02  0.18725443945E+03 -0.66092490090E+03  0.68726893077E+03  0.00000000000E+00 0.  1.
          5    1    4    4  501    0 -0.54750828569E+02 -0.92517693399E+02  0.18827105898E+03  0.21684243328E+03  0.41800000000E+01 0.  1.
         -5    1    4    4    0  501  0.43386328133E+02 -0.84842181291E+02  0.37387340060E+03  0.38584888398E+03  0.41800000000E+01 0.  1.
</event>
<event>
11    1  0.8037748E-009  0.1544485E+03  0.7561462E-02  0.1092418E+00
         22   -1    0    0    0    0  0.00000000000E+00  0.00000000000E+00  0.49183091503E+03  0.49183091503E+03  0.00000000000E+00 0.  1.
         22   -1    0    0    0    0 -0.00000000000E+00 -0.00000000000E+00 -0.63079389313E+03  0.63079389313E+03  0.00000000000E+00 0. -1.
        -24    2    1    2    0    0  0.73353298677E+01  0.78997310719E+02 -0.37700071008E+03  0.39360759803E+03  0.80641327233E+02 0.  0.
         25    2    1    2    0    0 -0.88189106504E+01 -0.14054696957E+03 -0.20272165028E+03  0.27671920840E+03  0.12508488702E+03 0.  0.
         24    2    1    2    0    0  0.14835807826E+01  0.61549658849E+02  0.44075938227E+03  0.45229800174E+03  0.80709899028E+02 0.  0.
        -11    1    5    5    0    0 -0.17334759717E+02  0.73435054676E+02  0.38375620460E+03  0.39110359973E+03  0.00000000000E+00 0.  1.
         12    1    5    5    0    0  0.18818340500E+02 -0.11885395827E+02  0.57003177666E+02  0.61194402009E+02  0.00000000000E+00 0. -1.
         11    1    3    3    0    0  0.33903427381E+02  0.31218464733E+02 -0.26498867704E+03  0.26896660367E+03  0.00000000000E+00 0. -1.
        -12    1    3    3    0    0 -0.26568097513E+02  0.47778845986E+02 -0.11201203304E+03  0.12464099436E+03  0.00000000000E+00 0.  1.
          5    1    4    4  501    0 -0.53717994104E+02 -0.69978482375E+02 -0.15987936399E+03  0.18265129158E+03  0.41800000000E+01 0.  1.
         -5    1    4    4    0  501  0.44899083453E+02 -0.70568487193E+02 -0.42842286299E+02  0.94067916821E+02  0.41800000000E+01 0.  1.
</event>
<event>
11    1  0.8037748E-009  0.1479794E+03  0.7561462E-02  0.1098961E+00
         22   -1    0    0    0    0  0.00000000000E+00  0.00000000000E+00  0.58533207042E+03  0.58533207042E+03  0.00000000000E+00 0.  1.
         22   -1    0    0    0    0 -0.00000000000E+00 -0.00000000000E+00 -0.53648252285E+03  0.53648252285E+03  0.00000000000E+00 0. -1.
        -24    2    1    2    0    0 -0.75652935313E+02 -0.68957584209E+01 -0.44488974626E+03  0.45855789523E+03  0.81102027360E+02 0.  0.
         25    2    1    2    0    0  0.12923967730E+03 -0.30036555338E+02  0.25668692863E+02  0.18414774668E+03  0.12508565852E+03 0.  0.
         24    2    1    2    0    0 -0.53586741990E+02  0.36932313759E+02  0.46807060097E+03  0.47910895136E+03  0.78865487148E+02 0.  0.
        -13    1    5    5    0    0 -0.94099197519E+01  0.42906768766E+02  0.35270641128E+03  0.35543121691E+03  0.00000000000E+00 0.  1.
         14    1    5    5    0    0 -0.44176822238E+02 -0.59744550068E+01  0.11536418969E+03  0.12367773445E+03  0.00000000000E+00 0. -1.
         13    1    3    3    0    0 -0.80762544622E+02  0.59230314363E+01 -0.43248914390E+03  0.44000514827E+03  0.00000000000E+00 0. -1.
        -14    1    3    3    0    0  0.51096093088E+01 -0.12818789857E+02 -0.12400602364E+02  0.18552746958E+02  0.00000000000E+00 0.  1.
          5    1    4    4  501    0  0.10601526133E+03  0.27173496181E+02 -0.14337972368E+02  0.11045670818E+03  0.41800000000E+01 0. -1.
         -5    1    4    4    0  501  0.23224415970E+02 -0.57210051520E+02  0.40006665231E+02  0.73691038498E+02  0.41800000000E+01 0. -1.
</event>
<event>
11    1  0.8037748E-009  0.3116838E+03  0.7561462E-02  0.9953641E-01
         22   -1    0    0    0    0  0.00000000000E+00  0.00000000000E+00  0.66849651542E+03  0.66849651542E+03  0.00000000000E+00 0.  1.
         22   -1    0    0    0    0 -0.00000000000E+00 -0.00000000000E+00 -0.48616839298E+03  0.48616839298E+03  0.00000000000E+00 0.  1.
        -24    2    1    2    0    0  0.38205826689E+02  0.32637233362E+02 -0.24879600025E+03  0.26654778927E+03  0.81384273842E+02 0.  0.
         25    2    1    2    0    0  0.24180002598E+03 -0.11002593134E+03 -0.71510267320E+02  0.30221734277E+03  0.12509454746E+03 0.  0.
         24    2    1    2    0    0 -0.28000585267E+03  0.77388697975E+02  0.50263439001E+03  0.58589977636E+03  0.79024868309E+02 0.  0.
        -11    1    5    5    0    0 -0.21008435730E+03  0.20971746495E+02  0.34605239664E+03  0.40537330024E+03  0.00000000000E+00 0.  1.
         12    1    5    5    0    0 -0.69921495372E+02  0.56416951480E+02  0.15658199338E+03  0.18052647612E+03  0.00000000000E+00 0. -1.
         13    1    3    3    0    0  0.24318138770E+02 -0.23697998426E+02 -0.58913124312E+02  0.67997964814E+02  0.00000000000E+00 0. -1.
        -14    1    3    3    0    0  0.13887687919E+02  0.56335231788E+02 -0.18988287594E+03  0.19854982445E+03  0.00000000000E+00 0.  1.
          5    1    4    4  501    0  0.14493435613E+03 -0.84401189879E+02 -0.10329020310E+03  0.19701742790E+03  0.41800000000E+01 0.  1.
         -5    1    4    4    0  501  0.96865669849E+02 -0.25624741458E+02  0.31779935775E+02  0.10519991487E+03  0.41800000000E+01 0.  1.
</event>
<event>
11    1  0.8037748E-009  0.2006675E+03  0.7561462E-02  0.1054053E+00
         22   -1    0    0    0    0  0.00000000000E+00  0.00000000000E+00  0.37111057260E+03  0.37111057260E+03  0.00000000000E+00 0. -1.
         22   -1    0    0    0    0 -0.00000000000E+00 -0.00000000000E+00 -0.16391985793E+04  0.16391985793E+04  0.00000000000E+00 0. -1.
         24    2    1    2    0    0  0.87163960764E+02 -0.12554972303E+03 -0.14008828458E+04  0.14114684025E+04  0.80062566702E+02 0.  0.
         25    2    1    2    0    0 -0.17868444991E+03  0.13569869559E+03 -0.14565150831E+03  0.29530399017E+03  0.12509123117E+03 0.  0.
        -24    2    1    2    0    0  0.91520489147E+02 -0.10148972552E+02  0.27844634743E+03  0.30353675922E+03  0.78250841672E+02 0.  0.
        -13    1    3    3    0    0 -0.29082269225E+01  0.81134367332E+01 -0.32414263718E+02  0.33540574411E+02  0.00000000000E+00 0.  1.
         14    1    3    3    0    0  0.90072187687E+02 -0.13366315977E+03 -0.13684685821E+04  0.13779278281E+04  0.00000000000E+00 0. -1.
         13    1    5    5    0    0  0.72945833099E+02 -0.29861458018E+02  0.25751032005E+03  0.26930348340E+03  0.00000000000E+00 0. -1.
        -14    1    5    5    0    0  0.18574656048E+02  0.19712485466E+02  0.20936027380E+02  0.34233275815E+02  0.00000000000E+00 0.  1.
          5    1    4    4  501    0 -0.36767384657E+02  0.98017489336E+02 -0.90344421571E+02  0.13834325318E+03  0.41800000000E+01 0.  1.
         -5    1    4    4    0  501 -0.14191706525E+03  0.37681206250E+02 -0.55307086736E+02  0.15696073700E+03  0.41800000000E+01 0.  1.
</event>
<event>
11    1  0.8037748E-009  0.2239297E+03  0.7561462E-02  0.1038783E+00
         22   -1    0    0    0    0  0.00000000000E+00  0.00000000000E+00  0.18656916174E+04  0.18656916174E+04  0.00000000000E+00 0.  1.
         22   -1    0    0    0    0 -0.00000000000E+00 -0.00000000000E+00 -0.64592916074E+02  0.64592916074E+02  0.00000000000E+00 0. -1.
         24    2    1    2    0    0  0.10609579096E+03 -0.16466452507E+03  0.24858025336E+03  0.32605348727E+03  0.78409256610E+02 0.  0.
         25    2    1    2    0    0 -0.15603097935E+03  0.90239634195E+02  0.51467024366E+03  0.55948358710E+03  0.12509023316E+03 0.  0.
        -24    2    1    2    0    0  0.49935188395E+02  0.74424890874E+02  0.10378482043E+04  0.10447474591E+04  0.79597554653E+02 0.  0.
        -11    1    3    3    0    0  0.19156658675E+02 -0.88521774451E+02  0.75377083625E+02  0.11783372548E+03  0.00000000000E+00 0.  1.
         12    1    3    3    0    0  0.86939132282E+02 -0.76142750619E+02  0.17320316974E+03  0.20821976179E+03  0.00000000000E+00 0. -1.
         11    1    5    5    0    0  0.13219678473E+02  0.18310922553E+02  0.69697773588E+03  0.69734354095E+03  0.00000000000E+00 0. -1.
        -12    1    5    5    0    0  0.36715509922E+02  0.56113968322E+02  0.34087046840E+03  0.34740391814E+03  0.00000000000E+00 0.  1.
          5    1    4    4  501    0 -0.63824913576E+02  0.43957674680E+02  0.75273173339E+02  0.10811762012E+03  0.41800000000E+01 0.  1.
         -5    1    4    4    0  501 -0.92206065776E+02  0.46281959515E+02  0.43939707032E+03  0.45136596698E+03  0.41800000000E+01 0.  1.
</event>
<event>
11    1  0.8037748E-009  0.2327252E+03  0.7561462E-02  0.1033527E+00
         22   -1    0    0    0    0  0.00000000000E+00  0.00000000000E+00  0.11529826437E+04  0.11529826437E+04  0.00000000000E+00 0. -1.
         22   -1    0    0    0    0 -0.00000000000E+00 -0.00000000000E+00 -0.29488468589E+03  0.29488468589E+03  0.00000000000E+00 0. -1.
         24    2    1    2    0    0 -0.14936016042E+03  0.13191430819E+03 -0.20414602964E+03  0.29591615195E+03  0.78618861238E+02 0.  0.
         25    2    1    2    0    0  0.11514782213E+03 -0.13766681801E+03  0.23893742827E+03  0.32395931687E+03  0.12508945056E+03 0.  0.
        -24    2    1    2    0    0  0.34212338296E+02  0.57525098172E+01  0.82330655922E+03  0.82799186081E+03  0.80828557151E+02 0.  0.
        -13    1    3    3    0    0 -0.63917013732E+01 -0.99747815876E+01 -0.18616596840E+02  0.22066440403E+02  0.00000000000E+00 0.  1.
         14    1    3    3    0    0 -0.14296845905E+03  0.14188908978E+03 -0.18552943280E+03  0.27384971155E+03  0.00000000000E+00 0. -1.
         11    1    5    5    0    0  0.83958107520E+01 -0.28971963323E+02  0.58579006590E+03  0.58656616472E+03  0.00000000000E+00 0. -1.
        -12    1    5    5    0    0  0.25816527544E+02  0.34724473140E+02  0.23751649333E+03  0.24142569609E+03  0.00000000000E+00 0.  1.
          5    1    4    4  501    0  0.10397078823E+03 -0.15197287053E+03  0.16358985108E+03  0.24634283014E+03  0.41800000000E+01 0. -1.
         -5    1    4    4    0  501  0.11177033898E+02  0.14306052526E+02  0.75347577184E+02  0.77616486735E+02  0.41800000000E+01 0. -1.
</event>
<event>
11    1  0.8037748E-009  0.1835892E+03  0.7561462E-02  0.1066776E+00
         22   -1    0    0    0    0  0.00000000000E+00  0.00000000000E+00  0.59396357392E+03  0.59396357392E+03  0.00000000000E+00 0.  1.
         22   -1    0    0    0    0 -0.00000000000E+00 -0.00000000000E+00 -0.20149205342E+04  0.20149205342E+04  0.00000000000E+00 0.  1.
        -24    2    1    2    0    0  0.18426864371E+02 -0.13366828594E+03 -0.19773450791E+04  0.19836270014E+04  0.81705317180E+02 0.  0.
         25    2    1    2    0    0 -0.43958049077E+02  0.89844225924E+02  0.19579865254E+03  0.25295829601E+03  0.12508593916E+03 0.  0.
         24    2    1    2    0    0  0.25531184706E+02  0.43824060015E+02  0.36058946625E+03  0.37229881074E+03  0.77519363251E+02 0.  0.
        -11    1    5    5    0    0  0.38935150710E+02  0.48769261433E+02  0.34704760057E+03  0.35261370348E+03  0.00000000000E+00 0.  1.
         12    1    5    5    0    0 -0.13403966004E+02 -0.49452014182E+01  0.13541865682E+02  0.19685107260E+02  0.00000000000E+00 0. -1.
         13    1    3    3    0    0  0.50388927019E+02 -0.77850494622E+02 -0.12568765995E+04  0.12602930334E+04  0.00000000000E+00 0. -1.
        -14    1    3    3    0    0 -0.31962062648E+02 -0.55817791316E+02 -0.72046847953E+03  0.72333396801E+03  0.00000000000E+00 0.  1.
          5    1    4    4  501    0 -0.77439690189E+02  0.24526777905E+02  0.70284656052E+02  0.10749824988E+03  0.41800000000E+01 0. -1.
         -5    1    4    4    0  501  0.33481641112E+02  0.65317448019E+02  0.12551399649E+03  0.14546004613E+03  0.41800000000E+01 0. -1.
</event>
<event>
11    1  0.8037748E-009  0.9955965E+03  0.7561462E-02  0.8683214E-01
         22   -1    0    0    0    0  0.00000000000E+00  0.00000000000E+00  0.17247864028E+04  0.17247864028E+04  0.00000000000E+00 0.  1.
         22   -1    0    0    0    0 -0.00000000000E+00 -0.00000000000E+00 -0.18077260772E+04  0.18077260772E+04  0.00000000000E+00 0.  1.
        -24    2    1    2    0    0 -0.54862215107E+03 -0.46797794151E+02 -0.12491462717E+04  0.13674683043E+04  0.80167680006E+02 0.  0.
         25    2    1    2    0    0 -0.49186571972E+03 -0.14946112710E+03 -0.71736602743E+02  0.53391484285E+03  0.12509358294E+03 0.  0.
         24    2    1    2    0    0  0.10404878708E+04  0.19625892125E+03  0.12379432001E+04  0.16311293329E+04  0.83348428059E+02 0.  0.
        -13    1    5    5    0    0  0.10147284003E+04  0.17912067444E+03  0.11906274644E+04  0.15745957263E+04  0.00000000000E+00 0.  1.
         14    1    5    5    0    0  0.25759470449E+02  0.17138246808E+02  0.47315735687E+02  0.56533606510E+02  0.00000000000E+00 0. -1.
         13    1    3    3    0    0 -0.11130504515E+03 -0.42220590895E+02 -0.26100064147E+03  0.28686708808E+03  0.00000000000E+00 0. -1.
        -14    1    3    3    0    0 -0.43731710591E+03 -0.45772032558E+01 -0.98814563027E+03  0.10806012162E+04  0.00000000000E+00 0.  1.
          5    1    4    4  501    0 -0.38502776324E+03 -0.65733514666E+02 -0.29666795917E+02  0.39174591841E+03  0.41800000000E+01 0.  1.
         -5    1    4    4    0  501 -0.10683795648E+03 -0.83727612433E+02 -0.42069806826E+02  0.14216892444E+03  0.41800000000E+01 0.  1.
</event>
<event>
11    1  0.8037748E-009  0.1520093E+03  0.7561462E-02  0.1094843E+00
         22   -1    0    0    0    0  0.00000000000E+00  0.00000000000E+00  0.26574439393E+03  0.26574439393E+03  0.00000000000E+00 0.  1.
         22   -1    0    0    0    0 -0.00000000000E+00 -0.00000000000E+00 -0.64036231887E+03  0.64036231887E+03  0.00000000000E+00 0.  1.
         24    2    1    2    0    0 -0.57844224667E+02  0.59930356785E+02 -0.53428770527E+03  0.54663095028E+03  0.80027756475E+02 0.  0.
         25    2    1    2    0    0  0.83744550890E+02 -0.12544165095E+03  0.47766444031E+02  0.20168561378E+03  0.12508675403E+03 0.  0.
        -24    2    1    2    0    0 -0.25900326223E+02  0.65511294163E+02  0.11190333629E+03  0.15779014874E+03  0.86097722420E+02 0.  0.
        -11    1    3    3    0    0 -0.61829217836E+02  0.23109699195E+02 -0.44647245342E+03  0.45132533945E+03  0.00000000000E+00 0.  1.
         12    1    3    3    0    0  0.39849931694E+01  0.36820657590E+02 -0.87815251855E+02  0.95305610823E+02  0.00000000000E+00 0. -1.
         11    1    5    5    0    0  0.31086734902E+02  0.31847809197E+02  0.52804350727E+02  0.69057711323E+02  0.00000000000E+00 0. -1.
        -12    1    5    5    0    0 -0.56987061125E+02  0.33663484966E+02  0.59098985565E+02  0.88732437420E+02  0.00000000000E+00 0.  1.
          5    1    4    4  501    0 -0.31788654936E+02 -0.44229334931E+02  0.11572758510E+02  0.55840431504E+02  0.41800000000E+01 0. -1.
         -5    1    4    4    0  501  0.11553320583E+03 -0.81212316017E+02  0.36193685521E+02  0.14584518228E+03  0.41800000000E+01 0. -1.
</event>
<event>
11    1  0.8037748E-009  0.2295312E+03  0.7561462E-02  0.1035406E+00
         22   -1    0    0    0    0  0.00000000000E+00  0.00000000000E+00  0.36507246694E+03  0.36507246694E+03  0.00000000000E+00 0. -1.
         22   -1    0    0    0    0 -0.00000000000E+00 -0.00000000000E+00 -0.15170192874E+04  0.15170192874E+04  0.00000000000E+00 0.  1.
        -24    2    1    2    0    0 -0.21168722911E+02  0.18810713253E+03 -0.11170472571E+04  0.11359024831E+04  0.81532007202E+02 0.  0.
         25    2    1    2    0    0  0.37064519406E+02 -0.20204375103E+03 -0.34744374095E+03  0.42256332364E+03  0.12508858233E+03 0.  0.
         24    2    1    2    0    0 -0.15895796495E+02  0.13936618504E+02  0.31254417768E+03  0.32362594760E+03  0.81258755083E+02 0.  0.
        -11    1    5    5    0    0  0.16098798413E+02  0.17444543715E+02  0.25714285941E+02  0.34995827140E+02  0.00000000000E+00 0.  1.
         12    1    5    5    0    0 -0.31994594908E+02 -0.35079252102E+01  0.28682989174E+03  0.28863012046E+03  0.00000000000E+00 0. -1.
         11    1    3    3    0    0 -0.17620098800E+02  0.21841093827E+01 -0.15790130382E+03  0.15889638122E+03  0.00000000000E+00 0. -1.
        -12    1    3    3    0    0 -0.35486241109E+01  0.18592302315E+03 -0.95914595332E+03  0.97700610185E+03  0.00000000000E+00 0.  1.
          5    1    4    4  501    0 -0.20723089182E+02 -0.31416974156E+02 -0.86700996088E+01  0.38847338617E+02  0.41800000000E+01 0. -1.
         -5    1    4    4    0  501  0.57787608588E+02 -0.17062677688E+03 -0.33877364134E+03  0.38371598502E+03  0.41800000000E+01 0. -1.
</event>
<event>
11    1  0.8037748E-009  0.1653507E+03  0.7561462E-02  0.1082150E+00
         22   -1    0    0    0    0  0.00000000000E+00  0.00000000000E+00  0.69385874617E+03  0.69385874617E+03  0.00000000000E+00 0.  1.
         22   -1    0    0    0    0 -0.00000000000E+00 -0.00000000000E+00 -0.57161342280E+03  0.57161342280E+03  0.00000000000E+00 0.  1.
        -24    2    1    2    0    0 -0.44788449404E+02 -0.96431540671E+02 -0.44882731373E+03  0.46883899852E+03  0.84017865625E+02 0.  0.
         25    2    1    2    0    0 -0.90414950764E+01  0.13703235711E+03 -0.28556085297E+02  0.18793264076E+03  0.12507442555E+03 0.  0.
         24    2    1    2    0    0  0.53829944480E+02 -0.40600816442E+02  0.59962872239E+03  0.60870052969E+03  0.80097696049E+02 0.  0.
        -11    1    5    5    0    0  0.50721213827E+02  0.11576865217E+02  0.27245687356E+03  0.27737954735E+03  0.00000000000E+00 0.  1.
         12    1    5    5    0    0  0.31087306528E+01 -0.52177681659E+02  0.32717184883E+03  0.33132098234E+03  0.00000000000E+00 0. -1.
         13    1    3    3    0    0 -0.13643234831E+02  0.66575314717E+01 -0.13261295050E+02  0.20157443497E+02  0.00000000000E+00 0. -1.
        -14    1    3    3    0    0 -0.31145214573E+02 -0.10308907214E+03 -0.43556601868E+03  0.44868155502E+03  0.00000000000E+00 0.  1.
          5    1    4    4  501    0 -0.37863876001E+02  0.31542331649E+02  0.35727533305E+02  0.61012464528E+02  0.41800000000E+01 0.  1.
         -5    1    4    4    0  501  0.28822380925E+02  0.10549002546E+03 -0.64283618603E+02  0.12692017623E+03  0.41800000000E+01 0.  1.
</event>
<event>
11    1  0.8037748E-009  0.1667032E+03  0.7561462E-02  0.1080937E+00
         22   -1    0    0    0    0  0.00000000000E+00  0.00000000000E+00  0.10828161757E+04  0.10828161757E+04  0.00000000000E+00 0.  1.
         22   -1    0    0    0    0 -0.00000000000E+00 -0.00000000000E+00 -0.40824397484E+03  0.40824397484E+03  0.00000000000E+00 0. -1.
        -24    2    1    2    0    0 -0.52761033601E+02 -0.42536926500E+02 -0.33918592463E+03  0.35381126459E+03  0.74445971714E+02 0.  0.
         25    2    1    2    0    0  0.37153132780E+02  0.14875643475E+03  0.11539154801E+03  0.22906636990E+03  0.12508940928E+03 0.  0.
         24    2    1    2    0    0  0.15607900822E+02 -0.10621950825E+03  0.89836657749E+03  0.90818251606E+03  0.78783148068E+02 0.  0.
        -11    1    5    5    0    0  0.46154685990E+02 -0.64984019354E+02  0.46416923095E+03  0.47096311190E+03  0.00000000000E+00 0.  1.
         12    1    5    5    0    0 -0.30546785169E+02 -0.41235488896E+02  0.43419734654E+03  0.43721940415E+03  0.00000000000E+00 0. -1.
         11    1    3    3    0    0 -0.69598391515E+02 -0.37828858322E+02 -0.30836403011E+03  0.31837608843E+03  0.00000000000E+00 0. -1.
        -12    1    3    3    0    0  0.16837357914E+02 -0.47080681784E+01 -0.30821894521E+02  0.35435176158E+02  0.00000000000E+00 0.  1.
          5    1    4    4  501    0  0.69224890146E+02  0.47572743866E+02  0.20346008784E+02  0.86525625385E+02  0.41800000000E+01 0. -1.
         -5    1    4    4    0  501 -0.32071757366E+02  0.10118369088E+03  0.95045539222E+02  0.14254074452E+03  0.41800000000E+01 0. -1.
</event>
<event>
11    1  0.8037748E-009  0.1389348E+03  0.7561462E-02  0.1108754E+00
         22   -1    0    0    0    0  0.00000000000E+00  0.00000000000E+00  0.25357243725E+04  0.25357243725E+04  0.00000000000E+00 0.  1.
         22   -1    0    0    0    0 -0.00000000000E+00 -0.00000000000E+00 -0.55270852891E+02  0.55270852891E+02  0.00000000000E+00 0.  1.
         24    2    1    2    0    0  0.62722257401E+02 -0.46516656861E+01  0.62946056322E+01  0.10469834054E+03  0.83464968008E+02 0.  0.
         25    2    1    2    0    0 -0.16598637046E+02  0.33126783243E+02  0.92759513381E+03  0.93672500561E+03  0.12509238722E+03 0.  0.
        -24    2    1    2    0    0 -0.46123620355E+02 -0.28475117557E+02  0.15465637802E+04  0.15495718792E+04  0.79845238729E+02 0.  0.
        -13    1    3    3    0    0  0.79024974042E+02 -0.14339069297E+02 -0.83359334903E+01  0.80746784566E+02  0.00000000000E+00 0.  1.
         14    1    3    3    0    0 -0.16302716640E+02  0.96874036109E+01  0.14630539122E+02  0.23951555974E+02  0.00000000000E+00 0. -1.
         11    1    5    5    0    0 -0.13435771068E+02  0.13126842538E+02  0.10553279058E+04  0.10554950605E+04  0.00000000000E+00 0. -1.
        -12    1    5    5    0    0 -0.32687849287E+02 -0.41601960096E+02  0.49123587434E+03  0.49407681873E+03  0.00000000000E+00 0.  1.
          5    1    4    4  501    0 -0.10544882535E+02  0.77778070257E+02  0.71864617130E+03  0.72293181884E+03  0.41800000000E+01 0. -1.
         -5    1    4    4    0  501 -0.60537545110E+01 -0.44651287013E+02  0.20894896251E+03  0.21379318677E+03  0.41800000000E+01 0. -1.
</event>
<event>
11    1  0.8037748E-009  0.1297602E+03  0.7561462E-02  0.1119564E+00
         22   -1    0    0    0    0  0.00000000000E+00  0.00000000000E+00  0.27221832014E+04  0.27221832014E+04  0.00000000000E+00 0.  1.
         22   -1    0    0    0    0 -0.00000000000E+00 -0.00000000000E+00 -0.10168335709E+03  0.10168335709E+03  0.00000000000E+00 0.  1.
         24    2    1    2    0    0 -0.18702743397E+02  0.15302665099E+01 -0.67309770580E+02  0.10433920140E+03  0.77485026985E+02 0.  0.
         25    2    1    2    0    0  0.25383492060E+02 -0.35098966876E+02  0.27569236959E+03  0.30582722160E+03  0.12509095760E+03 0.  0.
        -24    2    1    2    0    0 -0.66807486628E+01  0.33568700366E+02  0.24121172453E+04  0.24137001355E+04  0.80419207372E+02 0.  0.
        -13    1    3    3    0    0 -0.29958493876E+02 -0.24148122004E+02 -0.65844919541E+02  0.76263992690E+02  0.00000000000E+00 0.  1.
         14    1    3    3    0    0  0.11255750479E+02  0.25678388514E+02 -0.14648510396E+01  0.28075208710E+02  0.00000000000E+00 0. -1.
         13    1    5    5    0    0 -0.17757223642E+02 -0.12213721351E+02  0.21489201959E+03  0.21597007678E+03  0.00000000000E+00 0. -1.
        -14    1    5    5    0    0  0.11076474979E+02  0.45782421717E+02  0.21972252257E+04  0.21977300587E+04  0.00000000000E+00 0.  1.
          5    1    4    4  501    0  0.77568597856E+01  0.44487021474E+02  0.14321455269E+03  0.15022364813E+03  0.41800000000E+01 0. -1.
         -5    1    4    4    0  501  0.17626632274E+02 -0.79585988350E+02  0.13247781690E+03  0.15560357347E+03  0.41800000000E+01 0. -1.
</event>
<event>
11    1  0.8037748E-009  0.2245419E+03  0.7561462E-02  0.1038409E+00
         22   -1    0    0    0    0  0.00000000000E+00  0.00000000000E+00  0.72171221958E+03  0.72171221958E+03  0.00000000000E+00 0.  1.
         22   -1    0    0    0    0 -0.00000000000E+00 -0.00000000000E+00 -0.14335286428E+04  0.14335286428E+04  0.00000000000E+00 0. -1.
         24    2    1    2    0    0 -0.18256186070E+02 -0.18441927813E+03 -0.13626500157E+04  0.13775920383E+04  0.81246538930E+02 0.  0.
         25    2    1    2    0    0  0.65859477609E+02  0.23098104585E+03  0.26859273066E+03  0.38141824505E+03  0.12509239928E+03 0.  0.
        -24    2    1    2    0    0 -0.47603291539E+02 -0.46561767722E+02  0.38224086186E+03  0.39623057904E+03  0.80352496631E+02 0.  0.
        -13    1    3    3    0    0  0.10286939104E+02  0.10951490037E+01 -0.16491654462E+03  0.16524069461E+03  0.00000000000E+00 0.  1.
         14    1    3    3    0    0 -0.28543125174E+02 -0.18551442713E+03 -0.11977334711E+04  0.12123513437E+04  0.00000000000E+00 0. -1.
         13    1    5    5    0    0 -0.57683700026E+02 -0.42460087065E+02  0.18043591194E+03  0.19413239441E+03  0.00000000000E+00 0. -1.
        -14    1    5    5    0    0  0.10080408487E+02 -0.41016806571E+01  0.20180494992E+03  0.20209818463E+03  0.00000000000E+00 0.  1.
          5    1    4    4  501    0  0.67432629636E+02  0.43401160685E+02  0.56188310149E+02  0.98007238946E+02  0.41800000000E+01 0.  1.
         -5    1    4    4    0  501 -0.15731520274E+01  0.18757988517E+03  0.21240442051E+03  0.28341100610E+03  0.41800000000E+01 0.  1.
</event>
<event>
11    1  0.8037748E-009  0.1374075E+03  0.7561462E-02  0.1110488E+00
         22   -1    0    0    0    0  0.00000000000E+00  0.00000000000E+00  0.42276857932E+03  0.42276857932E+03  0.00000000000E+00 0.  1.
         22   -1    0    0    0    0 -0.00000000000E+00 -0.00000000000E+00 -0.38414432278E+03  0.38414432278E+03  0.00000000000E+00 0. -1.
        -24    2    1    2    0    0  0.86159131248E+01  0.54371613283E+02 -0.32838977762E+03  0.34261155767E+03  0.80698990814E+02 0.  0.
         25    2    1    2    0    0 -0.13497137342E+02 -0.94343828955E+02  0.10975599695E+03  0.19177266310E+03  0.12508974646E+03 0.  0.
         24    2    1    2    0    0  0.48812242177E+01  0.39972215672E+02  0.25725803721E+03  0.27252868133E+03  0.80427483261E+02 0.  0.
        -11    1    5    5    0    0 -0.11664929135E+02  0.49027838100E+02  0.24477685933E+03  0.24991100484E+03  0.00000000000E+00 0.  1.
         12    1    5    5    0    0  0.16546153353E+02 -0.90556224277E+01  0.12481177883E+02  0.22617676487E+02  0.00000000000E+00 0. -1.
         13    1    3    3    0    0  0.20042194397E+02  0.72928361732E+02 -0.26492204378E+03  0.27550666922E+03  0.00000000000E+00 0. -1.
        -14    1    3    3    0    0 -0.11426281272E+02 -0.18556748449E+02 -0.63467733832E+02  0.67104888454E+02  0.00000000000E+00 0.  1.
          5    1    4    4  501    0 -0.36750321529E+02 -0.41116624105E+01  0.88644287900E+02  0.96139347187E+02  0.41800000000E+01 0.  1.
         -5    1    4    4    0  501  0.23253184187E+02 -0.90232166545E+02  0.21111709048E+02  0.95633315916E+02  0.41800000000E+01 0.  1.
</event>
<event>
11    1  0.8037748E-009  0.1298077E+03  0.7561462E-02  0.1119506E+00
         22   -1    0    0    0    0  0.00000000000E+00  0.00000000000E+00  0.18710879411E+03  0.18710879411E+03  0.00000000000E+00 0. -1.
         22   -1    0    0    0    0 -0.00000000000E+00 -0.00000000000E+00 -0.49594251279E+03  0.49594251279E+03  0.00000000000E+00 0. -1.
         24    2    1    2    0    0  0.20511280923E+01  0.11594249267E+02 -0.41076630508E+03  0.41882816084E+03  0.80928593144E+02 0.  0.
         25    2    1    2    0    0  0.17128164373E+02 -0.38457017470E+02  0.20191538727E+01  0.13199663563E+03  0.12508684434E+03 0.  0.
        -24    2    1    2    0    0 -0.19179292465E+02  0.26862768203E+02  0.99913432517E+02  0.13222651043E+03  0.80073107144E+02 0.  0.
        -13    1    3    3    0    0 -0.31942500123E+02  0.23705295814E+01 -0.79730925718E+02  0.85924171456E+02  0.00000000000E+00 0.  1.
         14    1    3    3    0    0  0.33993628215E+02  0.92237196854E+01 -0.33103537936E+03  0.33290398939E+03  0.00000000000E+00 0. -1.
         11    1    5    5    0    0 -0.36323145204E+02  0.29597386451E+02  0.10428211063E+03  0.11432469007E+03  0.00000000000E+00 0. -1.
        -12    1    5    5    0    0  0.17143852739E+02 -0.27346182479E+01 -0.43686781125E+01  0.17901820358E+02  0.00000000000E+00 0.  1.
          5    1    4    4  501    0  0.20995186412E+02 -0.79811958078E+02 -0.19686421182E+02  0.84945712568E+02  0.41800000000E+01 0.  1.
         -5    1    4    4    0  501 -0.38670220387E+01  0.41354940609E+02  0.21705575055E+02  0.47050923058E+02  0.41800000000E+01 0.  1.
</event>
<event>
11    1  0.8037748E-009  0.2005910E+03  0.7561462E-02  0.1054106E+00
         22   -1    0    0    0    0  0.00000000000E+00  0.00000000000E+00  0.29398858441E+03  0.29398858441E+03  0.00000000000E+00 0.  1.
         22   -1    0    0    0    0 -0.00000000000E+00 -0.00000000000E+00 -0.37978721961E+03  0.37978721961E+03  0.00000000000E+00 0. -1.
         24    2    1    2    0    0 -0.25193137996E+02  0.21483227634E+02 -0.20883435630E+03  0.22605843855E+03  0.79965029824E+02 0.  0.
         25    2    1    2    0    0  0.41707397261E+02  0.13880303321E+03 -0.49802456676E+02  0.19782234680E+03  0.12509039607E+03 0.  0.
        -24    2    1    2    0    0 -0.16514259266E+02 -0.16028626084E+03  0.17283817778E+03  0.24989501868E+03  0.81302389185E+02 0.  0.
        -13    1    3    3    0    0  0.90881335603E+00  0.10174077062E+02  0.42646828938E+01  0.11069114959E+02  0.00000000000E+00 0.  1.
         14    1    3    3    0    0 -0.26101951352E+02  0.11309150572E+02 -0.21309903920E+03  0.21498932359E+03  0.00000000000E+00 0. -1.
         11    1    5    5    0    0  0.13086041699E+02 -0.11521041887E+03  0.74740281730E+02  0.13795214683E+03  0.00000000000E+00 0. -1.
        -12    1    5    5    0    0 -0.29600300965E+02 -0.45075841974E+02  0.98097896049E+02  0.11194287184E+03  0.00000000000E+00 0.  1.
          5    1    4    4  501    0  0.60380948459E+02  0.88712802160E+02 -0.82140467069E+02  0.13520484065E+03  0.41800000000E+01 0.  1.
         -5    1    4    4    0  501 -0.18673551198E+02  0.50090231048E+02  0.32338010392E+02  0.62617506154E+02  0.41800000000E+01 0.  1.
</event>
<event>
11    1  0.8037748E-009  0.1352394E+03  0.7561462E-02  0.1112994E+00
         22   -1    0    0    0    0  0.00000000000E+00  0.00000000000E+00  0.81697164804E+03  0.81697164804E+03  0.00000000000E+00 0.  1.
         22   -1    0    0    0    0 -0.00000000000E+00 -0.00000000000E+00 -0.24705225293E+04  0.24705225293E+04  0.00000000000E+00 0.  1.
         24    2    1    2    0    0  0.61454165495E+01 -0.18533473477E+01 -0.22283076967E+04  0.22297370809E+04  0.79567942930E+02 0.  0.
         25    2    1    2    0    0 -0.54584422389E+02  0.18834732462E+02 -0.21864171339E+03  0.25842855314E+03  0.12508761701E+03 0.  0.
        -24    2    1    2    0    0  0.48439005839E+02 -0.16981385114E+02  0.79339852886E+03  0.79932854331E+03  0.82523874300E+02 0.  0.
        -13    1    3    3    0    0 -0.23281028482E+02 -0.15265493890E+02 -0.17981487950E+04  0.17983642930E+04  0.00000000000E+00 0.  1.
         14    1    3    3    0    0  0.29426445031E+02  0.13412146543E+02 -0.43015890179E+03  0.43137278789E+03  0.00000000000E+00 0. -1.
         13    1    5    5    0    0 -0.22149802075E+02 -0.13243548145E+02  0.25697115121E+03  0.25826377573E+03  0.00000000000E+00 0. -1.
        -14    1    5    5    0    0  0.70588807914E+02 -0.37378369694E+01  0.53642737765E+03  0.54106476758E+03  0.00000000000E+00 0.  1.
          5    1    4    4  501    0 -0.38662170671E+02 -0.38609413616E+02 -0.17778830724E+03  0.18604194379E+03  0.41800000000E+01 0. -1.
         -5    1    4    4    0  501 -0.15922251717E+02  0.57444146078E+02 -0.40853406155E+02  0.72386609348E+02  0.41800000000E+01 0. -1.
</event>
<event>
11    1  0.8037748E-009  0.2102185E+03  0.7561462E-02  0.1047524E+00
         22   -1    0    0    0    0  0.00000000000E+00  0.00000000000E+00  0.35570879234E+03  0.35570879234E+03  0.00000000000E+00 0. -1.
         22   -1    0    0    0    0 -0.00000000000E+00 -0.00000000000E+00 -0.17748188227E+04  0.17748188227E+04  0.00000000000E+00 0. -1.
        -24    2    1    2    0    0  0.44091971496E+02  0.21885547830E+02 -0.16103899796E+04  0.16132264044E+04  0.81978450301E+02 0.  0.
         25    2    1    2    0    0  0.68423428680E+02  0.11577716536E+03 -0.66172843712E+02  0.19522308338E+03  0.12508832651E+03 0.  0.
         24    2    1    2    0    0 -0.11251540018E+03 -0.13766271319E+03  0.25745279297E+03  0.32207812723E+03  0.76430632315E+02 0.  0.
        -11    1    5    5    0    0 -0.25681373054E+02  0.26249675013E-01  0.65740277169E+02  0.70578450346E+02  0.00000000000E+00 0.  1.
         12    1    5    5    0    0 -0.86834027123E+02 -0.13768896286E+03  0.19171251580E+03  0.25149967689E+03  0.00000000000E+00 0. -1.
         13    1    3    3    0    0  0.48220297519E+02  0.48647683577E+02 -0.11764686497E+04  0.11784609786E+04  0.00000000000E+00 0. -1.
        -14    1    3    3    0    0 -0.41283260229E+01 -0.26762135747E+02 -0.43392132983E+03  0.43476542580E+03  0.00000000000E+00 0.  1.
          5    1    4    4  501    0 -0.12920107674E+02  0.95243910421E+01 -0.58850047296E+02  0.61142813754E+02  0.41800000000E+01 0. -1.
         -5    1    4    4    0  501  0.81343536354E+02  0.10625277432E+03 -0.73227964153E+01  0.13408026963E+03  0.41800000000E+01 0. -1.
</event>
<event>
11    1  0.8037748E-009  0.1350230E+03  0.7561462E-02  0.1113247E+00
         22   -1    0    0    0    0  0.00000000000E+00  0.00000000000E+00  0.24153074079E+02  0.24153074079E+02  0.00000000000E+00 0. -1.
         22   -1    0    0    0    0 -0.00000000000E+00 -0.00000000000E+00 -0.23217722432E+04  0.23217722432E+04  0.00000000000E+00 0.  1.
         24    2    1    2    0    0 -0.24085950903E+01  0.31776069746E+02 -0.12321512020E+04  0.12352808414E+04  0.81894154886E+02 0.  0.
         25    2    1    2    0    0  0.20006183106E+02  0.19419693785E+02 -0.96004155847E+03  0.96855820015E+03  0.12509125157E+03 0.  0.
        -24    2    1    2    0    0 -0.17597588016E+02 -0.51195763531E+02 -0.10542640871E+03  0.14208627578E+03  0.78377935703E+02 0.  0.
        -11    1    3    3    0    0  0.38764557343E+02  0.12737693585E+02 -0.70584790092E+03  0.70702630714E+03  0.00000000000E+00 0.  1.
         12    1    3    3    0    0 -0.41173152434E+02  0.19038376161E+02 -0.52630330104E+03  0.52825453423E+03  0.00000000000E+00 0. -1.
         11    1    5    5    0    0 -0.38606501888E+02 -0.25861722994E+02 -0.20093472203E+02  0.50626458788E+02  0.00000000000E+00 0. -1.
        -12    1    5    5    0    0  0.21008913873E+02 -0.25334040537E+02 -0.85332936502E+02  0.91459816992E+02  0.00000000000E+00 0.  1.
          5    1    4    4  501    0  0.18579624496E+02  0.55641522140E+02 -0.86103766130E+03  0.86304374629E+03  0.41800000000E+01 0. -1.
         -5    1    4    4    0  501  0.14265586097E+01 -0.36221828355E+02 -0.99003897173E+02  0.10551445386E+03  0.41800000000E+01 0. -1.
</event>
<event>
11    1  0.8037748E-009  0.1504161E+03  0.7561462E-02  0.1096454E+00
         22   -1    0    0    0    0  0.00000000000E+00  0.00000000000E+00  0.17844950135E+04  0.17844950135E+04  0.00000000000E+00 0.  1.
         22   -1    0    0    0    0 -0.00000000000E+00 -0.00000000000E+00 -0.31712381961E+03  0.31712381961E+03  0.00000000000E+00 0.  1.
        -24    2    1    2    0    0  0.44529215025E+02  0.28123457290E+02 -0.20617983659E+03  0.22835900936E+03  0.82848852129E+02 0.  0.
         25    2    1    2    0    0 -0.65580290381E+02  0.53065931425E+02 -0.39388391359E+02  0.15593619242E+03  0.12509149919E+03 0.  0.
         24    2    1    2    0    0  0.21051075356E+02 -0.81189388715E+02  0.17129394219E+04  0.17173236314E+04  0.89465787814E+02 0.  0.
        -13    1    5    5    0    0  0.13909743582E+00  0.19619290184E+02  0.29426721782E+03  0.29492055096E+03  0.00000000000E+00 0.  1.
         14    1    5    5    0    0  0.20911977920E+02 -0.10080867890E+03  0.14186722041E+04  0.14224030804E+04  0.00000000000E+00 0. -1.
         13    1    3    3    0    0  0.66067027041E+02  0.31923289311E+02 -0.13200811646E+03  0.15103010055E+03  0.00000000000E+00 0. -1.
        -14    1    3    3    0    0 -0.21537812016E+02 -0.37998320211E+01 -0.74171720138E+02  0.77328908812E+02  0.00000000000E+00 0.  1.
          5    1    4    4  501    0 -0.14799579529E+01  0.20445417370E+02  0.42194358367E+02  0.47096089487E+02  0.41800000000E+01 0. -1.
         -5    1    4    4    0  501 -0.64100332428E+02  0.32620514055E+02 -0.81582749725E+02  0.10884010294E+03  0.41800000000E+01 0. -1.
</event>
<event>
11    1  0.8037748E-009  0.1320338E+03  0.7561462E-02  0.1116795E+00
         22   -1    0    0    0    0  0.00000000000E+00  0.00000000000E+00  0.10195408227E+04  0.10195408227E+04  0.00000000000E+00 0. -1.
         22   -1    0    0    0    0 -0.00000000000E+00 -0.00000000000E+00 -0.15803147511E+03  0.15803147511E+03  0.00000000000E+00 0.  1.
        -24    2    1    2    0    0 -0.36142217269E+02  0.21131230897E+02 -0.13052201894E+03  0.15958917027E+03  0.81730759524E+02 0.  0.
         25    2    1    2    0    0  0.61722245153E+02 -0.56277538631E+01  0.52671351860E+03  0.54490038911E+03  0.12509195106E+03 0.  0.
         24    2    1    2    0    0 -0.25580027884E+02 -0.15503477034E+02  0.46531784796E+03  0.47308273845E+03  0.79949247399E+02 0.  0.
        -13    1    5    5    0    0  0.11246710133E+02  0.18800596615E+02  0.48267951864E+02  0.53007038203E+02  0.00000000000E+00 0.  1.
         14    1    5    5    0    0 -0.36826738017E+02 -0.34304073649E+02  0.41704989610E+03  0.42007570024E+03  0.00000000000E+00 0. -1.
         11    1    3    3    0    0  0.16857479209E+02 -0.13806106300E+02 -0.11358311317E+02  0.24572228479E+02  0.00000000000E+00 0. -1.
        -12    1    3    3    0    0 -0.52999696478E+02  0.34937337198E+02 -0.11916370762E+03  0.13501694179E+03  0.00000000000E+00 0.  1.
          5    1    4    4  501    0  0.94317621567E+02 -0.20835285213E+02  0.29672407932E+03  0.31207783404E+03  0.41800000000E+01 0. -1.
         -5    1    4    4    0  501 -0.32595376414E+02  0.15207531349E+02  0.22998943928E+03  0.23282255508E+03  0.41800000000E+01 0. -1.
</event>
<event>
11    1  0.8037748E-009  0.1459733E+03  0.7561462E-02  0.1101066E+00
         22   -1    0    0    0    0  0.00000000000E+00  0.00000000000E+00  0.51966476244E+03  0.51966476244E+03  0.00000000000E+00 0. -1.
         22   -1    0    0    0    0 -0.00000000000E+00 -0.00000000000E+00 -0.84480354343E+03  0.84480354343E+03  0.00000000000E+00 0. -1.
         24    2    1    2    0    0 -0.39206813443E+02  0.64163771498E+02 -0.81485799666E+03  0.82519402595E+03  0.10628951951E+03 0.  0.
         25    2    1    2    0    0  0.42912902907E+02 -0.62740183379E+02  0.26551578283E+03  0.30319729554E+03  0.12510843793E+03 0.  0.
        -24    2    1    2    0    0 -0.37060894637E+01 -0.14235881187E+01  0.22420343284E+03  0.23607698438E+03  0.73820061991E+02 0.  0.
        -11    1    3    3    0    0 -0.10077761661E+02 -0.98275966515E+00 -0.35144029629E+01  0.10718121330E+02  0.00000000000E+00 0.  1.
         12    1    3    3    0    0 -0.29129051782E+02  0.65146531163E+02 -0.81134359370E+03  0.81447590462E+03  0.00000000000E+00 0. -1.
         11    1    5    5    0    0 -0.15354935654E+00  0.19137252812E+01  0.22913504158E+03  0.22914308456E+03  0.00000000000E+00 0. -1.
        -12    1    5    5    0    0 -0.35525401072E+01 -0.33373133999E+01 -0.49316087376E+01  0.69338998177E+01  0.00000000000E+00 0.  1.
          5    1    4    4  501    0 -0.10934222947E+01 -0.90703966910E+02  0.13612120300E+03  0.16363025237E+03  0.41800000000E+01 0.  1.
         -5    1    4    4    0  501  0.44006325201E+02  0.27963783531E+02  0.12939457984E+03  0.13956704317E+03  0.41800000000E+01 0.  1.
</event>
<event>
11    1  0.8037748E-009  0.1383453E+03  0.7561462E-02  0.1109420E+00
         22   -1    0    0    0    0  0.00000000000E+00  0.00000000000E+00  0.53983962155E+02  0.53983962155E+02  0.00000000000E+00 0. -1.
         22   -1    0    0    0    0 -0.00000000000E+00 -0.00000000000E+00 -0.19828391430E+04  0.19828391430E+04  0.00000000000E+00 0. -1.
         24    2    1    2    0    0  0.28965671747E+02 -0.10358563239E+02 -0.16186756898E+04  0.16210372138E+04  0.81880094196E+02 0.  0.
         25    2    1    2    0    0 -0.72905467132E+02 -0.24205727676E+02 -0.27873806891E+03  0.31503260992E+03  0.12509800103E+03 0.  0.
        -24    2    1    2    0    0  0.43939795384E+02  0.34564290915E+02 -0.31441422097E+02  0.10075328139E+03  0.77699838241E+02 0.  0.
        -11    1    3    3    0    0 -0.21758576798E+02  0.16927884206E+02 -0.36527348958E+03  0.36631231363E+03  0.00000000000E+00 0.  1.
         12    1    3    3    0    0  0.50724248545E+02 -0.27286447445E+02 -0.12534022002E+04  0.12547249002E+04  0.00000000000E+00 0. -1.
         11    1    5    5    0    0  0.54083757756E+01  0.16136064731E+02  0.24833535933E+02  0.30105275626E+02  0.00000000000E+00 0. -1.
        -12    1    5    5    0    0  0.38531419609E+02  0.18428226184E+02 -0.56274958030E+02  0.70648005766E+02  0.00000000000E+00 0.  1.
          5    1    4    4  501    0  0.84920497863E+01 -0.53462829994E+02 -0.15309724025E+03  0.16243960869E+03  0.41800000000E+01 0.  1.
         -5    1    4    4    0  501 -0.81397516918E+02  0.29257102318E+02 -0.12564082866E+03  0.15259300122E+03  0.41800000000E+01 0.  1.
</event>
<event>
11    1  0.8037748E-009  0.1374546E+03  0.7561462E-02  0.1110435E+00
         22   -1    0    0    0    0  0.00000000000E+00  0.00000000000E+00  0.55581600508E+03  0.55581600508E+03  0.00000000000E+00 0. -1.
         22   -1    0    0    0    0 -0.00000000000E+00 -0.00000000000E+00 -0.10674633695E+04  0.10674633695E+04  0.00000000000E+00 0.  1.
         24    2    1    2    0    0 -0.91437720342E+01  0.25806128757E+02 -0.93351214681E+03  0.93757682758E+03  0.82799846129E+02 0.  0.
         25    2    1    2    0    0  0.65638697742E+02 -0.20752193250E+02 -0.87162011467E+02  0.16728543239E+03  0.12509239577E+03 0.  0.
        -24    2    1    2    0    0 -0.56494925708E+02 -0.50539355073E+01  0.50902679385E+03  0.51841711463E+03  0.80192324998E+02 0.  0.
        -13    1    3    3    0    0  0.23571455099E+02  0.31690107265E+02 -0.75264654606E+03  0.75368209458E+03  0.00000000000E+00 0.  1.
         14    1    3    3    0    0 -0.32715227134E+02 -0.58839785081E+01 -0.18086560075E+03  0.18389473300E+03  0.00000000000E+00 0. -1.
         13    1    5    5    0    0  0.10488300046E+02 -0.24695093400E+01  0.26872379707E+03  0.26893973679E+03  0.00000000000E+00 0. -1.
        -14    1    5    5    0    0 -0.66983225753E+02 -0.25844261673E+01  0.24030299678E+03  0.24947737784E+03  0.00000000000E+00 0.  1.
          5    1    4    4  501    0  0.63345926565E+02 -0.26481022269E+02  0.10288320250E+02  0.69550506011E+02  0.41800000000E+01 0.  1.
         -5    1    4    4    0  501  0.22927711766E+01  0.57288290191E+01 -0.97450331717E+02  0.97734926374E+02  0.41800000000E+01 0.  1.
</event>
<event>
11    1  0.8037748E-009  0.1360436E+03  0.7561462E-02  0.1112059E+00
         22   -1    0    0    0    0  0.00000000000E+00  0.00000000000E+00  0.40360918665E+03  0.40360918665E+03  0.00000000000E+00 0. -1.
         22   -1    0    0    0    0 -0.00000000000E+00 -0.00000000000E+00 -0.29209175606E+04  0.29209175606E+04  0.00000000000E+00 0. -1.
        -24    2    1    2    0    0  0.29896764206E+02 -0.25681013006E+02 -0.27972169267E+04  0.27986566731E+04  0.80643089669E+02 0.  0.
         25    2    1    2    0    0 -0.49584851809E+02 -0.24729638891E+02 -0.76284641335E+02  0.15664925325E+03  0.12509767973E+03 0.  0.
         24    2    1    2    0    0  0.19688087603E+02  0.50410651897E+02  0.35619319408E+03  0.36922082091E+03  0.80756228661E+02 0.  0.
        -13    1    5    5    0    0  0.43351084924E+02  0.18110024816E+02  0.10740495822E+03  0.11723103093E+03  0.00000000000E+00 0.  1.
         14    1    5    5    0    0 -0.23662997321E+02  0.32300627082E+02  0.24878823586E+03  0.25198978998E+03  0.00000000000E+00 0. -1.
         13    1    3    3    0    0  0.22443818671E+02 -0.37655607697E+02 -0.27060578723E+04  0.27064129171E+04  0.00000000000E+00 0. -1.
        -14    1    3    3    0    0  0.74529455356E+01  0.11974594691E+02 -0.91159054409E+02  0.92243755972E+02  0.00000000000E+00 0.  1.
          5    1    4    4  501    0 -0.68778877564E+02 -0.55907210429E+02 -0.80181350006E+02  0.11959377687E+03  0.41800000000E+01 0. -1.
         -5    1    4    4    0  501  0.19194025755E+02  0.31177571537E+02  0.38967086716E+01  0.37055476385E+02  0.41800000000E+01 0. -1.
</event>
<event>
11    1  0.8037748E-009  0.1340382E+03  0.7561462E-02  0.1114405E+00
         22   -1    0    0    0    0  0.00000000000E+00  0.00000000000E+00  0.10428014412E+04  0.10428014412E+04  0.00000000000E+00 0. -1.
         22   -1    0    0    0    0 -0.00000000000E+00 -0.00000000000E+00 -0.45282924741E+03  0.45282924741E+03  0.00000000000E+00 0. -1.
        -24    2    1    2    0    0  0.16264509916E+02  0.29880490215E+02 -0.39234370598E+03  0.40220814625E+03  0.81733905503E+02 0.  0.
         25    2    1    2    0    0 -0.32638340140E+02 -0.73616570485E+02  0.50888413644E+02  0.15723436007E+03  0.12509337571E+03 0.  0.
         24    2    1    2    0    0  0.16373830225E+02  0.43736080270E+02  0.93142748613E+03  0.93618818229E+03  0.81915833047E+02 0.  0.
        -11    1    5    5    0    0  0.35001884796E+02  0.48590521216E+01  0.17494060544E+03  0.17847396941E+03  0.00000000000E+00 0.  1.
         12    1    5    5    0    0 -0.18628054571E+02  0.38877028149E+02  0.75648688069E+03  0.75771421288E+03  0.00000000000E+00 0. -1.
         13    1    3    3    0    0  0.37912194261E+02  0.40570541452E+02 -0.34075328367E+03  0.34524788724E+03  0.00000000000E+00 0. -1.
        -14    1    3    3    0    0 -0.21647684345E+02 -0.10690051237E+02 -0.51590422306E+02  0.56960259012E+02  0.00000000000E+00 0.  1.
          5    1    4    4  501    0 -0.74905855072E+02 -0.16320521952E+02  0.33834228829E+02  0.83901573295E+02  0.41800000000E+01 0. -1.
         -5    1    4    4    0  501  0.42267514932E+02 -0.57296048534E+02  0.17054184815E+02  0.73332786772E+02  0.41800000000E+01 0. -1.
</event>
<event>
11    1  0.8037748E-009  0.1450811E+03  0.7561462E-02  0.1102014E+00
         22   -1    0    0    0    0  0.00000000000E+00  0.00000000000E+00  0.15275148653E+04  0.15275148653E+04  0.00000000000E+00 0.  1.
         22   -1    0    0    0    0 -0.00000000000E+00 -0.00000000000E+00 -0.50854266572E+02  0.50854266572E+02  0.00000000000E+00 0.  1.
         24    2    1    2    0    0  0.11597057876E+02  0.44737513465E+02  0.19457872465E+02  0.95983721527E+02  0.81843320649E+02 0.  0.
         25    2    1    2    0    0 -0.12479864723E+02  0.41487047574E+02  0.47943895251E+03  0.49738069802E+03  0.12509567314E+03 0.  0.
        -24    2    1    2    0    0  0.88280684634E+00 -0.86224561039E+02  0.97776377371E+03  0.98500471228E+03  0.82321514609E+02 0.  0.
        -11    1    3    3    0    0  0.40549315202E+02  0.38015408314E+02  0.31530604559E+02  0.63903030104E+02  0.00000000000E+00 0.  1.
         12    1    3    3    0    0 -0.28952257326E+02  0.67221051506E+01 -0.12072732094E+02  0.32080691422E+02  0.00000000000E+00 0. -1.
         11    1    5    5    0    0  0.67669697060E+01 -0.32279977181E+02  0.94770414134E+02  0.10034550414E+03  0.00000000000E+00 0. -1.
        -12    1    5    5    0    0 -0.58841628597E+01 -0.53944583858E+02  0.88299335957E+03  0.88465920814E+03  0.00000000000E+00 0.  1.
          5    1    4    4  501    0 -0.53715982565E+02  0.63569962586E+02  0.26219815474E+03  0.27512159435E+03  0.41800000000E+01 0. -1.
         -5    1    4    4    0  501  0.41236117842E+02 -0.22082915012E+02  0.21724079777E+03  0.22225910367E+03  0.41800000000E+01 0. -1.
</event>
<event>
11    1  0.8037748E-009  0.3268153E+03  0.7561462E-02  0.9894404E-01
         22   -1    0    0    0    0  0.00000000000E+00  0.00000000000E+00  0.37178161242E+03  0.37178161242E+03  0.00000000000E+00 0. -1.
         22   -1    0    0    0    0 -0.00000000000E+00 -0.00000000000E+00 -0.78425813619E+03  0.78425813619E+03  0.00000000000E+00 0. -1.
        -24    2    1    2    0    0  0.89646468781E+02 -0.17938130957E+03 -0.31078910562E+03  0.37877789628E+03  0.81662004332E+02 0.  0.
         25    2    1    2    0    0 -0.18854209634E+03 -0.13982716199E+03 -0.28368399810E+03  0.38887104092E+03  0.12507724960E+03 0.  0.
         24    2    1    2    0    0  0.98895627560E+02  0.31920847156E+03  0.18199657995E+03  0.38839081141E+03  0.77783506011E+02 0.  0.
        -11    1    5    5    0    0  0.88510722149E+02  0.16741452582E+03  0.82264299940E+02  0.20646836667E+03  0.00000000000E+00 0.  1.
         12    1    5    5    0    0  0.10384905411E+02  0.15179394575E+03  0.99732280008E+02  0.18192244474E+03  0.00000000000E+00 0. -1.
         13    1    3    3    0    0  0.99216666616E+02 -0.11702638238E+03 -0.22223135941E+03  0.27004795539E+03  0.00000000000E+00 0. -1.
        -14    1    3    3    0    0 -0.95701978357E+01 -0.62354927193E+02 -0.88557746211E+02  0.10872994089E+03  0.00000000000E+00 0.  1.
          5    1    4    4  501    0 -0.10696963559E+02  0.17792208539E+02 -0.55443843165E+02  0.59350483225E+02  0.41800000000E+01 0. -1.
         -5    1    4    4    0  501 -0.17784513278E+03 -0.15761937053E+03 -0.22824015493E+03  0.32952055770E+03  0.41800000000E+01 0. -1.
</event>
<event>
11    1  0.8037748E-009  0.1320875E+03  0.7561462E-02  0.1116730E+00
         22   -1    0    0    0    0  0.00000000000E+00  0.00000000000E+00  0.13652959836E+04  0.13652959836E+04  0.00000000000E+00 0. -1.
         22   -1    0    0    0    0 -0.00000000000E+00 -0.00000000000E+00 -0.81864621218E+02  0.81864621218E+02  0.00000000000E+00 0.  1.
         24    2    1    2    0    0  0.24578194264E+02  0.10142026350E+02 -0.47453667040E+02  0.96960765340E+02  0.80265753395E+02 0.  0.
         25    2    1    2    0    0 -0.14295434701E+02 -0.49107968228E+02  0.70880344672E+03  0.72157013859E+03  0.12508072127E+03 0.  0.
        -24    2    1    2    0    0 -0.10282759563E+02  0.38965941877E+02  0.62208158267E+03  0.62862970085E+03  0.81029164654E+02 0.  0.
        -13    1    3    3    0    0  0.53923853172E+02  0.10040477514E+02 -0.26601647903E+02  0.60960977689E+02  0.00000000000E+00 0.  1.
         14    1    3    3    0    0 -0.29345658908E+02  0.10154883659E+00 -0.20852019137E+02  0.35999787652E+02  0.00000000000E+00 0. -1.
         13    1    5    5    0    0 -0.19292680891E+02  0.14800949177E+02  0.56994171924E+03  0.57046019928E+03  0.00000000000E+00 0. -1.
        -14    1    5    5    0    0  0.90099213275E+01  0.24164992700E+02  0.52139863430E+02  0.58169501571E+02  0.00000000000E+00 0.  1.
          5    1    4    4  501    0 -0.11717704359E+02  0.34010244922E+02  0.87288290101E+02  0.94502483268E+02  0.41800000000E+01 0. -1.
         -5    1    4    4    0  501 -0.25777303417E+01 -0.83118213149E+02  0.62151515662E+03  0.62706765533E+03  0.41800000000E+01 0. -1.
</event>
<event>
11    1  0.8037748E-009  0.1422855E+03  0.7561462E-02  0.1105033E+00
         22   -1    0    0    0    0  0.00000000000E+00  0.00000000000E+00  0.51767675512E+03  0.51767675512E+03  0.00000000000E+00 0.  1.
         22   -1    0    0    0    0 -0.00000000000E+00 -0.00000000000E+00 -0.21044401124E+03  0.21044401124E+03  0.00000000000E+00 0.  1.
        -24    2    1    2    0    0 -0.14848617151E+02  0.69367486385E+02 -0.16126293636E+03  0.19480015851E+03  0.83120620266E+02 0.  0.
         25    2    1    2    0    0  0.92018826988E+01 -0.36864510987E+02  0.13287613175E+03  0.18640631377E+03  0.12509028983E+03 0.  0.
         24    2    1    2    0    0  0.56467344517E+01 -0.32502975398E+02  0.33561954849E+03  0.34691429408E+03  0.81367789010E+02 0.  0.
        -13    1    5    5    0    0  0.16023454741E+02 -0.20898997459E+02  0.32891067639E+03  0.32996325893E+03  0.00000000000E+00 0.  1.
         14    1    5    5    0    0 -0.10376720289E+02 -0.11603977939E+02  0.67088720990E+01  0.16951035154E+02  0.00000000000E+00 0. -1.
         13    1    3    3    0    0 -0.43495030809E+02  0.12047817200E+02 -0.63365700874E+02  0.77795756000E+02  0.00000000000E+00 0. -1.
        -14    1    3    3    0    0  0.28646413658E+02  0.57319669184E+02 -0.97897235488E+02  0.11700440251E+03  0.00000000000E+00 0.  1.
          5    1    4    4  501    0  0.66458797900E+02 -0.11541778505E+02  0.61567615787E+02  0.91422252122E+02  0.41800000000E+01 0. -1.
         -5    1    4    4    0  501 -0.57256915201E+02 -0.25322732482E+02  0.71308515962E+02  0.94984061649E+02  0.41800000000E+01 0. -1.
</event>
<event>
11    1  0.8037748E-009  0.2557222E+03  0.7561462E-02  0.1020894E+00
         22   -1    0    0    0    0  0.00000000000E+00  0.00000000000E+00  0.20377511710E+04  0.20377511710E+04  0.00000000000E+00 0. -1.
         22   -1    0    0    0    0 -0.00000000000E+00 -0.00000000000E+00 -0.47705994759E+03  0.47705994759E+03  0.00000000000E+00 0.  1.
        -24    2    1    2    0    0  0.81095384720E+01  0.22110964404E+03 -0.41666308832E+03  0.47848579809E+03  0.79908012813E+02 0.  0.
         25    2    1    2    0    0  0.73553767440E+02 -0.28314815558E+03  0.97613393749E+03  0.10266780678E+04  0.12508939336E+03 0.  0.
         24    2    1    2    0    0 -0.81663305912E+02  0.62038511548E+02  0.10012203742E+04  0.10096472527E+04  0.80172717185E+02 0.  0.
        -13    1    5    5    0    0  0.16327667973E+01 -0.11174024373E+02  0.28978447366E+02  0.31101047568E+02  0.00000000000E+00 0.  1.
         14    1    5    5    0    0 -0.83296072709E+02  0.73212535922E+02  0.97224192686E+03  0.97854620509E+03  0.00000000000E+00 0. -1.
         13    1    3    3    0    0 -0.14855945181E+02  0.44656566066E+02 -0.39453417699E+02  0.61412377972E+02  0.00000000000E+00 0. -1.
        -14    1    3    3    0    0  0.22965483653E+02  0.17645307797E+03 -0.37720967062E+03  0.41707342012E+03  0.00000000000E+00 0.  1.
          5    1    4    4  501    0  0.10691225721E+03 -0.22643738338E+03  0.72512470247E+03  0.76715541181E+03  0.41800000000E+01 0. -1.
         -5    1    4    4    0  501 -0.33358489773E+02 -0.56710772207E+02  0.25100923502E+03  0.25952265602E+03  0.41800000000E+01 0. -1.
</event>
<event>
11    1  0.8037748E-009  0.1348057E+03  0.7561462E-02  0.1113501E+00
         22   -1    0    0    0    0  0.00000000000E+00  0.00000000000E+00  0.22737858892E+04  0.22737858892E+04  0.00000000000E+00 0. -1.
         22   -1    0    0    0    0 -0.00000000000E+00 -0.00000000000E+00 -0.18000071875E+03  0.18000071875E+03  0.00000000000E+00 0. -1.
         24    2    1    2    0    0  0.40435628531E+01  0.35797096929E+01 -0.15814506347E+03  0.17739508928E+03  0.80187230148E+02 0.  0.
         25    2    1    2    0    0  0.46598201373E+02 -0.34001658595E+01  0.39291973431E+03  0.41499000044E+03  0.12509128409E+03 0.  0.
        -24    2    1    2    0    0 -0.50641764226E+02 -0.17954383335E+00  0.18590104996E+04  0.18614015182E+04  0.79567291991E+02 0.  0.
        -13    1    3    3    0    0  0.28887501603E+02  0.31623872795E+02 -0.88071818456E+02  0.97934683773E+02  0.00000000000E+00 0.  1.
         14    1    3    3    0    0 -0.24843938750E+02 -0.28044163102E+02 -0.70073245009E+02  0.79460405503E+02  0.00000000000E+00 0. -1.
         11    1    5    5    0    0 -0.77249695087E+01  0.47249557642E+01  0.14653816047E+04  0.14654095836E+04  0.00000000000E+00 0. -1.
        -12    1    5    5    0    0 -0.42916794718E+02 -0.49044995975E+01  0.39362889489E+03  0.39599193461E+03  0.00000000000E+00 0.  1.
          5    1    4    4  501    0  0.83839055862E+02  0.19304298970E+02  0.30232543021E+03  0.31435613785E+03  0.41800000000E+01 0. -1.
         -5    1    4    4    0  501 -0.37240854489E+02 -0.22704464830E+02  0.90594304100E+02  0.10063386260E+03  0.41800000000E+01 0. -1.
</event>
<event>
11    1  0.8037748E-009  0.1775115E+03  0.7561462E-02  0.1071674E+00
         22   -1    0    0    0    0  0.00000000000E+00  0.00000000000E+00  0.37420893329E+03  0.37420893329E+03  0.00000000000E+00 0. -1.
         22   -1    0    0    0    0 -0.00000000000E+00 -0.00000000000E+00 -0.27568850934E+04  0.27568850934E+04  0.00000000000E+00 0. -1.
         24    2    1    2    0    0 -0.24263082955E+02  0.91235594882E+02 -0.26178193233E+04  0.26218231281E+04  0.10984477367E+03 0.  0.
         25    2    1    2    0    0 -0.10353932799E+03 -0.58422052608E+02 -0.54444687791E+02  0.18094838101E+03  0.12507823108E+03 0.  0.
        -24    2    1    2    0    0  0.12780241095E+03 -0.32813542274E+02  0.28958785099E+03  0.32832251762E+03  0.80773555907E+02 0.  0.
        -13    1    3    3    0    0 -0.25783663788E+02  0.11700468591E+02 -0.14578225616E+03  0.14850644597E+03  0.00000000000E+00 0.  1.
         14    1    3    3    0    0  0.15205808328E+01  0.79535126291E+02 -0.24720370672E+04  0.24733166821E+04  0.00000000000E+00 0. -1.
         13    1    5    5    0    0  0.12884048319E+03 -0.13296390677E+02  0.27486060064E+03  0.30385031495E+03  0.00000000000E+00 0. -1.
        -14    1    5    5    0    0 -0.10380722438E+01 -0.19517151597E+02  0.14727250356E+02  0.24472202669E+02  0.00000000000E+00 0.  1.
          5    1    4    4  501    0  0.58755254124E+01  0.29156894860E+02  0.12971827687E+01  0.30063289905E+02  0.41800000000E+01 0. -1.
         -5    1    4    4    0  501 -0.10941485341E+03 -0.87578947469E+02 -0.55741870560E+02  0.15088509111E+03  0.41800000000E+01 0. -1.
</event>
<event>
11    1  0.8037748E-009  0.1441519E+03  0.7561462E-02  0.1103009E+00
         22   -1    0    0    0    0  0.00000000000E+00  0.00000000000E+00  0.20663565051E+04  0.20663565051E+04  0.00000000000E+00 0. -1.
         22   -1    0    0    0    0 -0.00000000000E+00 -0.00000000000E+00 -0.89100557188E+03  0.89100557188E+03  0.00000000000E+00 0.  1.
         24    2    1    2    0    0 -0.64434376188E+02 -0.33132354909E+02 -0.72286373415E+03  0.73094019850E+03  0.80573282581E+02 0.  0.
         25    2    1    2    0    0  0.17781811421E+02  0.95892386541E+02 -0.12403184218E+03  0.20136097279E+03  0.12510316092E+03 0.  0.
        -24    2    1    2    0    0  0.46652564766E+02 -0.62760031632E+02  0.20222465095E+04  0.20250609057E+04  0.72632244845E+02 0.  0.
        -11    1    3    3    0    0 -0.61829461015E+02 -0.52059306111E+02 -0.66743209122E+03  0.67230844855E+03  0.00000000000E+00 0.  1.
         12    1    3    3    0    0 -0.26049151731E+01  0.18926951202E+02 -0.55431642926E+02  0.58631749952E+02  0.00000000000E+00 0. -1.
         13    1    5    5    0    0  0.37345781911E+02 -0.23798772642E+02  0.16627406803E+04  0.16633302916E+04  0.00000000000E+00 0. -1.
        -14    1    5    5    0    0  0.93067828555E+01 -0.38961258990E+02  0.35950582922E+03  0.36173061407E+03  0.00000000000E+00 0.  1.
          5    1    4    4  501    0  0.14374179203E+02  0.12208591335E+03 -0.71136708043E+02  0.14208972833E+03  0.41800000000E+01 0. -1.
         -5    1    4    4    0  501  0.34076322182E+01 -0.26193526808E+02 -0.52895134138E+02  0.59271244457E+02  0.41800000000E+01 0. -1.
</event>
<event>
11    1  0.8037748E-009  0.2342539E+03  0.7561462E-02  0.1032639E+00
         22   -1    0    0    0    0  0.00000000000E+00  0.00000000000E+00  0.25926559307E+03  0.25926559307E+03  0.00000000000E+00 0. -1.
         22   -1    0    0    0    0 -0.00000000000E+00 -0.00000000000E+00 -0.94157095131E+03  0.94157095131E+03  0.00000000000E+00 0. -1.
         24    2    1    2    0    0  0.85491607536E+02 -0.17727057591E+03 -0.73326336460E+03  0.76415226971E+03  0.86717111358E+02 0.  0.
         25    2    1    2    0    0 -0.37765027482E+02  0.20794736093E+03 -0.92672920113E+02  0.26249496082E+03  0.12508809741E+03 0.  0.
        -24    2    1    2    0    0 -0.47726580054E+02 -0.30676785025E+02  0.14363092647E+03  0.17418931384E+03  0.80580285643E+02 0.  0.
        -13    1    3    3    0    0  0.15230185695E+00 -0.90525419144E+02 -0.37560663938E+03  0.38636151756E+03  0.00000000000E+00 0.  1.
         14    1    3    3    0    0  0.85339305679E+02 -0.86745156762E+02 -0.35765672522E+03  0.37779075215E+03  0.00000000000E+00 0. -1.
         11    1    5    5    0    0 -0.44588352077E+02 -0.55749726801E+02  0.11979459152E+03  0.13945213278E+03  0.00000000000E+00 0. -1.
        -12    1    5    5    0    0 -0.31382279773E+01  0.25072941776E+02  0.23836334948E+02  0.34737181059E+02  0.00000000000E+00 0.  1.
          5    1    4    4  501    0 -0.73403168302E+00  0.10057763993E+03  0.19801873097E+02  0.10259623304E+03  0.41800000000E+01 0. -1.
         -5    1    4    4    0  501 -0.37030995798E+02  0.10736972101E+03 -0.11247479321E+03  0.15989872778E+03  0.41800000000E+01 0. -1.
</event>
<event>
11    1  0.8037748E-009  0.1587632E+03  0.7561462E-02  0.1088246E+00
         22   -1    0    0    0    0  0.00000000000E+00  0.00000000000E+00  0.30760221155E+03  0.30760221155E+03  0.00000000000E+00 0. -1.
         22   -1    0    0    0    0 -0.00000000000E+00 -0.00000000000E+00 -0.12515230794E+04  0.12515230794E+04  0.00000000000E+00 0.  1.
         24    2    1    2    0    0  0.15344465926E+02 -0.13194537937E+02 -0.90702942723E+03  0.91098388591E+03  0.82338994723E+02 0.  0.
         25    2    1    2    0    0  0.28833284916E+02 -0.74854877865E+02 -0.31161200412E+03  0.34523717077E+03  0.12510816084E+03 0.  0.
        -24    2    1    2    0    0 -0.44177750842E+02  0.88049415802E+02  0.27472056345E+03  0.30290423431E+03  0.81087692583E+02 0.  0.
        -11    1    3    3    0    0 -0.28044842923E+02  0.15119871924E+02 -0.41986784604E+03  0.42107497181E+03  0.00000000000E+00 0.  1.
         12    1    3    3    0    0  0.43389308850E+02 -0.28314409861E+02 -0.48716158119E+03  0.48990891410E+03  0.00000000000E+00 0. -1.
         11    1    5    5    0    0 -0.26030093882E+02  0.32198340245E+02  0.21572598121E+03  0.21966337399E+03  0.00000000000E+00 0. -1.
        -12    1    5    5    0    0 -0.18147656960E+02  0.55851075556E+02  0.58994582244E+02  0.83240860327E+02  0.00000000000E+00 0.  1.
          5    1    4    4  501    0  0.19475592125E+02 -0.76718590356E+02 -0.77370637198E+02  0.11076429341E+03  0.41800000000E+01 0.  1.
         -5    1    4    4    0  501  0.93576927909E+01  0.18637124911E+01 -0.23424136692E+03  0.23447287735E+03  0.41800000000E+01 0.  1.
</event>
<event>
11    1  0.8037748E-009  0.1725479E+03  0.7561462E-02  0.1075835E+00
         22   -1    0    0    0    0  0.00000000000E+00  0.00000000000E+00  0.21995247234E+04  0.21995247234E+04  0.00000000000E+00 0. -1.
         22   -1    0    0    0    0 -0.00000000000E+00 -0.00000000000E+00 -0.55952340625E+03  0.55952340625E+03  0.00000000000E+00 0.  1.
        -24    2    1    2    0    0 -0.77679379166E+02  0.88369360493E+02 -0.51866864700E+03  0.53769264530E+03  0.79075821917E+02 0.  0.
         25    2    1    2    0    0  0.76348488148E+02 -0.15359384499E+03  0.34681045934E+03  0.40662736917E+03  0.12509261284E+03 0.  0.
         24    2    1    2    0    0  0.13308910173E+01  0.65224484496E+02  0.18118595048E+04  0.18147281151E+04  0.78404477978E+02 0.  0.
        -11    1    5    5    0    0 -0.95297030308E+01  0.17838735599E+02  0.92664525998E+02  0.94845928252E+02  0.00000000000E+00 0.  1.
         12    1    5    5    0    0  0.10860594048E+02  0.47385748897E+02  0.17191949788E+04  0.17198821869E+04  0.00000000000E+00 0. -1.
         13    1    3    3    0    0 -0.59163953125E+02  0.88287710929E+01 -0.20290907743E+03  0.21154293714E+03  0.00000000000E+00 0. -1.
        -14    1    3    3    0    0 -0.18515426041E+02  0.79540589400E+02 -0.31575956957E+03  0.32614970817E+03  0.00000000000E+00 0.  1.
          5    1    4    4  501    0  0.64754470275E+02 -0.16169540804E+03  0.22822534442E+03  0.28712858903E+03  0.41800000000E+01 0. -1.
         -5    1    4    4    0  501  0.11594017873E+02  0.81015630485E+01  0.11858511492E+03  0.11949878014E+03  0.41800000000E+01 0. -1.
</event>
<event>
11    1  0.8037748E-009  0.1269049E+03  0.7561462E-02  0.1123131E+00
         22   -1    0    0    0    0  0.00000000000E+00  0.00000000000E+00  0.11612220973E+04  0.11612220973E+04  0.00000000000E+00 0. -1.
         22   -1    0    0    0    0 -0.00000000000E+00 -0.00000000000E+00 -0.66265424875E+02  0.66265424875E+02  0.00000000000E+00 0. -1.
         24    2    1    2    0    0  0.22759988462E+01 -0.18235767738E+02 -0.19960850105E+02  0.84913861999E+02  0.80462444823E+02 0.  0.
         25    2    1    2    0    0 -0.22870786719E+02  0.11234718595E+02  0.34073565988E+03  0.36386697698E+03  0.12509634380E+03 0.  0.
        -24    2    1    2    0    0  0.20594787873E+02  0.70010491429E+01  0.77418186263E+03  0.77870668319E+03  0.80952961840E+02 0.  0.
        -11    1    3    3    0    0 -0.19950698429E+02  0.25900919344E+02 -0.37635069750E+01  0.32909755019E+02  0.00000000000E+00 0.  1.
         12    1    3    3    0    0  0.22226697275E+02 -0.44136687082E+02 -0.16197343130E+02  0.52004106980E+02  0.00000000000E+00 0. -1.
         13    1    5    5    0    0 -0.66964207713E+01 -0.31827060577E+02  0.43592131491E+03  0.43713292787E+03  0.00000000000E+00 0. -1.
        -14    1    5    5    0    0  0.27291208644E+02  0.38828109719E+02  0.33826054772E+03  0.34157375532E+03  0.00000000000E+00 0.  1.
          5    1    4    4  501    0 -0.10353934911E+02  0.21021482091E+02  0.10938599291E+01  0.23828042450E+02  0.41800000000E+01 0.  1.
         -5    1    4    4    0  501 -0.12516851808E+02 -0.97867634958E+01  0.33964179995E+03  0.34003893453E+03  0.41800000000E+01 0.  1.
</event>
<event>
11    1  0.8037748E-009  0.1362130E+03  0.7561462E-02  0.1111862E+00
         22   -1    0    0    0    0  0.00000000000E+00  0.00000000000E+00  0.22316238667E+03  0.22316238667E+03  0.00000000000E+00 0. -1.
         22   -1    0    0    0    0 -0.00000000000E+00 -0.00000000000E+00 -0.59936886470E+03  0.59936886470E+03  0.00000000000E+00 0. -1.
        -24    2    1    2    0    0 -0.47749908829E+02 -0.30348683947E+02 -0.50221964044E+03  0.51179079640E+03  0.80648345437E+02 0.  0.
         25    2    1    2    0    0  0.14339806009E+02  0.24825593054E+02 -0.30076455133E+02  0.13181094005E+03  0.12509032999E+03 0.  0.
         24    2    1    2    0    0  0.33410102820E+02  0.55230908924E+01  0.15608961755E+03  0.17892951491E+03  0.80653971367E+02 0.  0.
        -13    1    5    5    0    0  0.37506244472E+02  0.10183050206E+02  0.21925854276E+02  0.44622370753E+02  0.00000000000E+00 0.  1.
         14    1    5    5    0    0 -0.40961416512E+01 -0.46599593140E+01  0.13416376327E+03  0.13430714416E+03  0.00000000000E+00 0. -1.
         11    1    3    3    0    0 -0.61660236465E+02 -0.34306191743E+02 -0.48077340047E+03  0.48592382341E+03  0.00000000000E+00 0. -1.
        -12    1    3    3    0    0  0.13910327636E+02  0.39575077956E+01 -0.21446239972E+02  0.25866972994E+02  0.00000000000E+00 0.  1.
          5    1    4    4  501    0 -0.27994450488E+02  0.56537254771E+02  0.11673532475E+02  0.64295366828E+02  0.41800000000E+01 0.  1.
         -5    1    4    4    0  501  0.42334256497E+02 -0.31711661716E+02 -0.41749987608E+02  0.67515573220E+02  0.41800000000E+01 0.  1.
</event>
<event>
11    1  0.8037748E-009  0.1296301E+03  0.7561462E-02  0.1119724E+00
         22   -1    0    0    0    0  0.00000000000E+00  0.00000000000E+00  0.97584333913E+03  0.97584333913E+03  0.00000000000E+00 0. -1.
         22   -1    0    0    0    0 -0.00000000000E+00 -0.00000000000E+00 -0.14582717598E+03  0.14582717598E+03  0.00000000000E+00 0.  1.
        -24    2    1    2    0    0  0.22215651998E+02 -0.23013732014E+02 -0.89618061301E+02  0.12470957706E+03  0.80609643624E+02 0.  0.
         25    2    1    2    0    0 -0.47249368976E+02  0.20596111264E+02  0.88007127534E+02  0.16139909059E+03  0.12509080413E+03 0.  0.
         24    2    1    2    0    0  0.25033716979E+02  0.24176207498E+01  0.83162709691E+03  0.83556184746E+03  0.76989874290E+02 0.  0.
        -11    1    5    5    0    0  0.21060360545E+01  0.21819020891E+02  0.70204479238E+02  0.73547086724E+02  0.00000000000E+00 0.  1.
         12    1    5    5    0    0  0.22927680924E+02 -0.19401400141E+02  0.76142261767E+03  0.76201476074E+03  0.00000000000E+00 0. -1.
         13    1    3    3    0    0  0.47751502945E+02  0.55513408452E+01 -0.55280199638E+02  0.73259292180E+02  0.00000000000E+00 0. -1.
        -14    1    3    3    0    0 -0.25535850947E+02 -0.28565072859E+02 -0.34337861663E+02  0.51450284884E+02  0.00000000000E+00 0.  1.
          5    1    4    4  501    0 -0.68424113944E+02  0.62659603976E+01  0.10841252751E+03  0.12842067649E+03  0.41800000000E+01 0. -1.
         -5    1    4    4    0  501  0.21174744968E+02  0.14330150866E+02 -0.20405399975E+02  0.32978414098E+02  0.41800000000E+01 0. -1.
</event>
<event>
11    1  0.8037748E-009  0.1488365E+03  0.7561462E-02  0.1098074E+00
         22   -1    0    0    0    0  0.00000000000E+00  0.00000000000E+00  0.12711303329E+03  0.12711303329E+03  0.00000000000E+00 0.  1.
         22   -1    0    0    0    0 -0.00000000000E+00 -0.00000000000E+00 -0.18365889376E+04  0.18365889376E+04  0.00000000000E+00 0. -1.
         24    2    1    2    0    0  0.39480892265E+02 -0.49395517898E+02 -0.16405482826E+04  0.16438451463E+04  0.82641026221E+02 0.  0.
         25    2    1    2    0    0 -0.59156877455E+02 -0.36090933650E+02 -0.12387003390E+03  0.18919215582E+03  0.12509114631E+03 0.  0.
        -24    2    1    2    0    0  0.19675985190E+02  0.85486451549E+02  0.54942412229E+02  0.13066466878E+03  0.79746531053E+02 0.  0.
        -11    1    3    3    0    0 -0.19795440360E+01 -0.53227679290E+02 -0.56883419887E+03  0.57132254484E+03  0.00000000000E+00 0.  1.
         12    1    3    3    0    0  0.41460436301E+02  0.38321613917E+01 -0.10717140838E+04  0.10725226014E+04  0.00000000000E+00 0. -1.
         11    1    5    5    0    0  0.18320915035E+02 -0.91160891254E+01 -0.14608111486E+01  0.20515676393E+02  0.00000000000E+00 0. -1.
        -12    1    5    5    0    0  0.13550701556E+01  0.94602540674E+02  0.56403223378E+02  0.11014899239E+03  0.00000000000E+00 0.  1.
          5    1    4    4  501    0 -0.36054289542E+02 -0.85194089787E+01  0.18971595752E+02  0.41831638375E+02  0.41800000000E+01 0. -1.
         -5    1    4    4    0  501 -0.23102587913E+02 -0.27571524671E+02 -0.14284162965E+03  0.14736051745E+03  0.41800000000E+01 0. -1.
</event>
<event>
11    1  0.8037748E-009  0.1586321E+03  0.7561462E-02  0.1088371E+00
         22   -1    0    0    0    0  0.00000000000E+00  0.00000000000E+00  0.19050350107E+03  0.19050350107E+03  0.00000000000E+00 0.  1.
         22   -1    0    0    0    0 -0.00000000000E+00 -0.00000000000E+00 -0.16166388185E+04  0.16166388185E+04  0.00000000000E+00 0. -1.
         24    2    1    2    0    0 -0.63649041025E+01  0.59524697545E+01 -0.92264931165E+03  0.92621080992E+03  0.80676937285E+02 0.  0.
         25    2    1    2    0    0  0.20674470697E+02 -0.10223776541E+03 -0.66029630382E+03  0.68008630640E+03  0.12508469485E+03 0.  0.
        -24    2    1    2    0    0 -0.14309566595E+02  0.96285295661E+02  0.15681029801E+03  0.20084520329E+03  0.79206718564E+02 0.  0.
        -13    1    3    3    0    0  0.20157889067E+02  0.32353552847E+02 -0.29590557873E+03  0.29835080761E+03  0.00000000000E+00 0.  1.
         14    1    3    3    0    0 -0.26522793170E+02 -0.26401083093E+02 -0.62674373292E+03  0.62786000231E+03  0.00000000000E+00 0. -1.
         11    1    5    5    0    0  0.13842278190E+02 -0.68357777354E+01  0.73643119683E+01  0.17104666425E+02  0.00000000000E+00 0. -1.
        -12    1    5    5    0    0 -0.28151844785E+02  0.10312107340E+03  0.14944598604E+03  0.18374053687E+03  0.00000000000E+00 0.  1.
          5    1    4    4  501    0 -0.38504669113E+02  0.51638705631E+01 -0.12796417795E+03  0.13379678001E+03  0.41800000000E+01 0.  1.
         -5    1    4    4    0  501  0.59179139810E+02 -0.10740163598E+03 -0.53233212588E+03  0.54628952639E+03  0.41800000000E+01 0.  1.
</event>
<event>
11    1  0.8037748E-009  0.1592213E+03  0.7561462E-02  0.1087812E+00
         22   -1    0    0    0    0  0.00000000000E+00  0.00000000000E+00  0.47142103178E+03  0.47142103178E+03  0.00000000000E+00 0.  1.
         22   -1    0    0    0    0 -0.00000000000E+00 -0.00000000000E+00 -0.71239680579E+03  0.71239680579E+03  0.00000000000E+00 0.  1.
         24    2    1    2    0    0 -0.88939355535E+01  0.65146926168E+02 -0.63605898644E+03  0.64460003373E+03  0.81332313188E+02 0.  0.
         25    2    1    2    0    0  0.58618533522E+02  0.28969225810E+02  0.20336331806E+02  0.14260618509E+03  0.12509040378E+03 0.  0.
        -24    2    1    2    0    0 -0.49724597969E+02 -0.94116151978E+02  0.37474688063E+03  0.39661161875E+03  0.74398695410E+02 0.  0.
        -11    1    3    3    0    0 -0.34163542526E+02  0.69396213419E+02 -0.52188086983E+03  0.52758186509E+03  0.00000000000E+00 0.  1.
         12    1    3    3    0    0  0.25269606972E+02 -0.42492872512E+01 -0.11417811661E+03  0.11701816864E+03  0.00000000000E+00 0. -1.
         13    1    5    5    0    0 -0.63943679027E+01 -0.11132762816E+02  0.29003288889E+01  0.13162000473E+02  0.00000000000E+00 0. -1.
        -14    1    5    5    0    0 -0.43330230066E+02 -0.82983389162E+02  0.37184655174E+03  0.38344961827E+03  0.00000000000E+00 0.  1.
          5    1    4    4  501    0  0.57996370493E+02 -0.33258268364E+02 -0.18042126283E+02  0.69373497287E+02  0.41800000000E+01 0. -1.
         -5    1    4    4    0  501  0.62216302921E+00  0.62227494174E+02  0.38378458089E+02  0.73232687806E+02  0.41800000000E+01 0. -1.
</event>
<event>
11    1  0.8037748E-009  0.2011667E+03  0.7561462E-02  0.1053702E+00
         22   -1    0    0    0    0  0.00000000000E+00  0.00000000000E+00  0.10452381759E+03  0.10452381759E+03  0.00000000000E+00 0.  1.
         22   -1    0    0    0    0 -0.00000000000E+00 -0.00000000000E+00 -0.12712806170E+04  0.12712806170E+04  0.00000000000E+00 0. -1.
         24    2    1    2    0    0  0.21269428006E+02 -0.93319863799E+01 -0.52601684193E+03  0.53274086363E+03  0.81114950826E+02 0.  0.
         25    2    1    2    0    0 -0.12075339921E+03  0.12807948795E+03 -0.63026820362E+03  0.66623661553E+03  0.12508989057E+03 0.  0.
        -24    2    1    2    0    0  0.99483971200E+02 -0.11874750157E+03 -0.10471753871E+02  0.17682695545E+03  0.84617284816E+02 0.  0.
        -13    1    3    3    0    0 -0.29996115074E+02 -0.45388676928E+01 -0.26196081402E+03  0.26371165375E+03  0.00000000000E+00 0.  1.
         14    1    3    3    0    0  0.51265543080E+02 -0.47931186871E+01 -0.26405602791E+03  0.26902920988E+03  0.00000000000E+00 0. -1.
         13    1    5    5    0    0  0.28131681505E+02  0.14801157994E+01  0.18959202049E+02  0.33956348293E+02  0.00000000000E+00 0. -1.
        -14    1    5    5    0    0  0.71352289695E+02 -0.12022761737E+03 -0.29430955919E+02  0.14287060716E+03  0.00000000000E+00 0.  1.
          5    1    4    4  501    0 -0.97838368223E+02  0.14987084965E+02 -0.25342275321E+03  0.27209837055E+03  0.41800000000E+01 0. -1.
         -5    1    4    4    0  501 -0.22915030983E+02  0.11309240298E+03 -0.37684545041E+03  0.39413824498E+03  0.41800000000E+01 0. -1.
</event>
<event>
11    1  0.8037748E-009  0.1389225E+03  0.7561462E-02  0.1108768E+00
         22   -1    0    0    0    0  0.00000000000E+00  0.00000000000E+00  0.47036538325E+03  0.47036538325E+03  0.00000000000E+00 0.  1.
         22   -1    0    0    0    0 -0.00000000000E+00 -0.00000000000E+00 -0.92646844585E+03  0.92646844585E+03  0.00000000000E+00 0.  1.
        -24    2    1    2    0    0  0.84852429953E+00  0.42920109070E+02 -0.70045819792E+03  0.70639635062E+03  0.80692387422E+02 0.  0.
         25    2    1    2    0    0  0.40949780038E+02 -0.85455117536E+02 -0.18876579282E+03  0.24547669487E+03  0.12508725590E+03 0.  0.
         24    2    1    2    0    0 -0.41798304338E+02  0.42535008467E+02  0.43312092813E+03  0.44496078361E+03  0.82704506397E+02 0.  0.
        -13    1    5    5    0    0  0.16443266288E+01 -0.23749396055E+01  0.27394702701E+03  0.27396225607E+03  0.00000000000E+00 0.  1.
         14    1    5    5    0    0 -0.43442630967E+02  0.44909948072E+02  0.15917390112E+03  0.17099852754E+03  0.00000000000E+00 0. -1.
         13    1    3    3    0    0  0.37168671476E+02  0.38071049424E+02 -0.34888029729E+03  0.35291412097E+03  0.00000000000E+00 0. -1.
        -14    1    3    3    0    0 -0.36320147176E+02  0.48490596462E+01 -0.35157790063E+03  0.35348222965E+03  0.00000000000E+00 0.  1.
          5    1    4    4  501    0  0.61567386909E+02 -0.64656554053E+02 -0.47636822989E+02  0.10128056288E+03  0.41800000000E+01 0. -1.
         -5    1    4    4    0  501 -0.20617606870E+02 -0.20798563483E+02 -0.14112896983E+03  0.14419613199E+03  0.41800000000E+01 0. -1.
</event>
<event>
11    1  0.8037748E-009  0.1393725E+03  0.7561462E-02  0.1108261E+00
         22   -1    0    0    0    0  0.00000000000E+00  0.00000000000E+00  0.56851798771E+03  0.56851798771E+03  0.00000000000E+00 0. -1.
         22   -1    0    0    0    0 -0.00000000000E+00 -0.00000000000E+00 -0.25170966160E+03  0.25170966160E+03  0.00000000000E+00 0.  1.
         24    2    1    2    0    0  0.62343600676E+02 -0.12059653270E+02 -0.20127507681E+03  0.22932739194E+03  0.89706389761E+02 0.  0.
         25    2    1    2    0    0 -0.41616936292E+02  0.53525274781E+01  0.10195999390E+03  0.16674631181E+03  0.12509145938E+03 0.  0.
        -24    2    1    2    0    0 -0.20726664384E+02  0.67071257917E+01  0.41612340902E+03  0.42415394557E+03  0.79204152967E+02 0.  0.
        -11    1    3    3    0    0  0.68352412435E+02  0.10296183479E+02 -0.19256187140E+03  0.20459261472E+03  0.00000000000E+00 0.  1.
         12    1    3    3    0    0 -0.60088117597E+01 -0.22355836749E+02 -0.87132054142E+01  0.24734777220E+02  0.00000000000E+00 0. -1.
         11    1    5    5    0    0  0.71410728871E+01  0.38887212454E+02  0.19390264412E+03  0.19789251024E+03  0.00000000000E+00 0. -1.
        -12    1    5    5    0    0 -0.27867737271E+02 -0.32180086662E+02  0.22222076491E+03  0.22626143532E+03  0.00000000000E+00 0.  1.
          5    1    4    4  501    0 -0.78097037679E+01  0.54906450131E+02  0.94551706711E+01  0.56414381068E+02  0.41800000000E+01 0. -1.
         -5    1    4    4    0  501 -0.33807232524E+02 -0.49553922653E+02  0.92504823230E+02  0.11033193075E+03  0.41800000000E+01 0. -1.
</event>
<event>
11    1  0.8037748E-009  0.1922487E+03  0.7561462E-02  0.1060144E+00
         22   -1    0    0    0    0  0.00000000000E+00  0.00000000000E+00  0.11650717166E+04  0.11650717166E+04  0.00000000000E+00 0. -1.
         22   -1    0    0    0    0 -0.00000000000E+00 -0.00000000000E+00 -0.13144350706E+04  0.13144350706E+04  0.00000000000E+00 0. -1.
         24    2    1    2    0    0 -0.14212371646E+02  0.98675556247E+02 -0.12701255384E+04  0.12765560767E+04  0.80235134385E+02 0.  0.
         25    2    1    2    0    0 -0.13407104836E+03 -0.91820219547E+02  0.29068810821E+03  0.35575106889E+03  0.12511294112E+03 0.  0.
        -24    2    1    2    0    0  0.14828342000E+03 -0.68553367007E+01  0.83007407624E+03  0.84719964155E+03  0.81788093906E+02 0.  0.
        -13    1    3    3    0    0 -0.46576595314E+02  0.68910192391E+02 -0.75944995441E+03  0.76399098627E+03  0.00000000000E+00 0.  1.
         14    1    3    3    0    0  0.32364223668E+02  0.29765363856E+02 -0.51067558402E+03  0.51256509047E+03  0.00000000000E+00 0. -1.
         13    1    5    5    0    0  0.18391947168E+02 -0.31377049317E+02  0.14519859256E+03  0.14968438204E+03  0.00000000000E+00 0. -1.
        -14    1    5    5    0    0  0.12989147283E+03  0.24521712616E+02  0.68487548368E+03  0.69751525951E+03  0.00000000000E+00 0.  1.
          5    1    4    4  501    0  0.21689539702E+01  0.25075892499E+02  0.36945383137E+02  0.44899203569E+02  0.41800000000E+01 0. -1.
         -5    1    4    4    0  501 -0.13624000233E+03 -0.11689611205E+03  0.25374272507E+03  0.31085186532E+03  0.41800000000E+01 0. -1.
</event>
<event>
11    1  0.8037748E-009  0.1838526E+03  0.7561462E-02  0.1066568E+00
         22   -1    0    0    0    0  0.00000000000E+00  0.00000000000E+00  0.39345876468E+03  0.39345876468E+03  0.00000000000E+00 0.  1.
         22   -1    0    0    0    0 -0.00000000000E+00 -0.00000000000E+00 -0.17009331654E+04  0.17009331654E+04  0.00000000000E+00 0. -1.
        -24    2    1    2    0    0 -0.25610476136E+02  0.61515537114E+01 -0.14003228629E+04  0.14029474707E+04  0.81631777605E+02 0.  0.
         25    2    1    2    0    0  0.59737331677E+02 -0.13576253005E+03 -0.24908397449E+03  0.31573748503E+03  0.12508924712E+03 0.  0.
         24    2    1    2    0    0 -0.34126855541E+02  0.12961097634E+03  0.34193243664E+03  0.37570697436E+03  0.79210427984E+02 0.  0.
        -13    1    5    5    0    0 -0.37818399856E+02  0.13981141497E+03  0.31852697614E+03  0.34990984218E+03  0.00000000000E+00 0.  1.
         14    1    5    5    0    0  0.36915443154E+01 -0.10200438633E+02  0.23405460503E+02  0.25797132187E+02  0.00000000000E+00 0. -1.
         13    1    3    3    0    0 -0.22167262144E+02 -0.20250102124E+02 -0.12447953964E+04  0.12451574331E+04  0.00000000000E+00 0. -1.
        -14    1    3    3    0    0 -0.34432139917E+01  0.26401655836E+02 -0.15552746645E+03  0.15779003762E+03  0.00000000000E+00 0.  1.
          5    1    4    4  501    0  0.94234931916E+02 -0.12585062377E+03 -0.19223142519E+03  0.24837269401E+03  0.41800000000E+01 0.  1.
         -5    1    4    4    0  501 -0.34497600240E+02 -0.99119062795E+01 -0.56852549297E+02  0.67364791026E+02  0.41800000000E+01 0.  1.
</event>
<event>
11    1  0.8037748E-009  0.1404455E+03  0.7561462E-02  0.1107062E+00
         22   -1    0    0    0    0  0.00000000000E+00  0.00000000000E+00  0.13471253921E+03  0.13471253921E+03  0.00000000000E+00 0. -1.
         22   -1    0    0    0    0 -0.00000000000E+00 -0.00000000000E+00 -0.23263961007E+04  0.23263961007E+04  0.00000000000E+00 0. -1.
         24    2    1    2    0    0  0.16411815652E+02 -0.64490454500E+02 -0.20438794028E+04  0.20460995325E+04  0.68204966179E+02 0.  0.
         25    2    1    2    0    0  0.22754936781E+02  0.30699135307E+02 -0.24614682989E+03  0.27873666953E+03  0.12508255280E+03 0.  0.
        -24    2    1    2    0    0 -0.39166752433E+02  0.33791319193E+02  0.98342671218E+02  0.13627243784E+03  0.78886048094E+02 0.  0.
        -11    1    3    3    0    0 -0.25614445847E+02 -0.16032120956E+02 -0.79480433413E+03  0.79537856288E+03  0.00000000000E+00 0.  1.
         12    1    3    3    0    0  0.42026261499E+02 -0.48458333544E+02 -0.12490750687E+04  0.12507209697E+04  0.00000000000E+00 0. -1.
         13    1    5    5    0    0  0.14396636010E+02  0.21975625664E+02  0.69501318958E+02  0.74300905705E+02  0.00000000000E+00 0. -1.
        -14    1    5    5    0    0 -0.53563388443E+02  0.11815693529E+02  0.28841352260E+02  0.61971532136E+02  0.00000000000E+00 0.  1.
          5    1    4    4  501    0 -0.36426950469E+02  0.51191273917E+02 -0.16161839076E+03  0.17345156637E+03  0.41800000000E+01 0. -1.
         -5    1    4    4    0  501  0.59181887250E+02 -0.20492138610E+02 -0.84528439132E+02  0.10528510315E+03  0.41800000000E+01 0. -1.
</event>
<event>
11    1  0.8037748E-009  0.1919915E+03  0.7561462E-02  0.1060336E+00
         22   -1    0    0    0    0  0.00000000000E+00  0.00000000000E+00  0.39418657531E+03  0.39418657531E+03  0.00000000000E+00 0. -1.
         22   -1    0    0    0    0 -0.00000000000E+00 -0.00000000000E+00 -0.16048707928E+04  0.16048707928E+04  0.00000000000E+00 0. -1.
        -24    2    1    2    0    0 -0.19796672128E+02 -0.32264301271E+02 -0.10439236840E+04  0.10475438742E+04  0.78349326452E+02 0.  0.
         25    2    1    2    0    0  0.52124588476E+02  0.17296510313E+03 -0.51679597145E+03  0.56156865783E+03  0.12508949489E+03 0.  0.
         24    2    1    2    0    0 -0.32327916348E+02 -0.14070080186E+03  0.35003543793E+03  0.38994483613E+03  0.93222087482E+02 0.  0.
        -13    1    5    5    0    0 -0.79247970334E+01 -0.11867868439E+03  0.17337920443E+03  0.21025646498E+03  0.00000000000E+00 0.  1.
         14    1    5    5    0    0 -0.24403119314E+02 -0.22022117468E+02  0.17665623351E+03  0.17968837115E+03  0.00000000000E+00 0. -1.
         11    1    3    3    0    0 -0.95196091752E-01 -0.74655996862E+01 -0.90598523619E+03  0.90601600010E+03  0.00000000000E+00 0. -1.
        -12    1    3    3    0    0 -0.19701476036E+02 -0.24798701585E+02 -0.13793844783E+03  0.14152787411E+03  0.00000000000E+00 0.  1.
          5    1    4    4  501    0 -0.39826936263E+02  0.66264322009E+02 -0.15403748945E+03  0.17240117685E+03  0.41800000000E+01 0.  1.
         -5    1    4    4    0  501  0.91951524739E+02  0.10670078112E+03 -0.36275848200E+03  0.38916748098E+03  0.41800000000E+01 0.  1.
</event>
<event>
11    1  0.8037748E-009  0.6495951E+03  0.7561462E-02  0.9110069E-01
         22   -1    0    0    0    0  0.00000000000E+00  0.00000000000E+00  0.57011890811E+03  0.57011890811E+03  0.00000000000E+00 0. -1.
         22   -1    0    0    0    0 -0.00000000000E+00 -0.00000000000E+00 -0.99392844360E+03  0.99392844360E+03  0.00000000000E+00 0. -1.
         24    2    1    2    0    0  0.61114984796E+03  0.14424425707E+03 -0.47787794051E+03  0.79319993278E+03  0.80549767097E+02 0.  0.
         25    2    1    2    0    0 -0.63715840728E+03 -0.84042718929E+02  0.92230098329E+02  0.66120228770E+03  0.12509220460E+03 0.  0.
        -24    2    1    2    0    0  0.26008559319E+02 -0.60201538143E+02 -0.38161693311E+02  0.10964513124E+03  0.79152192747E+02 0.  0.
        -13    1    3    3    0    0  0.42722592244E+03  0.13799167269E+03 -0.33257142486E+03  0.55871946732E+03  0.00000000000E+00 0.  1.
         14    1    3    3    0    0  0.18392392552E+03  0.62525843864E+01 -0.14530651565E+03  0.23448046546E+03  0.00000000000E+00 0. -1.
         13    1    5    5    0    0  0.16846961769E+02  0.17650768099E+02 -0.90050392427E+01  0.26008853629E+02  0.00000000000E+00 0. -1.
        -14    1    5    5    0    0  0.91615975493E+01 -0.77852306242E+02 -0.29156654069E+02  0.83636277615E+02  0.00000000000E+00 0.  1.
          5    1    4    4  501    0 -0.50905687322E+03 -0.10104117762E+03  0.11046703473E+03  0.53063043440E+03  0.41800000000E+01 0. -1.
         -5    1    4    4    0  501 -0.12810153405E+03  0.16998458686E+02 -0.18236936399E+02  0.13057185330E+03  0.41800000000E+01 0. -1.
</event>
<event>
11    1  0.8037748E-009  0.1418756E+03  0.7561462E-02  0.1105482E+00
         22   -1    0    0    0    0  0.00000000000E+00  0.00000000000E+00  0.53460804389E+03  0.53460804389E+03  0.00000000000E+00 0. -1.
         22   -1    0    0    0    0 -0.00000000000E+00 -0.00000000000E+00 -0.10387153475E+04  0.10387153475E+04  0.00000000000E+00 0. -1.
         24    2    1    2    0    0 -0.69420635892E+02 -0.19809666885E+02 -0.99349410613E+03  0.99943910347E+03  0.81463703817E+02 0.  0.
         25    2    1    2    0    0  0.30014896640E+02 -0.45167224685E+02  0.10000131366E+03  0.16908402716E+03  0.12509265886E+03 0.  0.
        -24    2    1    2    0    0  0.39405739252E+02  0.64976891571E+02  0.38938548887E+03  0.40480026074E+03  0.80420043704E+02 0.  0.
        -11    1    3    3    0    0  0.11476904290E+02  0.15091153029E+02 -0.11677476032E+03  0.11830387517E+03  0.00000000000E+00 0.  1.
         12    1    3    3    0    0 -0.80897540182E+02 -0.34900819914E+02 -0.87671934581E+03  0.88113522830E+03  0.00000000000E+00 0. -1.
         13    1    5    5    0    0  0.64094581656E+02  0.40714871435E+02  0.27518048787E+03  0.28546473873E+03  0.00000000000E+00 0. -1.
        -14    1    5    5    0    0 -0.24688842404E+02  0.24262020136E+02  0.11420500100E+03  0.11933552201E+03  0.00000000000E+00 0.  1.
          5    1    4    4  501    0 -0.37999844223E+02 -0.50883303230E+02  0.69407345985E+02  0.94169797628E+02  0.41800000000E+01 0.  1.
         -5    1    4    4    0  501  0.68014740863E+02  0.57160785446E+01  0.30593967671E+02  0.74914229532E+02  0.41800000000E+01 0.  1.
</event>
<event>
11    1  0.8037748E-009  0.1403304E+03  0.7561462E-02  0.1107190E+00
         22   -1    0    0    0    0  0.00000000000E+00  0.00000000000E+00  0.18868508939E+04  0.18868508939E+04  0.00000000000E+00 0. -1.
         22   -1    0    0    0    0 -0.00000000000E+00 -0.00000000000E+00 -0.44590613293E+03  0.44590613293E+03  0.00000000000E+00 0.  1.
        -24    2    1    2    0    0 -0.63569098214E+02 -0.10292205571E+02 -0.39856165190E+03  0.41163710946E+03  0.80291716723E+02 0.  0.
         25    2    1    2    0    0  0.46605810857E+02  0.21780226692E+02  0.75027755818E+02  0.15467223664E+03  0.12509139365E+03 0.  0.
         24    2    1    2    0    0  0.16963287357E+02 -0.11488021121E+02  0.17644786570E+04  0.17664476807E+04  0.80825428091E+02 0.  0.
        -11    1    5    5    0    0 -0.23914829695E+02  0.93023665807E+00  0.20632433231E+03  0.20770776231E+03  0.00000000000E+00 0.  1.
         12    1    5    5    0    0  0.40878117052E+02 -0.12418257779E+02  0.15581543247E+04  0.15587399184E+04  0.00000000000E+00 0. -1.
         13    1    3    3    0    0  0.50343471579E+01  0.23875014113E+02 -0.66203765612E+02  0.70557065779E+02  0.00000000000E+00 0. -1.
        -14    1    3    3    0    0 -0.68603445372E+02 -0.34167219684E+02 -0.33235788629E+03  0.34108004368E+03  0.00000000000E+00 0.  1.
          5    1    4    4  501    0  0.88146851738E+02  0.31074640431E+00  0.51203122410E+02  0.10202546829E+03  0.41800000000E+01 0.  1.
         -5    1    4    4    0  501 -0.41541040881E+02  0.21469480288E+02  0.23824633408E+02  0.52646768356E+02  0.41800000000E+01 0.  1.
</event>
<event>
11    1  0.8037748E-009  0.1377701E+03  0.7561462E-02  0.1110074E+00
         22   -1    0    0    0    0  0.00000000000E+00  0.00000000000E+00  0.13309794177E+04  0.13309794177E+04  0.00000000000E+00 0. -1.
         22   -1    0    0    0    0 -0.00000000000E+00 -0.00000000000E+00 -0.66027435663E+03  0.66027435663E+03  0.00000000000E+00 0.  1.
         24    2    1    2    0    0  0.42487342776E+02 -0.47683339740E+02 -0.61200337764E+03  0.62041743419E+03  0.79314457811E+02 0.  0.
         25    2    1    2    0    0  0.97897845818E+01  0.16417227913E+02  0.54100679575E+02  0.13762051456E+03  0.12508859757E+03 0.  0.
        -24    2    1    2    0    0 -0.52277127358E+02  0.31266111828E+02  0.12286077592E+04  0.12332158256E+04  0.87371499138E+02 0.  0.
        -13    1    3    3    0    0  0.37602509535E+02 -0.46206707429E+02 -0.61240754930E+03  0.61529831380E+03  0.00000000000E+00 0.  1.
         14    1    3    3    0    0  0.48848332413E+01 -0.14766323111E+01  0.40417165738E+00  0.51191203840E+01  0.00000000000E+00 0. -1.
         11    1    5    5    0    0 -0.41667663799E+02  0.47819470759E+02  0.11629272091E+04  0.11646555670E+04  0.00000000000E+00 0. -1.
        -12    1    5    5    0    0 -0.10609463559E+02 -0.16553358931E+02  0.65680550030E+02  0.68560258613E+02  0.00000000000E+00 0.  1.
          5    1    4    4  501    0  0.40628366028E+02  0.49114116409E+02  0.65052876273E+02  0.91171320426E+02  0.41800000000E+01 0.  1.
         -5    1    4    4    0  501 -0.30838581447E+02 -0.32696888497E+02 -0.10952196697E+02  0.46449194132E+02  0.41800000000E+01 0.  1.
</event>
<event>
11    1  0.8037748E-009  0.2560964E+03  0.7561462E-02  0.1020701E+00
         22   -1    0    0    0    0  0.00000000000E+00  0.00000000000E+00  0.51880714318E+03  0.51880714318E+03  0.00000000000E+00 0. -1.
         22   -1    0    0    0    0 -0.00000000000E+00 -0.00000000000E+00 -0.10600889568E+04  0.10600889568E+04  0.00000000000E+00 0. -1.
         24    2    1    2    0    0 -0.19735712707E+03 -0.98446022918E+02 -0.92242585994E+03  0.95177827600E+03  0.79818322211E+02 0.  0.
         25    2    1    2    0    0  0.19845856171E+03  0.19332343698E+03  0.97716468910E+02  0.31930590025E+03  0.12509195673E+03 0.  0.
        -24    2    1    2    0    0 -0.11014346410E+01 -0.94877414057E+02  0.28342757739E+03  0.30781192375E+03  0.73580241385E+02 0.  0.
        -11    1    3    3    0    0 -0.10305746402E+03 -0.76640690668E+01 -0.38284694247E+03  0.39654931623E+03  0.00000000000E+00 0.  1.
         12    1    3    3    0    0 -0.94299663050E+02 -0.90781953851E+02 -0.53957891747E+03  0.55522895977E+03  0.00000000000E+00 0. -1.
         11    1    5    5    0    0  0.28678317397E+02 -0.47304802281E+02  0.19811444740E+03  0.20569279150E+03  0.00000000000E+00 0. -1.
        -12    1    5    5    0    0 -0.29779752038E+02 -0.47572611776E+02  0.85313129990E+02  0.10211913225E+03  0.00000000000E+00 0.  1.
          5    1    4    4  501    0  0.83111774579E+02  0.16345842240E+03  0.73770736232E+02  0.19770133245E+03  0.41800000000E+01 0.  1.
         -5    1    4    4    0  501  0.11534678713E+03  0.29865014577E+02  0.23945732678E+02  0.12160456780E+03  0.41800000000E+01 0.  1.
</event>
<event>
11    1  0.8037748E-009  0.1363884E+03  0.7561462E-02  0.1111660E+00
         22   -1    0    0    0    0  0.00000000000E+00  0.00000000000E+00  0.49465289757E+03  0.49465289757E+03  0.00000000000E+00 0.  1.
         22   -1    0    0    0    0 -0.00000000000E+00 -0.00000000000E+00 -0.61998999760E+03  0.61998999760E+03  0.00000000000E+00 0. -1.
         24    2    1    2    0    0  0.24239263101E+02  0.46520956944E+02 -0.53020420960E+03  0.53868657654E+03  0.79466864541E+02 0.  0.
         25    2    1    2    0    0 -0.72666982971E+02 -0.61563565777E+02 -0.29282055653E+01  0.15724811415E+03  0.12509129455E+03 0.  0.
        -24    2    1    2    0    0  0.48427719870E+02  0.15042608832E+02  0.40779531513E+03  0.41870820448E+03  0.80299547458E+02 0.  0.
        -13    1    3    3    0    0 -0.13544298892E+01  0.43077404572E+02 -0.11715801705E+03  0.12483388252E+03  0.00000000000E+00 0.  1.
         14    1    3    3    0    0  0.25593692990E+02  0.34435523723E+01 -0.41304619254E+03  0.41385269402E+03  0.00000000000E+00 0. -1.
         13    1    5    5    0    0 -0.58955727197E-01 -0.25526567970E+02  0.59854555507E+02  0.65070553732E+02  0.00000000000E+00 0. -1.
        -14    1    5    5    0    0  0.48486675598E+02  0.40569176802E+02  0.34794075963E+03  0.35363765075E+03  0.00000000000E+00 0.  1.
          5    1    4    4  501    0 -0.93992077406E+02 -0.10689885355E+02  0.20972881927E+02  0.96985145462E+02  0.41800000000E+01 0.  1.
         -5    1    4    4    0  501  0.21325094435E+02 -0.50873680422E+02 -0.23901087492E+02  0.60262968692E+02  0.41800000000E+01 0.  1.
</event>
<event>
11    1  0.8037748E-009  0.2245285E+03  0.7561462E-02  0.1038417E+00
         22   -1    0    0    0    0  0.00000000000E+00  0.00000000000E+00  0.30747539486E+03  0.30747539486E+03  0.00000000000E+00 0. -1.
         22   -1    0    0    0    0 -0.00000000000E+00 -0.00000000000E+00 -0.93369694620E+03  0.93369694620E+03  0.00000000000E+00 0. -1.
         24    2    1    2    0    0 -0.71547414269E+02  0.14231581450E+03 -0.69164347945E+03  0.71418514589E+03  0.79478905416E+02 0.  0.
         25    2    1    2    0    0  0.23931117466E+03 -0.79510381760E+02 -0.67826650128E+02  0.28955067681E+03  0.12508957131E+03 0.  0.
        -24    2    1    2    0    0 -0.16776376039E+03 -0.62805432736E+02  0.13324857823E+03  0.23743651835E+03  0.80819026007E+02 0.  0.
        -13    1    3    3    0    0 -0.76663958736E+02  0.73472965514E+02 -0.35520661446E+03  0.37073896232E+03  0.00000000000E+00 0.  1.
         14    1    3    3    0    0  0.51165444673E+01  0.68842848982E+02 -0.33643686499E+03  0.34344618357E+03  0.00000000000E+00 0. -1.
         13    1    5    5    0    0 -0.22015951335E+02  0.85341834148E+01  0.49467330831E+02  0.54813786763E+02  0.00000000000E+00 0. -1.
        -14    1    5    5    0    0 -0.14574780906E+03 -0.71339616151E+02  0.83781247400E+02  0.18262273159E+03  0.00000000000E+00 0.  1.
          5    1    4    4  501    0  0.21406822843E+03 -0.31651070659E+02 -0.20253409273E+02  0.21738139222E+03  0.41800000000E+01 0. -1.
         -5    1    4    4    0  501  0.25242946234E+02 -0.47859311101E+02 -0.47573240855E+02  0.72169284596E+02  0.41800000000E+01 0. -1.
</event>
<event>
11    1  0.8037748E-009  0.1346408E+03  0.7561462E-02  0.1113695E+00
         22   -1    0    0    0    0  0.00000000000E+00  0.00000000000E+00  0.72257939924E+03  0.72257939924E+03  0.00000000000E+00 0. -1.
         22   -1    0    0    0    0 -0.00000000000E+00 -0.00000000000E+00 -0.16484425713E+04  0.16484425713E+04  0.00000000000E+00 0. -1.
         24    2    1    2    0    0  0.44789213265E+01 -0.33995460727E+00 -0.16096411524E+04  0.16116392722E+04  0.80101983915E+02 0.  0.
         25    2    1    2    0    0  0.27727875974E+02 -0.38055636908E+02  0.97379153932E+02  0.16537192655E+03  0.12509239731E+03 0.  0.
        -24    2    1    2    0    0 -0.32206797300E+02  0.38395591515E+02  0.58639882642E+03  0.59401077180E+03  0.80459394380E+02 0.  0.
        -13    1    3    3    0    0  0.70790201286E+01 -0.39492946763E+02 -0.93167119193E+03  0.93253472602E+03  0.00000000000E+00 0.  1.
         14    1    3    3    0    0 -0.26000988020E+01  0.39152992156E+02 -0.67796996048E+03  0.67910454617E+03  0.00000000000E+00 0. -1.
         11    1    5    5    0    0 -0.55568609976E+02  0.21340576716E+02  0.28044291574E+03  0.28669063399E+03  0.00000000000E+00 0. -1.
        -12    1    5    5    0    0  0.23361812675E+02  0.17055014798E+02  0.30595591068E+03  0.30732013781E+03  0.00000000000E+00 0.  1.
          5    1    4    4  501    0 -0.23568233615E+02 -0.68442236047E+02  0.41457553227E+02  0.83522466620E+02  0.41800000000E+01 0. -1.
         -5    1    4    4    0  501  0.51296109589E+02  0.30386599139E+02  0.55921600705E+02  0.81849459934E+02  0.41800000000E+01 0. -1.
</event>
<event>
11    1  0.8037748E-009  0.1782485E+03  0.7561462E-02  0.1071068E+00
         22   -1    0    0    0    0  0.00000000000E+00  0.00000000000E+00  0.23013542416E+03  0.23013542416E+03  0.00000000000E+00 0. -1.
         22   -1    0    0    0    0 -0.00000000000E+00 -0.00000000000E+00 -0.97029406125E+03  0.97029406125E+03  0.00000000000E+00 0.  1.
         24    2    1    2    0    0 -0.62556677785E+01 -0.41394690091E+02 -0.82290215642E+03  0.82800918622E+03  0.81722699894E+02 0.  0.
         25    2    1    2    0    0  0.45302749582E+01  0.15768404919E+03 -0.12926674513E+02  0.20172442013E+03  0.12506342392E+03 0.  0.
        -24    2    1    2    0    0  0.17253928203E+01 -0.11628935910E+03  0.95670193847E+02  0.17069587906E+03  0.80362336443E+02 0.  0.
        -11    1    3    3    0    0  0.80732378807E+00 -0.65984542898E+02 -0.61933658794E+03  0.62284221183E+03  0.00000000000E+00 0.  1.
         12    1    3    3    0    0 -0.70629915666E+01  0.24589852808E+02 -0.20356556848E+03  0.20516697439E+03  0.00000000000E+00 0. -1.
         13    1    5    5    0    0 -0.90958999014E+01 -0.62850230257E+02  0.97250968362E+02  0.11614920441E+03  0.00000000000E+00 0. -1.
        -14    1    5    5    0    0  0.10821292722E+02 -0.53439128839E+02 -0.15807745146E+01  0.54546674649E+02  0.00000000000E+00 0.  1.
          5    1    4    4  501    0  0.45445956867E+02  0.77126635938E+02  0.38657177027E+02  0.97599706467E+02  0.41800000000E+01 0.  1.
         -5    1    4    4    0  501 -0.40915681909E+02  0.80557413248E+02 -0.51583851540E+02  0.10412471366E+03  0.41800000000E+01 0.  1.
</event>
<event>
11    1  0.8037748E-009  0.2046410E+03  0.7561462E-02  0.1051289E+00
         22   -1    0    0    0    0  0.00000000000E+00  0.00000000000E+00  0.91814186208E+03  0.91814186208E+03  0.00000000000E+00 0.  1.
         22   -1    0    0    0    0 -0.00000000000E+00 -0.00000000000E+00 -0.50298619625E+03  0.50298619625E+03  0.00000000000E+00 0. -1.
        -24    2    1    2    0    0 -0.10551193152E+03 -0.64985023659E+01 -0.32151923542E+03  0.34783144604E+03  0.80231526748E+02 0.  0.
         25    2    1    2    0    0  0.16568995907E+03 -0.14169115259E+03 -0.59235058564E+02  0.25823560850E+03  0.12508913652E+03 0.  0.
         24    2    1    2    0    0 -0.60178027546E+02  0.14818965496E+03  0.79590995981E+03  0.81506100378E+03  0.72596190826E+02 0.  0.
        -13    1    5    5    0    0 -0.29003124715E+02  0.29497431994E+02  0.35464650973E+03  0.35705101400E+03  0.00000000000E+00 0.  1.
         14    1    5    5    0    0 -0.31174902831E+02  0.11869222296E+03  0.44126345009E+03  0.45800998978E+03  0.00000000000E+00 0. -1.
         11    1    3    3    0    0 -0.11421213420E+03  0.61017735798E+01 -0.25346377169E+03  0.27807467845E+03  0.00000000000E+00 0. -1.
        -12    1    3    3    0    0  0.87002026776E+01 -0.12600275946E+02 -0.68055463733E+02  0.69756767589E+02  0.00000000000E+00 0.  1.
          5    1    4    4  501    0  0.12122803813E+03 -0.29532919639E+02 -0.57629419533E+02  0.13750291985E+03  0.41800000000E+01 0.  1.
         -5    1    4    4    0  501  0.44461920938E+02 -0.11215823295E+03 -0.16056390309E+01  0.12073268865E+03  0.41800000000E+01 0.  1.
</event>
<event>
11    1  0.8037748E-009  0.1398893E+03  0.7561462E-02  0.1107682E+00
         22   -1    0    0    0    0  0.00000000000E+00  0.00000000000E+00  0.47733930080E+03  0.47733930080E+03  0.00000000000E+00 0.  1.
         22   -1    0    0    0    0 -0.00000000000E+00 -0.00000000000E+00 -0.33607874016E+03  0.33607874016E+03  0.00000000000E+00 0. -1.
        -24    2    1    2    0    0  0.64636765051E+00  0.21304186518E+02 -0.22851911953E+03  0.24349895811E+03  0.81341677245E+02 0.  0.
         25    2    1    2    0    0  0.37855478063E+02  0.29441062264E+02 -0.46025946205E+02  0.14165342826E+03  0.12508993823E+03 0.  0.
         24    2    1    2    0    0 -0.38501845714E+02 -0.50745248782E+02  0.41580562637E+03  0.42826565459E+03  0.80372131921E+02 0.  0.
        -13    1    5    5    0    0 -0.79703841107E+01 -0.53650663103E+02  0.36433613818E+03  0.36835138422E+03  0.00000000000E+00 0.  1.
         14    1    5    5    0    0 -0.30531461603E+02  0.29054143210E+01  0.51469488182E+02  0.59914270368E+02  0.00000000000E+00 0. -1.
         13    1    3    3    0    0 -0.32597933968E+02  0.25951089865E+02 -0.17823287204E+03  0.18303835948E+03  0.00000000000E+00 0. -1.
        -14    1    3    3    0    0  0.33244301618E+02 -0.46469033478E+01 -0.50286247484E+02  0.60460598631E+02  0.00000000000E+00 0.  1.
          5    1    4    4  501    0 -0.14221202079E+02 -0.15616157630E+02  0.31321869812E+02  0.38008405600E+02  0.41800000000E+01 0.  1.
         -5    1    4    4    0  501  0.52076680142E+02  0.45057219894E+02 -0.77347816017E+02  0.10364502266E+03  0.41800000000E+01 0.  1.
</event>
<event>
11    1  0.8037748E-009  0.2194027E+03  0.7561462E-02  0.1041592E+00
         22   -1    0    0    0    0  0.00000000000E+00  0.00000000000E+00  0.14412617973E+04  0.14412617973E+04  0.00000000000E+00 0. -1.
         22   -1    0    0    0    0 -0.00000000000E+00 -0.00000000000E+00 -0.10997005126E+03  0.10997005126E+03  0.00000000000E+00 0. -1.
        -24    2    1    2    0    0  0.86131992076E+02 -0.66717799710E+01 -0.33844003443E+01  0.11194971718E+03  0.71119985257E+02 0.  0.
         25    2    1    2    0    0  0.98685067748E+02 -0.54724498120E+02  0.12087477303E+03  0.20734554532E+03  0.12509177078E+03 0.  0.
         24    2    1    2    0    0 -0.18481705982E+03  0.61396278091E+02  0.12138013734E+04  0.12319365861E+04  0.80169380643E+02 0.  0.
        -13    1    5    5    0    0 -0.27080590854E+02  0.44314030237E+02  0.30493113210E+03  0.30932197949E+03  0.00000000000E+00 0.  1.
         14    1    5    5    0    0 -0.15773646897E+03  0.17082247853E+02  0.90887024127E+03  0.92261460660E+03  0.00000000000E+00 0. -1.
         13    1    3    3    0    0  0.86646313933E+02 -0.26858496149E+02  0.30238723303E+01  0.90764014551E+02  0.00000000000E+00 0. -1.
        -14    1    3    3    0    0 -0.51432185702E+00  0.20186716178E+02 -0.64082726746E+01  0.21185702624E+02  0.00000000000E+00 0.  1.
          5    1    4    4  501    0  0.95151734299E+02 -0.79455456839E+02  0.13069204305E+03  0.18018020057E+03  0.41800000000E+01 0.  1.
         -5    1    4    4    0  501  0.35333334489E+01  0.24730958719E+02 -0.98172700203E+01  0.27165344744E+02  0.41800000000E+01 0.  1.
</event>
<event>
11    1  0.8037748E-009  0.1360919E+03  0.7561462E-02  0.1112003E+00
         22   -1    0    0    0    0  0.00000000000E+00  0.00000000000E+00  0.63956612042E+03  0.63956612042E+03  0.00000000000E+00 0.  1.
         22   -1    0    0    0    0 -0.00000000000E+00 -0.00000000000E+00 -0.78403080339E+02  0.78403080339E+02  0.00000000000E+00 0. -1.
        -24    2    1    2    0    0  0.15792655730E+01  0.54651806723E+02 -0.19557308031E+02  0.98889257811E+02  0.80045505527E+02 0.  0.
         25    2    1    2    0    0 -0.15458022634E+02 -0.42815680174E+02  0.37281818272E+03  0.39586770632E+03  0.12508281500E+03 0.  0.
         24    2    1    2    0    0  0.13878757061E+02 -0.11836126549E+02  0.20790216539E+03  0.22321223663E+03  0.79168670670E+02 0.  0.
        -13    1    5    5    0    0 -0.31816012878E+02 -0.12456153522E+02  0.10969572798E+03  0.11489372121E+03  0.00000000000E+00 0.  1.
         14    1    5    5    0    0  0.45694769939E+02  0.62002697321E+00  0.98206437416E+02  0.10831851542E+03  0.00000000000E+00 0. -1.
         13    1    3    3    0    0 -0.29656658219E+01  0.54322535924E+02 -0.46497493519E+02  0.71566402638E+02  0.00000000000E+00 0. -1.
        -14    1    3    3    0    0  0.45449313949E+01  0.32927079861E+00  0.26940185488E+02  0.27322855173E+02  0.00000000000E+00 0.  1.
          5    1    4    4  501    0  0.38595863392E+02 -0.43594738214E+02  0.85813186979E+02  0.10378592068E+03  0.41800000000E+01 0. -1.
         -5    1    4    4    0  501 -0.54053886026E+02  0.77905803991E+00  0.28700499574E+03  0.29208178564E+03  0.41800000000E+01 0. -1.
</event>
<event>
11    1  0.8037748E-009  0.1342538E+03  0.7561462E-02  0.1114150E+00
         22   -1    0    0    0    0  0.00000000000E+00  0.00000000000E+00  0.60725554164E+03  0.60725554164E+03  0.00000000000E+00 0. -1.
         22   -1    0    0    0    0 -0.00000000000E+00 -0.00000000000E+00 -0.28633584959E+03  0.28633584959E+03  0.00000000000E+00 0. -1.
         24    2    1    2    0    0 -0.14238011878E+02  0.82814502327E+01 -0.25002008036E+03  0.26294617742E+03  0.79745521740E+02 0.  0.
         25    2    1    2    0    0  0.60188081264E+02 -0.12571991720E+01  0.17056059301E+03  0.21991738595E+03  0.12509418483E+03 0.  0.
        -24    2    1    2    0    0 -0.45950069386E+02 -0.70242510607E+01  0.40037917939E+03  0.41072782786E+03  0.78950062144E+02 0.  0.
        -13    1    3    3    0    0 -0.36650343650E+02  0.45392921720E+01 -0.52870220599E+02  0.64491186136E+02  0.00000000000E+00 0.  1.
         14    1    3    3    0    0  0.22412331772E+02  0.37421580607E+01 -0.19714985976E+03  0.19845499128E+03  0.00000000000E+00 0. -1.
         13    1    5    5    0    0 -0.40120175199E+02 -0.48070270879E+00  0.39994566757E+03  0.40195322680E+03  0.00000000000E+00 0. -1.
        -14    1    5    5    0    0 -0.58298941862E+01 -0.65435483519E+01  0.43351182450E+00  0.87746010597E+01  0.00000000000E+00 0.  1.
          5    1    4    4  501    0  0.36207751555E+02 -0.54905650006E+02  0.41061591685E+02  0.77647655386E+02  0.41800000000E+01 0.  1.
         -5    1    4    4    0  501  0.23980329709E+02  0.53648450834E+02  0.12949900133E+03  0.14226973056E+03  0.41800000000E+01 0.  1.
</event>
<event>
11    1  0.8037748E-009  0.1333259E+03  0.7561462E-02  0.1115249E+00
         22   -1    0    0    0    0  0.00000000000E+00  0.00000000000E+00  0.90538054135E+03  0.90538054135E+03  0.00000000000E+00 0. -1.
         22   -1    0    0    0    0 -0.00000000000E+00 -0.00000000000E+00 -0.10006083737E+04  0.10006083737E+04  0.00000000000E+00 0.  1.
         24    2    1    2    0    0 -0.98960667774E+01  0.40076764580E+02 -0.91865779456E+03  0.92318555610E+03  0.81457647203E+02 0.  0.
         25    2    1    2    0    0 -0.31354323763E+02 -0.17415079541E+02 -0.21933161545E+02  0.13197132008E+03  0.12509591174E+03 0.  0.
        -24    2    1    2    0    0  0.41250390540E+02 -0.22661685039E+02  0.84536312377E+03  0.85083203885E+03  0.84030950373E+02 0.  0.
        -11    1    3    3    0    0 -0.44460622674E+02  0.27075908683E+02 -0.63576458804E+03  0.63789220344E+03  0.00000000000E+00 0.  1.
         12    1    3    3    0    0  0.34564555897E+02  0.13000855896E+02 -0.28289320651E+03  0.28529335266E+03  0.00000000000E+00 0. -1.
         13    1    5    5    0    0  0.63253692335E+02 -0.28902710511E+02  0.72401952555E+03  0.72735181972E+03  0.00000000000E+00 0. -1.
        -14    1    5    5    0    0 -0.22003301795E+02  0.62410254719E+01  0.12134359822E+03  0.12348021913E+03  0.00000000000E+00 0.  1.
          5    1    4    4  501    0 -0.56630341688E+02 -0.55994621205E+02  0.21390194371E+01  0.79777446736E+02  0.41800000000E+01 0.  1.
         -5    1    4    4    0  501  0.25276017925E+02  0.38579541664E+02 -0.24072180982E+02  0.52193873341E+02  0.41800000000E+01 0.  1.
</event>
<event>
11    1  0.8037748E-009  0.2081071E+03  0.7561462E-02  0.1048934E+00
         22   -1    0    0    0    0  0.00000000000E+00  0.00000000000E+00  0.14908462632E+04  0.14908462632E+04  0.00000000000E+00 0. -1.
         22   -1    0    0    0    0 -0.00000000000E+00 -0.00000000000E+00 -0.25787855117E+03  0.25787855117E+03  0.00000000000E+00 0. -1.
        -24    2    1    2    0    0 -0.15711801428E+03  0.65562244149E+01 -0.14832851404E+03  0.22963337320E+03  0.77466660683E+02 0.  0.
         25    2    1    2    0    0  0.23366984275E+03  0.83696998720E+02  0.23524744411E+03  0.36413721572E+03  0.12509104247E+03 0.  0.
         24    2    1    2    0    0 -0.76551828464E+02 -0.90253223135E+02  0.11460487820E+04  0.11549542255E+04  0.80533381373E+02 0.  0.
        -11    1    5    5    0    0 -0.65522399284E+01 -0.28197154096E+01  0.57338936232E+01  0.91520587385E+01  0.00000000000E+00 0.  1.
         12    1    5    5    0    0 -0.69999588536E+02 -0.87433507725E+02  0.11403148883E+04  0.11458021667E+04  0.00000000000E+00 0. -1.
         11    1    3    3    0    0 -0.78390035555E+02 -0.20354226473E+02 -0.11351071805E+03  0.13944165562E+03  0.00000000000E+00 0. -1.
        -12    1    3    3    0    0 -0.78727978729E+02  0.26910450888E+02 -0.34817795986E+02  0.90191717574E+02  0.00000000000E+00 0.  1.
          5    1    4    4  501    0  0.22137028280E+02  0.56866532090E+02  0.29920703576E+02  0.68092373989E+02  0.41800000000E+01 0.  1.
         -5    1    4    4    0  501  0.21153281447E+03  0.26830466630E+02  0.20532674053E+03  0.29604484173E+03  0.41800000000E+01 0.  1.
</event>
<event>
11    1  0.8037748E-009  0.1472180E+03  0.7561462E-02  0.1099756E+00
         22   -1    0    0    0    0  0.00000000000E+00  0.00000000000E+00  0.94652920401E+03  0.94652920401E+03  0.00000000000E+00 0.  1.
         22   -1    0    0    0    0 -0.00000000000E+00 -0.00000000000E+00 -0.13621278276E+04  0.13621278276E+04  0.00000000000E+00 0. -1.
         24    2    1    2    0    0  0.54952642059E+02  0.43959608459E+02 -0.11077862291E+04  0.11128708671E+04  0.79617821340E+02 0.  0.
         25    2    1    2    0    0 -0.49731373179E+02 -0.12082052225E+03 -0.21542544109E+03  0.28130401304E+03  0.12511202584E+03 0.  0.
        -24    2    1    2    0    0 -0.52212688803E+01  0.76860913793E+02  0.90761304659E+03  0.91448215144E+03  0.81125219565E+02 0.  0.
        -13    1    3    3    0    0  0.71504311761E+02  0.17850048891E+02 -0.86280374625E+03  0.86594560764E+03  0.00000000000E+00 0.  1.
         14    1    3    3    0    0 -0.16551669702E+02  0.26109559568E+02 -0.24498248281E+03  0.24692525945E+03  0.00000000000E+00 0. -1.
         11    1    5    5    0    0 -0.86335748725E+01  0.60277792154E+02  0.27579511762E+03  0.28243742270E+03  0.00000000000E+00 0. -1.
        -12    1    5    5    0    0  0.34123059922E+01  0.16583121639E+02  0.63181792897E+03  0.63204472874E+03  0.00000000000E+00 0.  1.
          5    1    4    4  501    0 -0.72552208310E+02 -0.33626405390E+02 -0.14937369307E+03  0.16948312792E+03  0.41800000000E+01 0. -1.
         -5    1    4    4    0  501  0.22820835131E+02 -0.87194116863E+02 -0.66051748019E+02  0.11182088512E+03  0.41800000000E+01 0. -1.
</event>
<event>
11    1  0.8286415E-009  0.2368273E+03  0.7561462E-02  0.1031160E+00
         22   -1    0    0    0    0  0.00000000000E+00  0.00000000000E+00  0.43979841155E+03  0.43979841155E+03  0.00000000000E+00 0. -1.
         22   -1    0    0    0    0 -0.00000000000E+00 -0.00000000000E+00 -0.80255293275E+03  0.80255293275E+03  0.00000000000E+00 0. -1.
        -24    2    1    2    0    0  0.61737865325E+02 -0.13547004139E+02 -0.32799277394E+03  0.34371838941E+03  0.81043112749E+02 0.  0.
         25    2    1    2    0    0 -0.18742314116E+03  0.16646245049E+03 -0.39232689426E+03  0.48208548034E+03  0.12509531217E+03 0.  0.
         24    2    1    2    0    0  0.12568527583E+03 -0.15291544636E+03  0.35756514700E+03  0.41654747455E+03  0.80492495989E+02 0.  0.
        -11    1    5    5    0    0  0.21603033617E+02  0.66615727423E+01  0.47912925467E+02  0.52978448822E+02  0.00000000000E+00 0.  1.
         12    1    5    5    0    0  0.10408224222E+03 -0.15957701910E+03  0.30965222153E+03  0.36356902573E+03  0.00000000000E+00 0. -1.
         11    1    3    3    0    0  0.68517319705E+02 -0.49615961341E+01 -0.14554346782E+03  0.16094142276E+03  0.00000000000E+00 0. -1.
        -12    1    3    3    0    0 -0.67794543798E+01 -0.85854080049E+01 -0.18244930612E+03  0.18277696665E+03  0.00000000000E+00 0.  1.
          5    1    4    4  501    0 -0.41902325669E+02  0.11824244334E+03 -0.15387810450E+03  0.19857750061E+03  0.41800000000E+01 0. -1.
         -5    1    4    4    0  501 -0.14552081549E+03  0.48220007150E+02 -0.23844878976E+03  0.28350797972E+03  0.41800000000E+01 0. -1.
</event>
<event>
11    1  0.8037748E-009  0.1632772E+03  0.7561462E-02  0.1084035E+00
         22   -1    0    0    0    0  0.00000000000E+00  0.00000000000E+00  0.17293003080E+03  0.17293003080E+03  0.00000000000E+00 0. -1.
         22   -1    0    0    0    0 -0.00000000000E+00 -0.00000000000E+00 -0.61233751652E+03  0.61233751652E+03  0.00000000000E+00 0.  1.
         24    2    1    2    0    0  0.78717260347E+02  0.16882786854E+02 -0.36970693463E+03  0.38676265573E+03  0.80129262983E+02 0.  0.
         25    2    1    2    0    0  0.95298199477E+01 -0.86691767432E+02 -0.16797535364E+03  0.22686784307E+03  0.12508804411E+03 0.  0.
        -24    2    1    2    0    0 -0.88247080295E+02  0.69808980579E+02  0.98274802550E+02  0.17163704851E+03  0.84501471326E+02 0.  0.
        -11    1    3    3    0    0  0.71111881606E+02  0.42604839647E+02 -0.31651034727E+03  0.32718629555E+03  0.00000000000E+00 0.  1.
         12    1    3    3    0    0  0.76053787409E+01 -0.25722052793E+02 -0.53196587365E+02  0.59576360185E+02  0.00000000000E+00 0. -1.
         11    1    5    5    0    0 -0.52828281475E+02  0.24111814591E+02  0.97891115505E+02  0.11381949491E+03  0.00000000000E+00 0. -1.
        -12    1    5    5    0    0 -0.35418798820E+02  0.45697165988E+02  0.38368704539E+00  0.57817553606E+02  0.00000000000E+00 0.  1.
          5    1    4    4  501    0  0.79998034129E+01  0.12689337714E+02 -0.11128255698E+03  0.11236679240E+03  0.41800000000E+01 0. -1.
         -5    1    4    4    0  501  0.15300165349E+01 -0.99381105146E+02 -0.56692796659E+02  0.11450105067E+03  0.41800000000E+01 0. -1.
</event>
<event>
11    1  0.8037748E-009  0.1834674E+03  0.7561462E-02  0.1066872E+00
         22   -1    0    0    0    0  0.00000000000E+00  0.00000000000E+00  0.15442951665E+04  0.15442951665E+04  0.00000000000E+00 0.  1.
         22   -1    0    0    0    0 -0.00000000000E+00 -0.00000000000E+00 -0.85041934886E+03  0.85041934886E+03  0.00000000000E+00 0.  1.
        -24    2    1    2    0    0 -0.12671744596E+03 -0.84781311808E+01 -0.61876195635E+03  0.63669359327E+03  0.79894826313E+02 0.  0.
         25    2    1    2    0    0  0.17572966490E+03  0.23324428275E+02 -0.16821718535E+03  0.27453496538E+03  0.12508989443E+03 0.  0.
         24    2    1    2    0    0 -0.49012218943E+02 -0.14846297094E+02  0.14808549593E+04  0.14834859567E+04  0.71948335698E+02 0.  0.
        -11    1    5    5    0    0 -0.61135163906E+02 -0.84575930237E+01  0.76034491627E+03  0.76284561403E+03  0.00000000000E+00 0.  1.
         12    1    5    5    0    0  0.12122944963E+02 -0.63887040702E+01  0.72051004306E+03  0.72064034267E+03  0.00000000000E+00 0. -1.
         13    1    3    3    0    0 -0.70542774275E+02 -0.42092925062E+02 -0.28651089864E+03  0.29805468018E+03  0.00000000000E+00 0. -1.
        -14    1    3    3    0    0 -0.56174671681E+02  0.33614793881E+02 -0.33225105771E+03  0.33863891309E+03  0.00000000000E+00 0.  1.
          5    1    4    4  501    0  0.14820824979E+03  0.19156992754E+02 -0.18795211414E+03  0.24015858362E+03  0.41800000000E+01 0. -1.
         -5    1    4    4    0  501  0.27521415113E+02  0.41674355211E+01  0.19734928790E+02  0.34376381761E+02  0.41800000000E+01 0. -1.
</event>
<event>
11    1  0.8037748E-009  0.3109322E+03  0.7561462E-02  0.9956678E-01
         22   -1    0    0    0    0  0.00000000000E+00  0.00000000000E+00  0.20534567894E+03  0.20534567894E+03  0.00000000000E+00 0.  1.
         22   -1    0    0    0    0 -0.00000000000E+00 -0.00000000000E+00 -0.19738392828E+04  0.19738392828E+04  0.00000000000E+00 0.  1.
        -24    2    1    2    0    0  0.22578439366E+01 -0.26526955487E+03 -0.13744341012E+04  0.14017374268E+04  0.73659218296E+02 0.  0.
         25    2    1    2    0    0 -0.39266149005E+01  0.41029007560E+03 -0.43133573441E+03  0.60831719332E+03  0.12508368187E+03 0.  0.
         24    2    1    2    0    0  0.16687709640E+01 -0.14502052073E+03  0.37276231751E+02  0.16913034166E+03  0.78624543157E+02 0.  0.
        -13    1    5    5    0    0 -0.33137023899E+02 -0.10357156525E+03  0.12028193574E+02  0.10940662193E+03  0.00000000000E+00 0.  1.
         14    1    5    5    0    0  0.34805794863E+02 -0.41448955475E+02  0.25248038176E+02  0.59723719725E+02  0.00000000000E+00 0. -1.
         11    1    3    3    0    0  0.50729845495E+01 -0.22940546030E+02 -0.27034629750E+03  0.27136529696E+03  0.00000000000E+00 0. -1.
        -12    1    3    3    0    0 -0.28151406129E+01 -0.24232900884E+03 -0.11040878037E+04  0.11303721298E+04  0.00000000000E+00 0.  1.
          5    1    4    4  501    0  0.14380243583E+02  0.17431835755E+03 -0.10131414500E+03  0.20217742100E+03  0.41800000000E+01 0. -1.
         -5    1    4    4    0  501 -0.18306858483E+02  0.23597171805E+03 -0.33002158941E+03  0.40613977232E+03  0.41800000000E+01 0. -1.
</event>
<event>
11    1  0.8037748E-009  0.1566595E+03  0.7561462E-02  0.1090262E+00
         22   -1    0    0    0    0  0.00000000000E+00  0.00000000000E+00  0.54870933941E+02  0.54870933941E+02  0.00000000000E+00 0.  1.
         22   -1    0    0    0    0 -0.00000000000E+00 -0.00000000000E+00 -0.20314265899E+04  0.20314265899E+04  0.00000000000E+00 0.  1.
         24    2    1    2    0    0  0.91350323331E+02  0.27389618748E+02 -0.10706339196E+04  0.10778458137E+04  0.79997097971E+02 0.  0.
         25    2    1    2    0    0 -0.78366231552E+02 -0.54448865571E+02 -0.90770994555E+03  0.92124422853E+03  0.12509051984E+03 0.  0.
        -24    2    1    2    0    0 -0.12984091779E+02  0.27059246823E+02  0.17882092038E+01  0.87207481515E+02  0.81860598960E+02 0.  0.
        -13    1    3    3    0    0  0.63536380366E+02  0.33499521005E+02 -0.98470404088E+03  0.98732017991E+03  0.00000000000E+00 0.  1.
         14    1    3    3    0    0  0.27813942966E+02 -0.61099022571E+01 -0.85929878692E+02  0.90525633833E+02  0.00000000000E+00 0. -1.
         11    1    5    5    0    0  0.16685657646E+02 -0.16684018133E+01 -0.30486154069E+02  0.34793682266E+02  0.00000000000E+00 0. -1.
        -12    1    5    5    0    0 -0.29669749425E+02  0.28727648636E+02  0.32274363273E+02  0.52413799250E+02  0.00000000000E+00 0.  1.
          5    1    4    4  501    0 -0.22326227995E+02  0.19095636392E+02 -0.57877892056E+03  0.57953914024E+03  0.41800000000E+01 0. -1.
         -5    1    4    4    0  501 -0.56040003557E+02 -0.73544501963E+02 -0.32893102498E+03  0.34170508829E+03  0.41800000000E+01 0. -1.
</event>
<event>
11    1  0.8037748E-009  0.2186446E+03  0.7561462E-02  0.1042070E+00
         22   -1    0    0    0    0  0.00000000000E+00  0.00000000000E+00  0.30124164617E+03  0.30124164617E+03  0.00000000000E+00 0. -1.
         22   -1    0    0    0    0 -0.00000000000E+00 -0.00000000000E+00 -0.58821424509E+03  0.58821424509E+03  0.00000000000E+00 0.  1.
         24    2    1    2    0    0 -0.47114806011E+02 -0.16581661933E+03 -0.33022847489E+03  0.38125749743E+03  0.81187914916E+02 0.  0.
         25    2    1    2    0    0  0.10272310147E+03  0.17296539509E+03 -0.15782314175E+03  0.28464952552E+03  0.12509254507E+03 0.  0.
        -24    2    1    2    0    0 -0.55608295463E+02 -0.71487757591E+01  0.20107901771E+03  0.22354886831E+03  0.79987109197E+02 0.  0.
        -11    1    3    3    0    0 -0.54591508357E+02 -0.16495986059E+03 -0.33085365907E+03  0.37370594337E+03  0.00000000000E+00 0.  1.
         12    1    3    3    0    0  0.74767023454E+01 -0.85675874505E+00  0.62518418052E+00  0.75515540631E+01  0.00000000000E+00 0. -1.
         13    1    5    5    0    0 -0.75767806460E+02 -0.12570568608E+02  0.15786657207E+03  0.17555806523E+03  0.00000000000E+00 0. -1.
        -14    1    5    5    0    0  0.20159510997E+02  0.54217928489E+01  0.43212445647E+02  0.47990803079E+02  0.00000000000E+00 0.  1.
          5    1    4    4  501    0  0.29203630897E+02  0.63436896936E+02 -0.13310817889E+03  0.15037403911E+03  0.41800000000E+01 0.  1.
         -5    1    4    4    0  501  0.73519470577E+02  0.10952849816E+03 -0.24714962862E+02  0.13427548641E+03  0.41800000000E+01 0.  1.
</event>
<event>
11    1  0.8037748E-009  0.2545258E+03  0.7561462E-02  0.1021515E+00
         22   -1    0    0    0    0  0.00000000000E+00  0.00000000000E+00  0.25206506552E+04  0.25206506552E+04  0.00000000000E+00 0. -1.
         22   -1    0    0    0    0 -0.00000000000E+00 -0.00000000000E+00 -0.32062474296E+03  0.32062474296E+03  0.00000000000E+00 0. -1.
         24    2    1    2    0    0  0.99822153760E+02  0.18570023152E+03 -0.21014753316E+03  0.30857985097E+03  0.81304983651E+02 0.  0.
         25    2    1    2    0    0 -0.17684049946E+03 -0.32145791982E+03  0.60240729370E+03  0.71634428473E+03  0.12508729072E+03 0.  0.
        -24    2    1    2    0    0  0.77018345704E+02  0.13575768831E+03  0.18077661517E+04  0.18163512624E+04  0.82167353099E+02 0.  0.
        -13    1    3    3    0    0  0.20354115241E+02  0.11023399835E+03 -0.76350056432E+02  0.13562874148E+03  0.00000000000E+00 0.  1.
         14    1    3    3    0    0  0.79468038519E+02  0.75466233167E+02 -0.13379747673E+03  0.17295110949E+03  0.00000000000E+00 0. -1.
         11    1    5    5    0    0  0.91982827393E+02  0.11148490969E+03  0.13545945169E+04  0.13622833886E+04  0.00000000000E+00 0. -1.
        -12    1    5    5    0    0 -0.14964481690E+02  0.24272778617E+02  0.45317163479E+03  0.45406787386E+03  0.00000000000E+00 0.  1.
          5    1    4    4  501    0 -0.16681516666E+03 -0.31259360361E+03  0.49912865456E+03  0.61211840934E+03  0.41800000000E+01 0.  1.
         -5    1    4    4    0  501 -0.10025332802E+02 -0.88643162139E+01  0.10327863914E+03  0.10422587539E+03  0.41800000000E+01 0.  1.
</event>
<event>
11    1  0.8037748E-009  0.1320738E+03  0.7561462E-02  0.1116747E+00
         22   -1    0    0    0    0  0.00000000000E+00  0.00000000000E+00  0.12252797949E+03  0.12252797949E+03  0.00000000000E+00 0.  1.
         22   -1    0    0    0    0 -0.00000000000E+00 -0.00000000000E+00 -0.75951325639E+03  0.75951325639E+03  0.00000000000E+00 0. -1.
         24    2    1    2    0    0  0.39441512433E+02  0.20614358522E+02 -0.57403468816E+03  0.58119602336E+03  0.79324710395E+02 0.  0.
         25    2    1    2    0    0 -0.25319895728E+02 -0.10851653360E+02 -0.13867554277E+03  0.18877951193E+03  0.12509173618E+03 0.  0.
        -24    2    1    2    0    0 -0.14121616705E+02 -0.97627051618E+01  0.75724954026E+02  0.11206570060E+03  0.80806695994E+02 0.  0.
        -13    1    3    3    0    0  0.17817978895E+02 -0.15663781361E+02 -0.48749568600E+02  0.54215817407E+02  0.00000000000E+00 0.  1.
         14    1    3    3    0    0  0.21623533538E+02  0.36278139883E+02 -0.52528511956E+03  0.52698020595E+03  0.00000000000E+00 0. -1.
         13    1    5    5    0    0 -0.32477293000E+02 -0.84454223091E+01 -0.59063845533E+00  0.33562606758E+02  0.00000000000E+00 0. -1.
        -14    1    5    5    0    0  0.18355676295E+02 -0.13172828526E+01  0.76315592481E+02  0.78503093838E+02  0.00000000000E+00 0.  1.
          5    1    4    4  501    0 -0.31625326397E+02  0.53120834531E+02 -0.52668985525E+02  0.81323297813E+02  0.41800000000E+01 0.  1.
         -5    1    4    4    0  501  0.63054306693E+01 -0.63972487891E+02 -0.86006557243E+02  0.10745621411E+03  0.41800000000E+01 0.  1.
</event>
<event>
11    1  0.8037748E-009  0.1392163E+03  0.7561462E-02  0.1108437E+00
         22   -1    0    0    0    0  0.00000000000E+00  0.00000000000E+00  0.37828662654E+03  0.37828662654E+03  0.00000000000E+00 0. -1.
         22   -1    0    0    0    0 -0.00000000000E+00 -0.00000000000E+00 -0.69956873912E+03  0.69956873912E+03  0.00000000000E+00 0.  1.
        -24    2    1    2    0    0 -0.31058527287E+02 -0.55130010235E+02 -0.60573794983E+03  0.61470665323E+03  0.83317798289E+02 0.  0.
         25    2    1    2    0    0  0.13998416660E+01  0.40512081212E+02 -0.32072940397E+02  0.13534446028E+03  0.12508501565E+03 0.  0.
         24    2    1    2    0    0  0.29658685621E+02  0.14617929024E+02  0.31652877765E+03  0.32780425216E+03  0.78561053783E+02 0.  0.
        -11    1    5    5    0    0  0.78562993477E+01  0.82898174812E+01  0.10055126034E+01  0.11465320271E+02  0.00000000000E+00 0.  1.
         12    1    5    5    0    0  0.21802386273E+02  0.63281115426E+01  0.31552326505E+03  0.31633893189E+03  0.00000000000E+00 0. -1.
         13    1    3    3    0    0 -0.34983527150E+02 -0.17519696902E+01 -0.96438958896E+02  0.10260306702E+03  0.00000000000E+00 0. -1.
        -14    1    3    3    0    0  0.39249998632E+01 -0.53378040545E+02 -0.50929899093E+03  0.51210358620E+03  0.00000000000E+00 0.  1.
          5    1    4    4  501    0  0.51659117337E+01  0.26878381932E+02 -0.80285869922E+02  0.84926011142E+02  0.41800000000E+01 0. -1.
         -5    1    4    4    0  501 -0.37660700677E+01  0.13633699280E+02  0.48212929525E+02  0.50418449135E+02  0.41800000000E+01 0. -1.
</event>
<event>
11    1  0.8037748E-009  0.3188796E+03  0.7561462E-02  0.9925031E-01
         22   -1    0    0    0    0  0.00000000000E+00  0.00000000000E+00  0.94147696159E+03  0.94147696159E+03  0.00000000000E+00 0. -1.
         22   -1    0    0    0    0 -0.00000000000E+00 -0.00000000000E+00 -0.10008721631E+03  0.10008721631E+03  0.00000000000E+00 0.  1.
        -24    2    1    2    0    0 -0.12010138476E+03  0.10272056960E+03  0.64579958266E+02  0.18833334046E+03  0.79517407402E+02 0.  0.
         25    2    1    2    0    0 -0.17506983270E+02  0.96869151897E+01  0.14847853444E+03  0.19517428455E+03  0.12508715111E+03 0.  0.
         24    2    1    2    0    0  0.13760836803E+03 -0.11240748479E+03  0.62833125257E+03  0.65805655288E+03  0.81650218841E+02 0.  0.
        -11    1    5    5    0    0  0.54869595541E+02 -0.30985899274E+02  0.10894638830E+03  0.12585751464E+03  0.00000000000E+00 0.  1.
         12    1    5    5    0    0  0.82738772486E+02 -0.81421585518E+02  0.51938486428E+03  0.53219903824E+03  0.00000000000E+00 0. -1.
         13    1    3    3    0    0 -0.28892958658E+01  0.37141291722E+01  0.30891470956E+02  0.31247812147E+02  0.00000000000E+00 0. -1.
        -14    1    3    3    0    0 -0.11721208889E+03  0.99006440430E+02  0.33688487310E+02  0.15708552832E+03  0.00000000000E+00 0.  1.
          5    1    4    4  501    0 -0.43391405889E+02  0.12036959814E+02  0.16012465467E+03  0.16638834076E+03  0.41800000000E+01 0. -1.
         -5    1    4    4    0  501  0.25884422619E+02 -0.23500446239E+01 -0.11646120229E+02  0.28785943800E+02  0.41800000000E+01 0. -1.
</event>
<event>
11    1  0.8037748E-009  0.1286133E+03  0.7561462E-02  0.1120985E+00
         22   -1    0    0    0    0  0.00000000000E+00  0.00000000000E+00  0.17658908201E+04  0.17658908201E+04  0.00000000000E+00 0.  1.
         22   -1    0    0    0    0 -0.00000000000E+00 -0.00000000000E+00 -0.16210804358E+03  0.16210804358E+03  0.00000000000E+00 0. -1.
        -24    2    1    2    0    0  0.25257789364E+02 -0.18665333055E+02 -0.13394488525E+03  0.16122611860E+03  0.84061158996E+02 0.  0.
         25    2    1    2    0    0  0.42915353511E+01  0.89846076299E+00  0.28249037487E+03  0.30897867532E+03  0.12509110842E+03 0.  0.
         24    2    1    2    0    0 -0.29549324716E+02  0.17766872292E+02  0.14552372869E+04  0.14577940698E+04  0.79114880055E+02 0.  0.
        -13    1    5    5    0    0  0.84167822671E+01 -0.15033100780E+02  0.93144949581E+03  0.93160882327E+03  0.00000000000E+00 0.  1.
         14    1    5    5    0    0 -0.37966106983E+02  0.32799973072E+02  0.52378779111E+03  0.52618524649E+03  0.00000000000E+00 0. -1.
         11    1    3    3    0    0  0.27175789029E+02  0.18383911083E+02 -0.11496275304E+03  0.11955302708E+03  0.00000000000E+00 0. -1.
        -12    1    3    3    0    0 -0.19179996641E+01 -0.37049244138E+02 -0.18982132213E+02  0.41673091525E+02  0.00000000000E+00 0.  1.
          5    1    4    4  501    0  0.35282675469E+02  0.32683041830E+02  0.40793037871E+02  0.63202790684E+02  0.41800000000E+01 0. -1.
         -5    1    4    4    0  501 -0.30991140118E+02 -0.31784581067E+02  0.24169733700E+03  0.24577588464E+03  0.41800000000E+01 0. -1.
</event>
<event>
11    1  0.8037748E-009  0.1438924E+03  0.7561462E-02  0.1103288E+00
         22   -1    0    0    0    0  0.00000000000E+00  0.00000000000E+00  0.28044819970E+03  0.28044819970E+03  0.00000000000E+00 0. -1.
         22   -1    0    0    0    0 -0.00000000000E+00 -0.00000000000E+00 -0.15154711802E+04  0.15154711802E+04  0.00000000000E+00 0. -1.
        -24    2    1    2    0    0 -0.42723505950E+01 -0.44460379225E+02 -0.13822097180E+04  0.13852251099E+04  0.79686399677E+02 0.  0.
         25    2    1    2    0    0  0.72526227898E+01 -0.30762533810E+02 -0.84478095504E+02  0.15421705885E+03  0.12508964225E+03 0.  0.
         24    2    1    2    0    0 -0.29802721949E+01  0.75222913035E+02  0.23166483302E+03  0.25647721113E+03  0.80278243035E+02 0.  0.
        -11    1    5    5    0    0 -0.19739931617E+02  0.71151286950E+02  0.10339988195E+03  0.12705788493E+03  0.00000000000E+00 0.  1.
         12    1    5    5    0    0  0.16759659422E+02  0.40716260850E+01  0.12826495106E+03  0.12941932620E+03  0.00000000000E+00 0. -1.
         11    1    3    3    0    0  0.14932368470E+01 -0.16728374666E+01 -0.10743927113E+04  0.10743950513E+04  0.00000000000E+00 0. -1.
        -12    1    3    3    0    0 -0.57655874419E+01 -0.42787541758E+02 -0.30781700663E+03  0.31083005856E+03  0.00000000000E+00 0.  1.
          5    1    4    4  501    0 -0.51021220227E+01 -0.55909452068E+02 -0.10506572687E+03  0.11919806140E+03  0.41800000000E+01 0.  1.
         -5    1    4    4    0  501  0.12354744812E+02  0.25146918258E+02  0.20587631365E+02  0.35018997451E+02  0.41800000000E+01 0.  1.
</event>
<event>
11    1  0.8037748E-009  0.1596667E+03  0.7561462E-02  0.1087391E+00
         22   -1    0    0    0    0  0.00000000000E+00  0.00000000000E+00  0.53094820887E+03  0.53094820887E+03  0.00000000000E+00 0.  1.
         22   -1    0    0    0    0 -0.00000000000E+00 -0.00000000000E+00 -0.95490549834E+03  0.95490549834E+03  0.00000000000E+00 0. -1.
        -24    2    1    2    0    0  0.63808131153E+02 -0.76353723347E+02 -0.92197272162E+03  0.93018102751E+03  0.72812607784E+02 0.  0.
         25    2    1    2    0    0 -0.51440428642E+02  0.65121010782E+02  0.21079777144E+03  0.25878783904E+03  0.12509429023E+03 0.  0.
         24    2    1    2    0    0 -0.12367702510E+02  0.11232712566E+02  0.28721766072E+03  0.29688484067E+03  0.73263156461E+02 0.  0.
        -13    1    5    5    0    0 -0.18189572033E+02 -0.97044059664E+01  0.26501934721E+03  0.26582003390E+03  0.00000000000E+00 0.  1.
         14    1    5    5    0    0  0.58218695223E+01  0.20937118532E+02  0.22198313505E+02  0.31064806769E+02  0.00000000000E+00 0. -1.
         13    1    3    3    0    0  0.21717382898E+02 -0.46406474991E+02 -0.71594383209E+03  0.71777487859E+03  0.00000000000E+00 0. -1.
        -14    1    3    3    0    0  0.42090748254E+02 -0.29947248356E+02 -0.20602888953E+03  0.21240614891E+03  0.00000000000E+00 0.  1.
          5    1    4    4  501    0 -0.92491455547E+02  0.53967664295E+02  0.14442390295E+03  0.17984135866E+03  0.41800000000E+01 0. -1.
         -5    1    4    4    0  501  0.41051026905E+02  0.11153346487E+02  0.66373868481E+02  0.78946480383E+02  0.41800000000E+01 0. -1.
</event>
<event>
11    1  0.8037748E-009  0.1877430E+03  0.7561462E-02  0.1063546E+00
         22   -1    0    0    0    0  0.00000000000E+00  0.00000000000E+00  0.30423624460E+03  0.30423624460E+03  0.00000000000E+00 0. -1.
         22   -1    0    0    0    0 -0.00000000000E+00 -0.00000000000E+00 -0.93602478591E+03  0.93602478591E+03  0.00000000000E+00 0. -1.
         24    2    1    2    0    0  0.41045760554E+00  0.23366337736E+02 -0.82621611813E+03  0.82901920433E+03  0.63981349378E+02 0.  0.
         25    2    1    2    0    0 -0.32159250408E+01  0.12489804164E+03  0.41849473782E+02  0.18168347448E+03  0.12509054106E+03 0.  0.
        -24    2    1    2    0    0  0.28054674352E+01 -0.14826437938E+03  0.15257810304E+03  0.22955835171E+03  0.86178666007E+02 0.  0.
        -13    1    3    3    0    0  0.93555334035E+01  0.31830931164E+02 -0.20392534503E+03  0.20660658394E+03  0.00000000000E+00 0.  1.
         14    1    3    3    0    0 -0.89450757980E+01 -0.84645934285E+01 -0.62229077310E+03  0.62241262038E+03  0.00000000000E+00 0. -1.
         13    1    5    5    0    0  0.23675060469E+02 -0.14601550340E+03  0.14528423010E+03  0.20733678698E+03  0.00000000000E+00 0. -1.
        -14    1    5    5    0    0 -0.20869593034E+02 -0.22488759792E+01  0.72938729381E+01  0.22221564729E+02  0.00000000000E+00 0.  1.
          5    1    4    4  501    0 -0.43465212913E+02  0.63510416139E+02  0.68860506648E+02  0.10335395236E+03  0.41800000000E+01 0. -1.
         -5    1    4    4    0  501  0.40249287872E+02  0.61387625501E+02 -0.27011032867E+02  0.78329522119E+02  0.41800000000E+01 0. -1.
</event>
<event>
11    1  0.8037748E-009  0.1682760E+03  0.7561462E-02  0.1079542E+00
         22   -1    0    0    0    0  0.00000000000E+00  0.00000000000E+00  0.66369105979E+03  0.66369105979E+03  0.00000000000E+00 0.  1.
         22   -1    0    0    0    0 -0.00000000000E+00 -0.00000000000E+00 -0.51600908655E+03  0.51600908655E+03  0.00000000000E+00 0.  1.
        -24    2    1    2    0    0 -0.10420618402E+02  0.29067619382E+02 -0.44731691520E+03  0.45546566593E+03  0.80018962919E+02 0.  0.
         25    2    1    2    0    0  0.10738850576E+03  0.29598165689E+02  0.70535704324E+02  0.18174511343E+03  0.12509059953E+03 0.  0.
         24    2    1    2    0    0 -0.96967887362E+02 -0.58665785071E+02  0.52446318413E+03  0.54248936698E+03  0.79928945089E+02 0.  0.
        -13    1    5    5    0    0 -0.89018735727E+02 -0.13521661907E+02  0.29267313884E+03  0.30621028208E+03  0.00000000000E+00 0.  1.
         14    1    5    5    0    0 -0.79491516342E+01 -0.45144123164E+02  0.23179004528E+03  0.23627908490E+03  0.00000000000E+00 0. -1.
         13    1    3    3    0    0  0.24068500018E+02 -0.11340884784E+02 -0.79552582753E+02  0.83883978109E+02  0.00000000000E+00 0. -1.
        -14    1    3    3    0    0 -0.34489118420E+02  0.40408504167E+02 -0.36776433245E+03  0.37158168782E+03  0.00000000000E+00 0.  1.
          5    1    4    4  501    0 -0.26244579885E+02  0.15442496322E+02  0.19048510818E+01  0.30795284114E+02  0.41800000000E+01 0. -1.
         -5    1    4    4    0  501  0.13363308565E+03  0.14155669367E+02  0.68630853242E+02  0.15094982932E+03  0.41800000000E+01 0. -1.
</event>
<event>
11    1  0.8037748E-009  0.1705818E+03  0.7561462E-02  0.1077526E+00
         22   -1    0    0    0    0  0.00000000000E+00  0.00000000000E+00  0.11132303192E+04  0.11132303192E+04  0.00000000000E+00 0.  1.
         22   -1    0    0    0    0 -0.00000000000E+00 -0.00000000000E+00 -0.31915257391E+03  0.31915257391E+03  0.00000000000E+00 0.  1.
         24    2    1    2    0    0  0.42581767126E+02  0.10415566362E+03 -0.26048876179E+03  0.29215643581E+03  0.69565643906E+02 0.  0.
         25    2    1    2    0    0 -0.41451103875E+02 -0.19522102237E+03  0.32793163526E+03  0.40374234563E+03  0.12505711762E+03 0.  0.
        -24    2    1    2    0    0 -0.11306632506E+01  0.91065358748E+02  0.72663487180E+03  0.73648411165E+03  0.78207620042E+02 0.  0.
        -11    1    3    3    0    0  0.45735258907E+02  0.83540156767E+02 -0.13659644311E+03  0.16652104963E+03  0.00000000000E+00 0.  1.
         12    1    3    3    0    0 -0.31534917811E+01  0.20615506855E+02 -0.12389231868E+03  0.12563538618E+03  0.00000000000E+00 0. -1.
         13    1    5    5    0    0 -0.12283917750E+01  0.40566038933E+02  0.57959407641E+03  0.58101325791E+03  0.00000000000E+00 0. -1.
        -14    1    5    5    0    0  0.97728524353E-01  0.50499319815E+02  0.14704079539E+03  0.15547085374E+03  0.00000000000E+00 0.  1.
          5    1    4    4  501    0  0.35280740353E+02 -0.63246441944E+02  0.55167964211E+02  0.91136270132E+02  0.41800000000E+01 0. -1.
         -5    1    4    4    0  501 -0.76731844228E+02 -0.13197458043E+03  0.27276367104E+03  0.31260607550E+03  0.41800000000E+01 0. -1.
</event>
<event>
11    1  0.8037748E-009  0.1338140E+03  0.7561462E-02  0.1114670E+00
         22   -1    0    0    0    0  0.00000000000E+00  0.00000000000E+00  0.28166006516E+04  0.28166006516E+04  0.00000000000E+00 0. -1.
         22   -1    0    0    0    0 -0.00000000000E+00 -0.00000000000E+00 -0.78987208010E+02  0.78987208010E+02  0.00000000000E+00 0.  1.
         24    2    1    2    0    0 -0.24356558631E+02  0.40538642045E+02  0.17731863783E+01  0.94205788489E+02  0.81455281890E+02 0.  0.
         25    2    1    2    0    0 -0.12725038143E+02 -0.58197722197E+02  0.11795916919E+03  0.18200142711E+03  0.12514492562E+03 0.  0.
        -24    2    1    2    0    0  0.37081596774E+02  0.17659080152E+02  0.26178810880E+04  0.26193806440E+04  0.78528206890E+02 0.  0.
        -13    1    3    3    0    0 -0.23916986911E+02  0.19043022024E+02 -0.38133691705E+02  0.48875734202E+02  0.00000000000E+00 0.  1.
         14    1    3    3    0    0 -0.43957172036E+00  0.21495620021E+02  0.39906878083E+02  0.45330054288E+02  0.00000000000E+00 0. -1.
         13    1    5    5    0    0  0.57055647920E+02 -0.53142058532E+01  0.15267564513E+04  0.15278314204E+04  0.00000000000E+00 0. -1.
        -14    1    5    5    0    0 -0.19974051146E+02  0.22973286005E+02  0.10911246367E+04  0.10915492236E+04  0.00000000000E+00 0.  1.
          5    1    4    4  501    0 -0.63061341113E+02 -0.60125560250E+02  0.84047394015E+02  0.12113320180E+03  0.41800000000E+01 0. -1.
         -5    1    4    4    0  501  0.50336302970E+02  0.19278380531E+01  0.33911775179E+02  0.60868225307E+02  0.41800000000E+01 0. -1.
</event>
<event>
11    1  0.8037748E-009  0.1336686E+03  0.7561462E-02  0.1114842E+00
         22   -1    0    0    0    0  0.00000000000E+00  0.00000000000E+00  0.15177029110E+03  0.15177029110E+03  0.00000000000E+00 0.  1.
         22   -1    0    0    0    0 -0.00000000000E+00 -0.00000000000E+00 -0.12697308421E+04  0.12697308421E+04  0.00000000000E+00 0.  1.
         24    2    1    2    0    0  0.21545435534E+02  0.42492604944E+02 -0.10917853774E+04  0.10958194631E+04  0.80963931165E+02 0.  0.
         25    2    1    2    0    0 -0.54456775692E+02 -0.14522005133E+02 -0.12849511261E+03  0.18798470804E+03  0.12510326710E+03 0.  0.
        -24    2    1    2    0    0  0.32911340158E+02 -0.27970599811E+02  0.10231993894E+03  0.13769696213E+03  0.81397621045E+02 0.  0.
        -13    1    3    3    0    0 -0.15574444451E+02  0.33955162689E+01 -0.71692551190E+03  0.71710270008E+03  0.00000000000E+00 0.  1.
         14    1    3    3    0    0  0.37119879984E+02  0.39097088675E+02 -0.37485986546E+03  0.37871676299E+03  0.00000000000E+00 0. -1.
         11    1    5    5    0    0  0.18389403613E+02  0.12692524613E+02 -0.42204461034E+01  0.22739448357E+02  0.00000000000E+00 0. -1.
        -12    1    5    5    0    0  0.14521936545E+02 -0.40663124424E+02  0.10654038504E+03  0.11495751378E+03  0.00000000000E+00 0.  1.
          5    1    4    4  501    0 -0.31649816530E+02  0.40197499826E+02 -0.11656835480E+03  0.12737034043E+03  0.41800000000E+01 0. -1.
         -5    1    4    4    0  501 -0.22806959161E+02 -0.54719504958E+02 -0.11926757802E+02  0.60614367610E+02  0.41800000000E+01 0. -1.
</event>
<event>
11    1  0.8037748E-009  0.1530386E+03  0.7561462E-02  0.1093814E+00
         22   -1    0    0    0    0  0.00000000000E+00  0.00000000000E+00  0.39914749499E+03  0.39914749499E+03  0.00000000000E+00 0. -1.
         22   -1    0    0    0    0 -0.00000000000E+00 -0.00000000000E+00 -0.96741704083E+03  0.96741704083E+03  0.00000000000E+00 0. -1.
         24    2    1    2    0    0  0.28405519179E+02  0.38273292445E+02 -0.89274456072E+03  0.89786329360E+03  0.83029662541E+02 0.  0.
         25    2    1    2    0    0  0.10416754916E+02  0.49576774099E+02  0.16199589100E+02  0.13592702307E+03  0.12508942241E+03 0.  0.
        -24    2    1    2    0    0 -0.38822274094E+02 -0.87850066543E+02  0.30827542578E+03  0.33277421916E+03  0.80499314567E+02 0.  0.
        -13    1    3    3    0    0  0.55632056530E+02  0.27073792294E+02 -0.71754679819E+03  0.72020922206E+03  0.00000000000E+00 0.  1.
         14    1    3    3    0    0 -0.27226537351E+02  0.11199500150E+02 -0.17519776253E+03  0.17765407154E+03  0.00000000000E+00 0. -1.
         13    1    5    5    0    0 -0.60132746134E+02 -0.39420033302E+02  0.19216779094E+03  0.20517881484E+03  0.00000000000E+00 0. -1.
        -14    1    5    5    0    0  0.21310472040E+02 -0.48430033241E+02  0.11610763484E+03  0.12759540433E+03  0.00000000000E+00 0.  1.
          5    1    4    4  501    0  0.41991451459E+02  0.39912670590E+02  0.58274970284E+02  0.82278477324E+02  0.41800000000E+01 0. -1.
         -5    1    4    4    0  501 -0.31574696543E+02  0.96641035083E+01 -0.42075381184E+02  0.53648545742E+02  0.41800000000E+01 0. -1.
</event>
<event>
11    1  0.8037748E-009  0.1349227E+03  0.7561462E-02  0.1113364E+00
         22   -1    0    0    0    0  0.00000000000E+00  0.00000000000E+00  0.17160900834E+03  0.17160900834E+03  0.00000000000E+00 0. -1.
         22   -1    0    0    0    0 -0.00000000000E+00 -0.00000000000E+00 -0.20968931760E+04  0.20968931760E+04  0.00000000000E+00 0.  1.
        -24    2    1    2    0    0 -0.28001562211E+02 -0.42549144184E+02 -0.19033611440E+04  0.19057745826E+04  0.81231756606E+02 0.  0.
         25    2    1    2    0    0 -0.14124682888E+02  0.70160329781E+02 -0.14567805255E+03  0.20491878543E+03  0.12509050758E+03 0.  0.
         24    2    1    2    0    0  0.42126245100E+02 -0.27611185597E+02  0.12375502884E+03  0.15780881629E+03  0.83972121792E+02 0.  0.
        -13    1    5    5    0    0  0.23551174450E+02  0.37028748916E+01 -0.46950595070E+01  0.24298409088E+02  0.00000000000E+00 0.  1.
         14    1    5    5    0    0  0.18575070650E+02 -0.31314060488E+02  0.12845008835E+03  0.13351040720E+03  0.00000000000E+00 0. -1.
         13    1    3    3    0    0  0.23945605963E+02 -0.24201133542E+02 -0.41499686085E+03  0.41639101986E+03  0.00000000000E+00 0. -1.
        -14    1    3    3    0    0 -0.51947168174E+02 -0.18348010642E+02 -0.14883642831E+04  0.14893835628E+04  0.00000000000E+00 0.  1.
          5    1    4    4  501    0 -0.17227766785E+02  0.79038241726E+02 -0.26396993777E+02  0.85194561353E+02  0.41800000000E+01 0. -1.
         -5    1    4    4    0  501  0.31030838969E+01 -0.88779119454E+01 -0.11928105877E+03  0.11972422408E+03  0.41800000000E+01 0. -1.
</event>
<event>
11    1  0.8037748E-009  0.1590082E+03  0.7561462E-02  0.1088014E+00
         22   -1    0    0    0    0  0.00000000000E+00  0.00000000000E+00  0.16476193492E+03  0.16476193492E+03  0.00000000000E+00 0. -1.
         22   -1    0    0    0    0 -0.00000000000E+00 -0.00000000000E+00 -0.85809184787E+03  0.85809184787E+03  0.00000000000E+00 0. -1.
         24    2    1    2    0    0  0.37991583863E+00  0.31078025950E+02 -0.58954303608E+03  0.59577047938E+03  0.80096720753E+02 0.  0.
         25    2    1    2    0    0  0.19659628636E+02  0.68558630238E+02 -0.21305706143E+03  0.25716015057E+03  0.12510493531E+03 0.  0.
        -24    2    1    2    0    0 -0.20039544474E+02 -0.99636656187E+02  0.10927018456E+03  0.16992315284E+03  0.81270277692E+02 0.  0.
        -11    1    3    3    0    0 -0.68198531088E+00 -0.26795913216E+02 -0.14289256921E+03  0.14538491120E+03  0.00000000000E+00 0.  1.
         12    1    3    3    0    0  0.10619011495E+01  0.57873939166E+02 -0.44665046687E+03  0.45038556818E+03  0.00000000000E+00 0. -1.
         13    1    5    5    0    0 -0.28248308385E+02 -0.86422104561E+02  0.12034294086E+03  0.15082828149E+03  0.00000000000E+00 0. -1.
        -14    1    5    5    0    0  0.82087639106E+01 -0.13214551626E+02 -0.11072756296E+02  0.19094871343E+02  0.00000000000E+00 0.  1.
          5    1    4    4  501    0  0.10018689875E+01  0.48343119168E+02 -0.67686210154E+01  0.49003546226E+02  0.41800000000E+01 0. -1.
         -5    1    4    4    0  501  0.18657759648E+02  0.20215511070E+02 -0.20628844042E+03  0.20815660435E+03  0.41800000000E+01 0. -1.
</event>
<event>
11    1  0.8037748E-009  0.1335281E+03  0.7561462E-02  0.1115008E+00
         22   -1    0    0    0    0  0.00000000000E+00  0.00000000000E+00  0.24293634207E+03  0.24293634207E+03  0.00000000000E+00 0. -1.
         22   -1    0    0    0    0 -0.00000000000E+00 -0.00000000000E+00 -0.33905754924E+03  0.33905754924E+03  0.00000000000E+00 0.  1.
         24    2    1    2    0    0  0.42311913353E+00 -0.47144561416E+02 -0.22215146979E+03  0.24093995046E+03  0.80485995683E+02 0.  0.
         25    2    1    2    0    0 -0.45957202587E+02  0.31763216554E+02 -0.46694678562E+02  0.14473877922E+03  0.12509178553E+03 0.  0.
        -24    2    1    2    0    0  0.45534083454E+02  0.15381344862E+02  0.17272494118E+03  0.19631516163E+03  0.79973738515E+02 0.  0.
        -13    1    3    3    0    0  0.34201231267E+02 -0.42152136908E+02 -0.96367714957E+02  0.11060408379E+03  0.00000000000E+00 0.  1.
         14    1    3    3    0    0 -0.33778112134E+02 -0.49924245085E+01 -0.12578375483E+03  0.13033586667E+03  0.00000000000E+00 0. -1.
         11    1    5    5    0    0  0.52719917069E+02  0.17941885410E+02  0.17834667103E+03  0.18683906437E+03  0.00000000000E+00 0. -1.
        -12    1    5    5    0    0 -0.71858336152E+01 -0.25605405479E+01 -0.56217298493E+01  0.94760972526E+01  0.00000000000E+00 0.  1.
          5    1    4    4  501    0 -0.41003381043E+02  0.47795296528E+02 -0.83150540796E+02  0.10438942696E+03  0.41800000000E+01 0. -1.
         -5    1    4    4    0  501 -0.49538215448E+01 -0.16032079974E+02  0.36455862233E+02  0.40349352254E+02  0.41800000000E+01 0. -1.
</event>
<event>
11    1  0.8037748E-009  0.1403869E+03  0.7561462E-02  0.1107127E+00
         22   -1    0    0    0    0  0.00000000000E+00  0.00000000000E+00  0.41558790562E+03  0.41558790562E+03  0.00000000000E+00 0.  1.
         22   -1    0    0    0    0 -0.00000000000E+00 -0.00000000000E+00 -0.56000956908E+03  0.56000956908E+03  0.00000000000E+00 0. -1.
        -24    2    1    2    0    0 -0.10786147129E+01  0.52333911012E+02 -0.43010054982E+03  0.44067869132E+03  0.80443920694E+02 0.  0.
         25    2    1    2    0    0  0.32232253328E+02  0.63859638057E+01 -0.81362720652E+02  0.15279806187E+03  0.12509059401E+03 0.  0.
         24    2    1    2    0    0 -0.31153638615E+02 -0.58719874818E+02  0.36704160700E+03  0.38212072151E+03  0.82934502112E+02 0.  0.
        -11    1    5    5    0    0  0.11283932106E+02 -0.39957864134E+02  0.28379430618E+03  0.28681556138E+03  0.00000000000E+00 0.  1.
         12    1    5    5    0    0 -0.42437570721E+02 -0.18762010684E+02  0.83247300825E+02  0.95305160135E+02  0.00000000000E+00 0. -1.
         13    1    3    3    0    0  0.30364273000E+02  0.45447142443E+02 -0.35179370118E+03  0.35601438177E+03  0.00000000000E+00 0. -1.
        -14    1    3    3    0    0 -0.31442887713E+02  0.68867685693E+01 -0.78306848632E+02  0.84664309550E+02  0.00000000000E+00 0.  1.
          5    1    4    4  501    0  0.36939556209E+02  0.15433850698E+02 -0.11265030541E+03  0.11962565891E+03  0.41800000000E+01 0. -1.
         -5    1    4    4    0  501 -0.47073028809E+01 -0.90478868923E+01  0.31287584762E+02  0.33172402956E+02  0.41800000000E+01 0. -1.
</event>
<event>
11    1  0.8037748E-009  0.5963066E+03  0.7561462E-02  0.9200828E-01
         22   -1    0    0    0    0  0.00000000000E+00  0.00000000000E+00  0.23910754772E+04  0.23910754772E+04  0.00000000000E+00 0.  1.
         22   -1    0    0    0    0 -0.00000000000E+00 -0.00000000000E+00 -0.21023837390E+03  0.21023837390E+03  0.00000000000E+00 0.  1.
         24    2    1    2    0    0  0.93351714158E+01  0.68849889650E+02  0.21583995655E+02  0.10837315357E+03  0.80320724702E+02 0.  0.
         25    2    1    2    0    0 -0.29273349740E+03  0.46261493005E+03  0.61185578612E+03  0.83049329598E+03  0.12508452200E+03 0.  0.
        -24    2    1    2    0    0  0.28339832599E+03 -0.53146481970E+03  0.15473973215E+04  0.16624474016E+04  0.80767731803E+02 0.  0.
        -11    1    3    3    0    0 -0.79455685960E+01 -0.12029585125E+02 -0.12344121282E+02  0.18979470720E+02  0.00000000000E+00 0.  1.
         12    1    3    3    0    0  0.17280740012E+02  0.80879474774E+02  0.33928116937E+02  0.89393682853E+02  0.00000000000E+00 0. -1.
         11    1    5    5    0    0  0.15107660292E+03 -0.34025676345E+03  0.87216515386E+03  0.94829892999E+03  0.00000000000E+00 0. -1.
        -12    1    5    5    0    0  0.13232172307E+03 -0.19120805624E+03  0.67523216768E+03  0.71414847156E+03  0.00000000000E+00 0.  1.
          5    1    4    4  501    0 -0.15024866446E+03  0.23745986793E+03  0.22139921479E+03  0.35776659258E+03  0.41800000000E+01 0.  1.
         -5    1    4    4    0  501 -0.14248483294E+03  0.22515506211E+03  0.39045657133E+03  0.47272670340E+03  0.41800000000E+01 0.  1.
</event>
<event>
11    1  0.8037748E-009  0.1373158E+03  0.7561462E-02  0.1110593E+00
         22   -1    0    0    0    0  0.00000000000E+00  0.00000000000E+00  0.72846768161E+02  0.72846768161E+02  0.00000000000E+00 0.  1.
         22   -1    0    0    0    0 -0.00000000000E+00 -0.00000000000E+00 -0.13584276287E+04  0.13584276287E+04  0.00000000000E+00 0. -1.
         24    2    1    2    0    0 -0.34805519686E+02  0.43809256607E+02 -0.10322136201E+04  0.10368625803E+04  0.80550467210E+02 0.  0.
         25    2    1    2    0    0  0.40757862172E+02  0.18138962346E+02 -0.26079511507E+03  0.29266117413E+03  0.12508495320E+03 0.  0.
        -24    2    1    2    0    0 -0.59523424856E+01 -0.61948218952E+02  0.74278745855E+01  0.10175064246E+03  0.80156145786E+02 0.  0.
        -11    1    3    3    0    0  0.10838349827E+02  0.28162518624E+02 -0.13408035412E+03  0.13743412474E+03  0.00000000000E+00 0.  1.
         12    1    3    3    0    0 -0.45643869514E+02  0.15646737983E+02 -0.89813326594E+03  0.89942845553E+03  0.00000000000E+00 0. -1.
         13    1    5    5    0    0  0.14451809001E+02  0.34133513139E+01  0.26757871034E+02  0.30602114516E+02  0.00000000000E+00 0. -1.
        -14    1    5    5    0    0 -0.20404151486E+02 -0.65361570266E+02 -0.19329996449E+02  0.71148527941E+02  0.00000000000E+00 0.  1.
          5    1    4    4  501    0 -0.12201558610E+02  0.61970556860E+02 -0.11070818634E+03  0.12752647911E+03  0.41800000000E+01 0. -1.
         -5    1    4    4    0  501  0.52959420782E+02 -0.43831594514E+02 -0.15008692873E+03  0.16513469503E+03  0.41800000000E+01 0. -1.
</event>
<event>
11    1  0.1477055E-008  0.1538289E+03  0.7561462E-02  0.1093029E+00
         22   -1    0    0    0    0  0.00000000000E+00  0.00000000000E+00  0.44420428216E+03  0.44420428216E+03  0.00000000000E+00 0. -1.
         22   -1    0    0    0    0 -0.00000000000E+00 -0.00000000000E+00 -0.58647663761E+03  0.58647663761E+03  0.00000000000E+00 0. -1.
         24    2    1    2    0    0 -0.59891104040E+02 -0.16733976589E+01 -0.47911257707E+03  0.48975012304E+03  0.81954724708E+02 0.  0.
         25    2    1    2    0    0 -0.19039569965E+02 -0.50120217982E+02 -0.41968159544E+02  0.14241728076E+03  0.12508722544E+03 0.  0.
        -24    2    1    2    0    0  0.78930674005E+02  0.51793615641E+02  0.37880838117E+03  0.39851351597E+03  0.80028762613E+02 0.  0.
        -11    1    3    3    0    0  0.33490101525E+01  0.17953106759E+02 -0.25700233096E+02  0.31528271321E+02  0.00000000000E+00 0.  1.
         12    1    3    3    0    0 -0.63240114193E+02 -0.19626504418E+02 -0.45341234398E+03  0.45822185172E+03  0.00000000000E+00 0. -1.
         13    1    5    5    0    0  0.41463999232E+02  0.45053647326E+02  0.33467630721E+03  0.34023128159E+03  0.00000000000E+00 0. -1.
        -14    1    5    5    0    0  0.37466674773E+02  0.67399683149E+01  0.44132073963E+02  0.58282234374E+02  0.00000000000E+00 0.  1.
          5    1    4    4  501    0 -0.39943730446E+02 -0.30128496472E+02  0.34257817288E+02  0.60780739934E+02  0.41800000000E+01 0.  1.
         -5    1    4    4    0  501  0.20904160481E+02 -0.19991721510E+02 -0.76225976832E+02  0.81636540828E+02  0.41800000000E+01 0.  1.
</event>
<event>
11    1  0.8037748E-009  0.1975239E+03  0.7561462E-02  0.1056289E+00
         22   -1    0    0    0    0  0.00000000000E+00  0.00000000000E+00  0.11249025354E+03  0.11249025354E+03  0.00000000000E+00 0. -1.
         22   -1    0    0    0    0 -0.00000000000E+00 -0.00000000000E+00 -0.12220333937E+04  0.12220333937E+04  0.00000000000E+00 0.  1.
        -24    2    1    2    0    0 -0.69793204351E+02  0.11956281373E+03 -0.60014226991E+03  0.62107327087E+03  0.79968155279E+02 0.  0.
         25    2    1    2    0    0  0.14800407774E+02 -0.19923105508E+03 -0.53550174186E+03  0.58508228008E+03  0.12508834301E+03 0.  0.
         24    2    1    2    0    0  0.54992796577E+02  0.79668241351E+02  0.26100871653E+02  0.12836809625E+03  0.80161563592E+02 0.  0.
        -11    1    5    5    0    0  0.18607599548E+02  0.81933048125E+02  0.85396983842E+00  0.84023784730E+02  0.00000000000E+00 0.  1.
         12    1    5    5    0    0  0.36385197029E+02 -0.22648067738E+01  0.25246901814E+02  0.44344311516E+02  0.00000000000E+00 0. -1.
         13    1    3    3    0    0 -0.34378495803E+01  0.79060869763E+01 -0.20398288988E+03  0.20416499304E+03  0.00000000000E+00 0. -1.
        -14    1    3    3    0    0 -0.66355354771E+02  0.11165672675E+03 -0.39615938003E+03  0.41690827783E+03  0.00000000000E+00 0.  1.
          5    1    4    4  501    0 -0.38025308327E+02 -0.11439515661E+03 -0.18714751432E+03  0.22265183683E+03  0.41800000000E+01 0. -1.
         -5    1    4    4    0  501  0.52825716101E+02 -0.84835898466E+02 -0.34835422754E+03  0.36243044325E+03  0.41800000000E+01 0. -1.
</event>
<event>
11    1  0.8037748E-009  0.1422578E+03  0.7561462E-02  0.1105063E+00
         22   -1    0    0    0    0  0.00000000000E+00  0.00000000000E+00  0.46906146922E+03  0.46906146922E+03  0.00000000000E+00 0.  1.
         22   -1    0    0    0    0 -0.00000000000E+00 -0.00000000000E+00 -0.27576221886E+04  0.27576221886E+04  0.00000000000E+00 0. -1.
        -24    2    1    2    0    0 -0.24704283475E+02  0.30360872911E+02 -0.25697860787E+04  0.25713945246E+04  0.82080609597E+02 0.  0.
         25    2    1    2    0    0 -0.10478529365E+02 -0.87760423123E+02 -0.14862108034E+03  0.21341724082E+03  0.12508797589E+03 0.  0.
         24    2    1    2    0    0  0.35182812840E+02  0.57399550212E+02  0.42984643971E+03  0.44187189238E+03  0.77137985856E+02 0.  0.
        -11    1    5    5    0    0  0.15478689441E+02  0.26046502779E+02  0.37171509675E+03  0.37294788281E+03  0.00000000000E+00 0.  1.
         12    1    5    5    0    0  0.19704123399E+02  0.31353047434E+02  0.58131342956E+02  0.68924009577E+02  0.00000000000E+00 0. -1.
         11    1    3    3    0    0 -0.41454586737E+02  0.24509260224E+02 -0.24312429040E+04  0.24317198122E+04  0.00000000000E+00 0. -1.
        -12    1    3    3    0    0  0.16750303262E+02  0.58516126870E+01 -0.13854317469E+03  0.13967471239E+03  0.00000000000E+00 0.  1.
          5    1    4    4  501    0  0.30392441022E+01 -0.11877810000E+03 -0.11970302601E+03  0.16871206501E+03  0.41800000000E+01 0.  1.
         -5    1    4    4    0  501 -0.13517773467E+02  0.31017676873E+02 -0.28918054332E+02  0.44705175813E+02  0.41800000000E+01 0.  1.
</event>
<event>
11    1  0.8037748E-009  0.1579929E+03  0.7561462E-02  0.1088980E+00
         22   -1    0    0    0    0  0.00000000000E+00  0.00000000000E+00  0.26425354527E+03  0.26425354527E+03  0.00000000000E+00 0.  1.
         22   -1    0    0    0    0 -0.00000000000E+00 -0.00000000000E+00 -0.48955763766E+03  0.48955763766E+03  0.00000000000E+00 0.  1.
         24    2    1    2    0    0  0.34428803028E+01 -0.48771866494E+02 -0.36142476026E+03  0.37326286777E+03  0.79415129156E+02 0.  0.
         25    2    1    2    0    0 -0.70724122872E+02 -0.30632413479E+02 -0.37697923446E+02  0.15169006460E+03  0.12509394851E+03 0.  0.
        -24    2    1    2    0    0  0.67281242569E+02  0.79404279973E+02  0.17381859131E+03  0.22885825056E+03  0.10644900602E+03 0.  0.
        -11    1    3    3    0    0  0.39122488744E+01  0.17369033427E+02 -0.16592146958E+03  0.16687397365E+03  0.00000000000E+00 0.  1.
         12    1    3    3    0    0 -0.46936857156E+00 -0.66140899921E+02 -0.19550329068E+03  0.20638889412E+03  0.00000000000E+00 0. -1.
         11    1    5    5    0    0 -0.26942037738E+02  0.14195496189E+02  0.17774213850E+02  0.35260575542E+02  0.00000000000E+00 0. -1.
        -12    1    5    5    0    0  0.94223280307E+02  0.65208783784E+02  0.15604437746E+03  0.19359767502E+03  0.00000000000E+00 0.  1.
          5    1    4    4  501    0  0.26380767442E+02  0.23299243204E+02 -0.13525875657E+02  0.37937070748E+02  0.41800000000E+01 0.  1.
         -5    1    4    4    0  501 -0.97104890314E+02 -0.53931656683E+02 -0.24172047789E+02  0.11375299385E+03  0.41800000000E+01 0.  1.
</event>
<event>
11    1  0.8037748E-009  0.1963248E+03  0.7561462E-02  0.1057153E+00
         22   -1    0    0    0    0  0.00000000000E+00  0.00000000000E+00  0.16952551669E+04  0.16952551669E+04  0.00000000000E+00 0.  1.
         22   -1    0    0    0    0 -0.00000000000E+00 -0.00000000000E+00 -0.10930131098E+03  0.10930131098E+03  0.00000000000E+00 0.  1.
         24    2    1    2    0    0  0.30589138783E+02 -0.12183498108E+03  0.49718022197E+01  0.14907102284E+03  0.80112377355E+02 0.  0.
         25    2    1    2    0    0 -0.11042035544E+03  0.22723520385E+03  0.60635428419E+03  0.66868526152E+03  0.12508384492E+03 0.  0.
        -24    2    1    2    0    0  0.79831216658E+02 -0.10540022277E+03  0.97462776947E+03  0.98680019347E+03  0.79956880248E+02 0.  0.
        -11    1    3    3    0    0  0.15820868890E+02 -0.73591883391E+02 -0.36597920568E+02  0.83698703595E+02  0.00000000000E+00 0.  1.
         12    1    3    3    0    0  0.14768269892E+02 -0.48243097689E+02  0.41569722788E+02  0.65372319241E+02  0.00000000000E+00 0. -1.
         13    1    5    5    0    0  0.31393763759E+02 -0.37546165359E+02  0.14590606103E+03  0.15389561911E+03  0.00000000000E+00 0. -1.
        -14    1    5    5    0    0  0.48437452899E+02 -0.67854057411E+02  0.82872170844E+03  0.83290457436E+03  0.00000000000E+00 0.  1.
          5    1    4    4  501    0  0.19659606499E+02  0.26539481770E+02  0.30595894752E+02  0.45215322579E+02  0.41800000000E+01 0. -1.
         -5    1    4    4    0  501 -0.13007996194E+03  0.20069572208E+03  0.57575838944E+03  0.62346993894E+03  0.41800000000E+01 0. -1.
</event>
<event>
11    1  0.8037748E-009  0.1420990E+03  0.7561462E-02  0.1105237E+00
         22   -1    0    0    0    0  0.00000000000E+00  0.00000000000E+00  0.13055060480E+04  0.13055060480E+04  0.00000000000E+00 0.  1.
         22   -1    0    0    0    0 -0.00000000000E+00 -0.00000000000E+00 -0.11348497944E+04  0.11348497944E+04  0.00000000000E+00 0.  1.
         24    2    1    2    0    0  0.80565540786E+00 -0.33817912296E+02 -0.96739895103E+03  0.97127507973E+03  0.79813844558E+02 0.  0.
         25    2    1    2    0    0  0.50300290968E+02  0.77382316325E+02 -0.12627981131E+03  0.20027046014E+03  0.12507407529E+03 0.  0.
        -24    2    1    2    0    0 -0.51105946376E+02 -0.43564404029E+02  0.12643350159E+04  0.12688103026E+04  0.82624913683E+02 0.  0.
        -13    1    3    3    0    0 -0.14961432692E+02 -0.71729532603E+01 -0.84015010433E+03  0.84031392559E+03  0.00000000000E+00 0.  1.
         14    1    3    3    0    0  0.15767088100E+02 -0.26644959036E+02 -0.12724884670E+03  0.13096115415E+03  0.00000000000E+00 0. -1.
         13    1    5    5    0    0  0.13792979281E+02 -0.25027685636E+02  0.16910551431E+03  0.17150307955E+03  0.00000000000E+00 0. -1.
        -14    1    5    5    0    0 -0.64898925657E+02 -0.18536718393E+02  0.10952295016E+04  0.10973072230E+04  0.00000000000E+00 0.  1.
          5    1    4    4  501    0 -0.24316910058E+02 -0.18732177745E+01 -0.76684215026E+02  0.80577678632E+02  0.41800000000E+01 0.  1.
         -5    1    4    4    0  501  0.74617201026E+02  0.79255534100E+02 -0.49595596286E+02  0.11969278151E+03  0.41800000000E+01 0.  1.
</event>
<event>
11    1  0.8037748E-009  0.1384792E+03  0.7561462E-02  0.1109269E+00
         22   -1    0    0    0    0  0.00000000000E+00  0.00000000000E+00  0.87568582852E+03  0.87568582852E+03  0.00000000000E+00 0. -1.
         22   -1    0    0    0    0 -0.00000000000E+00 -0.00000000000E+00 -0.18488991890E+04  0.18488991890E+04  0.00000000000E+00 0.  1.
        -24    2    1    2    0    0 -0.52044528252E+02  0.19281408087E+02 -0.17183472626E+04  0.17209907015E+04  0.77532405912E+02 0.  0.
         25    2    1    2    0    0  0.10061630806E+03 -0.51128027062E+02 -0.69777295284E+02  0.18235680573E+03  0.12508963610E+03 0.  0.
         24    2    1    2    0    0 -0.48571779808E+02  0.31846618975E+02  0.81491119747E+03  0.82123751029E+03  0.83530614883E+02 0.  0.
        -13    1    5    5    0    0 -0.40582366609E+02  0.15973947537E+01  0.14456608374E+03  0.15016268750E+03  0.00000000000E+00 0.  1.
         14    1    5    5    0    0 -0.79894131997E+01  0.30249224221E+02  0.67034511372E+03  0.67107482279E+03  0.00000000000E+00 0. -1.
         11    1    3    3    0    0 -0.47422599697E+02  0.37051104495E+02 -0.73109371534E+03  0.73356643048E+03  0.00000000000E+00 0. -1.
        -12    1    3    3    0    0 -0.46219285545E+01 -0.17769696408E+02 -0.98725354729E+03  0.98742427101E+03  0.00000000000E+00 0.  1.
          5    1    4    4  501    0  0.16853729710E+02  0.40512232415E+02 -0.21997105612E+02  0.49260879364E+02  0.41800000000E+01 0.  1.
         -5    1    4    4    0  501  0.83762578350E+02 -0.91640259478E+02 -0.47780189671E+02  0.13309592636E+03  0.41800000000E+01 0.  1.
</event>
<event>
11    1  0.8037748E-009  0.2063680E+03  0.7561462E-02  0.1050110E+00
         22   -1    0    0    0    0  0.00000000000E+00  0.00000000000E+00  0.83693928913E+03  0.83693928913E+03  0.00000000000E+00 0. -1.
         22   -1    0    0    0    0 -0.00000000000E+00 -0.00000000000E+00 -0.19194897148E+04  0.19194897148E+04  0.00000000000E+00 0. -1.
         24    2    1    2    0    0 -0.58109229707E+02 -0.15167927937E+03 -0.18100664585E+04  0.18191019121E+04  0.80049335920E+02 0.  0.
         25    2    1    2    0    0  0.24527072329E+02  0.24344309246E+03  0.92813732895E+02  0.29004837310E+03  0.12509018019E+03 0.  0.
        -24    2    1    2    0    0  0.33582157378E+02 -0.91763813088E+02  0.63470229996E+03  0.64727871867E+03  0.81082497414E+02 0.  0.
        -11    1    3    3    0    0 -0.10145083751E+02  0.45636201837E+01 -0.30199752532E+03  0.30220234058E+03  0.00000000000E+00 0.  1.
         12    1    3    3    0    0 -0.47964145956E+02 -0.15624289956E+03 -0.15080689332E+04  0.15168995716E+04  0.00000000000E+00 0. -1.
         11    1    5    5    0    0  0.50835073644E+02 -0.61570965852E+02  0.54922554990E+03  0.55499900289E+03  0.00000000000E+00 0. -1.
        -12    1    5    5    0    0 -0.17252916266E+02 -0.30192847236E+02  0.85476750057E+02  0.92279715779E+02  0.00000000000E+00 0.  1.
          5    1    4    4  501    0  0.41174682201E+02  0.25066250168E+03  0.95133092674E+02  0.27128365584E+03  0.41800000000E+01 0.  1.
         -5    1    4    4    0  501 -0.16647609872E+02 -0.72194092221E+01 -0.23193597791E+01  0.18764717257E+02  0.41800000000E+01 0.  1.
</event>
<event>
11    1  0.8037748E-009  0.1295516E+03  0.7561462E-02  0.1119821E+00
         22   -1    0    0    0    0  0.00000000000E+00  0.00000000000E+00  0.18373582818E+04  0.18373582818E+04  0.00000000000E+00 0. -1.
         22   -1    0    0    0    0 -0.00000000000E+00 -0.00000000000E+00 -0.33597172674E+03  0.33597172674E+03  0.00000000000E+00 0.  1.
         24    2    1    2    0    0  0.44192169933E+01 -0.31400378606E+02 -0.31132536233E+03  0.32277342430E+03  0.79080269020E+02 0.  0.
         25    2    1    2    0    0  0.29398847909E+02  0.32806220065E+02  0.23029713436E+03  0.26575284837E+03  0.12508903224E+03 0.  0.
        -24    2    1    2    0    0 -0.33818064902E+02 -0.14058414599E+01  0.15824147830E+04  0.15848037359E+04  0.80129256922E+02 0.  0.
        -11    1    3    3    0    0  0.14299627835E+02  0.12263431524E+02 -0.22258032419E+03  0.22337607712E+03  0.00000000000E+00 0.  1.
         12    1    3    3    0    0 -0.98804108415E+01 -0.43663810130E+02 -0.88745038137E+02  0.99397347185E+02  0.00000000000E+00 0. -1.
         13    1    5    5    0    0 -0.24403109854E+02  0.16850468235E+02  0.14826355206E+04  0.14829320743E+04  0.00000000000E+00 0. -1.
        -14    1    5    5    0    0 -0.94149550479E+01 -0.18256309695E+02  0.99779262425E+02  0.10187166158E+03  0.00000000000E+00 0.  1.
          5    1    4    4  501    0  0.35216866359E+02  0.28181125642E+01  0.23215495157E+03  0.23486498967E+03  0.41800000000E+01 0.  1.
         -5    1    4    4    0  501 -0.58180184498E+01  0.29988107501E+02 -0.18578172055E+01  0.30887858698E+02  0.41800000000E+01 0.  1.
</event>
<event>
11    1  0.8037748E-009  0.1380543E+03  0.7561462E-02  0.1109751E+00
         22   -1    0    0    0    0  0.00000000000E+00  0.00000000000E+00  0.64008528452E+03  0.64008528452E+03  0.00000000000E+00 0.  1.
         22   -1    0    0    0    0 -0.00000000000E+00 -0.00000000000E+00 -0.41375980608E+03  0.41375980608E+03  0.00000000000E+00 0. -1.
         24    2    1    2    0    0 -0.23241621025E+02 -0.74401724731E+01 -0.34638088535E+03  0.35640406923E+03  0.80303260911E+02 0.  0.
         25    2    1    2    0    0 -0.26931435598E+02  0.39449234506E+02  0.19629070345E+02  0.13533352317E+03  0.12509323628E+03 0.  0.
        -24    2    1    2    0    0  0.50173056623E+02 -0.32009062033E+02  0.55307729344E+03  0.56210749822E+03  0.80798708928E+02 0.  0.
        -13    1    3    3    0    0 -0.12738558440E+02 -0.14125219504E+02 -0.13581744743E+02  0.23372130571E+02  0.00000000000E+00 0.  1.
         14    1    3    3    0    0 -0.10503062585E+02  0.66850470310E+01 -0.33279914060E+03  0.33303193866E+03  0.00000000000E+00 0. -1.
         13    1    5    5    0    0  0.66502337946E+02 -0.39278845660E+02  0.35930522434E+03  0.36751276564E+03  0.00000000000E+00 0. -1.
        -14    1    5    5    0    0 -0.16329281323E+02  0.72697836263E+01  0.19377206910E+03  0.19459473258E+03  0.00000000000E+00 0.  1.
          5    1    4    4  501    0 -0.12199847799E+02  0.84683382243E+02  0.70531757533E+01  0.85949585238E+02  0.41800000000E+01 0. -1.
         -5    1    4    4    0  501 -0.14731587799E+02 -0.45234147736E+02  0.12575894592E+02  0.49383937928E+02  0.41800000000E+01 0. -1.
</event>
<event>
11    1  0.8037748E-009  0.1429056E+03  0.7561462E-02  0.1104357E+00
         22   -1    0    0    0    0  0.00000000000E+00  0.00000000000E+00  0.24699562534E+03  0.24699562534E+03  0.00000000000E+00 0. -1.
         22   -1    0    0    0    0 -0.00000000000E+00 -0.00000000000E+00 -0.19383770280E+04  0.19383770280E+04  0.00000000000E+00 0.  1.
        -24    2    1    2    0    0  0.48025837770E+02  0.45224781630E+02 -0.15145817016E+04  0.15181328434E+04  0.80111406408E+02 0.  0.
         25    2    1    2    0    0 -0.85495238435E+02 -0.48828159711E+02 -0.39811125193E+03  0.42875819232E+03  0.12508954229E+03 0.  0.
         24    2    1    2    0    0  0.37469400666E+02  0.36033780810E+01  0.22131155096E+03  0.23848161752E+03  0.80484402133E+02 0.  0.
        -11    1    5    5    0    0  0.16286238840E+02 -0.15835146035E+02  0.93261151934E+01  0.24555444409E+02  0.00000000000E+00 0.  1.
         12    1    5    5    0    0  0.21183161825E+02  0.19438524116E+02  0.21198543577E+03  0.21392617311E+03  0.00000000000E+00 0. -1.
         11    1    3    3    0    0  0.12914048743E+01  0.35878357462E+02 -0.24097564127E+03  0.24363535037E+03  0.00000000000E+00 0. -1.
        -12    1    3    3    0    0  0.46734432896E+02  0.93464241684E+01 -0.12736060604E+04  0.12744974931E+04  0.00000000000E+00 0.  1.
          5    1    4    4  501    0 -0.35253445581E+02 -0.18906457800E+02 -0.35168027334E+03  0.35397280493E+03  0.41800000000E+01 0.  1.
         -5    1    4    4    0  501 -0.50241792854E+02 -0.29921701911E+02 -0.46430978595E+02  0.74785387394E+02  0.41800000000E+01 0.  1.
</event>
<event>
11    1  0.8037748E-009  0.1449924E+03  0.7561462E-02  0.1102108E+00
         22   -1    0    0    0    0  0.00000000000E+00  0.00000000000E+00  0.15605509475E+04  0.15605509475E+04  0.00000000000E+00 0.  1.
         22   -1    0    0    0    0 -0.00000000000E+00 -0.00000000000E+00 -0.47443445514E+03  0.47443445514E+03  0.00000000000E+00 0.  1.
        -24    2    1    2    0    0 -0.29253057291E+01 -0.69698150860E+02 -0.39459003535E+03  0.41025503809E+03  0.87985854738E+02 0.  0.
         25    2    1    2    0    0  0.53112627391E+01  0.12286573465E+03  0.38741960412E+02  0.17964372823E+03  0.12508689513E+03 0.  0.
         24    2    1    2    0    0 -0.23859570101E+01 -0.53167583785E+02  0.14419645673E+04  0.14450866363E+04  0.78619898248E+02 0.  0.
        -13    1    5    5    0    0 -0.27264060551E+02  0.84008844813E+01  0.42588977439E+03  0.42684423832E+03  0.00000000000E+00 0.  1.
         14    1    5    5    0    0  0.24878103541E+02 -0.61568468267E+02  0.10160747929E+04  0.10182423980E+04  0.00000000000E+00 0. -1.
         13    1    3    3    0    0  0.35137571666E+02 -0.62953788449E+02 -0.28749930566E+03  0.29640121319E+03  0.00000000000E+00 0. -1.
        -14    1    3    3    0    0 -0.38062877395E+02 -0.67443624109E+01 -0.10709072969E+03  0.11385382490E+03  0.00000000000E+00 0.  1.
          5    1    4    4  501    0 -0.43452443044E+02  0.10586437804E+01  0.39788184761E+01  0.43846766467E+02  0.41800000000E+01 0.  1.
         -5    1    4    4    0  501  0.48763705783E+02  0.12180709086E+03  0.34763141936E+02  0.13579696176E+03  0.41800000000E+01 0.  1.
</event>
<event>
11    1  0.8037748E-009  0.1461909E+03  0.7561462E-02  0.1100836E+00
         22   -1    0    0    0    0  0.00000000000E+00  0.00000000000E+00  0.84081205696E+03  0.84081205696E+03  0.00000000000E+00 0. -1.
         22   -1    0    0    0    0 -0.00000000000E+00 -0.00000000000E+00 -0.29948004175E+03  0.29948004175E+03  0.00000000000E+00 0. -1.
        -24    2    1    2    0    0 -0.15195702364E+02 -0.38245487602E+02 -0.18915956293E+03  0.20902280590E+03  0.78838863795E+02 0.  0.
         25    2    1    2    0    0  0.34623617102E+01  0.11155516046E+03 -0.23497468185E+02  0.16928264359E+03  0.12509172889E+03 0.  0.
         24    2    1    2    0    0  0.11733340653E+02 -0.73309672855E+02  0.75398904632E+03  0.76198664922E+03  0.81315387298E+02 0.  0.
        -13    1    5    5    0    0  0.15642350555E+02  0.30536124121E+01  0.29997112961E+02  0.33968138978E+02  0.00000000000E+00 0.  1.
         14    1    5    5    0    0 -0.39090099012E+01 -0.76363285267E+02  0.72399193336E+03  0.72801851024E+03  0.00000000000E+00 0. -1.
         11    1    3    3    0    0 -0.15459112151E+02  0.21314383891E+02 -0.85590278461E+02  0.89548773728E+02  0.00000000000E+00 0. -1.
        -12    1    3    3    0    0  0.26340978728E+00 -0.59559871494E+02 -0.10356928447E+03  0.11947403217E+03  0.00000000000E+00 0.  1.
          5    1    4    4  501    0 -0.35957127974E+02  0.94623040127E+02  0.25048275637E+02  0.10436150290E+03  0.41800000000E+01 0.  1.
         -5    1    4    4    0  501  0.39419489684E+02  0.16932120330E+02 -0.48545743822E+02  0.64921140694E+02  0.41800000000E+01 0.  1.
</event>
<event>
11    1  0.8037748E-009  0.1493215E+03  0.7561462E-02  0.1097574E+00
         22   -1    0    0    0    0  0.00000000000E+00  0.00000000000E+00  0.53595721305E+03  0.53595721305E+03  0.00000000000E+00 0. -1.
         22   -1    0    0    0    0 -0.00000000000E+00 -0.00000000000E+00 -0.20984294135E+04  0.20984294135E+04  0.00000000000E+00 0. -1.
        -24    2    1    2    0    0 -0.49961136364E+02 -0.43759202146E+02 -0.19361088942E+04  0.19386891973E+04  0.74747378021E+02 0.  0.
         25    2    1    2    0    0  0.84216507900E+02 -0.31048475231E+02 -0.11620290432E+03  0.19288724860E+03  0.12508376267E+03 0.  0.
         24    2    1    2    0    0 -0.34255371536E+02  0.74807677377E+02  0.48983959810E+03  0.50281018063E+03  0.78138510391E+02 0.  0.
        -13    1    5    5    0    0  0.10583592357E+01 -0.13614982486E+02  0.26755122823E+02  0.30038716178E+02  0.00000000000E+00 0.  1.
         14    1    5    5    0    0 -0.35313730772E+02  0.88422659863E+02  0.46308447528E+03  0.47277146446E+03  0.00000000000E+00 0. -1.
         11    1    3    3    0    0 -0.48071596140E+01 -0.45188516151E+02 -0.13801058945E+04  0.13808538630E+04  0.00000000000E+00 0. -1.
        -12    1    3    3    0    0 -0.45153976750E+02  0.14293140050E+01 -0.55600299969E+03  0.55783533433E+03  0.00000000000E+00 0.  1.
          5    1    4    4  501    0  0.79076412054E+02 -0.75194251630E+02 -0.85834293870E+02  0.13889655441E+03  0.41800000000E+01 0. -1.
         -5    1    4    4    0  501  0.51400958455E+01  0.44145776399E+02 -0.30368610450E+02  0.53990694196E+02  0.41800000000E+01 0. -1.
</event>
<event>
11    1  0.8037748E-009  0.1719823E+03  0.7561462E-02  0.1076319E+00
         22   -1    0    0    0    0  0.00000000000E+00  0.00000000000E+00  0.29048433530E+03  0.29048433530E+03  0.00000000000E+00 0.  1.
         22   -1    0    0    0    0 -0.00000000000E+00 -0.00000000000E+00 -0.17884541069E+04  0.17884541069E+04  0.00000000000E+00 0. -1.
         24    2    1    2    0    0 -0.82931598333E+01 -0.12462715229E+03 -0.15437240982E+04  0.15510437839E+04  0.83976333765E+02 0.  0.
         25    2    1    2    0    0  0.56038451882E+02  0.65619669804E+02 -0.20344407887E+03  0.25393418874E+03  0.12508728884E+03 0.  0.
        -24    2    1    2    0    0 -0.47745292048E+02  0.59007482485E+02  0.24919840553E+03  0.27396046951E+03  0.84811541872E+02 0.  0.
        -13    1    3    3    0    0 -0.31166416964E+02 -0.13466387170E+02 -0.50451416987E+03  0.50565525482E+03  0.00000000000E+00 0.  1.
         14    1    3    3    0    0  0.22873257131E+02 -0.11116076512E+03 -0.10392099283E+04  0.10453885291E+04  0.00000000000E+00 0. -1.
         13    1    5    5    0    0  0.58917082177E+01  0.21435349155E+02  0.73672941180E+01  0.23419296355E+02  0.00000000000E+00 0. -1.
        -14    1    5    5    0    0 -0.53637000266E+02  0.37572133329E+02  0.24183111141E+03  0.25054117316E+03  0.00000000000E+00 0.  1.
          5    1    4    4  501    0  0.72781064292E+01 -0.34264445411E+02 -0.81914874820E+02  0.89188240084E+02  0.41800000000E+01 0. -1.
         -5    1    4    4    0  501  0.48760345453E+02  0.99884115215E+02 -0.12152920405E+03  0.16474594865E+03  0.41800000000E+01 0. -1.
</event>
<event>
11    1  0.8037748E-009  0.1779020E+03  0.7561462E-02  0.1071353E+00
         22   -1    0    0    0    0  0.00000000000E+00  0.00000000000E+00  0.28285586563E+03  0.28285586563E+03  0.00000000000E+00 0. -1.
         22   -1    0    0    0    0 -0.00000000000E+00 -0.00000000000E+00 -0.35077596380E+03  0.35077596380E+03  0.00000000000E+00 0. -1.
         24    2    1    2    0    0  0.19102516532E+02 -0.54258892897E+02 -0.19520965710E+03  0.21998489495E+03  0.83532090725E+02 0.  0.
         25    2    1    2    0    0  0.47457133190E+02  0.15242770175E+03 -0.19869349261E+02  0.20378539693E+03  0.12508922100E+03 0.  0.
        -24    2    1    2    0    0 -0.66559649722E+02 -0.98168808850E+02  0.14715890819E+03  0.20986153756E+03  0.91207558268E+02 0.  0.
        -11    1    3    3    0    0 -0.18094440161E+02  0.14504770610E+02 -0.41739210484E+02  0.47748914406E+02  0.00000000000E+00 0.  1.
         12    1    3    3    0    0  0.37196956693E+02 -0.68763663507E+02 -0.15347044662E+03  0.17223598054E+03  0.00000000000E+00 0. -1.
         11    1    5    5    0    0 -0.44969749317E+02 -0.10144783204E+03  0.15130326438E+03  0.18763426870E+03  0.00000000000E+00 0. -1.
        -12    1    5    5    0    0 -0.21589900404E+02  0.32790231919E+01 -0.41443561912E+01  0.22227268856E+02  0.00000000000E+00 0.  1.
          5    1    4    4  501    0  0.78930858295E+02  0.15147906272E+03 -0.19944536757E+02  0.17202105621E+03  0.41800000000E+01 0.  1.
         -5    1    4    4    0  501 -0.31473725105E+02  0.94863902713E+00  0.75187496325E-01  0.31764340717E+02  0.41800000000E+01 0.  1.
</event>
<event>
11    1  0.8037748E-009  0.1435181E+03  0.7561462E-02  0.1103692E+00
         22   -1    0    0    0    0  0.00000000000E+00  0.00000000000E+00  0.72853302729E+02  0.72853302729E+02  0.00000000000E+00 0. -1.
         22   -1    0    0    0    0 -0.00000000000E+00 -0.00000000000E+00 -0.17563551247E+04  0.17563551247E+04  0.00000000000E+00 0. -1.
         24    2    1    2    0    0 -0.60669682802E+01  0.25179022475E+02 -0.15217802498E+04  0.15241253478E+04  0.80449709681E+02 0.  0.
         25    2    1    2    0    0 -0.61814030602E+02  0.70802033799E+01 -0.12999302669E+03  0.19083562853E+03  0.12509574920E+03 0.  0.
        -24    2    1    2    0    0  0.67880998883E+02 -0.32259225855E+02 -0.31728545407E+02  0.11424745105E+03  0.79983072054E+02 0.  0.
        -13    1    3    3    0    0  0.24456643754E+02 -0.95626458860E+01 -0.22606143363E+03  0.22758150935E+03  0.00000000000E+00 0.  1.
         14    1    3    3    0    0 -0.30523612034E+02  0.34741668361E+02 -0.12957188162E+04  0.12965438385E+04  0.00000000000E+00 0. -1.
         13    1    5    5    0    0  0.61472889021E+02 -0.57179602502E+02 -0.25970424940E+02  0.87879952199E+02  0.00000000000E+00 0. -1.
        -14    1    5    5    0    0  0.64081098617E+01  0.24920376647E+02 -0.57581204665E+01  0.26367498849E+02  0.00000000000E+00 0.  1.
          5    1    4    4  501    0 -0.70956779596E+02 -0.68495275497E+01 -0.14899277871E+03  0.16522137001E+03  0.41800000000E+01 0.  1.
         -5    1    4    4    0  501  0.91427489940E+01  0.13929730930E+02  0.18999752020E+02  0.25614258524E+02  0.41800000000E+01 0.  1.
</event>
<event>
11    1  0.8037748E-009  0.1860588E+03  0.7561462E-02  0.1064845E+00
         22   -1    0    0    0    0  0.00000000000E+00  0.00000000000E+00  0.10622415916E+04  0.10622415916E+04  0.00000000000E+00 0.  1.
         22   -1    0    0    0    0 -0.00000000000E+00 -0.00000000000E+00 -0.32929495516E+03  0.32929495516E+03  0.00000000000E+00 0.  1.
        -24    2    1    2    0    0  0.16454649900E+02 -0.47433732437E+02 -0.25497689747E+03  0.27211730175E+03  0.80708693421E+02 0.  0.
         25    2    1    2    0    0  0.12103559984E+03  0.19158707731E+02  0.71547127152E+02  0.18916418237E+03  0.12508966375E+03 0.  0.
         24    2    1    2    0    0 -0.13749024974E+03  0.28275024706E+02  0.91637640672E+03  0.93025506260E+03  0.76978678348E+02 0.  0.
        -13    1    5    5    0    0 -0.14516238215E+03  0.19385110806E+02  0.80060030037E+03  0.81388496771E+03  0.00000000000E+00 0.  1.
         14    1    5    5    0    0  0.76721324133E+01  0.88899139000E+01  0.11577610635E+03  0.11637009490E+03  0.00000000000E+00 0. -1.
         13    1    3    3    0    0 -0.22822463250E+02  0.84939805182E+01 -0.96641369051E+02  0.99662263399E+02  0.00000000000E+00 0. -1.
        -14    1    3    3    0    0  0.39277113150E+02 -0.55927712955E+02 -0.15833552842E+03  0.17245503835E+03  0.00000000000E+00 0.  1.
          5    1    4    4  501    0  0.14565318556E+03  0.38543436434E+01  0.57701594946E+02  0.15676942587E+03  0.41800000000E+01 0.  1.
         -5    1    4    4    0  501 -0.24617585715E+02  0.15304364088E+02  0.13845532206E+02  0.32394756499E+02  0.41800000000E+01 0.  1.
</event>
<event>
11    1  0.8037748E-009  0.2268090E+03  0.7561462E-02  0.1037034E+00
         22   -1    0    0    0    0  0.00000000000E+00  0.00000000000E+00  0.72980883893E+03  0.72980883893E+03  0.00000000000E+00 0. -1.
         22   -1    0    0    0    0 -0.00000000000E+00 -0.00000000000E+00 -0.31116997778E+03  0.31116997778E+03  0.00000000000E+00 0.  1.
         24    2    1    2    0    0 -0.11080652305E+03 -0.15611641865E+03 -0.23383671916E+03  0.31265198636E+03  0.80132587761E+02 0.  0.
         25    2    1    2    0    0  0.10271323222E+03  0.13559921822E+03  0.30294421999E+03  0.36926876410E+03  0.12508822350E+03 0.  0.
        -24    2    1    2    0    0  0.80932908277E+01  0.20517200428E+02  0.34953136032E+03  0.35905806625E+03  0.79145854129E+02 0.  0.
        -13    1    3    3    0    0 -0.11627530348E+03 -0.10778233726E+03 -0.17105208102E+03  0.23322905661E+03  0.00000000000E+00 0.  1.
         14    1    3    3    0    0  0.54687804303E+01 -0.48334081388E+02 -0.62784638144E+02  0.79422929749E+02  0.00000000000E+00 0. -1.
         11    1    5    5    0    0 -0.28352299890E+02 -0.13914830331E+02  0.15359314884E+03  0.15680666690E+03  0.00000000000E+00 0. -1.
        -12    1    5    5    0    0  0.36445590718E+02  0.34432030760E+02  0.19593821148E+03  0.20225139936E+03  0.00000000000E+00 0.  1.
          5    1    4    4  501    0  0.12740745103E+03  0.82999026288E+02  0.23272289545E+03  0.27802682498E+03  0.41800000000E+01 0.  1.
         -5    1    4    4    0  501 -0.24694218804E+02  0.52600191937E+02  0.70221324536E+02  0.91241939117E+02  0.41800000000E+01 0.  1.
</event>
<event>
11    1  0.8037748E-009  0.1522216E+03  0.7561462E-02  0.1094630E+00
         22   -1    0    0    0    0  0.00000000000E+00  0.00000000000E+00  0.38484820089E+03  0.38484820089E+03  0.00000000000E+00 0.  1.
         22   -1    0    0    0    0 -0.00000000000E+00 -0.00000000000E+00 -0.53421398076E+03  0.53421398076E+03  0.00000000000E+00 0. -1.
         24    2    1    2    0    0  0.59134570687E+02  0.61452768655E+02 -0.46639588208E+03  0.48095590975E+03  0.80747310016E+02 0.  0.
         25    2    1    2    0    0 -0.77456448611E+02 -0.85743015424E+02  0.84816553183E+02  0.19021541625E+03  0.12504675429E+03 0.  0.
        -24    2    1    2    0    0  0.18321877923E+02  0.24290246769E+02  0.23221354902E+03  0.24789085565E+03  0.81246764046E+02 0.  0.
        -11    1    3    3    0    0 -0.17756603930E+02  0.26480861444E+01 -0.42284849400E+02  0.45938195787E+02  0.00000000000E+00 0.  1.
         12    1    3    3    0    0  0.76891174618E+02  0.58804682511E+02 -0.42411103268E+03  0.43501771396E+03  0.00000000000E+00 0. -1.
         11    1    5    5    0    0  0.50641710988E+02  0.11262258484E+02  0.14214603890E+03  0.15131727507E+03  0.00000000000E+00 0. -1.
        -12    1    5    5    0    0 -0.32319833064E+02  0.13027988285E+02  0.90067510117E+02  0.96573580583E+02  0.00000000000E+00 0.  1.
          5    1    4    4  501    0  0.15814288870E+02  0.28757386959E+01  0.55855676230E+02  0.58272554197E+02  0.41800000000E+01 0. -1.
         -5    1    4    4    0  501 -0.93270737481E+02 -0.88618754120E+02  0.28960876953E+02  0.13194286205E+03  0.41800000000E+01 0. -1.
</event>
<event>
11    1  0.8037748E-009  0.1455199E+03  0.7561462E-02  0.1101546E+00
         22   -1    0    0    0    0  0.00000000000E+00  0.00000000000E+00  0.65215574431E+03  0.65215574431E+03  0.00000000000E+00 0.  1.
         22   -1    0    0    0    0 -0.00000000000E+00 -0.00000000000E+00 -0.22496383392E+04  0.22496383392E+04  0.00000000000E+00 0.  1.
        -24    2    1    2    0    0  0.66891400278E+02  0.29459981870E+02 -0.20372919589E+04  0.20402236977E+04  0.81313350227E+02 0.  0.
         25    2    1    2    0    0 -0.74520385542E+02 -0.88537765814E+02 -0.17171243495E+03  0.24191927141E+03  0.12509016638E+03 0.  0.
         24    2    1    2    0    0  0.76289852637E+01  0.59077783945E+02  0.61152179887E+03  0.61965111447E+03  0.80375414138E+02 0.  0.
        -13    1    5    5    0    0 -0.25173933644E+02  0.11085835157E+02  0.37811617733E+03  0.37911537325E+03  0.00000000000E+00 0.  1.
         14    1    5    5    0    0  0.32802918908E+02  0.47991948787E+02  0.23340562155E+03  0.24053574123E+03  0.00000000000E+00 0. -1.
         11    1    3    3    0    0 -0.38986383082E+01  0.53980475546E+01 -0.13517214398E+02  0.15068290651E+02  0.00000000000E+00 0. -1.
        -12    1    3    3    0    0  0.70790038586E+02  0.24061934315E+02 -0.20237747445E+04  0.20251554070E+04  0.00000000000E+00 0.  1.
          5    1    4    4  501    0 -0.10909458894E+03 -0.60480902527E+02 -0.13683840538E+03  0.18520742559E+03  0.41800000000E+01 0.  1.
         -5    1    4    4    0  501  0.34574203393E+02 -0.28056863287E+02 -0.34874029567E+02  0.56711845818E+02  0.41800000000E+01 0.  1.
</event>
<event>
11    1  0.8037748E-009  0.1513141E+03  0.7561462E-02  0.1095544E+00
         22   -1    0    0    0    0  0.00000000000E+00  0.00000000000E+00  0.15658269463E+04  0.15658269463E+04  0.00000000000E+00 0.  1.
         22   -1    0    0    0    0 -0.00000000000E+00 -0.00000000000E+00 -0.64600525606E+03  0.64600525606E+03  0.00000000000E+00 0. -1.
         24    2    1    2    0    0  0.84040367691E+02  0.11933201742E+02 -0.61882903217E+03  0.62991419727E+03  0.81469872691E+02 0.  0.
         25    2    1    2    0    0 -0.10093022535E+03  0.29193410312E+01  0.29736710672E+03  0.33803940852E+03  0.12509201659E+03 0.  0.
        -24    2    1    2    0    0  0.16889857663E+02 -0.14852542773E+02  0.12412836157E+04  0.12438785966E+04  0.77091394593E+02 0.  0.
        -13    1    3    3    0    0  0.41572850663E+02 -0.18647748021E+02 -0.12019247975E+03  0.12853899256E+03  0.00000000000E+00 0.  1.
         14    1    3    3    0    0  0.42467517029E+02  0.30580949763E+02 -0.49863655242E+03  0.50137520471E+03  0.00000000000E+00 0. -1.
         13    1    5    5    0    0  0.11299277087E+01  0.28179164552E+02  0.25990459802E+03  0.26143018595E+03  0.00000000000E+00 0. -1.
        -14    1    5    5    0    0  0.15759929954E+02 -0.43031707325E+02  0.98137901770E+03  0.98244841066E+03  0.00000000000E+00 0.  1.
          5    1    4    4  501    0 -0.38295098611E+02  0.22934940309E+02  0.25675631332E+03  0.26064113815E+03  0.41800000000E+01 0. -1.
         -5    1    4    4    0  501 -0.62635126743E+02 -0.20015599278E+02  0.40610793399E+02  0.77398270376E+02  0.41800000000E+01 0. -1.
</event>
<event>
11    1  0.8037748E-009  0.9191858E+03  0.7561462E-02  0.8759923E-01
         22   -1    0    0    0    0  0.00000000000E+00  0.00000000000E+00  0.28544487513E+03  0.28544487513E+03  0.00000000000E+00 0.  1.
         22   -1    0    0    0    0 -0.00000000000E+00 -0.00000000000E+00 -0.73998753972E+03  0.73998753972E+03  0.00000000000E+00 0.  1.
        -24    2    1    2    0    0 -0.56657501571E+02 -0.97637448966E+02 -0.75426971731E+02  0.15800630435E+03  0.80830812340E+02 0.  0.
         25    2    1    2    0    0  0.72689087708E+02  0.41112487671E+03 -0.31355435502E+03  0.53690966169E+03  0.12509309951E+03 0.  0.
         24    2    1    2    0    0 -0.16031586136E+02 -0.31348742775E+03 -0.65561337840E+02  0.33051644881E+03  0.80071560529E+02 0.  0.
        -13    1    5    5    0    0  0.55832389741E+01 -0.29588603666E+03 -0.57214314728E+02  0.30141864086E+03  0.00000000000E+00 0.  1.
         14    1    5    5    0    0 -0.21614825110E+02 -0.17601391088E+02 -0.83470231121E+01  0.29097807952E+02  0.00000000000E+00 0. -1.
         13    1    3    3    0    0 -0.28991575471E+02 -0.91221771607E+01 -0.55311464618E+02  0.63111676278E+02  0.00000000000E+00 0. -1.
        -14    1    3    3    0    0 -0.27665926101E+02 -0.88515271805E+02 -0.20115507113E+02  0.94894628068E+02  0.00000000000E+00 0.  1.
          5    1    4    4  501    0  0.22952276411E+02  0.15565615586E+03 -0.19578968098E+03  0.25121050421E+03  0.41800000000E+01 0.  1.
         -5    1    4    4    0  501  0.49736811296E+02  0.25546872086E+03 -0.11776467404E+03  0.28569915748E+03  0.41800000000E+01 0.  1.
</event>
<event>
11    1  0.8037748E-009  0.1848348E+03  0.7561462E-02  0.1065798E+00
         22   -1    0    0    0    0  0.00000000000E+00  0.00000000000E+00  0.20115039579E+03  0.20115039579E+03  0.00000000000E+00 0. -1.
         22   -1    0    0    0    0 -0.00000000000E+00 -0.00000000000E+00 -0.87345794133E+03  0.87345794133E+03  0.00000000000E+00 0.  1.
        -24    2    1    2    0    0 -0.20965470044E+02 -0.12795835330E+03 -0.67744920841E+03  0.69436054795E+03  0.79914012951E+02 0.  0.
         25    2    1    2    0    0  0.39355980826E+02  0.21130883133E+03 -0.44878574842E+02  0.25270742085E+03  0.12508652466E+03 0.  0.
         24    2    1    2    0    0 -0.18390510783E+02 -0.83350478031E+02  0.50020237710E+02  0.12754036831E+03  0.80492287170E+02 0.  0.
        -13    1    5    5    0    0 -0.13007706776E+02 -0.18511447244E+01  0.43685105742E+02  0.45618150292E+02  0.00000000000E+00 0.  1.
         14    1    5    5    0    0 -0.53828040062E+01 -0.81499333306E+02  0.63351319685E+01  0.81922218020E+02  0.00000000000E+00 0. -1.
         13    1    3    3    0    0  0.22640574898E+01 -0.96965167854E+02 -0.30859539103E+03  0.32347872433E+03  0.00000000000E+00 0. -1.
        -14    1    3    3    0    0 -0.23229527533E+02 -0.30993185441E+02 -0.36885381739E+03  0.37088182362E+03  0.00000000000E+00 0.  1.
          5    1    4    4  501    0  0.70802293501E+02  0.98231108373E+02  0.12856010461E+02  0.12184032511E+03  0.41800000000E+01 0. -1.
         -5    1    4    4    0  501 -0.31446312675E+02  0.11307772295E+03 -0.57734585304E+02  0.13086709575E+03  0.41800000000E+01 0. -1.
</event>
<event>
11    1  0.8037748E-009  0.1363350E+03  0.7561462E-02  0.1111721E+00
         22   -1    0    0    0    0  0.00000000000E+00  0.00000000000E+00  0.35825175518E+03  0.35825175518E+03  0.00000000000E+00 0. -1.
         22   -1    0    0    0    0 -0.00000000000E+00 -0.00000000000E+00 -0.33660799694E+03  0.33660799694E+03  0.00000000000E+00 0.  1.
        -24    2    1    2    0    0  0.46237823012E+02 -0.28703888198E+02 -0.27337692608E+03  0.28997595653E+03  0.79932860437E+02 0.  0.
         25    2    1    2    0    0 -0.40635433861E+02  0.33069973823E+02  0.44882213933E+02  0.14284978542E+03  0.12508711530E+03 0.  0.
         24    2    1    2    0    0 -0.56023891510E+01 -0.43660856250E+01  0.25013847040E+03  0.26203401017E+03  0.77731066149E+02 0.  0.
        -11    1    5    5    0    0 -0.85261739348E+01  0.34211208826E+02  0.77952465015E+02  0.85555182503E+02  0.00000000000E+00 0.  1.
         12    1    5    5    0    0  0.29237847838E+01 -0.38577294451E+02  0.17218600538E+03  0.17647882766E+03  0.00000000000E+00 0. -1.
         13    1    3    3    0    0  0.49653114772E+01 -0.10403914365E+02  0.13111634574E+01  0.11602366215E+02  0.00000000000E+00 0. -1.
        -14    1    3    3    0    0  0.41272511535E+02 -0.18299973833E+02 -0.27468808954E+03  0.27837359032E+03  0.00000000000E+00 0.  1.
          5    1    4    4  501    0 -0.60247557935E+02 -0.23959956695E+02  0.50282746284E+02  0.82156404107E+02  0.41800000000E+01 0.  1.
         -5    1    4    4    0  501  0.19612124074E+02  0.57029930519E+02 -0.54005323511E+01  0.60693381314E+02  0.41800000000E+01 0.  1.
</event>
<event>
11    1  0.8037748E-009  0.1386874E+03  0.7561462E-02  0.1109033E+00
         22   -1    0    0    0    0  0.00000000000E+00  0.00000000000E+00  0.37926851114E+03  0.37926851114E+03  0.00000000000E+00 0.  1.
         22   -1    0    0    0    0 -0.00000000000E+00 -0.00000000000E+00 -0.35339951529E+03  0.35339951529E+03  0.00000000000E+00 0. -1.
        -24    2    1    2    0    0  0.51462868292E+01 -0.72426535842E+02 -0.28404399265E+03  0.30186677513E+03  0.71905999802E+02 0.  0.
         25    2    1    2    0    0  0.52505453605E+02  0.41886432845E+02  0.48568244477E+02  0.15005761718E+03  0.12508844147E+03 0.  0.
         24    2    1    2    0    0 -0.57651740434E+02  0.30540102997E+02  0.26134474402E+03  0.28074363411E+03  0.79116950153E+02 0.  0.
        -11    1    5    5    0    0 -0.50212390856E+02 -0.26643516376E+01  0.22659869398E+03  0.23211064404E+03  0.00000000000E+00 0.  1.
         12    1    5    5    0    0 -0.74393495781E+01  0.33204454635E+02  0.34746050047E+02  0.48632990074E+02  0.00000000000E+00 0. -1.
         13    1    3    3    0    0 -0.63254380686E+01 -0.73636479302E+02 -0.28008315085E+03  0.28967035340E+03  0.00000000000E+00 0. -1.
        -14    1    3    3    0    0  0.11471724898E+02  0.12099434606E+01 -0.39608418015E+01  0.12196421733E+02  0.00000000000E+00 0.  1.
          5    1    4    4  501    0 -0.15594804165E+02  0.35499089635E+02 -0.27466273684E+02  0.47699600334E+02  0.41800000000E+01 0. -1.
         -5    1    4    4    0  501  0.68100257770E+02  0.63873432095E+01  0.76034518162E+02  0.10235801685E+03  0.41800000000E+01 0. -1.
</event>
<event>
11    1  0.8037748E-009  0.2140393E+03  0.7561462E-02  0.1045017E+00
         22   -1    0    0    0    0  0.00000000000E+00  0.00000000000E+00  0.20864213248E+03  0.20864213248E+03  0.00000000000E+00 0. -1.
         22   -1    0    0    0    0 -0.00000000000E+00 -0.00000000000E+00 -0.16631935217E+04  0.16631935217E+04  0.00000000000E+00 0. -1.
        -24    2    1    2    0    0  0.15016585928E+01 -0.51941522801E+02 -0.12506890340E+04  0.12553498935E+04  0.94763487853E+02 0.  0.
         25    2    1    2    0    0 -0.17077486188E+03  0.76175056048E+01 -0.32927234777E+03  0.39152833340E+03  0.12510826117E+03 0.  0.
         24    2    1    2    0    0  0.16927320329E+03  0.44324017196E+02  0.12540999260E+03  0.22495742721E+03  0.65269763014E+02 0.  0.
        -13    1    5    5    0    0  0.99103602771E+02  0.57937471579E+02  0.85070666252E+02  0.14288209458E+03  0.00000000000E+00 0.  1.
         14    1    5    5    0    0  0.70169600515E+02 -0.13613454383E+02  0.40339326343E+02  0.82075332631E+02  0.00000000000E+00 0. -1.
         11    1    3    3    0    0 -0.75049691150E+01 -0.78023538139E+02 -0.80487160404E+03  0.80867935305E+03  0.00000000000E+00 0. -1.
        -12    1    3    3    0    0  0.90066277078E+01  0.26082015338E+02 -0.44581742998E+03  0.44667054049E+03  0.00000000000E+00 0.  1.
          5    1    4    4  501    0 -0.13469410307E+03 -0.29795456555E+02 -0.14568145250E+03  0.20067592939E+03  0.41800000000E+01 0.  1.
         -5    1    4    4    0  501 -0.36080758807E+02  0.37412962160E+02 -0.18359089526E+03  0.19085240401E+03  0.41800000000E+01 0.  1.
</event>
<event>
11    1  0.8037748E-009  0.3029680E+03  0.7561462E-02  0.9989429E-01
         22   -1    0    0    0    0  0.00000000000E+00  0.00000000000E+00  0.17973253320E+04  0.17973253320E+04  0.00000000000E+00 0. -1.
         22   -1    0    0    0    0 -0.00000000000E+00 -0.00000000000E+00 -0.20277857192E+03  0.20277857192E+03  0.00000000000E+00 0. -1.
        -24    2    1    2    0    0  0.24829795696E+03  0.10738714008E+03 -0.46822486587E+02  0.29323926171E+03  0.10301963926E+03 0.  0.
         25    2    1    2    0    0 -0.28653612203E+03 -0.14438672954E+03  0.98729572461E+03  0.10456404845E+04  0.12514271095E+03 0.  0.
         24    2    1    2    0    0  0.38238165073E+02  0.36999589457E+02  0.65407352204E+03  0.66122415769E+03  0.81080747311E+02 0.  0.
        -13    1    5    5    0    0  0.26493406157E+01  0.55713709581E+02  0.33237959347E+03  0.33702704727E+03  0.00000000000E+00 0.  1.
         14    1    5    5    0    0  0.35588824457E+02 -0.18714120123E+02  0.32169392857E+03  0.32419711041E+03  0.00000000000E+00 0. -1.
         11    1    3    3    0    0  0.24257635526E+03  0.72029887804E+02 -0.47256430570E+02  0.25741943030E+03  0.00000000000E+00 0. -1.
        -12    1    3    3    0    0  0.57216017053E+01  0.35357252281E+02  0.43394398377E+00  0.35819831411E+02  0.00000000000E+00 0.  1.
          5    1    4    4  501    0 -0.27978373308E+03 -0.13597750265E+03  0.98610123462E+03  0.10340125414E+04  0.41800000000E+01 0.  1.
         -5    1    4    4    0  501 -0.67523889516E+01 -0.84092268955E+01  0.11944899803E+01  0.11627943062E+02  0.41800000000E+01 0.  1.
</event>
<event>
11    1  0.8037748E-009  0.1274550E+03  0.7561462E-02  0.1122436E+00
         22   -1    0    0    0    0  0.00000000000E+00  0.00000000000E+00  0.80256505847E+03  0.80256505847E+03  0.00000000000E+00 0.  1.
         22   -1    0    0    0    0 -0.00000000000E+00 -0.00000000000E+00 -0.13008046450E+03  0.13008046450E+03  0.00000000000E+00 0.  1.
         24    2    1    2    0    0 -0.85851351895E+01 -0.24901330672E+02 -0.99095050607E+02  0.13022949048E+03  0.80287672289E+02 0.  0.
         25    2    1    2    0    0  0.16492641703E+02  0.39073190236E+02  0.40187625464E+03  0.42302702094E+03  0.12509442424E+03 0.  0.
        -24    2    1    2    0    0 -0.79075065134E+01 -0.14171859564E+02  0.36970338993E+03  0.37938901155E+03  0.83618510465E+02 0.  0.
        -11    1    3    3    0    0  0.28618356342E+01 -0.16816526976E+02 -0.11071691925E+03  0.11202330959E+03  0.00000000000E+00 0.  1.
         12    1    3    3    0    0 -0.11446970824E+02 -0.80848036960E+01  0.11621868648E+02  0.18206180893E+02  0.00000000000E+00 0. -1.
         13    1    5    5    0    0 -0.10620111830E+02  0.34643457186E+02  0.15076059787E+03  0.15505390601E+03  0.00000000000E+00 0. -1.
        -14    1    5    5    0    0  0.27126053168E+01 -0.48815316750E+02  0.21894279207E+03  0.22433510553E+03  0.00000000000E+00 0.  1.
          5    1    4    4  501    0  0.49486245742E+02  0.46497194772E+02  0.11120002081E+03  0.13036024957E+03  0.41800000000E+01 0. -1.
         -5    1    4    4    0  501 -0.32993604039E+02 -0.74240045362E+01  0.29067623383E+03  0.29266677137E+03  0.41800000000E+01 0. -1.
</event>
<event>
11    1  0.8037748E-009  0.1903755E+03  0.7561462E-02  0.1061546E+00
         22   -1    0    0    0    0  0.00000000000E+00  0.00000000000E+00  0.11670358106E+04  0.11670358106E+04  0.00000000000E+00 0. -1.
         22   -1    0    0    0    0 -0.00000000000E+00 -0.00000000000E+00 -0.99651620495E+02  0.99651620495E+02  0.00000000000E+00 0. -1.
        -24    2    1    2    0    0 -0.88019827169E+02 -0.10519359235E+03  0.31374395060E+02  0.16190481825E+03  0.80097663267E+02 0.  0.
         25    2    1    2    0    0  0.10583432856E+03  0.12750078194E+03  0.30552352706E+03  0.36938905735E+03  0.12508515339E+03 0.  0.
         24    2    1    2    0    0 -0.17814501393E+02 -0.22307189596E+02  0.73048626795E+03  0.73539355547E+03  0.79865678464E+02 0.  0.
        -13    1    5    5    0    0 -0.72637725924E+01  0.29079527040E+02  0.18768398476E+03  0.19006225144E+03  0.00000000000E+00 0.  1.
         14    1    5    5    0    0 -0.10550728800E+02 -0.51386716636E+02  0.54280228318E+03  0.54533130403E+03  0.00000000000E+00 0. -1.
         13    1    3    3    0    0 -0.71701174985E+02 -0.10100859692E+03 -0.26932304974E+01  0.12389934881E+03  0.00000000000E+00 0. -1.
        -14    1    3    3    0    0 -0.16318652184E+02 -0.41849954274E+01  0.34067625557E+02  0.38005469435E+02  0.00000000000E+00 0.  1.
          5    1    4    4  501    0  0.45954914420E+02  0.42784005744E+02  0.20719881667E+02  0.66250367570E+02  0.41800000000E+01 0.  1.
         -5    1    4    4    0  501  0.59879414142E+02  0.84716776197E+02  0.28480364540E+03  0.30313868978E+03  0.41800000000E+01 0.  1.
</event>
<event>
11    1  0.8037748E-009  0.1639215E+03  0.7561462E-02  0.1083446E+00
         22   -1    0    0    0    0  0.00000000000E+00  0.00000000000E+00  0.35033043930E+04  0.35033043930E+04  0.00000000000E+00 0.  1.
         22   -1    0    0    0    0 -0.00000000000E+00 -0.00000000000E+00 -0.12700758089E+03  0.12700758089E+03  0.00000000000E+00 0. -1.
        -24    2    1    2    0    0  0.39738503795E+01 -0.52918901482E+02 -0.81904498799E+02  0.12666306438E+03  0.80740221295E+02 0.  0.
         25    2    1    2    0    0  0.92191936006E+02  0.46615275827E+01  0.26238362062E+03  0.30498594852E+03  0.12510068552E+03 0.  0.
         24    2    1    2    0    0 -0.96165786385E+02  0.48257373900E+02  0.31958176903E+04  0.31986629610E+04  0.81347377731E+02 0.  0.
        -13    1    5    5    0    0 -0.11018570049E+03  0.35113732363E+02  0.27603797308E+04  0.27628011367E+04  0.00000000000E+00 0.  1.
         14    1    5    5    0    0  0.14019914106E+02  0.13143641537E+02  0.43543795944E+03  0.43586182423E+03  0.00000000000E+00 0. -1.
         13    1    3    3    0    0  0.51675131312E+01 -0.48996566208E+02 -0.98196453955E+02  0.10986314333E+03  0.00000000000E+00 0. -1.
        -14    1    3    3    0    0 -0.11936627518E+01 -0.39223352750E+01  0.16291955156E+02  0.16799921059E+02  0.00000000000E+00 0.  1.
          5    1    4    4  501    0  0.77120901779E+02  0.25674114456E+01  0.50054822254E+02  0.92071617361E+02  0.41800000000E+01 0. -1.
         -5    1    4    4    0  501  0.15071034227E+02  0.20941161370E+01  0.21232879837E+03  0.21291433116E+03  0.41800000000E+01 0. -1.
</event>
<event>
11    1  0.8037748E-009  0.2012271E+03  0.7561462E-02  0.1053659E+00
         22   -1    0    0    0    0  0.00000000000E+00  0.00000000000E+00  0.48689020319E+03  0.48689020319E+03  0.00000000000E+00 0. -1.
         22   -1    0    0    0    0 -0.00000000000E+00 -0.00000000000E+00 -0.18651490606E+04  0.18651490606E+04  0.00000000000E+00 0.  1.
         24    2    1    2    0    0 -0.25096981778E+02 -0.15349302307E+03 -0.17135447971E+04  0.17224301960E+04  0.79624379090E+02 0.  0.
         25    2    1    2    0    0  0.85658950130E+02  0.19878822747E+03 -0.26689389228E+02  0.25142825331E+03  0.12509847300E+03 0.  0.
        -24    2    1    2    0    0 -0.60561968352E+02 -0.45295204402E+02  0.36197532893E+03  0.37818081449E+03  0.79216047246E+02 0.  0.
        -11    1    3    3    0    0 -0.42779354195E+02 -0.11463646644E+03 -0.97421007228E+03  0.98186397099E+03  0.00000000000E+00 0.  1.
         12    1    3    3    0    0  0.17682372417E+02 -0.38856556622E+02 -0.73933472484E+03  0.74056622502E+03  0.00000000000E+00 0. -1.
         13    1    5    5    0    0 -0.32734431812E+02 -0.56879808851E+02  0.31904842985E+03  0.32572804035E+03  0.00000000000E+00 0. -1.
        -14    1    5    5    0    0 -0.27827536541E+02  0.11584604449E+02  0.42926899077E+02  0.52452774136E+02  0.00000000000E+00 0.  1.
          5    1    4    4  501    0 -0.20960151208E+02  0.75466028317E+02 -0.39560225902E+02  0.87846076987E+02  0.41800000000E+01 0.  1.
         -5    1    4    4    0  501  0.10661910134E+03  0.12332219915E+03  0.12870836674E+02  0.16358217632E+03  0.41800000000E+01 0.  1.
</event>
<event>
11    1  0.8037748E-009  0.9391584E+03  0.7561462E-02  0.8739138E-01
         22   -1    0    0    0    0  0.00000000000E+00  0.00000000000E+00  0.19279170912E+04  0.19279170912E+04  0.00000000000E+00 0. -1.
         22   -1    0    0    0    0 -0.00000000000E+00 -0.00000000000E+00 -0.63059247593E+03  0.63059247593E+03  0.00000000000E+00 0. -1.
        -24    2    1    2    0    0  0.82584026702E+03  0.51963444200E+03  0.31732984166E+03  0.10291790370E+04  0.80493241238E+02 0.  0.
         25    2    1    2    0    0 -0.84597165938E+03 -0.27197139094E+03  0.64831645558E+03  0.11070678572E+04  0.12509407663E+03 0.  0.
         24    2    1    2    0    0  0.20131392359E+02 -0.24766305106E+03  0.33167831807E+03  0.42226267290E+03  0.80950592522E+02 0.  0.
        -13    1    5    5    0    0  0.37066084996E+02 -0.48111747012E+02  0.68423786688E+02  0.91490160357E+02  0.00000000000E+00 0.  1.
         14    1    5    5    0    0 -0.16934692637E+02 -0.19955130404E+03  0.26325453138E+03  0.33077251254E+03  0.00000000000E+00 0. -1.
         13    1    3    3    0    0  0.65921358084E+03  0.42040564987E+03  0.22017222066E+03  0.81226797447E+03  0.00000000000E+00 0. -1.
        -14    1    3    3    0    0  0.16662668619E+03  0.99228792131E+02  0.97157621009E+02  0.21691106255E+03  0.00000000000E+00 0.  1.
          5    1    4    4  501    0 -0.46496248589E+03 -0.16043106540E+03  0.43356831425E+03  0.65568833721E+03  0.41800000000E+01 0. -1.
         -5    1    4    4    0  501 -0.38100917349E+03 -0.11154032554E+03  0.21474814133E+03  0.45137952003E+03  0.41800000000E+01 0. -1.
</event>
<event>
11    1  0.8037748E-009  0.1298073E+03  0.7561462E-02  0.1119506E+00
         22   -1    0    0    0    0  0.00000000000E+00  0.00000000000E+00  0.51931731538E+03  0.51931731538E+03  0.00000000000E+00 0.  1.
         22   -1    0    0    0    0 -0.00000000000E+00 -0.00000000000E+00 -0.35660840379E+03  0.35660840379E+03  0.00000000000E+00 0.  1.
        -24    2    1    2    0    0  0.32210145219E+02  0.13747381970E+02 -0.31762319274E+03  0.32949955528E+03  0.80367782107E+02 0.  0.
         25    2    1    2    0    0 -0.22776269013E+02 -0.13696911815E+02  0.11350218217E+03  0.17098781264E+03  0.12509085855E+03 0.  0.
         24    2    1    2    0    0 -0.94338762065E+01 -0.50470154685E-01  0.36682992216E+03  0.37543835125E+03  0.79377347047E+02 0.  0.
        -11    1    5    5    0    0 -0.77560517803E+01  0.21883927424E+02  0.33978053995E+03  0.34057286731E+03  0.00000000000E+00 0.  1.
         12    1    5    5    0    0 -0.16778244262E+01 -0.21934397579E+02  0.27049382211E+02  0.34865483934E+02  0.00000000000E+00 0. -1.
         11    1    3    3    0    0  0.10705071088E+02 -0.33667456677E+02 -0.14138022335E+03  0.14572736099E+03  0.00000000000E+00 0. -1.
        -12    1    3    3    0    0  0.21505074132E+02  0.47414838647E+02 -0.17624296938E+03  0.18377219429E+03  0.00000000000E+00 0.  1.
          5    1    4    4  501    0  0.56790191351E+01 -0.41299505374E+02  0.12305836862E+03  0.12999513410E+03  0.41800000000E+01 0.  1.
         -5    1    4    4    0  501 -0.28455288148E+02  0.27602593559E+02 -0.95561864508E+01  0.40992678544E+02  0.41800000000E+01 0.  1.
</event>
<event>
11    1  0.8037748E-009  0.1516118E+03  0.7561462E-02  0.1095243E+00
         22   -1    0    0    0    0  0.00000000000E+00  0.00000000000E+00  0.21083103967E+04  0.21083103967E+04  0.00000000000E+00 0.  1.
         22   -1    0    0    0    0 -0.00000000000E+00 -0.00000000000E+00 -0.89803036346E+02  0.89803036346E+02  0.00000000000E+00 0. -1.
         24    2    1    2    0    0  0.74222426429E+02 -0.43127063756E+02 -0.30646808608E+02  0.12164879338E+03  0.80562335120E+02 0.  0.
         25    2    1    2    0    0 -0.10327257020E+03 -0.15182550553E+02  0.54288542423E+03  0.56680465860E+03  0.12508878279E+03 0.  0.
        -24    2    1    2    0    0  0.29050143766E+02  0.58309614309E+02  0.15062687447E+04  0.15096599810E+04  0.77355058527E+02 0.  0.
        -11    1    3    3    0    0  0.49972846723E+01  0.21883840584E+02 -0.93950152620E+01  0.24333960726E+02  0.00000000000E+00 0.  1.
         12    1    3    3    0    0  0.69225141757E+02 -0.65010904340E+02 -0.21251793346E+02  0.97314832656E+02  0.00000000000E+00 0. -1.
         11    1    5    5    0    0 -0.23352967976E+02  0.49643170954E+01  0.23981612896E+03  0.24100162088E+03  0.00000000000E+00 0. -1.
        -12    1    5    5    0    0  0.52403111742E+02  0.53345297213E+02  0.12664526158E+04  0.12686583602E+04  0.00000000000E+00 0.  1.
          5    1    4    4  501    0 -0.12374140514E+03  0.15584176548E+02  0.44220687282E+03  0.45947708613E+03  0.41800000000E+01 0. -1.
         -5    1    4    4    0  501  0.20468834946E+02 -0.30766727101E+02  0.10067855141E+03  0.10732757248E+03  0.41800000000E+01 0. -1.
</event>
<event>
11    1  0.8037748E-009  0.1305076E+03  0.7561462E-02  0.1118647E+00
         22   -1    0    0    0    0  0.00000000000E+00  0.00000000000E+00  0.29284733619E+03  0.29284733619E+03  0.00000000000E+00 0.  1.
         22   -1    0    0    0    0 -0.00000000000E+00 -0.00000000000E+00 -0.22209759176E+03  0.22209759176E+03  0.00000000000E+00 0.  1.
        -24    2    1    2    0    0 -0.57936566247E+01 -0.37248291921E+02 -0.16554748380E+03  0.18812143246E+03  0.81010507026E+02 0.  0.
         25    2    1    2    0    0  0.12340128688E+02  0.30631459439E+02  0.84097848825E+02  0.15430384716E+03  0.12508662594E+03 0.  0.
         24    2    1    2    0    0 -0.65464720632E+01  0.66168324822E+01  0.15219937941E+03  0.17251964833E+03  0.80695348066E+02 0.  0.
        -13    1    5    5    0    0 -0.10956484229E+02 -0.26309829204E+02  0.12872473780E+03  0.13184198793E+03  0.00000000000E+00 0.  1.
         14    1    5    5    0    0  0.44100121660E+01  0.32926661686E+02  0.23474641606E+02  0.40677660400E+02  0.00000000000E+00 0. -1.
         13    1    3    3    0    0  0.94429470018E+01 -0.40533186422E+02 -0.29091602464E+02  0.50778241241E+02  0.00000000000E+00 0. -1.
        -14    1    3    3    0    0 -0.15236603627E+02  0.32848945007E+01 -0.13645588134E+03  0.13734319122E+03  0.00000000000E+00 0.  1.
          5    1    4    4  501    0 -0.12427145615E+02 -0.19526035776E+02 -0.23320116455E+02  0.33120994139E+02  0.41800000000E+01 0. -1.
         -5    1    4    4    0  501  0.24767274303E+02  0.50157495215E+02  0.10741796528E+03  0.12118285303E+03  0.41800000000E+01 0. -1.
</event>
<event>
11    1  0.8037748E-009  0.2308070E+03  0.7561462E-02  0.1034651E+00
         22   -1    0    0    0    0  0.00000000000E+00  0.00000000000E+00  0.36052040285E+03  0.36052040285E+03  0.00000000000E+00 0. -1.
         22   -1    0    0    0    0 -0.00000000000E+00 -0.00000000000E+00 -0.88485672812E+03  0.88485672812E+03  0.00000000000E+00 0.  1.
        -24    2    1    2    0    0  0.12722529278E+03 -0.14516390960E+03 -0.77957395805E+03  0.80725715902E+03  0.81668408568E+02 0.  0.
         25    2    1    2    0    0 -0.98382913917E+02  0.18979293960E+03  0.13048081238E+03  0.27995104570E+03  0.12508712131E+03 0.  0.
         24    2    1    2    0    0 -0.28842378858E+02 -0.44629029998E+02  0.12475682041E+03  0.15816892625E+03  0.81421814372E+02 0.  0.
        -13    1    5    5    0    0 -0.12236569966E+02  0.21531544325E+02  0.15035886545E+02  0.28972727344E+02  0.00000000000E+00 0.  1.
         14    1    5    5    0    0 -0.16605808892E+02 -0.66160574323E+02  0.10972093386E+03  0.12919619890E+03  0.00000000000E+00 0. -1.
         11    1    3    3    0    0 -0.73845271886E+01 -0.17481052490E+02 -0.33919452520E+02  0.38867051563E+02  0.00000000000E+00 0. -1.
        -12    1    3    3    0    0  0.13460981996E+03 -0.12768285711E+03 -0.74565450553E+03  0.76839010746E+03  0.00000000000E+00 0.  1.
          5    1    4    4  501    0 -0.77519386652E+02  0.25307229844E+02  0.48022195964E+02  0.94727582543E+02  0.41800000000E+01 0. -1.
         -5    1    4    4    0  501 -0.20863527265E+02  0.16448570975E+03  0.82458616412E+02  0.18522346316E+03  0.41800000000E+01 0. -1.
</event>
<event>
11    1  0.8037748E-009  0.1290256E+03  0.7561462E-02  0.1120472E+00
         22   -1    0    0    0    0  0.00000000000E+00  0.00000000000E+00  0.47750517131E+03  0.47750517131E+03  0.00000000000E+00 0.  1.
         22   -1    0    0    0    0 -0.00000000000E+00 -0.00000000000E+00 -0.83447237878E+03  0.83447237878E+03  0.00000000000E+00 0. -1.
         24    2    1    2    0    0  0.55919425639E+00  0.31751687866E+02 -0.56941482111E+03  0.57553561390E+03  0.77456581327E+02 0.  0.
         25    2    1    2    0    0 -0.31664342360E+02 -0.36993678269E+02 -0.24041303623E+03  0.27534735637E+03  0.12508627368E+03 0.  0.
        -24    2    1    2    0    0  0.31105148104E+02  0.52419904026E+01  0.45286064987E+03  0.46109457982E+03  0.80811104630E+02 0.  0.
        -11    1    3    3    0    0  0.31598839892E+01  0.23942949024E+02 -0.45125046858E+02  0.51181241962E+02  0.00000000000E+00 0.  1.
         12    1    3    3    0    0 -0.26006897328E+01  0.78087388423E+01 -0.52428977425E+03  0.52435437194E+03  0.00000000000E+00 0. -1.
         11    1    5    5    0    0  0.32131463622E+02 -0.12875007704E+01  0.59131066251E+02  0.67309520936E+02  0.00000000000E+00 0. -1.
        -12    1    5    5    0    0 -0.10263155185E+01  0.65294911731E+01  0.39372958362E+03  0.39378505888E+03  0.00000000000E+00 0.  1.
          5    1    4    4  501    0 -0.24942310984E+02  0.43573336739E+02 -0.65728564193E+02  0.82815886777E+02  0.41800000000E+01 0. -1.
         -5    1    4    4    0  501 -0.67220313760E+01 -0.80567015008E+02 -0.17468447204E+03  0.19253146960E+03  0.41800000000E+01 0. -1.
</event>
<event>
11    1  0.8037748E-009  0.1682369E+03  0.7561462E-02  0.1079576E+00
         22   -1    0    0    0    0  0.00000000000E+00  0.00000000000E+00  0.74408022276E+03  0.74408022276E+03  0.00000000000E+00 0.  1.
         22   -1    0    0    0    0 -0.00000000000E+00 -0.00000000000E+00 -0.21118644191E+03  0.21118644191E+03  0.00000000000E+00 0. -1.
        -24    2    1    2    0    0  0.95049592833E+02 -0.66051723639E+02 -0.15737463456E+03  0.21139567961E+03  0.80771916304E+02 0.  0.
         25    2    1    2    0    0 -0.93869904215E+02 -0.68013166287E+01  0.29717747297E+03  0.33588714913E+03  0.12509160519E+03 0.  0.
         24    2    1    2    0    0 -0.11796886180E+01  0.72853040268E+02  0.39309094243E+03  0.40798383592E+03  0.81371765426E+02 0.  0.
        -11    1    5    5    0    0 -0.13408802348E+02  0.45965101020E+02  0.36179487628E+03  0.36494947458E+03  0.00000000000E+00 0.  1.
         12    1    5    5    0    0  0.12229113730E+02  0.26887939248E+02  0.31296066155E+02  0.43034361346E+02  0.00000000000E+00 0. -1.
         11    1    3    3    0    0  0.10955423443E+03 -0.59504444027E+02 -0.13309545687E+03  0.18236586791E+03  0.00000000000E+00 0. -1.
        -12    1    3    3    0    0 -0.14504641595E+02 -0.65472796122E+01 -0.24279177691E+02  0.29029811702E+02  0.00000000000E+00 0.  1.
          5    1    4    4  501    0 -0.10585413662E+03 -0.35302016886E+02  0.15939473384E+03  0.19461624858E+03  0.41800000000E+01 0. -1.
         -5    1    4    4    0  501  0.11984232404E+02  0.28500700257E+02  0.13778273913E+03  0.14127090055E+03  0.41800000000E+01 0. -1.
</event>
<event>
11    1  0.8037748E-009  0.1302377E+03  0.7561462E-02  0.1118977E+00
         22   -1    0    0    0    0  0.00000000000E+00  0.00000000000E+00  0.39259595475E+03  0.39259595475E+03  0.00000000000E+00 0.  1.
         22   -1    0    0    0    0 -0.00000000000E+00 -0.00000000000E+00 -0.24199816702E+03  0.24199816702E+03  0.00000000000E+00 0. -1.
        -24    2    1    2    0    0 -0.19690550383E+02  0.93605220854E+01 -0.17778899050E+03  0.19650840595E+03  0.80816405010E+02 0.  0.
         25    2    1    2    0    0 -0.58965736368E+01 -0.36019536265E+02  0.40529184997E+02  0.13648264232E+03  0.12511083185E+03 0.  0.
         24    2    1    2    0    0  0.25587124020E+02  0.26659014180E+02  0.28785759322E+03  0.30160307350E+03  0.82079327572E+02 0.  0.
        -13    1    5    5    0    0  0.16127061872E+02  0.11674338887E+01  0.26659854769E+03  0.26708843228E+03  0.00000000000E+00 0.  1.
         14    1    5    5    0    0  0.94600621478E+01  0.25491580291E+02  0.21259045534E+02  0.34514641220E+02  0.00000000000E+00 0. -1.
         13    1    3    3    0    0 -0.31518006843E+02  0.15892565088E+02 -0.17945606648E+03  0.18289460948E+03  0.00000000000E+00 0. -1.
        -14    1    3    3    0    0  0.11827456460E+02 -0.65320430024E+01  0.16670759793E+01  0.13613796473E+02  0.00000000000E+00 0.  1.
          5    1    4    4  501    0 -0.57025053028E+02 -0.39230464157E+02 -0.25917908015E+01  0.69390747008E+02  0.41800000000E+01 0. -1.
         -5    1    4    4    0  501  0.51128479391E+02  0.32109278923E+01  0.43120975799E+02  0.67091895312E+02  0.41800000000E+01 0. -1.
</event>
<event>
11    1  0.8037748E-009  0.1316420E+03  0.7561462E-02  0.1117268E+00
         22   -1    0    0    0    0  0.00000000000E+00  0.00000000000E+00  0.55692582655E+03  0.55692582655E+03  0.00000000000E+00 0. -1.
         22   -1    0    0    0    0 -0.00000000000E+00 -0.00000000000E+00 -0.43428311621E+03  0.43428311621E+03  0.00000000000E+00 0. -1.
         24    2    1    2    0    0 -0.43861441786E+01 -0.39611344988E+02 -0.38453701678E+03  0.39546431096E+03  0.83276689742E+02 0.  0.
         25    2    1    2    0    0  0.94311874011E+01  0.67228450767E+02  0.86765599320E+02  0.16668713938E+03  0.12509085226E+03 0.  0.
        -24    2    1    2    0    0 -0.50450432225E+01 -0.27617105779E+02  0.42041412780E+03  0.42905749243E+03  0.80957618326E+02 0.  0.
        -11    1    3    3    0    0 -0.37808419826E+02 -0.42612518473E+02 -0.20251584510E+03  0.21037578486E+03  0.00000000000E+00 0.  1.
         12    1    3    3    0    0  0.33422275648E+02  0.30011734859E+01 -0.18202117168E+03  0.18508852610E+03  0.00000000000E+00 0. -1.
         13    1    5    5    0    0  0.34244693601E+02 -0.30149229111E+02  0.19831748987E+03  0.20349816177E+03  0.00000000000E+00 0. -1.
        -14    1    5    5    0    0 -0.39289736823E+02  0.25321233322E+01  0.22209663793E+03  0.22555933066E+03  0.00000000000E+00 0.  1.
          5    1    4    4  501    0 -0.42183537930E+02 -0.14719181239E+02  0.20984312850E+02  0.49537046282E+02  0.41800000000E+01 0. -1.
         -5    1    4    4    0  501  0.51614725331E+02  0.81947632005E+02  0.65781286470E+02  0.11715009309E+03  0.41800000000E+01 0. -1.
</event>
<event>
11    1  0.8037748E-009  0.1498827E+03  0.7561462E-02  0.1096999E+00
         22   -1    0    0    0    0  0.00000000000E+00  0.00000000000E+00  0.63642400669E+03  0.63642400669E+03  0.00000000000E+00 0.  1.
         22   -1    0    0    0    0 -0.00000000000E+00 -0.00000000000E+00 -0.63913352708E+03  0.63913352708E+03  0.00000000000E+00 0.  1.
        -24    2    1    2    0    0  0.50792084189E+02  0.34729725722E+02 -0.55385347755E+03  0.56316517632E+03  0.81334811507E+02 0.  0.
         25    2    1    2    0    0 -0.12852585670E+03 -0.47525592996E+02  0.39305578011E+02  0.18965793414E+03  0.12509047001E+03 0.  0.
         24    2    1    2    0    0  0.77733772515E+02  0.12795867274E+02  0.51183837914E+03  0.52273442331E+03  0.71179191789E+02 0.  0.
        -13    1    5    5    0    0  0.28258366059E+02 -0.95064072386E+00  0.38296900899E+03  0.38401132902E+03  0.00000000000E+00 0.  1.
         14    1    5    5    0    0  0.49475406456E+02  0.13746507998E+02  0.12886937015E+03  0.13872309429E+03  0.00000000000E+00 0. -1.
         13    1    3    3    0    0  0.77762649956E-01  0.16755000263E+00  0.29670135352E+01  0.29727578695E+01  0.00000000000E+00 0. -1.
        -14    1    3    3    0    0  0.50714321540E+02  0.34562175719E+02 -0.55682049108E+03  0.56019241845E+03  0.00000000000E+00 0.  1.
          5    1    4    4  501    0 -0.24054234315E+02  0.41066503837E+02  0.29027033329E+01  0.47863994950E+02  0.41800000000E+01 0. -1.
         -5    1    4    4    0  501 -0.10447162239E+03 -0.88592096833E+02  0.36402874678E+02  0.14179393919E+03  0.41800000000E+01 0. -1.
</event>
<event>
11    1  0.8037748E-009  0.2131850E+03  0.7561462E-02  0.1045573E+00
         22   -1    0    0    0    0  0.00000000000E+00  0.00000000000E+00  0.25554706358E+04  0.25554706358E+04  0.00000000000E+00 0. -1.
         22   -1    0    0    0    0 -0.00000000000E+00 -0.00000000000E+00 -0.17965234050E+03  0.17965234050E+03  0.00000000000E+00 0.  1.
         24    2    1    2    0    0 -0.17431134118E+03  0.16708541573E+02 -0.63083101445E+02  0.20255495987E+03  0.79908792098E+02 0.  0.
         25    2    1    2    0    0  0.16260567536E+03 -0.25651416541E+02  0.18581060541E+03  0.27797700235E+03  0.12508809666E+03 0.  0.
        -24    2    1    2    0    0  0.11705665817E+02  0.89428749677E+01  0.22530907913E+04  0.22545910141E+04  0.80904444576E+02 0.  0.
        -13    1    3    3    0    0 -0.17604378432E+03  0.34781146020E+01 -0.67390173024E+02  0.18853367524E+03  0.00000000000E+00 0.  1.
         14    1    3    3    0    0  0.17324431418E+01  0.13230426971E+02  0.43070715791E+01  0.14021284629E+02  0.00000000000E+00 0. -1.
         13    1    5    5    0    0 -0.16702039919E+02  0.20934336864E+02  0.18910134163E+04  0.18912030418E+04  0.00000000000E+00 0. -1.
        -14    1    5    5    0    0  0.28407705736E+02 -0.11991461897E+02  0.36207737502E+03  0.36338797229E+03  0.00000000000E+00 0.  1.
          5    1    4    4  501    0  0.18122620816E+03 -0.36301980090E+02  0.16491023505E+03  0.24773701845E+03  0.41800000000E+01 0. -1.
         -5    1    4    4    0  501 -0.18620532802E+02  0.10650563549E+02  0.20900370353E+02  0.30239983907E+02  0.41800000000E+01 0. -1.
</event>
<event>
11    1  0.8702887E-009  0.1511994E+03  0.7561462E-02  0.1095660E+00
         22   -1    0    0    0    0  0.00000000000E+00  0.00000000000E+00  0.16842962310E+03  0.16842962310E+03  0.00000000000E+00 0.  1.
         22   -1    0    0    0    0 -0.00000000000E+00 -0.00000000000E+00 -0.18635570652E+04  0.18635570652E+04  0.00000000000E+00 0. -1.
        -24    2    1    2    0    0 -0.75413033695E+02  0.18430752515E+02 -0.12655123452E+04  0.12703032620E+04  0.78243614841E+02 0.  0.
         25    2    1    2    0    0  0.13658545237E+03 -0.73610505512E+02 -0.55619636891E+03  0.59082658302E+03  0.12509019983E+03 0.  0.
         24    2    1    2    0    0 -0.61172418679E+02  0.55179752996E+02  0.12658127207E+03  0.17085684323E+03  0.79889752099E+02 0.  0.
        -13    1    5    5    0    0 -0.57897482658E+02  0.53664907574E+02  0.48414264536E+02  0.92606597031E+02  0.00000000000E+00 0.  1.
         14    1    5    5    0    0 -0.32749360212E+01  0.15148454224E+01  0.78167007538E+02  0.78250246198E+02  0.00000000000E+00 0. -1.
         13    1    3    3    0    0  0.13135939863E+02 -0.56400291939E+01 -0.32785822826E+03  0.32816974370E+03  0.00000000000E+00 0. -1.
        -14    1    3    3    0    0 -0.88548973558E+02  0.24070781709E+02 -0.93765411698E+03  0.94213351831E+03  0.00000000000E+00 0.  1.
          5    1    4    4  501    0  0.12250872857E+03 -0.19340196454E+02 -0.24547474101E+03  0.27505954382E+03  0.41800000000E+01 0.  1.
         -5    1    4    4    0  501  0.14076723803E+02 -0.54270309058E+02 -0.31072162790E+03  0.31576703920E+03  0.41800000000E+01 0.  1.
</event>
<event>
11    1  0.8037748E-009  0.1445134E+03  0.7561462E-02  0.1102621E+00
         22   -1    0    0    0    0  0.00000000000E+00  0.00000000000E+00  0.46016370271E+03  0.46016370271E+03  0.00000000000E+00 0. -1.
         22   -1    0    0    0    0 -0.00000000000E+00 -0.00000000000E+00 -0.40834195236E+03  0.40834195236E+03  0.00000000000E+00 0.  1.
         24    2    1    2    0    0 -0.64703379750E+02  0.32005320341E+02 -0.35791322747E+03  0.37352608448E+03  0.78797141504E+02 0.  0.
         25    2    1    2    0    0  0.45249619711E+02 -0.79093416121E+02  0.13924580142E+03  0.20818207702E+03  0.12508831848E+03 0.  0.
        -24    2    1    2    0    0  0.19453760039E+02  0.47088095780E+02  0.27048917640E+03  0.28679749358E+03  0.80577107333E+02 0.  0.
        -13    1    3    3    0    0 -0.78810565689E+02  0.41834653435E+02 -0.31164580709E+03  0.32416716763E+03  0.00000000000E+00 0.  1.
         14    1    3    3    0    0  0.14107185939E+02 -0.98293330944E+01 -0.46267420377E+02  0.49358916849E+02  0.00000000000E+00 0. -1.
         13    1    5    5    0    0  0.36245553406E+02  0.49251373043E+02  0.25951269776E+03  0.26662010087E+03  0.00000000000E+00 0. -1.
        -14    1    5    5    0    0 -0.16791793367E+02 -0.21632772624E+01  0.10976478638E+02  0.20177392702E+02  0.00000000000E+00 0.  1.
          5    1    4    4  501    0 -0.21821719698E+02 -0.11726129719E+02  0.10354745065E+03  0.10655156735E+03  0.41800000000E+01 0. -1.
         -5    1    4    4    0  501  0.67071339409E+02 -0.67367286402E+02  0.35698350773E+02  0.10163050967E+03  0.41800000000E+01 0. -1.
</event>
<event>
11    1  0.8037748E-009  0.1782807E+03  0.7561462E-02  0.1071042E+00
         22   -1    0    0    0    0  0.00000000000E+00  0.00000000000E+00  0.66400973358E+03  0.66400973358E+03  0.00000000000E+00 0.  1.
         22   -1    0    0    0    0 -0.00000000000E+00 -0.00000000000E+00 -0.17361189291E+04  0.17361189291E+04  0.00000000000E+00 0. -1.
         24    2    1    2    0    0 -0.38808898500E+02 -0.11942274304E+03 -0.16286109323E+04  0.16352782451E+04  0.77417362648E+02 0.  0.
         25    2    1    2    0    0  0.55665568913E+02  0.17062961528E+03  0.20200135746E+02  0.21970210791E+03  0.12509136486E+03 0.  0.
        -24    2    1    2    0    0 -0.16856670413E+02 -0.51206872240E+02  0.53630160097E+03  0.54514830970E+03  0.81614834809E+02 0.  0.
        -11    1    3    3    0    0  0.18547829464E+02 -0.47506314673E+01 -0.23802917859E+03  0.23879799065E+03  0.00000000000E+00 0.  1.
         12    1    3    3    0    0 -0.57356727964E+02 -0.11467211157E+03 -0.13905817537E+04  0.13964802544E+04  0.00000000000E+00 0. -1.
         11    1    5    5    0    0  0.86577733694E+01 -0.11163924541E+02  0.11536478412E+02  0.18239533575E+02  0.00000000000E+00 0. -1.
        -12    1    5    5    0    0 -0.25514443783E+02 -0.40042947699E+02  0.52476512256E+03  0.52690877612E+03  0.00000000000E+00 0.  1.
          5    1    4    4  501    0  0.78727551548E+02  0.45294717675E+02  0.23748785840E+01  0.90954666018E+02  0.41800000000E+01 0. -1.
         -5    1    4    4    0  501 -0.23061982635E+02  0.12533489760E+03  0.17825257162E+02  0.12874744189E+03  0.41800000000E+01 0. -1.
</event>
<event>
11    1  0.8037748E-009  0.1405984E+03  0.7561462E-02  0.1106892E+00
         22   -1    0    0    0    0  0.00000000000E+00  0.00000000000E+00  0.76090937668E+03  0.76090937668E+03  0.00000000000E+00 0. -1.
         22   -1    0    0    0    0 -0.00000000000E+00 -0.00000000000E+00 -0.10601223832E+04  0.10601223832E+04  0.00000000000E+00 0. -1.
         24    2    1    2    0    0  0.23186956318E+02  0.58325490733E+02 -0.90425985303E+03  0.90988445550E+03  0.79147601010E+02 0.  0.
         25    2    1    2    0    0 -0.20471580523E+02 -0.81469237533E+02 -0.11280686860E+03  0.18822562442E+03  0.12508866381E+03 0.  0.
        -24    2    1    2    0    0 -0.27153757958E+01  0.23143746800E+02  0.71785371507E+03  0.72292168000E+03  0.82211878061E+02 0.  0.
        -11    1    3    3    0    0  0.36817056877E+01  0.26553983043E+01 -0.93379330918E+00  0.46344435340E+01  0.00000000000E+00 0.  1.
         12    1    3    3    0    0  0.19505250631E+02  0.55670092429E+02 -0.90332605972E+03  0.90525001196E+03  0.00000000000E+00 0. -1.
         11    1    5    5    0    0  0.22797919184E+02 -0.10252703744E+02  0.52253919106E+03  0.52313675960E+03  0.00000000000E+00 0. -1.
        -12    1    5    5    0    0 -0.25513294980E+02  0.33396450544E+02  0.19531452401E+03  0.19978492040E+03  0.00000000000E+00 0.  1.
          5    1    4    4  501    0 -0.22480853413E+02 -0.94187889379E+02 -0.13259932195E+03  0.16424615629E+03  0.41800000000E+01 0. -1.
         -5    1    4    4    0  501  0.20092728905E+01  0.12718651846E+02  0.19792453348E+02  0.23979468131E+02  0.41800000000E+01 0. -1.
</event>
<event>
11    1  0.8037748E-009  0.3649854E+03  0.7561462E-02  0.9759123E-01
         22   -1    0    0    0    0  0.00000000000E+00  0.00000000000E+00  0.25924209419E+04  0.25924209419E+04  0.00000000000E+00 0.  1.
         22   -1    0    0    0    0 -0.00000000000E+00 -0.00000000000E+00 -0.77992370271E+02  0.77992370271E+02  0.00000000000E+00 0.  1.
         24    2    1    2    0    0 -0.31562388971E+03  0.18693033394E+03  0.72679577319E+03  0.81807325667E+03  0.80314182208E+02 0.  0.
         25    2    1    2    0    0  0.30140444275E+03 -0.93367065358E+02  0.10257157919E+04  0.10804181985E+04  0.12509416762E+03 0.  0.
        -24    2    1    2    0    0  0.14219446957E+02 -0.93563268580E+02  0.76191700651E+03  0.77192185702E+03  0.79934664820E+02 0.  0.
        -11    1    3    3    0    0 -0.11244753542E+03  0.10491526263E+03  0.25314097288E+03  0.29619590258E+03  0.00000000000E+00 0.  1.
         12    1    3    3    0    0 -0.20317635429E+03  0.82015071311E+02  0.47365480031E+03  0.52187735410E+03  0.00000000000E+00 0. -1.
         13    1    5    5    0    0  0.17223937479E+02  0.45240112765E+01  0.46283087051E+02  0.49590874637E+02  0.00000000000E+00 0. -1.
        -14    1    5    5    0    0 -0.30044905219E+01 -0.98087279857E+02  0.71563391946E+03  0.72233098238E+03  0.00000000000E+00 0.  1.
          5    1    4    4  501    0  0.13779576335E+03 -0.10361789736E+03  0.45407656805E+03  0.48572352538E+03  0.41800000000E+01 0. -1.
         -5    1    4    4    0  501  0.16360867940E+03  0.10250832002E+02  0.57163922388E+03  0.59469467310E+03  0.41800000000E+01 0. -1.
</event>
<event>
11    1  0.8037748E-009  0.3375775E+03  0.7561462E-02  0.9854330E-01
         22   -1    0    0    0    0  0.00000000000E+00  0.00000000000E+00  0.90716734248E+03  0.90716734248E+03  0.00000000000E+00 0.  1.
         22   -1    0    0    0    0 -0.00000000000E+00 -0.00000000000E+00 -0.19019207397E+03  0.19019207397E+03  0.00000000000E+00 0.  1.
        -24    2    1    2    0    0 -0.27073677540E+02  0.11104622584E+03  0.46675180265E+02  0.14754224915E+03  0.80783008992E+02 0.  0.
         25    2    1    2    0    0 -0.24340032840E+03  0.11645973452E+03  0.20984911582E+03  0.36399272902E+03  0.12508983068E+03 0.  0.
         24    2    1    2    0    0  0.27047400594E+03 -0.22750596036E+03  0.46045097242E+03  0.58582443828E+03  0.79120317193E+02 0.  0.
        -11    1    5    5    0    0  0.24071806583E+03 -0.16570644817E+03  0.35197359751E+03  0.45748139582E+03  0.00000000000E+00 0.  1.
         12    1    5    5    0    0  0.29755940111E+02 -0.61799512187E+02  0.10847737491E+03  0.12834304245E+03  0.00000000000E+00 0. -1.
         13    1    3    3    0    0  0.26910956347E+02  0.44217308632E+02  0.30633066514E+02  0.60147774009E+02  0.00000000000E+00 0. -1.
        -14    1    3    3    0    0 -0.53984633887E+02  0.66828917207E+02  0.16042113751E+02  0.87394475137E+02  0.00000000000E+00 0.  1.
          5    1    4    4  501    0 -0.34302352660E+02 -0.26018178489E+02  0.42246025117E+02  0.60463179276E+02  0.41800000000E+01 0. -1.
         -5    1    4    4    0  501 -0.20909797574E+03  0.14247791301E+03  0.16760309071E+03  0.30352954975E+03  0.41800000000E+01 0. -1.
</event>
<event>
11    1  0.8037748E-009  0.1364708E+03  0.7561462E-02  0.1111565E+00
         22   -1    0    0    0    0  0.00000000000E+00  0.00000000000E+00  0.29111008887E+03  0.29111008887E+03  0.00000000000E+00 0.  1.
         22   -1    0    0    0    0 -0.00000000000E+00 -0.00000000000E+00 -0.50629238500E+03  0.50629238500E+03  0.00000000000E+00 0.  1.
         24    2    1    2    0    0  0.26291789840E+02 -0.33567055353E+02 -0.41663385473E+03  0.42528352104E+03  0.73920896508E+02 0.  0.
         25    2    1    2    0    0  0.14871314789E+02 -0.12460050919E+02 -0.14402977749E+02  0.12740409834E+03  0.12509176485E+03 0.  0.
        -24    2    1    2    0    0 -0.41163104628E+02  0.46027106272E+02  0.21585453634E+03  0.24471485449E+03  0.97361611814E+02 0.  0.
        -11    1    3    3    0    0  0.64881661306E+01  0.43203251858E+01 -0.31406780522E+03  0.31416452343E+03  0.00000000000E+00 0.  1.
         12    1    3    3    0    0  0.19803623709E+02 -0.37887380539E+02 -0.10256604952E+03  0.11111899761E+03  0.00000000000E+00 0. -1.
         13    1    5    5    0    0  0.93518579968E+01  0.19004825046E+02 -0.21230846703E+00  0.21182202386E+02  0.00000000000E+00 0. -1.
        -14    1    5    5    0    0 -0.50514962625E+02  0.27022281226E+02  0.21606684481E+03  0.22353265211E+03  0.00000000000E+00 0.  1.
          5    1    4    4  501    0  0.25242376957E+02  0.31476548468E+02  0.39739743210E+02  0.56786180434E+02  0.41800000000E+01 0. -1.
         -5    1    4    4    0  501 -0.10371062168E+02 -0.43936599387E+02 -0.54142720959E+02  0.70617917903E+02  0.41800000000E+01 0. -1.
</event>
<event>
11    1  0.8037748E-009  0.3068687E+03  0.7561462E-02  0.9973254E-01
         22   -1    0    0    0    0  0.00000000000E+00  0.00000000000E+00  0.85535222132E+03  0.85535222132E+03  0.00000000000E+00 0. -1.
         22   -1    0    0    0    0 -0.00000000000E+00 -0.00000000000E+00 -0.10335203383E+04  0.10335203383E+04  0.00000000000E+00 0. -1.
         24    2    1    2    0    0 -0.23416123469E+01  0.26109192544E+02 -0.71035520165E+03  0.71552069736E+03  0.81720148997E+02 0.  0.
         25    2    1    2    0    0 -0.27440048930E+03  0.21365989658E+02 -0.21506619151E+03  0.37101637243E+03  0.12509015884E+03 0.  0.
        -24    2    1    2    0    0  0.27674210164E+03 -0.47475182202E+02  0.74725327622E+03  0.80233548981E+03  0.80713664520E+02 0.  0.
        -11    1    3    3    0    0  0.17565371571E+02 -0.19742759805E+02 -0.42497010238E+03  0.42579091907E+03  0.00000000000E+00 0.  1.
         12    1    3    3    0    0 -0.19906983918E+02  0.45851952348E+02 -0.28538509927E+03  0.28972977829E+03  0.00000000000E+00 0. -1.
         13    1    5    5    0    0  0.14092587196E+03  0.88430432140E+01  0.43177838922E+03  0.45428061614E+03  0.00000000000E+00 0. -1.
        -14    1    5    5    0    0  0.13581622968E+03 -0.56318225416E+02  0.31547488699E+03  0.34805487367E+03  0.00000000000E+00 0.  1.
          5    1    4    4  501    0 -0.25882380170E+03  0.55288774321E+02 -0.18574330781E+03  0.32336458941E+03  0.41800000000E+01 0. -1.
         -5    1    4    4    0  501 -0.15576687599E+02 -0.33922784663E+02 -0.29322883702E+02  0.47651783014E+02  0.41800000000E+01 0. -1.
</event>
<event>
11    1  0.8037748E-009  0.1318046E+03  0.7561462E-02  0.1117071E+00
         22   -1    0    0    0    0  0.00000000000E+00  0.00000000000E+00  0.30592961571E+03  0.30592961571E+03  0.00000000000E+00 0.  1.
         22   -1    0    0    0    0 -0.00000000000E+00 -0.00000000000E+00 -0.87824574396E+03  0.87824574396E+03  0.00000000000E+00 0. -1.
        -24    2    1    2    0    0 -0.34999671956E+02 -0.16041048057E+02 -0.59660554342E+03  0.60301956301E+03  0.78817045564E+02 0.  0.
         25    2    1    2    0    0  0.74290181339E+02  0.51122490885E+01 -0.25190665156E+03  0.29094686066E+03  0.12509176031E+03 0.  0.
         24    2    1    2    0    0 -0.39290509383E+02  0.10928798969E+02  0.27619606673E+03  0.29020893599E+03  0.79207174410E+02 0.  0.
        -11    1    5    5    0    0 -0.44998882969E+02  0.64338441208E+01  0.27880705717E+03  0.28248835187E+03  0.00000000000E+00 0.  1.
         12    1    5    5    0    0  0.57083735857E+01  0.44949548478E+01 -0.26109904359E+01  0.77205841187E+01  0.00000000000E+00 0. -1.
         11    1    3    3    0    0 -0.47066664350E+02  0.12019563627E+02 -0.48100155809E+03  0.48344828026E+03  0.00000000000E+00 0. -1.
        -12    1    3    3    0    0  0.12066992394E+02 -0.28060611684E+02 -0.11560398533E+03  0.11957128275E+03  0.00000000000E+00 0.  1.
          5    1    4    4  501    0  0.10897953099E+03  0.90420797420E+01 -0.17525628968E+03  0.20661688424E+03  0.41800000000E+01 0. -1.
         -5    1    4    4    0  501 -0.34689349650E+02 -0.39298306535E+01 -0.76650361874E+02  0.84329976423E+02  0.41800000000E+01 0. -1.
</event>
<event>
11    1  0.8037748E-009  0.1415394E+03  0.7561462E-02  0.1105852E+00
         22   -1    0    0    0    0  0.00000000000E+00  0.00000000000E+00  0.30099615020E+04  0.30099615020E+04  0.00000000000E+00 0.  1.
         22   -1    0    0    0    0 -0.00000000000E+00 -0.00000000000E+00 -0.21680145847E+03  0.21680145847E+03  0.00000000000E+00 0. -1.
        -24    2    1    2    0    0  0.43643360897E+02 -0.10551521064E+02 -0.18492629875E+03  0.20622567373E+03  0.79468326967E+02 0.  0.
         25    2    1    2    0    0 -0.59350615101E+02  0.73862850040E+02  0.28436164955E+03  0.32478313784E+03  0.12507726717E+03 0.  0.
         24    2    1    2    0    0  0.15707254204E+02 -0.63311328976E+02  0.26937246927E+04  0.26957541489E+04  0.81747592715E+02 0.  0.
        -11    1    5    5    0    0  0.35609979278E+02 -0.73645490384E+02  0.20176302283E+04  0.20192878614E+04  0.00000000000E+00 0.  1.
         12    1    5    5    0    0 -0.19902725074E+02  0.10334161408E+02  0.67609446437E+03  0.67646628749E+03  0.00000000000E+00 0. -1.
         13    1    3    3    0    0  0.60197698866E+02  0.13613668232E+02 -0.13257357921E+03  0.14623559354E+03  0.00000000000E+00 0. -1.
        -14    1    3    3    0    0 -0.16554337969E+02 -0.24165189296E+02 -0.52352719534E+02  0.59990080196E+02  0.00000000000E+00 0.  1.
          5    1    4    4  501    0 -0.18371333195E+01  0.50097880677E+02  0.24701706915E+03  0.25208744030E+03  0.41800000000E+01 0.  1.
         -5    1    4    4    0  501 -0.57513481781E+02  0.23764969363E+02  0.37344580405E+02  0.72695697542E+02  0.41800000000E+01 0.  1.
</event>
<event>
11    1  0.8037748E-009  0.1572003E+03  0.7561462E-02  0.1089740E+00
         22   -1    0    0    0    0  0.00000000000E+00  0.00000000000E+00  0.84033814608E+03  0.84033814608E+03  0.00000000000E+00 0.  1.
         22   -1    0    0    0    0 -0.00000000000E+00 -0.00000000000E+00 -0.31187797488E+03  0.31187797488E+03  0.00000000000E+00 0. -1.
         24    2    1    2    0    0  0.76048466595E+02 -0.62550867897E+02 -0.17104710289E+03  0.21256610884E+03  0.78938323246E+02 0.  0.
         25    2    1    2    0    0 -0.80515670249E+02  0.38553113402E+02 -0.67538667259E+02  0.16785529137E+03  0.12507922112E+03 0.  0.
        -24    2    1    2    0    0  0.44672036535E+01  0.23997754494E+02  0.76704594135E+03  0.77179472075E+03  0.81925372828E+02 0.  0.
        -13    1    3    3    0    0  0.14085298851E+02 -0.49151340026E+01  0.61987187777E+01  0.16154822824E+02  0.00000000000E+00 0.  1.
         14    1    3    3    0    0  0.61963167744E+02 -0.57635733894E+02 -0.17724582166E+03  0.19641128602E+03  0.00000000000E+00 0. -1.
         11    1    5    5    0    0  0.12253118796E+02  0.96106200628E+01  0.24255483880E+02  0.28824146761E+02  0.00000000000E+00 0. -1.
        -12    1    5    5    0    0 -0.77859151426E+01  0.14387134432E+02  0.74279045747E+03  0.74297057399E+03  0.00000000000E+00 0.  1.
          5    1    4    4  501    0 -0.17652800294E+02  0.75136199408E+02 -0.16869370944E+02  0.79114587124E+02  0.41800000000E+01 0.  1.
         -5    1    4    4    0  501 -0.62862869955E+02 -0.36583086006E+02 -0.50669296314E+02  0.88740704244E+02  0.41800000000E+01 0.  1.
</event>
<event>
11    1  0.8037748E-009  0.1453725E+03  0.7561462E-02  0.1101703E+00
         22   -1    0    0    0    0  0.00000000000E+00  0.00000000000E+00  0.52869075061E+03  0.52869075061E+03  0.00000000000E+00 0.  1.
         22   -1    0    0    0    0 -0.00000000000E+00 -0.00000000000E+00 -0.19216477009E+03  0.19216477009E+03  0.00000000000E+00 0. -1.
         24    2    1    2    0    0 -0.19390873900E+02 -0.71417477187E+02 -0.13001507943E+03  0.17035251178E+03  0.81483712187E+02 0.  0.
         25    2    1    2    0    0 -0.13948255733E+01  0.77191542818E+02  0.10785989063E+03  0.18232318489E+03  0.12508999928E+03 0.  0.
        -24    2    1    2    0    0  0.20785699473E+02 -0.57740656313E+01  0.35868116932E+03  0.36817982403E+03  0.80242236158E+02 0.  0.
        -13    1    3    3    0    0 -0.17280270973E+02 -0.39234574216E+02 -0.73232155204E+01  0.43492402376E+02  0.00000000000E+00 0.  1.
         14    1    3    3    0    0 -0.21106029268E+01 -0.32182902970E+02 -0.12269186391E+03  0.12686010940E+03  0.00000000000E+00 0. -1.
         13    1    5    5    0    0  0.11603693505E+02 -0.23926406330E+02  0.35479598822E+02  0.44338702681E+02  0.00000000000E+00 0. -1.
        -14    1    5    5    0    0  0.91820059684E+01  0.18152340698E+02  0.32320157050E+03  0.32384112135E+03  0.00000000000E+00 0.  1.
          5    1    4    4  501    0 -0.57990702833E+02  0.63769719046E+02  0.80085007379E+02  0.11773096232E+03  0.41800000000E+01 0.  1.
         -5    1    4    4    0  501  0.56595877260E+02  0.13421823772E+02  0.27774883256E+02  0.64592222566E+02  0.41800000000E+01 0.  1.
</event>
<event>
11    1  0.8037748E-009  0.1445126E+03  0.7561462E-02  0.1102621E+00
         22   -1    0    0    0    0  0.00000000000E+00  0.00000000000E+00  0.11626514686E+04  0.11626514686E+04  0.00000000000E+00 0. -1.
         22   -1    0    0    0    0 -0.00000000000E+00 -0.00000000000E+00 -0.42825211998E+03  0.42825211998E+03  0.00000000000E+00 0. -1.
        -24    2    1    2    0    0  0.78763669211E+00  0.66431141004E+02 -0.26083646331E+03  0.28075666273E+03  0.79843135003E+02 0.  0.
         25    2    1    2    0    0 -0.24970751463E+02 -0.95653981352E+02 -0.11438028418E+03  0.19622341614E+03  0.12509019567E+03 0.  0.
         24    2    1    2    0    0  0.24183114770E+02  0.29222840348E+02  0.11096160961E+04  0.11139235097E+04  0.90215892863E+02 0.  0.
        -13    1    5    5    0    0  0.48666158134E+02  0.24098769788E+02  0.37811716192E+03  0.38199703374E+03  0.00000000000E+00 0.  1.
         14    1    5    5    0    0 -0.24483043363E+02  0.51240705594E+01  0.73149893416E+03  0.73192647595E+03  0.00000000000E+00 0. -1.
         11    1    3    3    0    0 -0.13068161707E+02  0.15925075205E+02 -0.19750135647E+03  0.19857283470E+03  0.00000000000E+00 0. -1.
        -12    1    3    3    0    0  0.13855798399E+02  0.50506065798E+02 -0.63335106835E+02  0.82183828029E+02  0.00000000000E+00 0.  1.
          5    1    4    4  501    0 -0.44077707721E+01 -0.60967178435E+02 -0.13680240333E+03  0.14989594806E+03  0.41800000000E+01 0. -1.
         -5    1    4    4    0  501 -0.20562980690E+02 -0.34686802917E+02  0.22422119142E+02  0.46327468075E+02  0.41800000000E+01 0. -1.
</event>
<event>
11    1  0.8037748E-009  0.3937831E+03  0.7561462E-02  0.9668281E-01
         22   -1    0    0    0    0  0.00000000000E+00  0.00000000000E+00  0.73085090265E+03  0.73085090265E+03  0.00000000000E+00 0.  1.
         22   -1    0    0    0    0 -0.00000000000E+00 -0.00000000000E+00 -0.11168951084E+04  0.11168951084E+04  0.00000000000E+00 0. -1.
        -24    2    1    2    0    0  0.86188955887E+02 -0.30811281608E+02 -0.71032567548E+03  0.72053591987E+03  0.78940328052E+02 0.  0.
         25    2    1    2    0    0 -0.37569869809E+03 -0.19281286045E+03 -0.19932024967E+03  0.48342686330E+03  0.12508660735E+03 0.  0.
         24    2    1    2    0    0  0.28950974220E+03  0.22362414206E+03  0.52360171940E+03  0.64378322786E+03  0.80463881218E+02 0.  0.
        -11    1    5    5    0    0  0.23541292127E+03  0.20387054455E+03  0.47719362253E+03  0.56982119636E+03  0.00000000000E+00 0.  1.
         12    1    5    5    0    0  0.54096820931E+02  0.19753597503E+02  0.46408096869E+02  0.73962031504E+02  0.00000000000E+00 0. -1.
         13    1    3    3    0    0  0.69694033816E+02 -0.12089077281E+02 -0.66537424364E+03  0.66912352240E+03  0.00000000000E+00 0. -1.
        -14    1    3    3    0    0  0.16494922071E+02 -0.18722204327E+02 -0.44951431844E+02  0.51412397472E+02  0.00000000000E+00 0.  1.
          5    1    4    4  501    0 -0.32474432512E+03 -0.15593393792E+03 -0.11505680567E+03  0.37819282202E+03  0.41800000000E+01 0.  1.
         -5    1    4    4    0  501 -0.50954372960E+02 -0.36878922530E+02 -0.84263443996E+02  0.10523404128E+03  0.41800000000E+01 0.  1.
</event>
<event>
11    1  0.8037748E-009  0.1607553E+03  0.7561462E-02  0.1086369E+00
         22   -1    0    0    0    0  0.00000000000E+00  0.00000000000E+00  0.27317282119E+04  0.27317282119E+04  0.00000000000E+00 0. -1.
         22   -1    0    0    0    0 -0.00000000000E+00 -0.00000000000E+00 -0.30945922882E+03  0.30945922882E+03  0.00000000000E+00 0.  1.
        -24    2    1    2    0    0 -0.53868647843E+02 -0.12636401116E+03 -0.23419777857E+03  0.28292166232E+03  0.79538500025E+02 0.  0.
         25    2    1    2    0    0 -0.24221209988E+02  0.12764824137E+02  0.36199397099E+02  0.13307024392E+03  0.12509070996E+03 0.  0.
         24    2    1    2    0    0  0.78089857832E+02  0.11359918703E+03  0.26202673645E+04  0.26251955344E+04  0.82751020198E+02 0.  0.
        -13    1    5    5    0    0  0.14019941468E+02  0.90422187904E+02  0.13444791103E+04  0.13475892582E+04  0.00000000000E+00 0.  1.
         14    1    5    5    0    0  0.64069916364E+02  0.23176999123E+02  0.12757882542E+04  0.12776062763E+04  0.00000000000E+00 0. -1.
         11    1    3    3    0    0 -0.90387077901E+01 -0.74509111096E+01  0.44626890714E+01  0.12535146933E+02  0.00000000000E+00 0. -1.
        -12    1    3    3    0    0 -0.44829940053E+02 -0.11891310005E+03 -0.23866046764E+03  0.27038651539E+03  0.00000000000E+00 0.  1.
          5    1    4    4  501    0  0.10856909079E+02  0.50934275696E+01 -0.43628147734E+02  0.45439004763E+02  0.41800000000E+01 0.  1.
         -5    1    4    4    0  501 -0.35078119067E+02  0.76713965672E+01  0.79827544833E+02  0.87631239160E+02  0.41800000000E+01 0.  1.
</event>
<event>
11    1  0.8037748E-009  0.1384720E+03  0.7561462E-02  0.1109277E+00
         22   -1    0    0    0    0  0.00000000000E+00  0.00000000000E+00  0.16000647437E+04  0.16000647437E+04  0.00000000000E+00 0.  1.
         22   -1    0    0    0    0 -0.00000000000E+00 -0.00000000000E+00 -0.21836442455E+04  0.21836442455E+04  0.00000000000E+00 0.  1.
        -24    2    1    2    0    0  0.45667493037E+02  0.23638123389E+01 -0.21310506717E+04  0.21330206912E+04  0.79430448261E+02 0.  0.
         25    2    1    2    0    0 -0.10269180028E+03 -0.12819099698E+02  0.81795842978E+02  0.18179025833E+03  0.12508878020E+03 0.  0.
         24    2    1    2    0    0  0.57024307243E+02  0.10455287359E+02  0.14656753269E+04  0.14688980397E+04  0.78078181151E+02 0.  0.
        -11    1    5    5    0    0  0.47149253212E+02  0.42611227042E+02  0.93374036512E+03  0.93590054931E+03  0.00000000000E+00 0.  1.
         12    1    5    5    0    0  0.98750540305E+01 -0.32155939683E+02  0.53193496181E+03  0.53299749038E+03  0.00000000000E+00 0. -1.
         13    1    3    3    0    0  0.47062409130E+02 -0.25611067519E+02 -0.86357130190E+03  0.86523187100E+03  0.00000000000E+00 0. -1.
        -14    1    3    3    0    0 -0.13949160932E+01  0.27974879858E+02 -0.12674793698E+04  0.12677888202E+04  0.00000000000E+00 0.  1.
          5    1    4    4  501    0  0.12444494527E+02 -0.39309512565E+02  0.73670124322E+01  0.42093330758E+02  0.41800000000E+01 0.  1.
         -5    1    4    4    0  501 -0.11513629481E+03  0.26490412867E+02  0.74428830546E+02  0.13969692757E+03  0.41800000000E+01 0.  1.
</event>
<event>
11    1  0.8037748E-009  0.2576019E+03  0.7561462E-02  0.1019926E+00
         22   -1    0    0    0    0  0.00000000000E+00  0.00000000000E+00  0.25306112419E+03  0.25306112419E+03  0.00000000000E+00 0.  1.
         22   -1    0    0    0    0 -0.00000000000E+00 -0.00000000000E+00 -0.13400604551E+04  0.13400604551E+04  0.00000000000E+00 0.  1.
        -24    2    1    2    0    0  0.23751180895E+02 -0.97518011394E+02 -0.77927184379E+03  0.78993879621E+03  0.81638312619E+02 0.  0.
         25    2    1    2    0    0 -0.23987089260E+03  0.13768538001E+03 -0.43946872143E+03  0.53411060850E+03  0.12508427562E+03 0.  0.
         24    2    1    2    0    0  0.21611971170E+03 -0.40167368613E+02  0.13174123427E+03  0.26907217463E+03  0.81993506250E+02 0.  0.
        -11    1    5    5    0    0  0.19658887200E+03 -0.50488992601E+02  0.90381309838E+02  0.22218259189E+03  0.00000000000E+00 0.  1.
         12    1    5    5    0    0  0.19530839699E+02  0.10321623988E+02  0.41359924432E+02  0.46889582746E+02  0.00000000000E+00 0. -1.
         11    1    3    3    0    0  0.22522621331E+02 -0.43442634572E+02 -0.13854259145E+03  0.14693052989E+03  0.00000000000E+00 0. -1.
        -12    1    3    3    0    0  0.12285595637E+01 -0.54075376823E+02 -0.64072925235E+03  0.64300826631E+03  0.00000000000E+00 0.  1.
          5    1    4    4  501    0 -0.21908409760E+03  0.88978312510E+02 -0.41010924142E+03  0.47341529783E+03  0.41800000000E+01 0.  1.
         -5    1    4    4    0  501 -0.20786794997E+02  0.48707067498E+02 -0.29359480011E+02  0.60695310667E+02  0.41800000000E+01 0.  1.
</event>
<event>
11    1  0.8037748E-009  0.1392335E+03  0.7561462E-02  0.1108417E+00
         22   -1    0    0    0    0  0.00000000000E+00  0.00000000000E+00  0.53892813970E+03  0.53892813970E+03  0.00000000000E+00 0. -1.
         22   -1    0    0    0    0 -0.00000000000E+00 -0.00000000000E+00 -0.13559730626E+04  0.13559730626E+04  0.00000000000E+00 0. -1.
        -24    2    1    2    0    0  0.17058464362E+02  0.56795827686E+02 -0.85643804344E+03  0.86230266275E+03  0.81012361324E+02 0.  0.
         25    2    1    2    0    0 -0.63890058933E+02 -0.48259160813E+02 -0.48126977642E+03  0.50365931650E+03  0.12506487584E+03 0.  0.
         24    2    1    2    0    0  0.46831594571E+02 -0.85366668735E+01  0.52066289692E+03  0.52893922310E+03  0.80129748398E+02 0.  0.
        -13    1    5    5    0    0  0.34295170961E+01 -0.37913933719E+02  0.15871923638E+03  0.16322078285E+03  0.00000000000E+00 0.  1.
         14    1    5    5    0    0  0.43402077475E+02  0.29377266845E+02  0.36194366054E+03  0.36571844025E+03  0.00000000000E+00 0. -1.
         11    1    3    3    0    0  0.42276729608E+02  0.43289491279E+02 -0.73727562221E+03  0.73975444915E+03  0.00000000000E+00 0. -1.
        -12    1    3    3    0    0 -0.25218265245E+02  0.13506336407E+02 -0.11916242122E+03  0.12254821360E+03  0.00000000000E+00 0.  1.
          5    1    4    4  501    0  0.10680044462E+02 -0.23926902086E+02 -0.14324932794E+02  0.30153541959E+02  0.41800000000E+01 0.  1.
         -5    1    4    4    0  501 -0.74570103395E+02 -0.24332258727E+02 -0.46694484362E+03  0.47350577454E+03  0.41800000000E+01 0.  1.
</event>
<event>
11    1  0.8037748E-009  0.1573911E+03  0.7561462E-02  0.1089557E+00
         22   -1    0    0    0    0  0.00000000000E+00  0.00000000000E+00  0.78575471423E+03  0.78575471423E+03  0.00000000000E+00 0.  1.
         22   -1    0    0    0    0 -0.00000000000E+00 -0.00000000000E+00 -0.10656392695E+04  0.10656392695E+04  0.00000000000E+00 0. -1.
        -24    2    1    2    0    0 -0.95993608483E+02 -0.11984809180E+02 -0.92767922327E+03  0.93612676892E+03  0.79913563914E+02 0.  0.
         25    2    1    2    0    0  0.85137447901E+02 -0.15628943215E+02 -0.87128031221E+02  0.17530216048E+03  0.12508758829E+03 0.  0.
         24    2    1    2    0    0  0.10856160581E+02  0.27613752395E+02  0.73492269923E+03  0.73996505430E+03  0.80972416301E+02 0.  0.
        -11    1    5    5    0    0  0.32495142668E+02  0.19426260092E+02  0.66954161788E+03  0.67061113318E+03  0.00000000000E+00 0.  1.
         12    1    5    5    0    0 -0.21638982086E+02  0.81874923032E+01  0.65381081356E+02  0.69353921124E+02  0.00000000000E+00 0. -1.
         11    1    3    3    0    0 -0.69164497903E+02  0.19626213967E+02 -0.37076414117E+03  0.37767044420E+03  0.00000000000E+00 0. -1.
        -12    1    3    3    0    0 -0.26829110580E+02 -0.31611023147E+02 -0.55691508209E+03  0.55845632472E+03  0.00000000000E+00 0.  1.
          5    1    4    4  501    0  0.87000135238E+02 -0.56165121081E+02 -0.35603635501E+02  0.10958392044E+03  0.41800000000E+01 0. -1.
         -5    1    4    4    0  501 -0.18626873363E+01  0.40536177867E+02 -0.51524395720E+02  0.65718240044E+02  0.41800000000E+01 0. -1.
</event>
<event>
11    1  0.8037748E-009  0.1386271E+03  0.7561462E-02  0.1109101E+00
         22   -1    0    0    0    0  0.00000000000E+00  0.00000000000E+00  0.20759744975E+04  0.20759744975E+04  0.00000000000E+00 0.  1.
         22   -1    0    0    0    0 -0.00000000000E+00 -0.00000000000E+00 -0.20886723479E+03  0.20886723479E+03  0.00000000000E+00 0.  1.
        -24    2    1    2    0    0  0.21035052597E+02  0.19776425773E+02 -0.18006582610E+03  0.20360495138E+03  0.90541117965E+02 0.  0.
         25    2    1    2    0    0 -0.41063763013E+01 -0.75892315894E+02  0.32801599523E+03  0.35919232772E+03  0.12509248269E+03 0.  0.
         24    2    1    2    0    0 -0.16928676295E+02  0.56115890121E+02  0.17191570936E+04  0.17220444532E+04  0.80625139917E+02 0.  0.
        -11    1    5    5    0    0  0.22875084159E+02  0.23327242673E+02  0.11737835835E+04  0.11742381916E+04  0.00000000000E+00 0.  1.
         12    1    5    5    0    0 -0.39803760455E+02  0.32788647448E+02  0.54537351007E+03  0.54780626159E+03  0.00000000000E+00 0. -1.
         11    1    3    3    0    0  0.37673230150E+01  0.47563421012E+02 -0.48508130903E+02  0.68040506353E+02  0.00000000000E+00 0. -1.
        -12    1    3    3    0    0  0.17267729582E+02 -0.27786995239E+02 -0.13155769520E+03  0.13556444502E+03  0.00000000000E+00 0.  1.
          5    1    4    4  501    0  0.47535687310E+02 -0.76751436739E+02  0.16488501906E+03  0.18802916401E+03  0.41800000000E+01 0. -1.
         -5    1    4    4    0  501 -0.51642063612E+02  0.85912084509E+00  0.16313097617E+03  0.17116316370E+03  0.41800000000E+01 0. -1.
</event>
<event>
11    1  0.8037748E-009  0.2131612E+03  0.7561462E-02  0.1045588E+00
         22   -1    0    0    0    0  0.00000000000E+00  0.00000000000E+00  0.94190089307E+03  0.94190089307E+03  0.00000000000E+00 0. -1.
         22   -1    0    0    0    0 -0.00000000000E+00 -0.00000000000E+00 -0.20859822201E+03  0.20859822201E+03  0.00000000000E+00 0. -1.
         24    2    1    2    0    0  0.55330187732E+01 -0.21317101826E+02 -0.41571052413E+02  0.92070976220E+02  0.79144672193E+02 0.  0.
         25    2    1    2    0    0 -0.29057094535E+02  0.19060047770E+03 -0.29943592986E+02  0.23177174347E+03  0.12509462606E+03 0.  0.
        -24    2    1    2    0    0  0.23524075762E+02 -0.16928337588E+03  0.80481731646E+03  0.82665639538E+03  0.80122653888E+02 0.  0.
        -11    1    3    3    0    0 -0.21708225564E+02 -0.36128734999E+02 -0.25443182050E+01  0.42225656950E+02  0.00000000000E+00 0.  1.
         12    1    3    3    0    0  0.27241244337E+02  0.14811633173E+02 -0.39026734208E+02  0.49845319270E+02  0.00000000000E+00 0. -1.
         11    1    5    5    0    0  0.27749386121E+02 -0.17537485199E+03  0.79353131496E+03  0.81315331578E+03  0.00000000000E+00 0. -1.
        -12    1    5    5    0    0 -0.42253103590E+01  0.60914761177E+01  0.11286001501E+02  0.13503079605E+02  0.00000000000E+00 0.  1.
          5    1    4    4  501    0 -0.51087376970E+02  0.15627506539E+03 -0.65958238350E+02  0.17719982436E+03  0.41800000000E+01 0.  1.
         -5    1    4    4    0  501  0.22030282435E+02  0.34325412316E+02  0.36014645364E+02  0.54571919112E+02  0.41800000000E+01 0.  1.
</event>
<event>
11    1  0.8037748E-009  0.2506776E+03  0.7561462E-02  0.1023539E+00
         22   -1    0    0    0    0  0.00000000000E+00  0.00000000000E+00  0.72507639800E+03  0.72507639800E+03  0.00000000000E+00 0.  1.
         22   -1    0    0    0    0 -0.00000000000E+00 -0.00000000000E+00 -0.54701758566E+03  0.54701758566E+03  0.00000000000E+00 0.  1.
         24    2    1    2    0    0  0.15774866214E+03  0.14414606506E+03 -0.45075440932E+03  0.50534550164E+03  0.80819614140E+02 0.  0.
         25    2    1    2    0    0 -0.22470178318E+03 -0.18663718565E+03  0.52673843065E+03  0.61515725906E+03  0.12506297862E+03 0.  0.
        -24    2    1    2    0    0  0.66953121043E+02  0.42491120586E+02  0.10207479101E+03  0.15159122295E+03  0.79198612178E+02 0.  0.
        -11    1    3    3    0    0  0.11998017591E+03  0.14464756542E+03 -0.34222020695E+03  0.39042647303E+03  0.00000000000E+00 0.  1.
         12    1    3    3    0    0  0.37768486223E+02 -0.50150035733E+00 -0.10853420237E+03  0.11491902862E+03  0.00000000000E+00 0. -1.
         13    1    5    5    0    0  0.48463971479E+02  0.65252136686E+02  0.63549860741E+02  0.10317549454E+03  0.00000000000E+00 0. -1.
        -14    1    5    5    0    0  0.18489149564E+02 -0.22761016101E+02  0.38524930265E+02  0.48415728410E+02  0.00000000000E+00 0.  1.
          5    1    4    4  501    0 -0.22491923687E+03 -0.16173292875E+03  0.40419017557E+03  0.49003405370E+03  0.41800000000E+01 0.  1.
         -5    1    4    4    0  501  0.21745368416E+00 -0.24904256894E+02  0.12254825509E+03  0.12512320537E+03  0.41800000000E+01 0.  1.
</event>
<event>
11    1  0.8037748E-009  0.1277616E+03  0.7561462E-02  0.1122050E+00
         22   -1    0    0    0    0  0.00000000000E+00  0.00000000000E+00  0.50867400222E+03  0.50867400222E+03  0.00000000000E+00 0. -1.
         22   -1    0    0    0    0 -0.00000000000E+00 -0.00000000000E+00 -0.73183513291E+03  0.73183513291E+03  0.00000000000E+00 0. -1.
         24    2    1    2    0    0 -0.64385056117E+01 -0.24790929224E+01 -0.69953404291E+03  0.70369296999E+03  0.76080999975E+02 0.  0.
         25    2    1    2    0    0 -0.28668547620E+01 -0.22548978575E+02  0.13378935333E+03  0.18456462871E+03  0.12509130991E+03 0.  0.
        -24    2    1    2    0    0  0.93053603737E+01  0.25028071498E+02  0.34258355889E+03  0.35225153644E+03  0.77489715501E+02 0.  0.
        -13    1    3    3    0    0  0.30204936520E+02  0.30141742332E+01 -0.15778837011E+03  0.16068165166E+03  0.00000000000E+00 0.  1.
         14    1    3    3    0    0 -0.36643442131E+02 -0.54932671557E+01 -0.54174567280E+03  0.54301131833E+03  0.00000000000E+00 0. -1.
         13    1    5    5    0    0  0.31930864046E+02  0.15505694914E+02  0.30686360149E+03  0.30890981948E+03  0.00000000000E+00 0. -1.
        -14    1    5    5    0    0 -0.22625503672E+02  0.95223765835E+01  0.35719957401E+02  0.43341716959E+02  0.00000000000E+00 0.  1.
          5    1    4    4  501    0 -0.55207480074E+02  0.13309081881E+02  0.34246207393E+02  0.66447517918E+02  0.41800000000E+01 0.  1.
         -5    1    4    4    0  501  0.52340625312E+02 -0.35858060457E+02  0.99543145939E+02  0.11811711079E+03  0.41800000000E+01 0.  1.
</event>
<event>
11    1  0.8037748E-009  0.1350963E+03  0.7561462E-02  0.1113161E+00
         22   -1    0    0    0    0  0.00000000000E+00  0.00000000000E+00  0.10306494937E+04  0.10306494937E+04  0.00000000000E+00 0. -1.
         22   -1    0    0    0    0 -0.00000000000E+00 -0.00000000000E+00 -0.76883935446E+02  0.76883935446E+02  0.00000000000E+00 0.  1.
        -24    2    1    2    0    0  0.28448867165E+01  0.27409205733E+02 -0.31317703655E+02  0.89959229032E+02  0.79702612168E+02 0.  0.
         25    2    1    2    0    0  0.19319521226E+02  0.24420851439E+02  0.30823483914E+03  0.33410327746E+03  0.12508661825E+03 0.  0.
         24    2    1    2    0    0 -0.22164407943E+02 -0.51830057173E+02  0.67684842274E+03  0.68347092262E+03  0.76361632379E+02 0.  0.
        -13    1    5    5    0    0  0.94970222287E+01 -0.50640341812E+02  0.23965340534E+03  0.24512933798E+03  0.00000000000E+00 0.  1.
         14    1    5    5    0    0 -0.31661430171E+02 -0.11897153601E+01  0.43719501740E+03  0.43834158464E+03  0.00000000000E+00 0. -1.
         13    1    3    3    0    0  0.83744899836E+01  0.38167994986E+01  0.26079959315E+02  0.27656180481E+02  0.00000000000E+00 0. -1.
        -14    1    3    3    0    0 -0.55296032671E+01  0.23592406235E+02 -0.57397662971E+02  0.62303048551E+02  0.00000000000E+00 0.  1.
          5    1    4    4  501    0 -0.29521416431E+02 -0.38761395013E+02  0.12069402879E+03  0.13022473174E+03  0.41800000000E+01 0. -1.
         -5    1    4    4    0  501  0.48840937658E+02  0.63182246452E+02  0.18754081035E+03  0.20387854572E+03  0.41800000000E+01 0. -1.
</event>
<event>
11    1  0.8037748E-009  0.1547195E+03  0.7561462E-02  0.1092152E+00
         22   -1    0    0    0    0  0.00000000000E+00  0.00000000000E+00  0.18312536666E+04  0.18312536666E+04  0.00000000000E+00 0. -1.
         22   -1    0    0    0    0 -0.00000000000E+00 -0.00000000000E+00 -0.26104909166E+03  0.26104909166E+03  0.00000000000E+00 0.  1.
        -24    2    1    2    0    0 -0.86486739378E+02  0.35893151448E+02 -0.20444990709E+03  0.23890676596E+03  0.80674679437E+02 0.  0.
         25    2    1    2    0    0  0.43856390424E+02 -0.70368651352E+02  0.11025013288E+03  0.18621921185E+03  0.12508945994E+03 0.  0.
         24    2    1    2    0    0  0.42630348954E+02  0.34475499904E+02  0.16644043491E+04  0.16671767804E+04  0.78934612596E+02 0.  0.
        -13    1    5    5    0    0 -0.16580474062E+02  0.25625950262E+02  0.86288081099E+03  0.86342046271E+03  0.00000000000E+00 0.  1.
         14    1    5    5    0    0  0.59210823016E+02  0.88495496419E+01  0.80152353813E+03  0.80375631772E+03  0.00000000000E+00 0. -1.
         13    1    3    3    0    0 -0.50170015764E+02 -0.10225465396E+02 -0.42155350107E+02  0.66322425823E+02  0.00000000000E+00 0. -1.
        -14    1    3    3    0    0 -0.36316723614E+02  0.46118616844E+02 -0.16229455698E+03  0.17258434013E+03  0.00000000000E+00 0.  1.
          5    1    4    4  501    0 -0.11172685700E+02  0.23932591564E+02 -0.52230335371E+01  0.27246106585E+02  0.41800000000E+01 0. -1.
         -5    1    4    4    0  501  0.55029076123E+02 -0.94301242916E+02  0.11547316642E+03  0.15897310527E+03  0.41800000000E+01 0. -1.
</event>
<event>
11    1  0.8037748E-009  0.1376936E+03  0.7561462E-02  0.1110162E+00
         22   -1    0    0    0    0  0.00000000000E+00  0.00000000000E+00  0.37165802269E+03  0.37165802269E+03  0.00000000000E+00 0.  1.
         22   -1    0    0    0    0 -0.00000000000E+00 -0.00000000000E+00 -0.21953755879E+03  0.21953755879E+03  0.00000000000E+00 0.  1.
         24    2    1    2    0    0  0.11257506238E+02  0.42369580638E+02 -0.13574671357E+03  0.16328340078E+03  0.79450524959E+02 0.  0.
         25    2    1    2    0    0 -0.17691359981E+02 -0.94001296622E+02  0.40275443526E+02  0.16253835804E+03  0.12508948197E+03 0.  0.
        -24    2    1    2    0    0  0.64338537434E+01  0.51631715984E+02  0.24759173395E+03  0.26537382266E+03  0.80089765040E+02 0.  0.
        -11    1    3    3    0    0  0.14429779907E+02  0.22641734126E+02 -0.14025344235E+03  0.14280019174E+03  0.00000000000E+00 0.  1.
         12    1    3    3    0    0 -0.31722736689E+01  0.19727846512E+02  0.45067287772E+01  0.20483209038E+02  0.00000000000E+00 0. -1.
         13    1    5    5    0    0  0.36038795095E+02  0.40276218985E+02  0.92999921365E+02  0.10756372038E+03  0.00000000000E+00 0. -1.
        -14    1    5    5    0    0 -0.29604941352E+02  0.11355496999E+02  0.15459181258E+03  0.15781010228E+03  0.00000000000E+00 0.  1.
          5    1    4    4  501    0 -0.20907633752E+02 -0.22812838469E+02  0.76399901092E+02  0.82534671714E+02  0.41800000000E+01 0.  1.
         -5    1    4    4    0  501  0.32162737705E+01 -0.71188458152E+02 -0.36124457567E+02  0.80003686325E+02  0.41800000000E+01 0.  1.
</event>
<event>
11    1  0.8037748E-009  0.1473825E+03  0.7561462E-02  0.1099584E+00
         22   -1    0    0    0    0  0.00000000000E+00  0.00000000000E+00  0.10013756499E+04  0.10013756499E+04  0.00000000000E+00 0. -1.
         22   -1    0    0    0    0 -0.00000000000E+00 -0.00000000000E+00 -0.51266854892E+03  0.51266854892E+03  0.00000000000E+00 0. -1.
         24    2    1    2    0    0 -0.36780279657E+02  0.70542723791E+02 -0.46590150385E+03  0.47884732890E+03  0.76821144562E+02 0.  0.
         25    2    1    2    0    0  0.20595514258E+02 -0.43850392983E+02  0.79681969205E+02  0.15602628096E+03  0.12509177416E+03 0.  0.
        -24    2    1    2    0    0  0.16184765399E+02 -0.26692330807E+02  0.87492663560E+03  0.87917058892E+03  0.80435561785E+02 0.  0.
        -11    1    3    3    0    0 -0.31888999051E+02 -0.72019633184E+01 -0.13667749465E+03  0.14053296439E+03  0.00000000000E+00 0.  1.
         12    1    3    3    0    0 -0.48912806057E+01  0.77744687109E+02 -0.32922400920E+03  0.33831436451E+03  0.00000000000E+00 0. -1.
         11    1    5    5    0    0 -0.10736474667E+02 -0.47968838685E+02  0.61989361736E+03  0.62183951163E+03  0.00000000000E+00 0. -1.
        -12    1    5    5    0    0  0.26921240066E+02  0.21276507877E+02  0.25503301823E+03  0.25733107730E+03  0.00000000000E+00 0.  1.
          5    1    4    4  501    0  0.29297721860E+02 -0.46949951653E+02  0.11046140379E+03  0.12361977429E+03  0.41800000000E+01 0.  1.
         -5    1    4    4    0  501 -0.87022076025E+01  0.30995586702E+01 -0.30779434590E+02  0.32406506673E+02  0.41800000000E+01 0.  1.
</event>
<event>
11    1  0.8037748E-009  0.1563441E+03  0.7561462E-02  0.1090567E+00
         22   -1    0    0    0    0  0.00000000000E+00  0.00000000000E+00  0.34829740217E+03  0.34829740217E+03  0.00000000000E+00 0. -1.
         22   -1    0    0    0    0 -0.00000000000E+00 -0.00000000000E+00 -0.57791392239E+03  0.57791392239E+03  0.00000000000E+00 0. -1.
        -24    2    1    2    0    0  0.14482757845E+01  0.81606623981E+02 -0.37958282561E+03  0.39701766196E+03  0.82934696172E+02 0.  0.
         25    2    1    2    0    0  0.13912433292E+02  0.16525167732E+02 -0.15380819266E+03  0.19942625582E+03  0.12508890603E+03 0.  0.
         24    2    1    2    0    0 -0.15360709077E+02 -0.98131791713E+02  0.30377449804E+03  0.32976740678E+03  0.81251442983E+02 0.  0.
        -11    1    5    5    0    0 -0.10606298239E+02 -0.83721140337E+02  0.12785551339E+03  0.15319515399E+03  0.00000000000E+00 0.  1.
         12    1    5    5    0    0 -0.47544108380E+01 -0.14410651377E+02  0.17591898465E+03  0.17657225279E+03  0.00000000000E+00 0. -1.
         11    1    3    3    0    0  0.55744615741E+01  0.91135665982E+02 -0.37447456852E+03  0.38544517989E+03  0.00000000000E+00 0. -1.
        -12    1    3    3    0    0 -0.41261857896E+01 -0.95290420012E+01 -0.51082570897E+01  0.11572482064E+02  0.00000000000E+00 0.  1.
          5    1    4    4  501    0  0.31543395473E+02 -0.49100361602E+02 -0.78503070916E+02  0.97908303277E+02  0.41800000000E+01 0. -1.
         -5    1    4    4    0  501 -0.17630962180E+02  0.65625529334E+02 -0.75305121741E+02  0.10151795254E+03  0.41800000000E+01 0. -1.
</event>
<event>
11    1  0.8037748E-009  0.1834931E+03  0.7561462E-02  0.1066852E+00
         22   -1    0    0    0    0  0.00000000000E+00  0.00000000000E+00  0.67100344489E+03  0.67100344489E+03  0.00000000000E+00 0.  1.
         22   -1    0    0    0    0 -0.00000000000E+00 -0.00000000000E+00 -0.12169013522E+04  0.12169013522E+04  0.00000000000E+00 0. -1.
         24    2    1    2    0    0  0.67958495507E+02 -0.10807876173E+03 -0.88420136339E+03  0.89679878246E+03  0.78336641197E+02 0.  0.
         25    2    1    2    0    0 -0.10998273011E+03  0.13232953488E+03 -0.28782555982E+03  0.35790718651E+03  0.12508674810E+03 0.  0.
        -24    2    1    2    0    0  0.42024234605E+02 -0.24250773145E+02  0.62612901585E+03  0.63319882816E+03  0.80926356632E+02 0.  0.
        -13    1    3    3    0    0 -0.13290019550E+02 -0.35449130674E+02 -0.31424394268E+03  0.31651622549E+03  0.00000000000E+00 0.  1.
         14    1    3    3    0    0  0.81248515057E+02 -0.72629631058E+02 -0.56995742071E+03  0.58028255697E+03  0.00000000000E+00 0. -1.
         11    1    5    5    0    0  0.29106907333E+02  0.24322135409E+02  0.16323583730E+03  0.16758495429E+03  0.00000000000E+00 0. -1.
        -12    1    5    5    0    0  0.12917327272E+02 -0.48572908554E+02  0.46289317856E+03  0.46561387387E+03  0.00000000000E+00 0.  1.
          5    1    4    4  501    0 -0.90405793497E+02  0.15683196647E+03 -0.24665619709E+03  0.30598402763E+03  0.41800000000E+01 0.  1.
         -5    1    4    4    0  501 -0.19576936615E+02 -0.24502431588E+02 -0.41169362724E+02  0.51923158879E+02  0.41800000000E+01 0.  1.
</event>
<event>
11    1  0.8037748E-009  0.1576112E+04  0.7561462E-02  0.8267159E-01
         22   -1    0    0    0    0  0.00000000000E+00  0.00000000000E+00  0.43130573980E+03  0.43130573980E+03  0.00000000000E+00 0.  1.
         22   -1    0    0    0    0 -0.00000000000E+00 -0.00000000000E+00 -0.14398878720E+04  0.14398878720E+04  0.00000000000E+00 0.  1.
        -24    2    1    2    0    0  0.20775779689E+03  0.49455266509E+03 -0.86907199601E+03  0.10243646087E+04  0.79316307634E+02 0.  0.
         25    2    1    2    0    0 -0.25951362217E+03 -0.58228843061E+03  0.90423619059E+01  0.64972254236E+03  0.12510188339E+03 0.  0.
         24    2    1    2    0    0  0.51755825275E+02  0.87735765517E+02 -0.14855249808E+03  0.19710646069E+03  0.80043001950E+02 0.  0.
        -13    1    5    5    0    0 -0.43321976297E+01  0.64876687918E+02 -0.52581813918E+02  0.83621765865E+02  0.00000000000E+00 0.  1.
         14    1    5    5    0    0  0.56088022905E+02  0.22859077599E+02 -0.95970684161E+02  0.11348469483E+03  0.00000000000E+00 0. -1.
         11    1    3    3    0    0  0.58866551905E+02  0.17584659186E+03 -0.36881774867E+03  0.41281209592E+03  0.00000000000E+00 0. -1.
        -12    1    3    3    0    0  0.14889124499E+03  0.31870607323E+03 -0.50025424733E+03  0.61155251281E+03  0.00000000000E+00 0.  1.
          5    1    4    4  501    0 -0.26185689124E+03 -0.47674001235E+03  0.10973406444E+02  0.54404775426E+03  0.41800000000E+01 0.  1.
         -5    1    4    4    0  501  0.23432690728E+01 -0.10554841825E+03 -0.19310445385E+01  0.10567478810E+03  0.41800000000E+01 0.  1.
</event>
<event>
11    1  0.8037748E-009  0.2206393E+03  0.7561462E-02  0.1040818E+00
         22   -1    0    0    0    0  0.00000000000E+00  0.00000000000E+00  0.63327945143E+03  0.63327945143E+03  0.00000000000E+00 0. -1.
         22   -1    0    0    0    0 -0.00000000000E+00 -0.00000000000E+00 -0.17309295402E+03  0.17309295402E+03  0.00000000000E+00 0. -1.
         24    2    1    2    0    0 -0.25735811262E+02  0.24386259504E+01 -0.45472298039E+02  0.95695839025E+02  0.80135415641E+02 0.  0.
         25    2    1    2    0    0 -0.40804182399E+02  0.16920418622E+03  0.60028535662E+02  0.22258784387E+03  0.12508751021E+03 0.  0.
        -24    2    1    2    0    0  0.66539993661E+02 -0.17164281217E+03  0.44563025978E+03  0.48808872255E+03  0.75864661861E+02 0.  0.
        -13    1    3    3    0    0  0.10048025574E+02  0.33549193624E+02 -0.29094705210E+02  0.45530353415E+02  0.00000000000E+00 0.  1.
         14    1    3    3    0    0 -0.35783836836E+02 -0.31110567674E+02 -0.16377592829E+02  0.50165485611E+02  0.00000000000E+00 0. -1.
         13    1    5    5    0    0  0.64556130705E+02 -0.17886392786E+03  0.43747969629E+03  0.47702021274E+03  0.00000000000E+00 0. -1.
        -14    1    5    5    0    0  0.19838629560E+01  0.72211156903E+01  0.81505634948E+01  0.11068509806E+02  0.00000000000E+00 0.  1.
          5    1    4    4  501    0  0.40460999084E+02  0.88922985693E+02  0.43748912118E+02  0.10712529833E+03  0.41800000000E+01 0.  1.
         -5    1    4    4    0  501 -0.81265181483E+02  0.80281200523E+02  0.16279623545E+02  0.11546254554E+03  0.41800000000E+01 0.  1.
</event>
<event>
11    1  0.8037748E-009  0.1481444E+03  0.7561462E-02  0.1098790E+00
         22   -1    0    0    0    0  0.00000000000E+00  0.00000000000E+00  0.17638632257E+03  0.17638632257E+03  0.00000000000E+00 0.  1.
         22   -1    0    0    0    0 -0.00000000000E+00 -0.00000000000E+00 -0.85082061956E+03  0.85082061956E+03  0.00000000000E+00 0.  1.
         24    2    1    2    0    0  0.58067449403E+02  0.55078945309E+02 -0.73539469357E+03  0.74401400453E+03  0.79661563494E+02 0.  0.
         25    2    1    2    0    0 -0.34070326345E+02 -0.65854649033E+02 -0.40490906613E+02  0.15096539974E+03  0.12511361422E+03 0.  0.
        -24    2    1    2    0    0 -0.23997123058E+02  0.10775703724E+02  0.10145130319E+03  0.13222753787E+03  0.80621195385E+02 0.  0.
        -13    1    3    3    0    0  0.58275559014E+02  0.38961219093E+02 -0.29089677253E+03  0.29922391221E+03  0.00000000000E+00 0.  1.
         14    1    3    3    0    0 -0.20810961048E+00  0.16117726217E+02 -0.44449792105E+03  0.44479009232E+03  0.00000000000E+00 0. -1.
         13    1    5    5    0    0 -0.97155465726E+01 -0.32377443361E+02  0.20919875859E+02  0.39753388406E+02  0.00000000000E+00 0. -1.
        -14    1    5    5    0    0 -0.14281576486E+02  0.43153147085E+02  0.80531427331E+02  0.92474149459E+02  0.00000000000E+00 0.  1.
          5    1    4    4  501    0 -0.28179612061E+02 -0.51930585107E+02 -0.85097081591E+02  0.10368154079E+03  0.41800000000E+01 0.  1.
         -5    1    4    4    0  501 -0.58907142836E+01 -0.13924063927E+02  0.44606174978E+02  0.47283858950E+02  0.41800000000E+01 0.  1.
</event>
<event>
11    1  0.8037748E-009  0.1943082E+03  0.7561462E-02  0.1058623E+00
         22   -1    0    0    0    0  0.00000000000E+00  0.00000000000E+00  0.47462523979E+03  0.47462523979E+03  0.00000000000E+00 0. -1.
         22   -1    0    0    0    0 -0.00000000000E+00 -0.00000000000E+00 -0.79571801889E+03  0.79571801889E+03  0.00000000000E+00 0. -1.
        -24    2    1    2    0    0  0.21476308406E+02 -0.15103051784E+03 -0.60052670081E+03  0.62421906731E+03  0.75800240547E+02 0.  0.
         25    2    1    2    0    0  0.14287148697E+02  0.13566916956E+03 -0.13054400193E+03  0.22649469643E+03  0.12509142610E+03 0.  0.
         24    2    1    2    0    0 -0.35763457103E+02  0.15361348278E+02  0.40997792364E+03  0.41962949494E+03  0.80573067883E+02 0.  0.
        -13    1    5    5    0    0 -0.34849145450E+02 -0.25232331265E+02  0.13556168473E+03  0.14222553866E+03  0.00000000000E+00 0.  1.
         14    1    5    5    0    0 -0.91431165341E+00  0.40593679542E+02  0.27441623891E+03  0.27740395629E+03  0.00000000000E+00 0. -1.
         11    1    3    3    0    0  0.26917155799E+02 -0.12401044504E+03 -0.56594404374E+03  0.57999636585E+03  0.00000000000E+00 0. -1.
        -12    1    3    3    0    0 -0.54408473933E+01 -0.27020072795E+02 -0.34582657064E+02  0.44222701454E+02  0.00000000000E+00 0.  1.
          5    1    4    4  501    0  0.46599154042E+02  0.88546105578E+02 -0.20198279011E+02  0.10216328521E+03  0.41800000000E+01 0.  1.
         -5    1    4    4    0  501 -0.32312005345E+02  0.47123063984E+02 -0.11034572292E+03  0.12433141121E+03  0.41800000000E+01 0.  1.
</event>
<event>
11    1  0.8037748E-009  0.1737080E+03  0.7561462E-02  0.1074849E+00
         22   -1    0    0    0    0  0.00000000000E+00  0.00000000000E+00  0.24769086416E+04  0.24769086416E+04  0.00000000000E+00 0. -1.
         22   -1    0    0    0    0 -0.00000000000E+00 -0.00000000000E+00 -0.15054133847E+03  0.15054133847E+03  0.00000000000E+00 0. -1.
        -24    2    1    2    0    0 -0.81355179011E+02 -0.77723721435E+02 -0.14714955223E+02  0.13957089798E+03  0.81264159566E+02 0.  0.
         25    2    1    2    0    0  0.49637526708E+02  0.13795478563E+03  0.56518406437E+02  0.20084190324E+03  0.12509089852E+03 0.  0.
         24    2    1    2    0    0  0.31717652303E+02 -0.60231064199E+02  0.22845638519E+04  0.22870371788E+04  0.81690105837E+02 0.  0.
        -13    1    5    5    0    0 -0.23120586312E+02  0.18267489528E+01  0.57790915253E+03  0.57837434859E+03  0.00000000000E+00 0.  1.
         14    1    5    5    0    0  0.54838238615E+02 -0.62057813152E+02  0.17066546994E+04  0.17086628302E+04  0.00000000000E+00 0. -1.
         13    1    3    3    0    0 -0.80178961050E+02 -0.91533521106E+02 -0.34875835193E+01  0.12173419618E+03  0.00000000000E+00 0. -1.
        -14    1    3    3    0    0 -0.11762179608E+01  0.13809799671E+02 -0.11227371704E+02  0.17836701798E+02  0.00000000000E+00 0.  1.
          5    1    4    4  501    0 -0.40888733445E+02  0.58052315555E+02  0.12291824094E+02  0.72183940067E+02  0.41800000000E+01 0. -1.
         -5    1    4    4    0  501  0.90526260153E+02  0.79902470080E+02  0.44226582343E+02  0.12865796317E+03  0.41800000000E+01 0. -1.
</event>
<event>
11    1  0.9029364E-009  0.1959910E+03  0.7561462E-02  0.1057395E+00
         22   -1    0    0    0    0  0.00000000000E+00  0.00000000000E+00  0.15942987417E+04  0.15942987417E+04  0.00000000000E+00 0. -1.
         22   -1    0    0    0    0 -0.00000000000E+00 -0.00000000000E+00 -0.14570175744E+04  0.14570175744E+04  0.00000000000E+00 0. -1.
        -24    2    1    2    0    0 -0.14599180278E+03 -0.32515375070E+02 -0.13830057482E+04  0.13934030261E+04  0.80599240062E+02 0.  0.
         25    2    1    2    0    0  0.19437989446E+03  0.12688166926E+03  0.20018201208E+03  0.33106463768E+03  0.12509378480E+03 0.  0.
         24    2    1    2    0    0 -0.48388091684E+02 -0.94366294191E+02  0.13201049034E+04  0.13268486523E+04  0.81264908585E+02 0.  0.
        -11    1    5    5    0    0 -0.85838413534E+01 -0.56492676819E+01  0.15329988449E+02  0.18455489795E+02  0.00000000000E+00 0.  1.
         12    1    5    5    0    0 -0.39804250331E+02 -0.88717026509E+02  0.13047749149E+04  0.13083931625E+04  0.00000000000E+00 0. -1.
         11    1    3    3    0    0 -0.11701525284E+03 -0.27206156392E+02 -0.12957748030E+04  0.13013320423E+04  0.00000000000E+00 0. -1.
        -12    1    3    3    0    0 -0.28976549943E+02 -0.53092186775E+01 -0.87230945209E+02  0.92070983766E+02  0.00000000000E+00 0.  1.
          5    1    4    4  501    0  0.17896068193E+03  0.55405976409E+02  0.16558378652E+03  0.25006441302E+03  0.41800000000E+01 0.  1.
         -5    1    4    4    0  501  0.15419212536E+02  0.71475692852E+02  0.34598225554E+02  0.81000224663E+02  0.41800000000E+01 0.  1.
</event>
<event>
11    1  0.8037748E-009  0.2150662E+03  0.7561462E-02  0.1044353E+00
         22   -1    0    0    0    0  0.00000000000E+00  0.00000000000E+00  0.57707825761E+03  0.57707825761E+03  0.00000000000E+00 0.  1.
         22   -1    0    0    0    0 -0.00000000000E+00 -0.00000000000E+00 -0.20925407143E+04  0.20925407143E+04  0.00000000000E+00 0. -1.
        -24    2    1    2    0    0  0.13835837017E+03 -0.10688139903E+03 -0.20142827423E+04  0.20234478201E+04  0.80246138560E+02 0.  0.
         25    2    1    2    0    0 -0.12148738221E+03  0.13871232407E+03  0.11148335946E+03  0.24912226134E+03  0.12503227094E+03 0.  0.
         24    2    1    2    0    0 -0.16870987958E+02 -0.31830925031E+02  0.38733692609E+03  0.39704889051E+03  0.79498988158E+02 0.  0.
        -13    1    5    5    0    0  0.20903631149E+02 -0.58786974736E+01  0.27309339989E+03  0.27395533567E+03  0.00000000000E+00 0.  1.
         14    1    5    5    0    0 -0.37774619107E+02 -0.25952227557E+02  0.11424352620E+03  0.12309355484E+03  0.00000000000E+00 0. -1.
         11    1    3    3    0    0  0.13068843472E+03 -0.10127240059E+03 -0.19960674160E+04  0.20029030669E+04  0.00000000000E+00 0. -1.
        -12    1    3    3    0    0  0.76699354491E+01 -0.56089984487E+01 -0.18215326283E+02  0.20544753223E+02  0.00000000000E+00 0.  1.
          5    1    4    4  501    0 -0.13500159161E+03  0.81941672833E+02  0.53608249849E+02  0.16682680941E+03  0.41800000000E+01 0.  1.
         -5    1    4    4    0  501  0.13514209405E+02  0.56770651233E+02  0.57875109608E+02  0.82295451936E+02  0.41800000000E+01 0.  1.
</event>
<event>
11    1  0.8037748E-009  0.1609004E+03  0.7561462E-02  0.1086233E+00
         22   -1    0    0    0    0  0.00000000000E+00  0.00000000000E+00  0.24741944376E+03  0.24741944376E+03  0.00000000000E+00 0.  1.
         22   -1    0    0    0    0 -0.00000000000E+00 -0.00000000000E+00 -0.31115413319E+04  0.31115413319E+04  0.00000000000E+00 0. -1.
        -24    2    1    2    0    0 -0.10038719676E+03  0.24841320243E+01 -0.29134015761E+04  0.29162335245E+04  0.80159003758E+02 0.  0.
         25    2    1    2    0    0  0.12397650742E+03 -0.38354575096E+01 -0.14718171126E+03  0.22955229802E+03  0.12508763436E+03 0.  0.
         24    2    1    2    0    0 -0.23589310655E+02  0.13513254852E+01  0.19646139923E+03  0.21317495308E+03  0.79298156190E+02 0.  0.
        -13    1    5    5    0    0 -0.42504290533E+02 -0.14521764796E+02  0.17430449354E+03  0.17999875787E+03  0.00000000000E+00 0.  1.
         14    1    5    5    0    0  0.18914979878E+02  0.15873090281E+02  0.22156905693E+02  0.33176195212E+02  0.00000000000E+00 0. -1.
         11    1    3    3    0    0 -0.72997323138E+02 -0.15239270540E+02 -0.10935801464E+04  0.10961196929E+04  0.00000000000E+00 0. -1.
        -12    1    3    3    0    0 -0.27389873625E+02  0.17723402565E+02 -0.18198214297E+04  0.18201138316E+04  0.00000000000E+00 0.  1.
          5    1    4    4  501    0  0.12880125237E+03  0.89250635799E+01 -0.62184770145E+02  0.14336609575E+03  0.41800000000E+01 0. -1.
         -5    1    4    4    0  501 -0.48247449524E+01 -0.12760521089E+02 -0.84996941114E+02  0.86186202267E+02  0.41800000000E+01 0. -1.
</event>
<event>
11    1  0.8037748E-009  0.1440180E+03  0.7561462E-02  0.1103153E+00
         22   -1    0    0    0    0  0.00000000000E+00  0.00000000000E+00  0.63190999714E+03  0.63190999714E+03  0.00000000000E+00 0.  1.
         22   -1    0    0    0    0 -0.00000000000E+00 -0.00000000000E+00 -0.14007524920E+04  0.14007524920E+04  0.00000000000E+00 0. -1.
         24    2    1    2    0    0 -0.70948765170E+02  0.90610748573E+01 -0.13445648774E+04  0.13488781887E+04  0.80633912582E+02 0.  0.
         25    2    1    2    0    0  0.61241441835E+02 -0.27868609995E+02  0.47662695940E+02  0.14982056946E+03  0.12508915552E+03 0.  0.
        -24    2    1    2    0    0  0.97073233355E+01  0.18807535137E+02  0.52805968666E+03  0.53396373099E+03  0.76303852044E+02 0.  0.
        -13    1    3    3    0    0 -0.25673420684E+02  0.27345311535E+02 -0.10172554803E+04  0.10179467583E+04  0.00000000000E+00 0.  1.
         14    1    3    3    0    0 -0.45275344486E+02 -0.18284236677E+02 -0.32730939718E+03  0.33093143038E+03  0.00000000000E+00 0. -1.
         11    1    5    5    0    0  0.41238192324E+02  0.15737192877E+02  0.22775387299E+03  0.23199153952E+03  0.00000000000E+00 0. -1.
        -12    1    5    5    0    0 -0.31530868989E+02  0.30703422600E+01  0.30030581366E+03  0.30197219147E+03  0.00000000000E+00 0.  1.
          5    1    4    4  501    0 -0.27241773519E+02 -0.42850840039E+02  0.78332557969E+01  0.51547463690E+02  0.41800000000E+01 0.  1.
         -5    1    4    4    0  501  0.88483215353E+02  0.14982230045E+02  0.39829440143E+02  0.98273105774E+02  0.41800000000E+01 0.  1.
</event>
<event>
11    1  0.8037748E-009  0.1745950E+03  0.7561462E-02  0.1074101E+00
         22   -1    0    0    0    0  0.00000000000E+00  0.00000000000E+00  0.41382612903E+03  0.41382612903E+03  0.00000000000E+00 0.  1.
         22   -1    0    0    0    0 -0.00000000000E+00 -0.00000000000E+00 -0.34115251606E+03  0.34115251606E+03  0.00000000000E+00 0.  1.
         24    2    1    2    0    0 -0.12030195479E+03 -0.12466501901E+02 -0.23478654411E+03  0.27553575220E+03  0.78531875398E+02 0.  0.
         25    2    1    2    0    0  0.12347556435E+03  0.28707511475E+02  0.18940390941E+02  0.17910086300E+03  0.12509214409E+03 0.  0.
        -24    2    1    2    0    0 -0.31736095573E+01 -0.16241009574E+02  0.28851976613E+03  0.30034202989E+03  0.81779198320E+02 0.  0.
        -11    1    3    3    0    0 -0.13016277462E+03 -0.82798688218E+01 -0.22853218590E+03  0.26313088780E+03  0.00000000000E+00 0.  1.
         12    1    3    3    0    0  0.98608198286E+01 -0.41866330793E+01 -0.62543582063E+01  0.12404864401E+02  0.00000000000E+00 0. -1.
         11    1    5    5    0    0 -0.31748027614E+02 -0.72616243401E+00  0.47492020837E+02  0.57131047710E+02  0.00000000000E+00 0. -1.
        -12    1    5    5    0    0  0.28574418057E+02 -0.15514847140E+02  0.24102774529E+03  0.24321098218E+03  0.00000000000E+00 0.  1.
          5    1    4    4  501    0  0.11391199317E+03 -0.29132041421E+02  0.24119901112E+02  0.12009937575E+03  0.41800000000E+01 0. -1.
         -5    1    4    4    0  501  0.95635711785E+01  0.57839552896E+02 -0.51795101715E+01  0.59001487257E+02  0.41800000000E+01 0. -1.
</event>
<event>
11    1  0.8037748E-009  0.1300867E+03  0.7561462E-02  0.1119162E+00
         22   -1    0    0    0    0  0.00000000000E+00  0.00000000000E+00  0.13476716173E+04  0.13476716173E+04  0.00000000000E+00 0.  1.
         22   -1    0    0    0    0 -0.00000000000E+00 -0.00000000000E+00 -0.80731767274E+02  0.80731767274E+02  0.00000000000E+00 0.  1.
        -24    2    1    2    0    0  0.21541366900E+02 -0.85423777931E+01 -0.35309046694E+02  0.91659927776E+02  0.81349928550E+02 0.  0.
         25    2    1    2    0    0 -0.18407937559E+02  0.42850741520E+02  0.29546212423E+03  0.32422012719E+03  0.12508311559E+03 0.  0.
         24    2    1    2    0    0 -0.31334293405E+01 -0.34308363727E+02  0.10067867725E+04  0.10125233296E+04  0.10196570770E+03 0.  0.
        -13    1    5    5    0    0  0.69333937394E+00 -0.60677259096E+02  0.91329714680E+03  0.91531081543E+03  0.00000000000E+00 0.  1.
         14    1    5    5    0    0 -0.38267687144E+01  0.26368895369E+02  0.93489625683E+02  0.97212514175E+02  0.00000000000E+00 0. -1.
         11    1    3    3    0    0 -0.16265294564E+02 -0.15716709703E+02  0.15868225834E+02  0.27629248311E+02  0.00000000000E+00 0. -1.
        -12    1    3    3    0    0  0.37806661463E+02  0.71743319100E+01 -0.51177272527E+02  0.64030679465E+02  0.00000000000E+00 0.  1.
          5    1    4    4  501    0 -0.10374703526E+02  0.87295553852E+02  0.18817435055E+03  0.20773831327E+03  0.41800000000E+01 0.  1.
         -5    1    4    4    0  501 -0.80332340330E+01 -0.44444812331E+02  0.10728777368E+03  0.11648181391E+03  0.41800000000E+01 0.  1.
</event>
<event>
11    1  0.8037748E-009  0.1390832E+03  0.7561462E-02  0.1108586E+00
         22   -1    0    0    0    0  0.00000000000E+00  0.00000000000E+00  0.50900206049E+03  0.50900206049E+03  0.00000000000E+00 0. -1.
         22   -1    0    0    0    0 -0.00000000000E+00 -0.00000000000E+00 -0.23251773073E+03  0.23251773073E+03  0.00000000000E+00 0.  1.
        -24    2    1    2    0    0  0.28886893490E+02  0.14517118355E+02 -0.17829321473E+03  0.19770125839E+03  0.79070334572E+02 0.  0.
         25    2    1    2    0    0 -0.47451411649E+02  0.43980159682E+02  0.93358116888E+02  0.16896696329E+03  0.12509278869E+03 0.  0.
         24    2    1    2    0    0  0.18564518159E+02 -0.58497278037E+02  0.36141942760E+03  0.37485156954E+03  0.78250390840E+02 0.  0.
        -11    1    5    5    0    0  0.33304529693E+02 -0.98363851329E+00  0.71054060574E+02  0.78478269392E+02  0.00000000000E+00 0.  1.
         12    1    5    5    0    0 -0.14740011534E+02 -0.57513639523E+02  0.29036536703E+03  0.29637330015E+03  0.00000000000E+00 0. -1.
         13    1    3    3    0    0 -0.96197281239E+01  0.31390811100E+02 -0.33410515825E+02  0.46842125895E+02  0.00000000000E+00 0. -1.
        -14    1    3    3    0    0  0.38506621614E+02 -0.16873692745E+02 -0.14488269891E+03  0.15085913250E+03  0.00000000000E+00 0.  1.
          5    1    4    4  501    0 -0.24866917649E+02  0.44108869372E+02  0.12205652340E+03  0.13220901352E+03  0.41800000000E+01 0. -1.
         -5    1    4    4    0  501 -0.22584494000E+02 -0.12870969045E+00 -0.28698406510E+02  0.36757949775E+02  0.41800000000E+01 0. -1.
</event>
<event>
11    1  0.8037748E-009  0.1479985E+03  0.7561462E-02  0.1098942E+00
         22   -1    0    0    0    0  0.00000000000E+00  0.00000000000E+00  0.19687111485E+03  0.19687111485E+03  0.00000000000E+00 0. -1.
         22   -1    0    0    0    0 -0.00000000000E+00 -0.00000000000E+00 -0.48143997400E+03  0.48143997400E+03  0.00000000000E+00 0.  1.
        -24    2    1    2    0    0  0.18343911040E+02 -0.38580850965E+02 -0.32600353449E+03  0.33659050159E+03  0.72040822628E+02 0.  0.
         25    2    1    2    0    0  0.62574159081E+02  0.44365831949E+02 -0.86567951875E+02  0.17037103437E+03  0.12509367143E+03 0.  0.
         24    2    1    2    0    0 -0.80918070120E+02 -0.57849809839E+01  0.12800262721E+03  0.17134955290E+03  0.79967472322E+02 0.  0.
        -13    1    5    5    0    0  0.41038532554E+01  0.18145079234E+02  0.38721404167E+01  0.19002078395E+02  0.00000000000E+00 0.  1.
         14    1    5    5    0    0 -0.85021923376E+02 -0.23930060217E+02  0.12413048679E+03  0.15234747450E+03  0.00000000000E+00 0. -1.
         11    1    3    3    0    0 -0.39293626568E+01  0.11903515606E+01  0.25873309539E+01  0.48529485049E+01  0.00000000000E+00 0. -1.
        -12    1    3    3    0    0  0.22273273696E+02 -0.39771202526E+02 -0.32859086544E+03  0.33173755308E+03  0.00000000000E+00 0.  1.
          5    1    4    4  501    0  0.35539571433E+02 -0.28290390756E+00 -0.10801327652E+03  0.11378700047E+03  0.41800000000E+01 0.  1.
         -5    1    4    4    0  501  0.27034587647E+02  0.44648735857E+02  0.21445324644E+02  0.56584033896E+02  0.41800000000E+01 0.  1.
</event>
<event>
11    1  0.8037748E-009  0.1311329E+03  0.7561462E-02  0.1117885E+00
         22   -1    0    0    0    0  0.00000000000E+00  0.00000000000E+00  0.53807258129E+02  0.53807258129E+02  0.00000000000E+00 0.  1.
         22   -1    0    0    0    0 -0.00000000000E+00 -0.00000000000E+00 -0.20159924209E+04  0.20159924209E+04  0.00000000000E+00 0. -1.
        -24    2    1    2    0    0  0.28914316660E+02  0.19914963206E+02 -0.93850014897E+03  0.94249915076E+03  0.79306217181E+02 0.  0.
         25    2    1    2    0    0 -0.52940879161E+02 -0.42234653200E+01 -0.10322503050E+04  0.10411573096E+04  0.12508907527E+03 0.  0.
         24    2    1    2    0    0  0.24026562501E+02 -0.15691497886E+02  0.85652912064E+01  0.86143218700E+02  0.80769988876E+02 0.  0.
        -13    1    5    5    0    0  0.43495542323E+02 -0.15512076733E+02  0.31620099179E+02  0.55967109972E+02  0.00000000000E+00 0.  1.
         14    1    5    5    0    0 -0.19468979823E+02 -0.17942115276E+00 -0.23054807973E+02  0.30176108728E+02  0.00000000000E+00 0. -1.
         11    1    3    3    0    0  0.18867714128E+02 -0.27039132940E+02 -0.22717499781E+03  0.22955518939E+03  0.00000000000E+00 0. -1.
        -12    1    3    3    0    0  0.10046602532E+02  0.46954096145E+02 -0.71132515117E+03  0.71294396137E+03  0.00000000000E+00 0.  1.
          5    1    4    4  501    0  0.26809821541E+02 -0.25265268347E+02 -0.59643018368E+03  0.59758140594E+03  0.41800000000E+01 0.  1.
         -5    1    4    4    0  501 -0.79750700702E+02  0.21041803028E+02 -0.43582012134E+03  0.44357590365E+03  0.41800000000E+01 0.  1.
</event>
<event>
11    1  0.8037748E-009  0.2255453E+03  0.7561462E-02  0.1037798E+00
         22   -1    0    0    0    0  0.00000000000E+00  0.00000000000E+00  0.50656639719E+03  0.50656639719E+03  0.00000000000E+00 0.  1.
         22   -1    0    0    0    0 -0.00000000000E+00 -0.00000000000E+00 -0.10954768600E+04  0.10954768600E+04  0.00000000000E+00 0. -1.
         24    2    1    2    0    0 -0.20729436094E+02 -0.98624167746E+02 -0.97221555851E+03  0.97991659074E+03  0.69835496731E+02 0.  0.
         25    2    1    2    0    0 -0.56334742860E+02  0.24663844820E+03  0.13603106839E+03  0.31329864402E+03  0.12508981330E+03 0.  0.
        -24    2    1    2    0    0  0.77064178955E+02 -0.14801428045E+03  0.24727402732E+03  0.30882802241E+03  0.79894855555E+02 0.  0.
        -11    1    3    3    0    0 -0.27854867434E+02 -0.54867638006E+02 -0.30026590979E+03  0.30650606507E+03  0.00000000000E+00 0.  1.
         12    1    3    3    0    0  0.71254313400E+01 -0.43756529740E+02 -0.67194964872E+03  0.67341052567E+03  0.00000000000E+00 0. -1.
         13    1    5    5    0    0  0.23425012646E+02 -0.53998603283E+02  0.29954310625E+02  0.66044235925E+02  0.00000000000E+00 0. -1.
        -14    1    5    5    0    0  0.53639166308E+02 -0.94015677167E+02  0.21731971670E+03  0.24278378649E+03  0.00000000000E+00 0.  1.
          5    1    4    4  501    0 -0.49576530317E+01  0.19944547181E+03  0.56440069935E+02  0.20737894889E+03  0.41800000000E+01 0. -1.
         -5    1    4    4    0  501 -0.51377089829E+02  0.47192976385E+02  0.79590998459E+02  0.10591969512E+03  0.41800000000E+01 0. -1.
</event>
<event>
11    1  0.8037748E-009  0.1733199E+03  0.7561462E-02  0.1075178E+00
         22   -1    0    0    0    0  0.00000000000E+00  0.00000000000E+00  0.42428301588E+03  0.42428301588E+03  0.00000000000E+00 0.  1.
         22   -1    0    0    0    0 -0.00000000000E+00 -0.00000000000E+00 -0.78982903324E+03  0.78982903324E+03  0.00000000000E+00 0. -1.
        -24    2    1    2    0    0 -0.10448401138E+02 -0.18261607583E+02 -0.72291115798E+03  0.72763394359E+03  0.80049722868E+02 0.  0.
         25    2    1    2    0    0  0.11765093081E+03  0.58726251096E+02  0.14607027417E+03  0.23296795849E+03  0.12508809135E+03 0.  0.
         24    2    1    2    0    0 -0.10720252967E+03 -0.40464643513E+02  0.21129486646E+03  0.25351014704E+03  0.80573595676E+02 0.  0.
        -11    1    5    5    0    0 -0.10614590744E+03 -0.49804293014E+02  0.21374962184E+03  0.24379565645E+03  0.00000000000E+00 0.  1.
         12    1    5    5    0    0 -0.10566222340E+01  0.93396495008E+01 -0.24547553878E+01  0.97144905866E+01  0.00000000000E+00 0. -1.
         11    1    3    3    0    0 -0.18332749796E+02 -0.30106172013E+02 -0.69842439669E+03  0.69931331261E+03  0.00000000000E+00 0. -1.
        -12    1    3    3    0    0  0.78843486576E+01  0.11844564430E+02 -0.24486761295E+02  0.28320630978E+02  0.00000000000E+00 0.  1.
          5    1    4    4  501    0 -0.22447684467E+02  0.11254894811E+02  0.60795690581E+00  0.25463958976E+02  0.41800000000E+01 0. -1.
         -5    1    4    4    0  501  0.14009861528E+03  0.47471356285E+02  0.14546231727E+03  0.20750399951E+03  0.41800000000E+01 0. -1.
</event>
<event>
11    1  0.8037748E-009  0.2768205E+03  0.7561462E-02  0.1010508E+00
         22   -1    0    0    0    0  0.00000000000E+00  0.00000000000E+00  0.14029572624E+04  0.14029572624E+04  0.00000000000E+00 0. -1.
         22   -1    0    0    0    0 -0.00000000000E+00 -0.00000000000E+00 -0.15941182105E+04  0.15941182105E+04  0.00000000000E+00 0.  1.
         24    2    1    2    0    0  0.46877233429E+02  0.15852595611E+02 -0.13216961255E+04  0.13251742593E+04  0.82203343155E+02 0.  0.
         25    2    1    2    0    0  0.16585737054E+03 -0.14417610027E+03 -0.19599861604E+03  0.31993432244E+03  0.12508836051E+03 0.  0.
        -24    2    1    2    0    0 -0.21273460397E+03  0.12832350466E+03  0.13265337935E+04  0.13519668912E+04  0.79997724826E+02 0.  0.
        -11    1    3    3    0    0  0.15309901067E+02  0.46531029537E+01 -0.11567970468E+04  0.11569077111E+04  0.00000000000E+00 0.  1.
         12    1    3    3    0    0  0.31567332362E+02  0.11199492657E+02 -0.16489907866E+03  0.16826654822E+03  0.00000000000E+00 0. -1.
         13    1    5    5    0    0 -0.16738367638E+03  0.13479883091E+03  0.10687720412E+04  0.10901659029E+04  0.00000000000E+00 0. -1.
        -14    1    5    5    0    0 -0.45350927588E+02 -0.64753262431E+01  0.25776175233E+03  0.26180098825E+03  0.00000000000E+00 0.  1.
          5    1    4    4  501    0  0.13052175384E+02 -0.81448857760E+02 -0.96653559524E+02  0.12713637828E+03  0.41800000000E+01 0.  1.
         -5    1    4    4    0  501  0.15280519516E+03 -0.62727242514E+02 -0.99345056518E+02  0.19279794417E+03  0.41800000000E+01 0.  1.
</event>
<event>
11    1  0.8037748E-009  0.1392611E+03  0.7561462E-02  0.1108386E+00
         22   -1    0    0    0    0  0.00000000000E+00  0.00000000000E+00  0.47786345914E+03  0.47786345914E+03  0.00000000000E+00 0.  1.
         22   -1    0    0    0    0 -0.00000000000E+00 -0.00000000000E+00 -0.90195349305E+03  0.90195349305E+03  0.00000000000E+00 0. -1.
        -24    2    1    2    0    0 -0.63753367379E+02  0.53274136027E+01 -0.78852813197E+03  0.79532766001E+03  0.81710456301E+02 0.  0.
         25    2    1    2    0    0  0.18602137082E+02 -0.52741620159E+02 -0.58540440358E+02  0.14900230484E+03  0.12508791184E+03 0.  0.
         24    2    1    2    0    0  0.45151230297E+02  0.47414206556E+02  0.42297853842E+03  0.43548698734E+03  0.80320181734E+02 0.  0.
        -11    1    5    5    0    0  0.31603890305E+02 -0.78275738312E+01  0.27554947792E+03  0.27746637918E+03  0.00000000000E+00 0.  1.
         12    1    5    5    0    0  0.13547339992E+02  0.55241780387E+02  0.14742906050E+03  0.15802060816E+03  0.00000000000E+00 0. -1.
         13    1    3    3    0    0 -0.39925643839E+02  0.44576298746E+01 -0.74162099407E+03  0.74270830502E+03  0.00000000000E+00 0. -1.
        -14    1    3    3    0    0 -0.23827723540E+02  0.86978372814E+00 -0.46907137902E+02  0.52619354984E+02  0.00000000000E+00 0.  1.
          5    1    4    4  501    0 -0.70666507223E+01 -0.47801553094E+02  0.29702752640E+02  0.56874000607E+02  0.41800000000E+01 0. -1.
         -5    1    4    4    0  501  0.25668787805E+02 -0.49400670643E+01 -0.88243192998E+02  0.92128304230E+02  0.41800000000E+01 0. -1.
</event>
<event>
11    1  0.8037748E-009  0.1296282E+03  0.7561462E-02  0.1119727E+00
         22   -1    0    0    0    0  0.00000000000E+00  0.00000000000E+00  0.31953212990E+03  0.31953212990E+03  0.00000000000E+00 0. -1.
         22   -1    0    0    0    0 -0.00000000000E+00 -0.00000000000E+00 -0.51274841406E+03  0.51274841406E+03  0.00000000000E+00 0.  1.
         24    2    1    2    0    0  0.45634928562E+02 -0.12853970851E+01 -0.38271047737E+03  0.39246068589E+03  0.73985684616E+02 0.  0.
         25    2    1    2    0    0 -0.11263088860E+02  0.13301151574E+02 -0.84472046264E+02  0.15193182935E+03  0.12507588243E+03 0.  0.
        -24    2    1    2    0    0 -0.34371839702E+02 -0.12015754489E+02  0.27396623948E+03  0.28788802872E+03  0.80599100394E+02 0.  0.
        -13    1    3    3    0    0  0.52688272855E+02 -0.20147437571E+02 -0.34619461696E+03  0.35076015474E+03  0.00000000000E+00 0.  1.
         14    1    3    3    0    0 -0.70533442926E+01  0.18862040485E+02 -0.36515860409E+02  0.41700531152E+02  0.00000000000E+00 0. -1.
         11    1    5    5    0    0 -0.27326312942E+02  0.10029527588E+02  0.25831264770E+03  0.25994757695E+03  0.00000000000E+00 0. -1.
        -12    1    5    5    0    0 -0.70455267600E+01 -0.22045282077E+02  0.15653591779E+02  0.27940451764E+02  0.00000000000E+00 0.  1.
          5    1    4    4  501    0  0.32569327358E+01  0.39215779977E+02  0.19216432685E+02  0.43991234300E+02  0.41800000000E+01 0.  1.
         -5    1    4    4    0  501 -0.14520021596E+02 -0.25914628403E+02 -0.10368847895E+03  0.10794059505E+03  0.41800000000E+01 0.  1.
</event>
<event>
11    1  0.8037748E-009  0.1442123E+03  0.7561462E-02  0.1102944E+00
         22   -1    0    0    0    0  0.00000000000E+00  0.00000000000E+00  0.68213314907E+03  0.68213314907E+03  0.00000000000E+00 0.  1.
         22   -1    0    0    0    0 -0.00000000000E+00 -0.00000000000E+00 -0.32047123346E+03  0.32047123346E+03  0.00000000000E+00 0. -1.
        -24    2    1    2    0    0 -0.10509890287E+02  0.70138729660E+01 -0.19412470854E+03  0.21093478223E+03  0.81544022951E+02 0.  0.
         25    2    1    2    0    0 -0.56761048912E+02  0.19334326364E+02 -0.70767393394E+02  0.15573040871E+03  0.12509317879E+03 0.  0.
         24    2    1    2    0    0  0.67270939200E+02 -0.26348199330E+02  0.62655401755E+03  0.63593919160E+03  0.81419356622E+02 0.  0.
        -13    1    5    5    0    0  0.51797010419E+02 -0.49723575455E+02  0.54483203200E+03  0.54954281666E+03  0.00000000000E+00 0.  1.
         14    1    5    5    0    0  0.15473928780E+02  0.23375376124E+02  0.81721985549E+02  0.86396374941E+02  0.00000000000E+00 0. -1.
         11    1    3    3    0    0  0.22456878809E+02  0.21145933652E+02 -0.15424031042E+03  0.15729442226E+03  0.00000000000E+00 0. -1.
        -12    1    3    3    0    0 -0.32966769096E+02 -0.14132060686E+02 -0.39884398123E+02  0.53640359968E+02  0.00000000000E+00 0.  1.
          5    1    4    4  501    0  0.37043342980E+02  0.52328414342E+01 -0.42255697546E+02  0.56591591811E+02  0.41800000000E+01 0. -1.
         -5    1    4    4    0  501 -0.93804391893E+02  0.14101484930E+02 -0.28511695848E+02  0.99138816897E+02  0.41800000000E+01 0. -1.
</event>
<event>
11    1  0.8037748E-009  0.1589037E+03  0.7561462E-02  0.1088113E+00
         22   -1    0    0    0    0  0.00000000000E+00  0.00000000000E+00  0.13111003799E+04  0.13111003799E+04  0.00000000000E+00 0.  1.
         22   -1    0    0    0    0 -0.00000000000E+00 -0.00000000000E+00 -0.15992874415E+03  0.15992874415E+03  0.00000000000E+00 0. -1.
         24    2    1    2    0    0 -0.41913852671E+02 -0.20786217646E+02 -0.12517640281E+03  0.15622684925E+03  0.80925019111E+02 0.  0.
         25    2    1    2    0    0  0.11149754093E+03  0.72445214124E+02  0.56013839161E+03  0.58913460827E+03  0.12507820842E+03 0.  0.
        -24    2    1    2    0    0 -0.69583688262E+02 -0.51658996478E+02  0.71620964694E+03  0.72566766653E+03  0.78273637246E+02 0.  0.
        -11    1    3    3    0    0 -0.24258214065E+02 -0.31528602318E+02 -0.12540537234E+02  0.41710655567E+02  0.00000000000E+00 0.  1.
         12    1    3    3    0    0 -0.17655638606E+02  0.10742384671E+02 -0.11263586557E+03  0.11451619369E+03  0.00000000000E+00 0. -1.
         11    1    5    5    0    0  0.79796016015E+01 -0.20621490941E+02  0.56227426436E+02  0.60418899476E+02  0.00000000000E+00 0. -1.
        -12    1    5    5    0    0 -0.77563289863E+02 -0.31037505536E+02  0.65998222050E+03  0.66524876705E+03  0.00000000000E+00 0.  1.
          5    1    4    4  501    0  0.50890909739E+01  0.51116655636E+02  0.33757245027E+03  0.34148417666E+03  0.41800000000E+01 0.  1.
         -5    1    4    4    0  501  0.10640844996E+03  0.21328558488E+02  0.22256594134E+03  0.24765043160E+03  0.41800000000E+01 0.  1.
</event>
<event>
11    1  0.8037748E-009  0.1359444E+03  0.7561462E-02  0.1112174E+00
         22   -1    0    0    0    0  0.00000000000E+00  0.00000000000E+00  0.14995310210E+04  0.14995310210E+04  0.00000000000E+00 0. -1.
         22   -1    0    0    0    0 -0.00000000000E+00 -0.00000000000E+00 -0.12493783267E+04  0.12493783267E+04  0.00000000000E+00 0. -1.
         24    2    1    2    0    0 -0.16216664527E+02 -0.50272172960E+02 -0.11923760132E+04  0.11962883441E+04  0.80962792364E+02 0.  0.
         25    2    1    2    0    0  0.40649366252E+01  0.76197180767E+02  0.46199748255E+02  0.15363844938E+03  0.12509125598E+03 0.  0.
        -24    2    1    2    0    0  0.12151727901E+02 -0.25925007807E+02  0.13963289593E+04  0.13989825541E+04  0.81227173310E+02 0.  0.
        -11    1    3    3    0    0 -0.68444643828E+01 -0.32821652368E+02 -0.14905252847E+03  0.15277684314E+03  0.00000000000E+00 0.  1.
         12    1    3    3    0    0 -0.93722001437E+01 -0.17450520591E+02 -0.10433234848E+04  0.10435115010E+04  0.00000000000E+00 0. -1.
         11    1    5    5    0    0 -0.98599241881E+00  0.10721115564E+02  0.11063153361E+04  0.11063677225E+04  0.00000000000E+00 0. -1.
        -12    1    5    5    0    0  0.13137720320E+02 -0.36646123371E+02  0.29001362321E+03  0.29261483164E+03  0.00000000000E+00 0.  1.
          5    1    4    4  501    0 -0.40491950147E+02  0.52053507760E+01 -0.21026612022E+02  0.46111652719E+02  0.41800000000E+01 0. -1.
         -5    1    4    4    0  501  0.44556886772E+02  0.70991829991E+02  0.67226360278E+02  0.10752679666E+03  0.41800000000E+01 0. -1.
</event>
<event>
11    1  0.8037748E-009  0.1486080E+03  0.7561462E-02  0.1098310E+00
         22   -1    0    0    0    0  0.00000000000E+00  0.00000000000E+00  0.13126580928E+04  0.13126580928E+04  0.00000000000E+00 0. -1.
         22   -1    0    0    0    0 -0.00000000000E+00 -0.00000000000E+00 -0.78221361629E+03  0.78221361629E+03  0.00000000000E+00 0.  1.
         24    2    1    2    0    0  0.21608952889E+02 -0.65743664636E+01 -0.66185573266E+03  0.66719950639E+03  0.81191140765E+02 0.  0.
         25    2    1    2    0    0  0.41558700637E+02  0.56526616327E+02 -0.70110020985E+02  0.15964323353E+03  0.12509261776E+03 0.  0.
        -24    2    1    2    0    0 -0.63167653527E+02 -0.49952249864E+02  0.12624102302E+04  0.12680289692E+04  0.87934621892E+02 0.  0.
        -13    1    3    3    0    0 -0.46691248559E+01 -0.66092658349E+01 -0.59922134191E+03  0.59927597960E+03  0.00000000000E+00 0.  1.
         14    1    3    3    0    0  0.26278077745E+02  0.34899371296E-01 -0.62634390750E+02  0.67923526797E+02  0.00000000000E+00 0. -1.
         11    1    5    5    0    0 -0.81863666208E+02 -0.47866755970E+02  0.86685315594E+03  0.87202481624E+03  0.00000000000E+00 0. -1.
        -12    1    5    5    0    0  0.18696012682E+02 -0.20854938939E+01  0.39555707424E+03  0.39600415296E+03  0.00000000000E+00 0.  1.
          5    1    4    4  501    0 -0.74241814774E+01 -0.36004682432E+02 -0.80535306205E+01  0.37865385026E+02  0.41800000000E+01 0. -1.
         -5    1    4    4    0  501  0.48982882115E+02  0.92531298760E+02 -0.62056490364E+02  0.12177784851E+03  0.41800000000E+01 0. -1.
</event>
<event>
11    1  0.8037748E-009  0.1274216E+03  0.7561462E-02  0.1122478E+00
         22   -1    0    0    0    0  0.00000000000E+00  0.00000000000E+00  0.18468610423E+03  0.18468610423E+03  0.00000000000E+00 0. -1.
         22   -1    0    0    0    0 -0.00000000000E+00 -0.00000000000E+00 -0.52473288701E+03  0.52473288701E+03  0.00000000000E+00 0. -1.
         24    2    1    2    0    0  0.18963320305E+02  0.16604063190E+02 -0.41380772675E+03  0.42210652521E+03  0.79383760750E+02 0.  0.
         25    2    1    2    0    0 -0.12011168408E+02 -0.94335309737E+01 -0.59217223172E+02  0.13923784085E+03  0.12508891690E+03 0.  0.
        -24    2    1    2    0    0 -0.69521518978E+01 -0.71705322165E+01  0.13297816714E+03  0.14807462519E+03  0.64367326646E+02 0.  0.
        -13    1    3    3    0    0 -0.23274981462E+02  0.14004192755E+02 -0.61058950555E+02  0.66828419251E+02  0.00000000000E+00 0.  1.
         14    1    3    3    0    0  0.42238301767E+02  0.25998704355E+01 -0.35274877620E+03  0.35527810596E+03  0.00000000000E+00 0. -1.
         13    1    5    5    0    0  0.10973573114E+02 -0.30307979723E+02  0.93708358991E+02  0.99097171940E+02  0.00000000000E+00 0. -1.
        -14    1    5    5    0    0 -0.17925725011E+02  0.23137447507E+02  0.39269808149E+02  0.48977453245E+02  0.00000000000E+00 0.  1.
          5    1    4    4  501    0  0.38881566979E+02  0.36756285269E+02 -0.42301696576E+02  0.68335252182E+02  0.41800000000E+01 0. -1.
         -5    1    4    4    0  501 -0.50892735387E+02 -0.46189816243E+02 -0.16915526596E+02  0.70902588668E+02  0.41800000000E+01 0. -1.
</event>
<event>
11    1  0.8037748E-009  0.1541801E+03  0.7561462E-02  0.1092682E+00
         22   -1    0    0    0    0  0.00000000000E+00  0.00000000000E+00  0.40503369606E+03  0.40503369606E+03  0.00000000000E+00 0.  1.
         22   -1    0    0    0    0 -0.00000000000E+00 -0.00000000000E+00 -0.61002532192E+03  0.61002532192E+03  0.00000000000E+00 0. -1.
        -24    2    1    2    0    0 -0.35384993042E+02  0.17877345867E+02 -0.31916493945E+03  0.33166682281E+03  0.81024228184E+02 0.  0.
         25    2    1    2    0    0  0.39961013453E+01  0.67669898628E+02 -0.25643944567E+03  0.29326349240E+03  0.12508837945E+03 0.  0.
         24    2    1    2    0    0  0.31388891697E+02 -0.85547244495E+02  0.37061275925E+03  0.39012870277E+03  0.80888774507E+02 0.  0.
        -11    1    5    5    0    0  0.37742690330E+02 -0.13439190727E+02  0.21235809916E+03  0.21610433776E+03  0.00000000000E+00 0.  1.
         12    1    5    5    0    0 -0.63537986333E+01 -0.72108053768E+02  0.15825466009E+03  0.17402436501E+03  0.00000000000E+00 0. -1.
         13    1    3    3    0    0 -0.21632903725E+02 -0.24906708651E+02 -0.22409583966E+03  0.22651108585E+03  0.00000000000E+00 0. -1.
        -14    1    3    3    0    0 -0.13752089317E+02  0.42784054518E+02 -0.95069099785E+02  0.10515573696E+03  0.00000000000E+00 0.  1.
          5    1    4    4  501    0 -0.11851025022E+02  0.31364331463E+02 -0.39889686902E-01  0.33788194290E+02  0.41800000000E+01 0.  1.
         -5    1    4    4    0  501  0.15847126367E+02  0.36305567165E+02 -0.25639955599E+03  0.25947529811E+03  0.41800000000E+01 0.  1.
</event>
<event>
11    1  0.8037748E-009  0.1473743E+03  0.7561462E-02  0.1099592E+00
         22   -1    0    0    0    0  0.00000000000E+00  0.00000000000E+00  0.24793775742E+03  0.24793775742E+03  0.00000000000E+00 0. -1.
         22   -1    0    0    0    0 -0.00000000000E+00 -0.00000000000E+00 -0.90763269417E+03  0.90763269417E+03  0.00000000000E+00 0.  1.
         24    2    1    2    0    0 -0.15364802737E+02  0.75282709422E+02 -0.70686500583E+03  0.71485613155E+03  0.73875495593E+02 0.  0.
         25    2    1    2    0    0  0.58233888509E+02 -0.75509357983E+02 -0.15413184765E+03  0.22022244237E+03  0.12509375985E+03 0.  0.
        -24    2    1    2    0    0 -0.42869085771E+02  0.22664856134E+00  0.20130191672E+03  0.22049187767E+03  0.79097386545E+02 0.  0.
        -13    1    3    3    0    0 -0.36117888230E+02  0.46755179298E+02 -0.58534589624E+03  0.58831995282E+03  0.00000000000E+00 0.  1.
         14    1    3    3    0    0  0.20753085493E+02  0.28527530124E+02 -0.12151910959E+03  0.12653617873E+03  0.00000000000E+00 0. -1.
         11    1    5    5    0    0 -0.30282630510E+02  0.38748639251E+02  0.10190902415E+03  0.11315451364E+03  0.00000000000E+00 0. -1.
        -12    1    5    5    0    0 -0.12586455261E+02 -0.38521990689E+02  0.99392892575E+02  0.10733736403E+03  0.00000000000E+00 0.  1.
          5    1    4    4  501    0 -0.36773269826E+02 -0.19582715696E+01 -0.35339579127E+02  0.51210022985E+02  0.41800000000E+01 0. -1.
         -5    1    4    4    0  501  0.95007158335E+02 -0.73551086413E+02 -0.11879226852E+03  0.16901241939E+03  0.41800000000E+01 0. -1.
</event>
<event>
11    1  0.8037748E-009  0.1930607E+03  0.7561462E-02  0.1059542E+00
         22   -1    0    0    0    0  0.00000000000E+00  0.00000000000E+00  0.11940955471E+04  0.11940955471E+04  0.00000000000E+00 0. -1.
         22   -1    0    0    0    0 -0.00000000000E+00 -0.00000000000E+00 -0.57603518530E+03  0.57603518530E+03  0.00000000000E+00 0. -1.
         24    2    1    2    0    0 -0.14475618985E+03  0.22351620328E+02 -0.51948382186E+03  0.54567360682E+03  0.80263905801E+02 0.  0.
         25    2    1    2    0    0  0.16790689741E+03  0.44838233503E+02  0.24409123719E+03  0.32469926315E+03  0.12508351623E+03 0.  0.
        -24    2    1    2    0    0 -0.23150707561E+02 -0.67189853831E+02  0.89345294642E+03  0.89975786239E+03  0.79092425299E+02 0.  0.
        -11    1    3    3    0    0 -0.34480852211E+02 -0.29098080296E+02 -0.12847101845E+03  0.13616324771E+03  0.00000000000E+00 0.  1.
         12    1    3    3    0    0 -0.11027533764E+03  0.51449700623E+02 -0.39101280341E+03  0.40951035911E+03  0.00000000000E+00 0. -1.
         11    1    5    5    0    0  0.21585434535E+02 -0.37348529622E+02  0.59015731764E+03  0.59173178317E+03  0.00000000000E+00 0. -1.
        -12    1    5    5    0    0 -0.44736142096E+02 -0.29841324209E+02  0.30329562879E+03  0.30802607922E+03  0.00000000000E+00 0.  1.
          5    1    4    4  501    0  0.18295326560E+03  0.59769855990E+02  0.21889389217E+03  0.29150701794E+03  0.41800000000E+01 0. -1.
         -5    1    4    4    0  501 -0.15046368187E+02 -0.14931622487E+02  0.25197345016E+02  0.33192245202E+02  0.41800000000E+01 0. -1.
</event>
<event>
11    1  0.8037748E-009  0.1595307E+03  0.7561462E-02  0.1087520E+00
         22   -1    0    0    0    0  0.00000000000E+00  0.00000000000E+00  0.62899117670E+03  0.62899117670E+03  0.00000000000E+00 0. -1.
         22   -1    0    0    0    0 -0.00000000000E+00 -0.00000000000E+00 -0.29556488663E+03  0.29556488663E+03  0.00000000000E+00 0. -1.
         24    2    1    2    0    0 -0.37359319836E+02 -0.68309181655E+02 -0.15467799578E+03  0.19139604021E+03  0.81518701847E+02 0.  0.
         25    2    1    2    0    0 -0.32255239167E+02  0.13674764104E+03 -0.38289667676E+02  0.19197384124E+03  0.12509012465E+03 0.  0.
        -24    2    1    2    0    0  0.69614559003E+02 -0.68438459390E+02  0.52639395353E+03  0.54118618188E+03  0.79132038973E+02 0.  0.
        -13    1    3    3    0    0  0.20829570360E+02 -0.12188473252E+02 -0.10970031083E+02  0.26509837110E+02  0.00000000000E+00 0.  1.
         14    1    3    3    0    0 -0.58188890196E+02 -0.56120708402E+02 -0.14370796470E+03  0.16488620310E+03  0.00000000000E+00 0. -1.
         13    1    5    5    0    0  0.59913371631E+02 -0.51394778370E+01  0.29670144322E+03  0.30273383151E+03  0.00000000000E+00 0. -1.
        -14    1    5    5    0    0  0.97011873719E+01 -0.63298981553E+02  0.22969251031E+03  0.23845235037E+03  0.00000000000E+00 0.  1.
          5    1    4    4  501    0  0.78612654014E+01  0.98632784688E+02 -0.76038476449E+02  0.12485811151E+03  0.41800000000E+01 0.  1.
         -5    1    4    4    0  501 -0.40116504569E+02  0.38114856357E+02  0.37748808773E+02  0.67115729734E+02  0.41800000000E+01 0.  1.
</event>
<event>
11    1  0.8037748E-009  0.1391096E+03  0.7561462E-02  0.1108557E+00
         22   -1    0    0    0    0  0.00000000000E+00  0.00000000000E+00  0.81771554814E+02  0.81771554814E+02  0.00000000000E+00 0.  1.
         22   -1    0    0    0    0 -0.00000000000E+00 -0.00000000000E+00 -0.16483243549E+04  0.16483243549E+04  0.00000000000E+00 0.  1.
        -24    2    1    2    0    0 -0.22218755550E+02 -0.58191348308E+02 -0.12236365757E+04  0.12278481772E+04  0.80279328936E+02 0.  0.
         25    2    1    2    0    0  0.60350523401E+02  0.30066109360E+02 -0.37736216803E+03  0.40323313102E+03  0.12509434632E+03 0.  0.
         24    2    1    2    0    0 -0.38131767851E+02  0.28125238948E+02  0.34445943661E+02  0.99014601519E+02  0.79826734205E+02 0.  0.
        -13    1    5    5    0    0  0.10751023379E+02  0.40369232165E+02  0.97654526074E+01  0.42902487969E+02  0.00000000000E+00 0.  1.
         14    1    5    5    0    0 -0.48882791230E+02 -0.12243993217E+02  0.24680491054E+02  0.56112113549E+02  0.00000000000E+00 0. -1.
         11    1    3    3    0    0 -0.19770636576E+02 -0.14779843333E+02 -0.88468439987E+02  0.91847627695E+02  0.00000000000E+00 0. -1.
        -12    1    3    3    0    0 -0.24481189732E+01 -0.43411504976E+02 -0.11351681358E+04  0.11360005495E+04  0.00000000000E+00 0.  1.
          5    1    4    4  501    0  0.22990707184E+02  0.61328913667E+02 -0.32512842497E+03  0.33168625746E+03  0.41800000000E+01 0.  1.
         -5    1    4    4    0  501  0.37359816217E+02 -0.31262804307E+02 -0.52233743065E+02  0.71546873555E+02  0.41800000000E+01 0.  1.
</event>
<event>
11    1  0.8037748E-009  0.1377749E+03  0.7561462E-02  0.1110069E+00
         22   -1    0    0    0    0  0.00000000000E+00  0.00000000000E+00  0.59526150486E+03  0.59526150486E+03  0.00000000000E+00 0.  1.
         22   -1    0    0    0    0 -0.00000000000E+00 -0.00000000000E+00 -0.26823350353E+03  0.26823350353E+03  0.00000000000E+00 0. -1.
        -24    2    1    2    0    0 -0.16925264612E+02 -0.52545005811E+02 -0.18138313820E+03  0.20733541589E+03  0.83908817431E+02 0.  0.
         25    2    1    2    0    0  0.36232218139E+02  0.64045256585E+02  0.38658105228E+01  0.14517828589E+03  0.12508885515E+03 0.  0.
         24    2    1    2    0    0 -0.19306953527E+02 -0.11500250774E+02  0.50454532900E+03  0.51098130661E+03  0.77658820899E+02 0.  0.
        -13    1    5    5    0    0 -0.42290745182E+02 -0.13158772121E+02  0.44392432466E+03  0.44612830715E+03  0.00000000000E+00 0.  1.
         14    1    5    5    0    0  0.22983791655E+02  0.16585213473E+01  0.60621004340E+02  0.64852999462E+02  0.00000000000E+00 0. -1.
         13    1    3    3    0    0 -0.15868905881E+02 -0.70164609198E+02 -0.17384703971E+03  0.18814273245E+03  0.00000000000E+00 0. -1.
        -14    1    3    3    0    0 -0.10563587310E+01  0.17619603387E+02 -0.75360984872E+01  0.19192683441E+02  0.00000000000E+00 0.  1.
          5    1    4    4  501    0  0.65486701051E+02 -0.17091292722E+01  0.24704405182E+02  0.70137074168E+02  0.41800000000E+01 0.  1.
         -5    1    4    4    0  501 -0.29254482912E+02  0.65754385857E+02 -0.20838594659E+02  0.75041211726E+02  0.41800000000E+01 0.  1.
</event>
<event>
11    1  0.8037748E-009  0.1412526E+03  0.7561462E-02  0.1106168E+00
         22   -1    0    0    0    0  0.00000000000E+00  0.00000000000E+00  0.41224944068E+03  0.41224944068E+03  0.00000000000E+00 0. -1.
         22   -1    0    0    0    0 -0.00000000000E+00 -0.00000000000E+00 -0.86752712190E+03  0.86752712190E+03  0.00000000000E+00 0. -1.
         24    2    1    2    0    0 -0.62016206468E+02 -0.87040992885E+01 -0.75407160883E+03  0.76427813439E+03  0.10758858794E+03 0.  0.
         25    2    1    2    0    0  0.11343686087E+03 -0.33749272739E+02 -0.25911128762E+02  0.17414695175E+03  0.12509532123E+03 0.  0.
        -24    2    1    2    0    0 -0.51420654405E+02  0.42453372027E+02  0.32470505637E+03  0.34135147644E+03  0.81492848398E+02 0.  0.
        -11    1    3    3    0    0 -0.93355773604E+01 -0.55119606543E+01 -0.28564930914E+01  0.11211345490E+02  0.00000000000E+00 0.  1.
         12    1    3    3    0    0 -0.52680629108E+02 -0.31921386342E+01 -0.75121511573E+03  0.75306678890E+03  0.00000000000E+00 0. -1.
         13    1    5    5    0    0 -0.55971880683E+02  0.54001692263E+02  0.17960834470E+03  0.19572478555E+03  0.00000000000E+00 0. -1.
        -14    1    5    5    0    0  0.45512262777E+01 -0.11548320236E+02  0.14509671168E+03  0.14562669089E+03  0.00000000000E+00 0.  1.
          5    1    4    4  501    0  0.12386167151E+03  0.53102851458E+00  0.85902694958E+01  0.12423067572E+03  0.41800000000E+01 0.  1.
         -5    1    4    4    0  501 -0.10424810633E+02 -0.34280301253E+02 -0.34501398258E+02  0.49916276028E+02  0.41800000000E+01 0.  1.
</event>
<event>
11    1  0.8037748E-009  0.2951381E+03  0.7561462E-02  0.1002270E+00
         22   -1    0    0    0    0  0.00000000000E+00  0.00000000000E+00  0.11599915222E+03  0.11599915222E+03  0.00000000000E+00 0. -1.
         22   -1    0    0    0    0 -0.00000000000E+00 -0.00000000000E+00 -0.28242587495E+04  0.28242587495E+04  0.00000000000E+00 0.  1.
        -24    2    1    2    0    0 -0.78169578173E+02 -0.25315768134E+03 -0.22268781294E+04  0.22439558742E+04  0.78437664200E+02 0.  0.
         25    2    1    2    0    0  0.55132465973E+02  0.27462834358E+03 -0.51962094454E+03  0.60341889701E+03  0.12509245927E+03 0.  0.
         24    2    1    2    0    0  0.23037112200E+02 -0.21470662237E+02  0.38239476656E+02  0.92883130599E+02  0.78570481095E+02 0.  0.
        -13    1    5    5    0    0  0.47436914146E+02 -0.32538774791E+02  0.29848412101E+02  0.64807101413E+02  0.00000000000E+00 0.  1.
         14    1    5    5    0    0 -0.24399801946E+02  0.11068112554E+02  0.83910645545E+01  0.28076029186E+02  0.00000000000E+00 0. -1.
         13    1    3    3    0    0 -0.22274561057E+01 -0.12278404024E+03 -0.11551642767E+04  0.11616735291E+04  0.00000000000E+00 0. -1.
        -14    1    3    3    0    0 -0.75942122067E+02 -0.13037364110E+03 -0.10717138528E+04  0.10822823451E+04  0.00000000000E+00 0.  1.
          5    1    4    4  501    0  0.50014888493E+02  0.77362915272E+02 -0.82223508512E+02  0.12355034392E+03  0.41800000000E+01 0. -1.
         -5    1    4    4    0  501  0.51175774799E+01  0.19726542831E+03 -0.43739743603E+03  0.47986855309E+03  0.41800000000E+01 0. -1.
</event>
<event>
11    1  0.8037748E-009  0.1340770E+03  0.7561462E-02  0.1114359E+00
         22   -1    0    0    0    0  0.00000000000E+00  0.00000000000E+00  0.35209292803E+03  0.35209292803E+03  0.00000000000E+00 0. -1.
         22   -1    0    0    0    0 -0.00000000000E+00 -0.00000000000E+00 -0.12672537994E+04  0.12672537994E+04  0.00000000000E+00 0.  1.
        -24    2    1    2    0    0  0.44721686142E+02  0.18230678085E+02 -0.12042628136E+04  0.12079158515E+04  0.80494678415E+02 0.  0.
         25    2    1    2    0    0 -0.35926963496E+02 -0.36619929577E+02  0.28936647382E+02  0.13825934361E+03  0.12508617264E+03 0.  0.
         24    2    1    2    0    0 -0.87947226459E+01  0.18389251492E+02  0.26016529482E+03  0.27317153235E+03  0.80753908492E+02 0.  0.
        -11    1    5    5    0    0  0.33840877057E+02  0.68227231167E+01  0.71425939503E+02  0.79331074269E+02  0.00000000000E+00 0.  1.
         12    1    5    5    0    0 -0.42635599703E+02  0.11566528375E+02  0.18873935532E+03  0.19384045808E+03  0.00000000000E+00 0. -1.
         13    1    3    3    0    0  0.12559203825E+02  0.36165712221E+02 -0.24739817893E+03  0.25034286744E+03  0.00000000000E+00 0. -1.
        -14    1    3    3    0    0  0.32162482317E+02 -0.17935034135E+02 -0.95686463464E+03  0.95757298403E+03  0.00000000000E+00 0.  1.
          5    1    4    4  501    0  0.11708262102E+01 -0.61428272010E+01 -0.47394377199E+02  0.47987545782E+02  0.41800000000E+01 0. -1.
         -5    1    4    4    0  501 -0.37097789706E+02 -0.30477102376E+02  0.76331024581E+02  0.90271797833E+02  0.41800000000E+01 0. -1.
</event>
<event>
11    1  0.8037748E-009  0.1275224E+03  0.7561462E-02  0.1122351E+00
         22   -1    0    0    0    0  0.00000000000E+00  0.00000000000E+00  0.79215102121E+03  0.79215102121E+03  0.00000000000E+00 0.  1.
         22   -1    0    0    0    0 -0.00000000000E+00 -0.00000000000E+00 -0.58163606529E+02  0.58163606529E+02  0.00000000000E+00 0. -1.
         24    2    1    2    0    0  0.27089951093E+02  0.20142844818E+02  0.20600152507E+02  0.88573069960E+02  0.79254165766E+02 0.  0.
         25    2    1    2    0    0 -0.17753273433E+02 -0.40519850771E+02  0.20369926610E+03  0.24313179286E+03  0.12515047210E+03 0.  0.
        -24    2    1    2    0    0 -0.93366776595E+01  0.20377005953E+02  0.50968799608E+03  0.51860976492E+03  0.93122709390E+02 0.  0.
        -13    1    3    3    0    0 -0.22611447168E+02  0.93070914996E+01  0.27994290877E+02  0.37169608781E+02  0.00000000000E+00 0.  1.
         14    1    3    3    0    0  0.49701398260E+02  0.10835753318E+02 -0.73941383700E+01  0.51403461179E+02  0.00000000000E+00 0. -1.
         11    1    5    5    0    0 -0.42795995631E+02 -0.12834861431E+02  0.32231364712E+03  0.32539563308E+03  0.00000000000E+00 0. -1.
        -12    1    5    5    0    0  0.33459317972E+02  0.33211867385E+02  0.18737434896E+03  0.19321413184E+03  0.00000000000E+00 0.  1.
          5    1    4    4  501    0  0.49541595231E+02 -0.12461717681E+02  0.12831852669E+03  0.13817662884E+03  0.41800000000E+01 0.  1.
         -5    1    4    4    0  501 -0.67294868664E+02 -0.28058133090E+02  0.75380739407E+02  0.10495516402E+03  0.41800000000E+01 0.  1.
</event>
<event>
11    1  0.8037748E-009  0.3204824E+03  0.7561462E-02  0.9918769E-01
         22   -1    0    0    0    0  0.00000000000E+00  0.00000000000E+00  0.92638944156E+03  0.92638944156E+03  0.00000000000E+00 0. -1.
         22   -1    0    0    0    0 -0.00000000000E+00 -0.00000000000E+00 -0.10394060496E+04  0.10394060496E+04  0.00000000000E+00 0.  1.
         24    2    1    2    0    0  0.16142019032E+02 -0.64005551591E+01 -0.12568226953E+03  0.14976064866E+03  0.79565615237E+02 0.  0.
         25    2    1    2    0    0 -0.19217713808E+03 -0.23023103971E+03 -0.84511983189E+03  0.90543580356E+03  0.12509228623E+03 0.  0.
        -24    2    1    2    0    0  0.17603511905E+03  0.23663159487E+03  0.85778549335E+03  0.91059903897E+03  0.80073605797E+02 0.  0.
        -13    1    3    3    0    0  0.24032805319E+02  0.19408945888E+02 -0.11759705832E+03  0.12158680453E+03  0.00000000000E+00 0.  1.
         14    1    3    3    0    0 -0.78907862867E+01 -0.25809501047E+02 -0.80852112153E+01  0.28173844128E+02  0.00000000000E+00 0. -1.
         13    1    5    5    0    0  0.46751499220E+02  0.16425403398E+02  0.16349374121E+03  0.17083822749E+03  0.00000000000E+00 0. -1.
        -14    1    5    5    0    0  0.12928361983E+03  0.22020619147E+03  0.69429175213E+03  0.73976081148E+03  0.00000000000E+00 0.  1.
          5    1    4    4  501    0 -0.77178444267E+02 -0.54083108031E+02 -0.42777147270E+03  0.43804954068E+03  0.41800000000E+01 0. -1.
         -5    1    4    4    0  501 -0.11499869382E+03 -0.17614793168E+03 -0.41734835919E+03  0.46738626288E+03  0.41800000000E+01 0. -1.
</event>
<event>
11    1  0.8037748E-009  0.1316390E+03  0.7561462E-02  0.1117271E+00
         22   -1    0    0    0    0  0.00000000000E+00  0.00000000000E+00  0.16112903388E+04  0.16112903388E+04  0.00000000000E+00 0. -1.
         22   -1    0    0    0    0 -0.00000000000E+00 -0.00000000000E+00 -0.55434297816E+03  0.55434297816E+03  0.00000000000E+00 0. -1.
        -24    2    1    2    0    0  0.34548538196E+02  0.20522733837E+02 -0.47920850998E+03  0.48754516839E+03  0.80278957920E+02 0.  0.
         25    2    1    2    0    0 -0.36124968285E+02 -0.45059810889E+02 -0.19207726353E+01  0.13779185760E+03  0.12508999466E+03 0.  0.
         24    2    1    2    0    0  0.15764300894E+01  0.24537077052E+02  0.15380766432E+04  0.15402962909E+04  0.78919896846E+02 0.  0.
        -13    1    5    5    0    0  0.20040119961E+02  0.46640234979E+02  0.76436257329E+03  0.76604638330E+03  0.00000000000E+00 0.  1.
         14    1    5    5    0    0 -0.18463689871E+02 -0.22103157927E+02  0.77371406995E+03  0.77424990764E+03  0.00000000000E+00 0. -1.
         13    1    3    3    0    0  0.30331504217E+02  0.45237771105E+02 -0.41592514085E+03  0.41947607664E+03  0.00000000000E+00 0. -1.
        -14    1    3    3    0    0  0.42170339786E+01 -0.24715037269E+02 -0.63283369132E+02  0.68069091748E+02  0.00000000000E+00 0.  1.
          5    1    4    4  501    0 -0.78171268054E+02 -0.41074256966E+02 -0.21608251735E+02  0.91006761713E+02  0.41800000000E+01 0.  1.
         -5    1    4    4    0  501  0.42046299769E+02 -0.39855539229E+01  0.19687479100E+02  0.46785095892E+02  0.41800000000E+01 0.  1.
</event>
<event>
11    1  0.8037748E-009  0.1587917E+03  0.7561462E-02  0.1088219E+00
         22   -1    0    0    0    0  0.00000000000E+00  0.00000000000E+00  0.13300488719E+04  0.13300488719E+04  0.00000000000E+00 0.  1.
         22   -1    0    0    0    0 -0.00000000000E+00 -0.00000000000E+00 -0.35075081885E+03  0.35075081885E+03  0.00000000000E+00 0. -1.
        -24    2    1    2    0    0 -0.87259363766E+01  0.96179680395E+02 -0.30872801772E+03  0.33587941200E+03  0.90417462888E+02 0.  0.
         25    2    1    2    0    0  0.19434082378E+02 -0.12324401783E+03  0.26576159003E+03  0.31912885900E+03  0.12508890608E+03 0.  0.
         24    2    1    2    0    0 -0.10708146002E+02  0.27064337434E+02  0.10222644808E+04  0.10257914198E+04  0.79851271293E+02 0.  0.
        -13    1    5    5    0    0 -0.38188724557E+02 -0.47934026181E+01  0.65397412900E+03  0.65510572948E+03  0.00000000000E+00 0.  1.
         14    1    5    5    0    0  0.27480578556E+02  0.31857740052E+02  0.36829035178E+03  0.37068569033E+03  0.00000000000E+00 0. -1.
         13    1    3    3    0    0 -0.60257138603E+01  0.57779503304E+02 -0.28455399654E+03  0.29042341017E+03  0.00000000000E+00 0. -1.
        -14    1    3    3    0    0 -0.27002225163E+01  0.38400177092E+02 -0.24174021179E+02  0.45456001829E+02  0.00000000000E+00 0.  1.
          5    1    4    4  501    0  0.63709992020E+02 -0.10547930541E+03  0.15215015894E+03  0.19583664167E+03  0.41800000000E+01 0.  1.
         -5    1    4    4    0  501 -0.44275909642E+02 -0.17764712421E+02  0.11361143108E+03  0.12329221733E+03  0.41800000000E+01 0.  1.
</event>
<event>
11    1  0.9599928E-009  0.2011817E+03  0.7561462E-02  0.1053691E+00
         22   -1    0    0    0    0  0.00000000000E+00  0.00000000000E+00  0.15153361915E+04  0.15153361915E+04  0.00000000000E+00 0.  1.
         22   -1    0    0    0    0 -0.00000000000E+00 -0.00000000000E+00 -0.12664934072E+04  0.12664934072E+04  0.00000000000E+00 0. -1.
         24    2    1    2    0    0 -0.24273782227E+02 -0.14369067577E+03 -0.84057949107E+03  0.85744832305E+03  0.86066945434E+02 0.  0.
         25    2    1    2    0    0  0.84034210666E+02  0.19669289656E+03 -0.37837128782E+03  0.45228628138E+03  0.12509278460E+03 0.  0.
        -24    2    1    2    0    0 -0.59760428439E+02 -0.53002220791E+02  0.14677935632E+04  0.14720949943E+04  0.79152914539E+02 0.  0.
        -11    1    3    3    0    0 -0.32446916653E+02 -0.69812856164E+02 -0.23415637268E+03  0.24648700605E+03  0.00000000000E+00 0.  1.
         12    1    3    3    0    0  0.81731344257E+01 -0.73877819601E+02 -0.60642311839E+03  0.61096131700E+03  0.00000000000E+00 0. -1.
         13    1    5    5    0    0  0.52475169527E+01 -0.27896338899E+00  0.62883409428E+01  0.81949671478E+01  0.00000000000E+00 0. -1.
        -14    1    5    5    0    0 -0.65007945392E+02 -0.52723257402E+02  0.14615052223E+04  0.14639000272E+04  0.00000000000E+00 0.  1.
          5    1    4    4  501    0 -0.15604654247E+02  0.10633031990E+03 -0.21679282395E+03  0.24200463441E+03  0.41800000000E+01 0. -1.
         -5    1    4    4    0  501  0.99638864914E+02  0.90362576661E+02 -0.16157846387E+03  0.21028164696E+03  0.41800000000E+01 0. -1.
</event>
<event>
11    1  0.8037748E-009  0.1494167E+03  0.7561462E-02  0.1097476E+00
         22   -1    0    0    0    0  0.00000000000E+00  0.00000000000E+00  0.14955075039E+03  0.14955075039E+03  0.00000000000E+00 0. -1.
         22   -1    0    0    0    0 -0.00000000000E+00 -0.00000000000E+00 -0.52494679616E+03  0.52494679616E+03  0.00000000000E+00 0. -1.
         24    2    1    2    0    0 -0.16610238022E+02  0.27851720060E+02 -0.29924396858E+03  0.31019303405E+03  0.74974311101E+02 0.  0.
         25    2    1    2    0    0  0.90268820365E+02  0.62014310658E+01 -0.15930499306E+03  0.22183775341E+03  0.12508793046E+03 0.  0.
        -24    2    1    2    0    0 -0.73658582343E+02 -0.34053151125E+02  0.83152915859E+02  0.14246675910E+03  0.82444928148E+02 0.  0.
        -13    1    3    3    0    0 -0.20131361289E+02  0.23150749137E+02 -0.37801139156E+02  0.48684237844E+02  0.00000000000E+00 0.  1.
         14    1    3    3    0    0  0.35211232673E+01  0.47009709226E+01 -0.26144282942E+03  0.26150879620E+03  0.00000000000E+00 0. -1.
         13    1    5    5    0    0 -0.42973087967E+02  0.14582893966E+02  0.70084272808E+02  0.83493427171E+02  0.00000000000E+00 0. -1.
        -14    1    5    5    0    0 -0.30685494377E+02 -0.48636045091E+02  0.13068643051E+02  0.58973331926E+02  0.00000000000E+00 0.  1.
          5    1    4    4  501    0  0.11149095398E+03  0.35934684557E+02 -0.12786382659E+03  0.17345940425E+03  0.41800000000E+01 0.  1.
         -5    1    4    4    0  501 -0.21222133611E+02 -0.29733253491E+02 -0.31441166470E+02  0.48378349157E+02  0.41800000000E+01 0.  1.
</event>
<event>
11    1  0.8037748E-009  0.1871283E+03  0.7561462E-02  0.1064018E+00
         22   -1    0    0    0    0  0.00000000000E+00  0.00000000000E+00  0.86485725618E+03  0.86485725618E+03  0.00000000000E+00 0. -1.
         22   -1    0    0    0    0 -0.00000000000E+00 -0.00000000000E+00 -0.18776755439E+03  0.18776755439E+03  0.00000000000E+00 0.  1.
        -24    2    1    2    0    0 -0.17893518508E+02  0.88127174771E+01 -0.12401883525E+03  0.14948339925E+03  0.81035628961E+02 0.  0.
         25    2    1    2    0    0 -0.62985181480E+01 -0.14469501738E+03  0.18318981976E+03  0.26491987220E+03  0.12509080397E+03 0.  0.
         24    2    1    2    0    0  0.24192036656E+02  0.13588229990E+03  0.61791871728E+03  0.63822153911E+03  0.80336403673E+02 0.  0.
        -11    1    5    5    0    0 -0.15728448361E+02  0.10719887509E+03  0.37293979251E+03  0.38835946202E+03  0.00000000000E+00 0.  1.
         12    1    5    5    0    0  0.39920485017E+02  0.28683424811E+02  0.24497892478E+03  0.24986207709E+03  0.00000000000E+00 0. -1.
         13    1    3    3    0    0 -0.46820323722E+02 -0.93834348452E+00 -0.10074452148E+03  0.11109672277E+03  0.00000000000E+00 0. -1.
        -14    1    3    3    0    0  0.28926805214E+02  0.97510609616E+01 -0.23274313768E+02  0.38386676479E+02  0.00000000000E+00 0.  1.
          5    1    4    4  501    0  0.47826047063E+02 -0.12035226031E+03  0.14380971252E+03  0.19357350841E+03  0.41800000000E+01 0.  1.
         -5    1    4    4    0  501 -0.54124565211E+02 -0.24342757061E+02  0.39380107233E+02  0.71346363792E+02  0.41800000000E+01 0.  1.
</event>
<event>
11    1  0.8037748E-009  0.1775105E+03  0.7561462E-02  0.1071675E+00
         22   -1    0    0    0    0  0.00000000000E+00  0.00000000000E+00  0.17691988785E+04  0.17691988785E+04  0.00000000000E+00 0.  1.
         22   -1    0    0    0    0 -0.00000000000E+00 -0.00000000000E+00 -0.53969375529E+03  0.53969375529E+03  0.00000000000E+00 0. -1.
         24    2    1    2    0    0 -0.66758610031E+02  0.10815427197E+03 -0.48723233071E+03  0.50851325451E+03  0.70967086465E+02 0.  0.
         25    2    1    2    0    0  0.11706182685E+02 -0.11689282502E+03  0.14236499969E+03  0.22297043103E+03  0.12508817978E+03 0.  0.
        -24    2    1    2    0    0  0.55052427346E+02  0.87385530475E+01  0.15743724542E+04  0.15774089482E+04  0.80394236905E+02 0.  0.
        -11    1    3    3    0    0  0.10322837018E+02  0.43367507507E+02 -0.16490630299E+03  0.17082561411E+03  0.00000000000E+00 0.  1.
         12    1    3    3    0    0 -0.77081447048E+02  0.64786764467E+02 -0.32232602773E+03  0.33768764040E+03  0.00000000000E+00 0. -1.
         11    1    5    5    0    0  0.11250114063E+02 -0.33121699675E+02  0.42321835619E+03  0.42466149940E+03  0.00000000000E+00 0. -1.
        -12    1    5    5    0    0  0.43802313283E+02  0.41860252723E+02  0.11511540980E+04  0.11527474488E+04  0.00000000000E+00 0.  1.
          5    1    4    4  501    0  0.17129787953E+02 -0.13442342289E+03  0.79094714103E+02  0.15696028942E+03  0.41800000000E+01 0.  1.
         -5    1    4    4    0  501 -0.54236052678E+01  0.17530597870E+02  0.63270285589E+02  0.66010141601E+02  0.41800000000E+01 0.  1.
</event>
<event>
11    1  0.8037748E-009  0.1346457E+03  0.7561462E-02  0.1113689E+00
         22   -1    0    0    0    0  0.00000000000E+00  0.00000000000E+00  0.10090110076E+04  0.10090110076E+04  0.00000000000E+00 0. -1.
         22   -1    0    0    0    0 -0.00000000000E+00 -0.00000000000E+00 -0.19561316938E+04  0.19561316938E+04  0.00000000000E+00 0.  1.
         24    2    1    2    0    0  0.42988742137E+02 -0.24014047323E+02 -0.18304821360E+04  0.18328112008E+04  0.78149480148E+02 0.  0.
         25    2    1    2    0    0 -0.54406676160E+02  0.47916309087E+02 -0.80047735841E+02  0.16526133538E+03  0.12509040680E+03 0.  0.
        -24    2    1    2    0    0  0.11417934023E+02 -0.23902261764E+02  0.96340918566E+03  0.96707016515E+03  0.79785700309E+02 0.  0.
        -13    1    3    3    0    0  0.13814954744E+02  0.33226189335E+01 -0.14781042387E+04  0.14781725316E+04  0.00000000000E+00 0.  1.
         14    1    3    3    0    0  0.29173787394E+02 -0.27336666257E+02 -0.35237789734E+03  0.35463866925E+03  0.00000000000E+00 0. -1.
         11    1    5    5    0    0  0.25333138938E+02 -0.88482252412E+01  0.90060906244E+03  0.90100873601E+03  0.00000000000E+00 0. -1.
        -12    1    5    5    0    0 -0.13915204915E+02 -0.15054036522E+02  0.62800123221E+02  0.66061429140E+02  0.00000000000E+00 0.  1.
          5    1    4    4  501    0  0.86836971869E+01  0.33699296616E+02  0.24142326897E+02  0.42560234224E+02  0.41800000000E+01 0. -1.
         -5    1    4    4    0  501 -0.63090373347E+02  0.14217012471E+02 -0.10419006274E+03  0.12270110116E+03  0.41800000000E+01 0. -1.
</event>
<event>
11    1  0.8037748E-009  0.1241635E+04  0.7561462E-02  0.8478010E-01
         22   -1    0    0    0    0  0.00000000000E+00  0.00000000000E+00  0.12075950761E+04  0.12075950761E+04  0.00000000000E+00 0.  1.
         22   -1    0    0    0    0 -0.00000000000E+00 -0.00000000000E+00 -0.31915851706E+03  0.31915851706E+03  0.00000000000E+00 0.  1.
        -24    2    1    2    0    0 -0.15534863480E+03  0.43404225552E+02  0.30743205680E+00  0.18007593960E+03  0.80063252364E+02 0.  0.
         25    2    1    2    0    0  0.52653853588E+03 -0.22469524285E+03  0.58503318944E+03  0.82803512695E+03  0.12509019465E+03 0.  0.
         24    2    1    2    0    0 -0.37118990108E+03  0.18129101729E+03  0.30309593752E+03  0.51864252658E+03  0.80464572436E+02 0.  0.
        -13    1    5    5    0    0 -0.24224531240E+03  0.14446242377E+03  0.16801271516E+03  0.32829933858E+03  0.00000000000E+00 0.  1.
         14    1    5    5    0    0 -0.12894458869E+03  0.36828593526E+02  0.13508322237E+03  0.19034318800E+03  0.00000000000E+00 0. -1.
         13    1    3    3    0    0 -0.14656655339E+03  0.58587913099E+02 -0.12530594440E+02  0.15833923687E+03  0.00000000000E+00 0. -1.
        -14    1    3    3    0    0 -0.87820814045E+01 -0.15183687547E+02  0.12838026497E+02  0.21736702732E+02  0.00000000000E+00 0.  1.
          5    1    4    4  501    0  0.23944567853E+03 -0.62443841153E+02  0.18166798785E+03  0.30700846320E+03  0.41800000000E+01 0.  1.
         -5    1    4    4    0  501  0.28709285735E+03 -0.16225140169E+03  0.40336520159E+03  0.52102666376E+03  0.41800000000E+01 0.  1.
</event>
<event>
11    1  0.8171207E-009  0.1823092E+03  0.7561462E-02  0.1067790E+00
         22   -1    0    0    0    0  0.00000000000E+00  0.00000000000E+00  0.15219348932E+03  0.15219348932E+03  0.00000000000E+00 0. -1.
         22   -1    0    0    0    0 -0.00000000000E+00 -0.00000000000E+00 -0.15539814868E+04  0.15539814868E+04  0.00000000000E+00 0.  1.
        -24    2    1    2    0    0  0.29121344083E+02 -0.21914434747E+02 -0.10835933777E+04  0.10881107396E+04  0.92098198499E+02 0.  0.
         25    2    1    2    0    0 -0.15882796948E+03  0.22689819717E+02 -0.39724757576E+03  0.44631228701E+03  0.12509144367E+03 0.  0.
         24    2    1    2    0    0  0.12970662540E+03 -0.77538496959E+00  0.79052955977E+02  0.17175194957E+03  0.80155801032E+02 0.  0.
        -13    1    5    5    0    0  0.42536217203E+02  0.22345095897E+02 -0.52075662246E+01  0.48329616496E+02  0.00000000000E+00 0.  1.
         14    1    5    5    0    0  0.87170408195E+02 -0.23120480867E+02  0.84260522201E+02  0.12342233308E+03  0.00000000000E+00 0. -1.
         11    1    3    3    0    0  0.19155903578E+02  0.88309899862E+00 -0.41455393251E+02  0.45675793757E+02  0.00000000000E+00 0. -1.
        -12    1    3    3    0    0  0.99654405050E+01 -0.22797533746E+02 -0.10421379845E+04  0.10424349458E+04  0.00000000000E+00 0.  1.
          5    1    4    4  501    0 -0.15532496950E+03 -0.19256909485E+02 -0.26875247402E+03  0.31103382357E+03  0.41800000000E+01 0. -1.
         -5    1    4    4    0  501 -0.35029999852E+01  0.41946729202E+02 -0.12849510174E+03  0.13527846344E+03  0.41800000000E+01 0. -1.
</event>
<event>
11    1  0.8037748E-009  0.1501306E+03  0.7561462E-02  0.1096745E+00
         22   -1    0    0    0    0  0.00000000000E+00  0.00000000000E+00  0.16535190271E+03  0.16535190271E+03  0.00000000000E+00 0.  1.
         22   -1    0    0    0    0 -0.00000000000E+00 -0.00000000000E+00 -0.11016414756E+04  0.11016414756E+04  0.00000000000E+00 0. -1.
         24    2    1    2    0    0  0.15604520517E+02  0.80332072411E+02 -0.96746663373E+03  0.97449980399E+03  0.83435230356E+02 0.  0.
         25    2    1    2    0    0 -0.17793610575E+02 -0.10084218564E+03 -0.56294755216E+02  0.17117786773E+03  0.12508798485E+03 0.  0.
        -24    2    1    2    0    0  0.21890900574E+01  0.20510113234E+02  0.87471816068E+02  0.12131570658E+03  0.81490644834E+02 0.  0.
        -13    1    3    3    0    0 -0.15948881554E+02 -0.69839333677E+01 -0.65751594332E+02  0.68017749928E+02  0.00000000000E+00 0.  1.
         14    1    3    3    0    0  0.31553402072E+02  0.87316005779E+02 -0.90171503940E+03  0.90648205406E+03  0.00000000000E+00 0. -1.
         11    1    5    5    0    0  0.80974554894E+01  0.26388023217E+02 -0.53536419855E+01  0.28116863929E+02  0.00000000000E+00 0. -1.
        -12    1    5    5    0    0 -0.59083654320E+01 -0.58779099829E+01  0.92825458053E+02  0.93198842646E+02  0.00000000000E+00 0.  1.
          5    1    4    4  501    0 -0.29528531571E+02 -0.43296974186E+02 -0.89339250853E+02  0.10366067863E+03  0.41800000000E+01 0. -1.
         -5    1    4    4    0  501  0.11734920996E+02 -0.57545211459E+02  0.33044495637E+02  0.67517189104E+02  0.41800000000E+01 0. -1.
</event>
<event>
11    1  0.8037748E-009  0.1939958E+03  0.7561462E-02  0.1058853E+00
         22   -1    0    0    0    0  0.00000000000E+00  0.00000000000E+00  0.37091814591E+03  0.37091814591E+03  0.00000000000E+00 0. -1.
         22   -1    0    0    0    0 -0.00000000000E+00 -0.00000000000E+00 -0.70833737797E+03  0.70833737797E+03  0.00000000000E+00 0.  1.
        -24    2    1    2    0    0  0.38946139526E+02 -0.97648744759E+01 -0.45353354678E+03  0.46231555582E+03  0.80192521712E+02 0.  0.
         25    2    1    2    0    0 -0.16937503252E+02 -0.13828002098E+03 -0.18854604768E+03  0.26571565304E+03  0.12508778102E+03 0.  0.
         24    2    1    2    0    0 -0.22008636274E+02  0.14804489546E+03  0.30466036239E+03  0.35122431502E+03  0.90215918264E+02 0.  0.
        -11    1    5    5    0    0 -0.20044400344E+02 -0.57872318979E+01  0.33700760395E+02  0.39635984779E+02  0.00000000000E+00 0.  1.
         12    1    5    5    0    0 -0.19642359300E+01  0.15383212735E+03  0.27095960200E+03  0.31158833024E+03  0.00000000000E+00 0. -1.
         11    1    3    3    0    0  0.90780604103E+01  0.77448073276E+01 -0.58400392122E+01  0.13285303134E+02  0.00000000000E+00 0. -1.
        -12    1    3    3    0    0  0.29868079116E+02 -0.17509681803E+02 -0.44769350757E+03  0.44903025268E+03  0.00000000000E+00 0.  1.
          5    1    4    4  501    0 -0.22079588346E+02 -0.10115287912E+03 -0.37759858412E+02  0.11028459767E+03  0.41800000000E+01 0.  1.
         -5    1    4    4    0  501  0.51420850936E+01 -0.37127141860E+02 -0.15078618926E+03  0.15543105537E+03  0.41800000000E+01 0.  1.
</event>
<event>
11    1  0.9560111E-009  0.2192207E+03  0.7561462E-02  0.1041707E+00
         22   -1    0    0    0    0  0.00000000000E+00  0.00000000000E+00  0.17341302713E+04  0.17341302713E+04  0.00000000000E+00 0.  1.
         22   -1    0    0    0    0 -0.00000000000E+00 -0.00000000000E+00 -0.57335957631E+03  0.57335957631E+03  0.00000000000E+00 0.  1.
         24    2    1    2    0    0 -0.30013434564E+02 -0.42805069342E+02 -0.40613986513E+03  0.41731466323E+03  0.80429210371E+02 0.  0.
         25    2    1    2    0    0 -0.14139394490E+03 -0.17107366985E+02 -0.98038128775E+02  0.21341050865E+03  0.12509061056E+03 0.  0.
        -24    2    1    2    0    0  0.17140737946E+03  0.59912436327E+02  0.16649486889E+04  0.16767646757E+04  0.80719584526E+02 0.  0.
        -13    1    3    3    0    0 -0.29429984252E+02 -0.52841051424E+02 -0.40186400360E+03  0.40639017961E+03  0.00000000000E+00 0.  1.
         14    1    3    3    0    0 -0.58345031197E+00  0.10035982082E+02 -0.42758615295E+01  0.10924483623E+02  0.00000000000E+00 0. -1.
         11    1    5    5    0    0  0.47054473128E+02 -0.18699790212E+02  0.35831583835E+03  0.36187573228E+03  0.00000000000E+00 0. -1.
        -12    1    5    5    0    0  0.12435290633E+03  0.78612226539E+02  0.13066328505E+04  0.13148889434E+04  0.00000000000E+00 0.  1.
          5    1    4    4  501    0 -0.12223692469E+03 -0.64495673579E+02 -0.71011658163E+02  0.15544029614E+03  0.41800000000E+01 0. -1.
         -5    1    4    4    0  501 -0.19157020203E+02  0.47388306594E+02 -0.27026470612E+02  0.57970212512E+02  0.41800000000E+01 0. -1.
</event>
<event>
11    1  0.8037748E-009  0.1288790E+03  0.7561462E-02  0.1120654E+00
         22   -1    0    0    0    0  0.00000000000E+00  0.00000000000E+00  0.17153151599E+04  0.17153151599E+04  0.00000000000E+00 0. -1.
         22   -1    0    0    0    0 -0.00000000000E+00 -0.00000000000E+00 -0.66799772985E+02  0.66799772985E+02  0.00000000000E+00 0. -1.
         24    2    1    2    0    0 -0.37466021239E+01 -0.17658252319E+01 -0.55706854769E+01  0.81859929924E+02  0.81565068653E+02 0.  0.
         25    2    1    2    0    0  0.34423834026E+02  0.45629021906E+01  0.17143904633E+03  0.21504580070E+03  0.12509008501E+03 0.  0.
        -24    2    1    2    0    0 -0.30677231902E+02 -0.27970769587E+01  0.14826470260E+04  0.14852092022E+04  0.81579742461E+02 0.  0.
        -13    1    3    3    0    0  0.28599978351E+02 -0.20328820497E+02  0.16230458815E+02  0.38660671203E+02  0.00000000000E+00 0.  1.
         14    1    3    3    0    0 -0.32346580475E+02  0.18562995265E+02 -0.21801144292E+02  0.43199258722E+02  0.00000000000E+00 0. -1.
         11    1    5    5    0    0 -0.47914649526E+02  0.16892880460E+02  0.12609376514E+04  0.12619607537E+04  0.00000000000E+00 0. -1.
        -12    1    5    5    0    0  0.17237417625E+02 -0.19689957419E+02  0.22170937465E+03  0.22324844859E+03  0.00000000000E+00 0.  1.
          5    1    4    4  501    0 -0.19254497776E+02 -0.28552147141E+02  0.26293996586E+01  0.34790040723E+02  0.41800000000E+01 0.  1.
         -5    1    4    4    0  501  0.53678331801E+02  0.33115049332E+02  0.16880964667E+03  0.18025575998E+03  0.41800000000E+01 0.  1.
</event>
<event>
11    1  0.8037748E-009  0.1565722E+03  0.7561462E-02  0.1090346E+00
         22   -1    0    0    0    0  0.00000000000E+00  0.00000000000E+00  0.54508298898E+03  0.54508298898E+03  0.00000000000E+00 0. -1.
         22   -1    0    0    0    0 -0.00000000000E+00 -0.00000000000E+00 -0.12709578966E+04  0.12709578966E+04  0.00000000000E+00 0.  1.
        -24    2    1    2    0    0  0.68337659482E+02  0.54638938969E+02 -0.62617461794E+03  0.63740945235E+03  0.80874646456E+02 0.  0.
         25    2    1    2    0    0  0.18660063859E+02 -0.91978830061E+02 -0.62215124224E+03  0.64149913252E+03  0.12506264685E+03 0.  0.
         24    2    1    2    0    0 -0.86997723341E+02  0.37339891093E+02  0.52245095254E+03  0.53713230073E+03  0.81198764420E+02 0.  0.
        -11    1    5    5    0    0 -0.17487992527E+02  0.43191654008E+02  0.12092996182E+03  0.12959708533E+03  0.00000000000E+00 0.  1.
         12    1    5    5    0    0 -0.69509730814E+02 -0.58517629158E+01  0.40152099072E+03  0.40753521540E+03  0.00000000000E+00 0. -1.
         11    1    3    3    0    0  0.75650318387E+02  0.15449070705E+02 -0.35335182369E+03  0.36168930833E+03  0.00000000000E+00 0. -1.
        -12    1    3    3    0    0 -0.73126589049E+01  0.39189868264E+02 -0.27282279425E+03  0.27572014402E+03  0.00000000000E+00 0.  1.
          5    1    4    4  501    0  0.69031809955E+02 -0.38679376231E+02 -0.25330537668E+03  0.26541019421E+03  0.41800000000E+01 0. -1.
         -5    1    4    4    0  501 -0.50371746096E+02 -0.53299453830E+02 -0.36884586555E+03  0.37608893831E+03  0.41800000000E+01 0. -1.
</event>
<event>
11    1  0.8037748E-009  0.2939496E+03  0.7561462E-02  0.1002785E+00
         22   -1    0    0    0    0  0.00000000000E+00  0.00000000000E+00  0.19708212414E+04  0.19708212414E+04  0.00000000000E+00 0. -1.
         22   -1    0    0    0    0 -0.00000000000E+00 -0.00000000000E+00 -0.77393467880E+02  0.77393467880E+02  0.00000000000E+00 0. -1.
         24    2    1    2    0    0  0.44863281161E+02 -0.26354590193E+03  0.40650232353E+03  0.49341416328E+03  0.82123328421E+02 0.  0.
         25    2    1    2    0    0  0.65005133144E+02  0.26423026270E+03  0.12049599888E+04  0.12416188597E+04  0.12508204919E+03 0.  0.
        -24    2    1    2    0    0 -0.10986841431E+03 -0.68436076600E+00  0.28196546119E+03  0.31318168632E+03  0.80664183708E+02 0.  0.
        -13    1    3    3    0    0 -0.81147629559E+01  0.22718725475E+01  0.15681684147E+02  0.17802415577E+02  0.00000000000E+00 0.  1.
         14    1    3    3    0    0  0.52978044117E+02 -0.26581777448E+03  0.39082063938E+03  0.47561174770E+03  0.00000000000E+00 0. -1.
         13    1    5    5    0    0  0.23816282282E+01 -0.88427394339E+01 -0.44773198352E+00  0.91687871413E+01  0.00000000000E+00 0. -1.
        -14    1    5    5    0    0 -0.11225004253E+03  0.81583786679E+01  0.28241319317E+03  0.30401289918E+03  0.00000000000E+00 0.  1.
          5    1    4    4  501    0  0.61252423805E+02  0.35979289265E+02  0.28577467380E+03  0.29450128228E+03  0.41800000000E+01 0. -1.
         -5    1    4    4    0  501  0.37527093395E+01  0.22825097343E+03  0.91918531499E+03  0.94711757739E+03  0.41800000000E+01 0. -1.
</event>
<event>
11    1  0.8037748E-009  0.2001822E+03  0.7561462E-02  0.1054395E+00
         22   -1    0    0    0    0  0.00000000000E+00  0.00000000000E+00  0.41632800596E+03  0.41632800596E+03  0.00000000000E+00 0.  1.
         22   -1    0    0    0    0 -0.00000000000E+00 -0.00000000000E+00 -0.54863065961E+03  0.54863065961E+03  0.00000000000E+00 0.  1.
         24    2    1    2    0    0  0.14646538424E+03 -0.80748984695E+02 -0.42880722739E+03  0.46785229547E+03  0.83890552516E+02 0.  0.
         25    2    1    2    0    0 -0.76105665758E+02  0.89480626631E+02 -0.10488878698E+02  0.17192447778E+03  0.12509658102E+03 0.  0.
        -24    2    1    2    0    0 -0.70359718483E+02 -0.87316419364E+01  0.30699345243E+03  0.32518189232E+03  0.80445955158E+02 0.  0.
        -11    1    3    3    0    0  0.90606740562E+02 -0.60349968912E+02 -0.36384134803E+03  0.37977918152E+03  0.00000000000E+00 0.  1.
         12    1    3    3    0    0  0.55858643679E+02 -0.20399015783E+02 -0.64965879362E+02  0.88073113944E+02  0.00000000000E+00 0. -1.
         13    1    5    5    0    0  0.96160899357E+01  0.72475985897E+01  0.62314268872E+01  0.13558301959E+02  0.00000000000E+00 0. -1.
        -14    1    5    5    0    0 -0.79975808419E+02 -0.15979240526E+02  0.30076202555E+03  0.31162359036E+03  0.00000000000E+00 0.  1.
          5    1    4    4  501    0  0.33821060538E+02  0.29003697073E+02  0.65949584697E+01  0.45233222934E+02  0.41800000000E+01 0. -1.
         -5    1    4    4    0  501 -0.10992672630E+03  0.60476929559E+02 -0.17083837167E+02  0.12669125485E+03  0.41800000000E+01 0. -1.
</event>
<event>
11    1  0.8037748E-009  0.1365693E+03  0.7561462E-02  0.1111451E+00
         22   -1    0    0    0    0  0.00000000000E+00  0.00000000000E+00  0.46824092246E+03  0.46824092246E+03  0.00000000000E+00 0.  1.
         22   -1    0    0    0    0 -0.00000000000E+00 -0.00000000000E+00 -0.37270276879E+03  0.37270276879E+03  0.00000000000E+00 0.  1.
         24    2    1    2    0    0 -0.37900372715E+02  0.86926556604E+01 -0.33072435287E+03  0.34215762741E+03  0.78620887178E+02 0.  0.
         25    2    1    2    0    0 -0.24199021931E+02  0.46153975046E+01  0.11620866906E+03  0.17250600211E+03  0.12508785489E+03 0.  0.
        -24    2    1    2    0    0  0.62099394646E+02 -0.13308053165E+02  0.31005383747E+03  0.32628006173E+03  0.79321229547E+02 0.  0.
        -11    1    3    3    0    0 -0.23011844411E+02  0.41945744281E+02 -0.13903330739E+03  0.14703486325E+03  0.00000000000E+00 0.  1.
         12    1    3    3    0    0 -0.14888528304E+02 -0.33253088621E+02 -0.19169104548E+03  0.19512276416E+03  0.00000000000E+00 0. -1.
         13    1    5    5    0    0  0.17547638973E+02 -0.52194659302E+01  0.65911059026E+01  0.19457778268E+02  0.00000000000E+00 0. -1.
        -14    1    5    5    0    0  0.44551755673E+02 -0.80885872349E+01  0.30346273157E+03  0.30682228346E+03  0.00000000000E+00 0.  1.
          5    1    4    4  501    0 -0.49424505637E+02  0.41097421769E+02  0.11007237625E+03  0.12753501577E+03  0.41800000000E+01 0.  1.
         -5    1    4    4    0  501  0.25225483705E+02 -0.36482024264E+02  0.61362928092E+01  0.44970986336E+02  0.41800000000E+01 0.  1.
</event>
<event>
11    1  0.8037748E-009  0.2262814E+03  0.7561462E-02  0.1037352E+00
         22   -1    0    0    0    0  0.00000000000E+00  0.00000000000E+00  0.61307765837E+03  0.61307765837E+03  0.00000000000E+00 0. -1.
         22   -1    0    0    0    0 -0.00000000000E+00 -0.00000000000E+00 -0.34190410344E+03  0.34190410344E+03  0.00000000000E+00 0.  1.
         24    2    1    2    0    0  0.64850928558E+02  0.40068567391E+02 -0.13154020256E+03  0.17310252029E+03  0.82767896033E+02 0.  0.
         25    2    1    2    0    0 -0.89422175330E+02  0.15020544803E+03 -0.10047799629E+03  0.23727050906E+03  0.12507383690E+03 0.  0.
        -24    2    1    2    0    0  0.24571246772E+02 -0.19027401542E+03  0.50319175378E+03  0.54460873244E+03  0.81171320470E+02 0.  0.
        -13    1    3    3    0    0  0.83665327353E+02  0.34833893740E+02 -0.12014211433E+03  0.15049058040E+03  0.00000000000E+00 0.  1.
         14    1    3    3    0    0 -0.18814398795E+02  0.52346736516E+01 -0.11398088234E+02  0.22611939891E+02  0.00000000000E+00 0. -1.
         11    1    5    5    0    0  0.17816789232E+02 -0.19609949500E+03  0.45782634616E+03  0.49837477179E+03  0.00000000000E+00 0. -1.
        -12    1    5    5    0    0  0.67544575399E+01  0.58254795809E+01  0.45365407620E+02  0.46233960651E+02  0.00000000000E+00 0.  1.
          5    1    4    4  501    0 -0.10282217981E+03  0.10806334755E+03 -0.11726507944E+03  0.18978582403E+03  0.41800000000E+01 0. -1.
         -5    1    4    4    0  501  0.13400004479E+02  0.42142100477E+02  0.16787083151E+02  0.47484685040E+02  0.41800000000E+01 0. -1.
</event>
<event>
11    1  0.8037748E-009  0.1806841E+03  0.7561462E-02  0.1069091E+00
         22   -1    0    0    0    0  0.00000000000E+00  0.00000000000E+00  0.43241074577E+03  0.43241074577E+03  0.00000000000E+00 0. -1.
         22   -1    0    0    0    0 -0.00000000000E+00 -0.00000000000E+00 -0.43977558228E+03  0.43977558228E+03  0.00000000000E+00 0.  1.
         24    2    1    2    0    0 -0.43380255077E+02  0.14857644905E+02 -0.23581932173E+03  0.25320194914E+03  0.79986738930E+02 0.  0.
         25    2    1    2    0    0 -0.73776517929E+02 -0.77494092231E+02 -0.14196396046E+03  0.21736982671E+03  0.12509023370E+03 0.  0.
        -24    2    1    2    0    0  0.11715677301E+03  0.62636447327E+02  0.37041844568E+03  0.40161455219E+03  0.80220880299E+02 0.  0.
        -13    1    3    3    0    0 -0.43953736647E+02 -0.21030594472E+02 -0.18275099192E+03  0.18913524768E+03  0.00000000000E+00 0.  1.
         14    1    3    3    0    0  0.57348157004E+00  0.35888239376E+02 -0.53068329814E+02  0.64066701459E+02  0.00000000000E+00 0. -1.
         11    1    5    5    0    0  0.80421565031E+02  0.43947484463E+02  0.33487617551E+03  0.34719023955E+03  0.00000000000E+00 0. -1.
        -12    1    5    5    0    0  0.36735207975E+02  0.18688962864E+02  0.35542270172E+02  0.54424312645E+02  0.00000000000E+00 0.  1.
          5    1    4    4  501    0 -0.72923988141E+02 -0.49507864912E+02 -0.16076231953E+03  0.18338738374E+03  0.41800000000E+01 0.  1.
         -5    1    4    4    0  501 -0.85252978786E+00 -0.27986227319E+02  0.18798359071E+02  0.33982442973E+02  0.41800000000E+01 0.  1.
</event>
<event>
11    1  0.8037748E-009  0.1583012E+03  0.7561462E-02  0.1088686E+00
         22   -1    0    0    0    0  0.00000000000E+00  0.00000000000E+00  0.25507888261E+04  0.25507888261E+04  0.00000000000E+00 0. -1.
         22   -1    0    0    0    0 -0.00000000000E+00 -0.00000000000E+00 -0.55846561995E+03  0.55846561995E+03  0.00000000000E+00 0.  1.
         24    2    1    2    0    0  0.88332327044E+02  0.39458144900E+02 -0.53829384917E+03  0.55273897015E+03  0.80003474091E+02 0.  0.
         25    2    1    2    0    0 -0.15627458563E+03  0.24368254563E+02  0.95489598768E+03  0.97595564587E+03  0.12509003739E+03 0.  0.
        -24    2    1    2    0    0  0.67942258590E+02 -0.63826399464E+02  0.15757210676E+04  0.15805598300E+04  0.81132814135E+02 0.  0.
        -13    1    3    3    0    0  0.51209469682E+02  0.60823384595E+02 -0.28651181559E+03  0.29733972888E+03  0.00000000000E+00 0.  1.
         14    1    3    3    0    0  0.37122857362E+02 -0.21365239695E+02 -0.25178203358E+03  0.25539924127E+03  0.00000000000E+00 0. -1.
         11    1    5    5    0    0  0.26131120334E+02  0.13744660671E+02  0.64526822193E+03  0.64594336391E+03  0.00000000000E+00 0. -1.
        -12    1    5    5    0    0  0.41811138256E+02 -0.77571060135E+02  0.93045284570E+03  0.93461646611E+03  0.00000000000E+00 0.  1.
          5    1    4    4  501    0 -0.69812023489E+02  0.63303275153E+02  0.64464146748E+03  0.65150680523E+03  0.41800000000E+01 0. -1.
         -5    1    4    4    0  501 -0.86462562145E+02 -0.38935020590E+02  0.31025452020E+03  0.32444884063E+03  0.41800000000E+01 0. -1.
</event>
<event>
11    1  0.8037748E-009  0.5763422E+03  0.7561462E-02  0.9237451E-01
         22   -1    0    0    0    0  0.00000000000E+00  0.00000000000E+00  0.27404213882E+04  0.27404213882E+04  0.00000000000E+00 0. -1.
         22   -1    0    0    0    0 -0.00000000000E+00 -0.00000000000E+00 -0.33377118665E+03  0.33377118665E+03  0.00000000000E+00 0. -1.
        -24    2    1    2    0    0 -0.30986117879E+02  0.99835585211E+01 -0.17262660380E+03  0.19321889862E+03  0.80459850248E+02 0.  0.
         25    2    1    2    0    0 -0.28147700148E+03 -0.48063341640E+03  0.63073423075E+03  0.85071211024E+03  0.12509053264E+03 0.  0.
         24    2    1    2    0    0  0.31246311936E+03  0.47064985788E+03  0.19485425747E+04  0.20302615660E+04  0.77455610306E+02 0.  0.
        -11    1    5    5    0    0  0.13076759862E+03  0.15695150051E+03  0.59909427901E+03  0.63296752958E+03  0.00000000000E+00 0.  1.
         12    1    5    5    0    0  0.18169552074E+03  0.31369835736E+03  0.13494482956E+04  0.13972940364E+04  0.00000000000E+00 0. -1.
         11    1    3    3    0    0 -0.18035204223E+02  0.45450527412E+02 -0.91920424258E+02  0.10411716203E+03  0.00000000000E+00 0. -1.
        -12    1    3    3    0    0 -0.12950913656E+02 -0.35466968891E+02 -0.80706179546E+02  0.89101736592E+02  0.00000000000E+00 0.  1.
          5    1    4    4  501    0 -0.21670257739E+02 -0.14335337434E+03  0.15503830010E+03  0.21230670480E+03  0.41800000000E+01 0. -1.
         -5    1    4    4    0  501 -0.25980674374E+03 -0.33728004205E+03  0.47569593064E+03  0.63840540544E+03  0.41800000000E+01 0. -1.
</event>
<event>
11    1  0.8037748E-009  0.3804621E+03  0.7561462E-02  0.9709232E-01
         22   -1    0    0    0    0  0.00000000000E+00  0.00000000000E+00  0.53640914455E+03  0.53640914455E+03  0.00000000000E+00 0. -1.
         22   -1    0    0    0    0 -0.00000000000E+00 -0.00000000000E+00 -0.35315631768E+03  0.35315631768E+03  0.00000000000E+00 0. -1.
         24    2    1    2    0    0 -0.11426911264E+02 -0.41977824917E+02 -0.58249813708E+01  0.90601783950E+02  0.79259326020E+02 0.  0.
         25    2    1    2    0    0  0.28505858290E+03 -0.20125288809E+03 -0.15731980618E+02  0.37101806383E+03  0.12508312367E+03 0.  0.
        -24    2    1    2    0    0 -0.27363167163E+03  0.24323071300E+03  0.20480978886E+03  0.42794561445E+03  0.84586806576E+02 0.  0.
        -11    1    3    3    0    0 -0.45079205435E+02 -0.30542239921E+02  0.74940020487E+00  0.54456632128E+02  0.00000000000E+00 0.  1.
         12    1    3    3    0    0  0.33652294170E+02 -0.11435584996E+02 -0.65743815757E+01  0.36145151822E+02  0.00000000000E+00 0. -1.
         13    1    5    5    0    0 -0.24632839761E+03  0.22138253464E+03  0.15151833568E+03  0.36420559051E+03  0.00000000000E+00 0. -1.
        -14    1    5    5    0    0 -0.27303274029E+02  0.21848178363E+02  0.53291453177E+02  0.63740023943E+02  0.00000000000E+00 0.  1.
          5    1    4    4  501    0  0.28381063241E+03 -0.19136620911E+03  0.10668006199E+02  0.34249201424E+03  0.41800000000E+01 0.  1.
         -5    1    4    4    0  501  0.12479504869E+01 -0.98866789761E+01 -0.26399986816E+02  0.28526049595E+02  0.41800000000E+01 0.  1.
</event>
<event>
11    1  0.8037748E-009  0.1433503E+03  0.7561462E-02  0.1103874E+00
         22   -1    0    0    0    0  0.00000000000E+00  0.00000000000E+00  0.43407799859E+03  0.43407799859E+03  0.00000000000E+00 0. -1.
         22   -1    0    0    0    0 -0.00000000000E+00 -0.00000000000E+00 -0.24010149381E+03  0.24010149381E+03  0.00000000000E+00 0. -1.
        -24    2    1    2    0    0  0.53155509097E+02 -0.48789425307E+02 -0.17744219234E+03  0.20755399374E+03  0.79918787079E+02 0.  0.
         25    2    1    2    0    0  0.39101222602E+01  0.75477996479E+02  0.98010990395E+02  0.17597077875E+03  0.12508934297E+03 0.  0.
         24    2    1    2    0    0 -0.57065631358E+02 -0.26688571172E+02  0.27340770672E+03  0.29065471990E+03  0.75892199836E+02 0.  0.
        -13    1    5    5    0    0 -0.47532109961E+01 -0.43258396311E+01 -0.39357001311E+01  0.75362881320E+01  0.00000000000E+00 0.  1.
         14    1    5    5    0    0 -0.52312420362E+02 -0.22362731541E+02  0.27734340685E+03  0.28311843177E+03  0.00000000000E+00 0. -1.
         11    1    3    3    0    0  0.19630502040E+01 -0.54771655276E+02 -0.10758922116E+03  0.12074447523E+03  0.00000000000E+00 0. -1.
        -12    1    3    3    0    0  0.51192458893E+02  0.59822299682E+01 -0.69852971173E+02  0.86809518514E+02  0.00000000000E+00 0.  1.
          5    1    4    4  501    0  0.37699036797E+02  0.95914364151E+02  0.86539860419E+02  0.13463804242E+03  0.41800000000E+01 0.  1.
         -5    1    4    4    0  501 -0.33788914537E+02 -0.20436367672E+02  0.11471129976E+02  0.41332736325E+02  0.41800000000E+01 0.  1.
</event>
<event>
11    1  0.8037748E-009  0.1319469E+03  0.7561462E-02  0.1116900E+00
         22   -1    0    0    0    0  0.00000000000E+00  0.00000000000E+00  0.60656165708E+03  0.60656165708E+03  0.00000000000E+00 0. -1.
         22   -1    0    0    0    0 -0.00000000000E+00 -0.00000000000E+00 -0.82895491840E+03  0.82895491840E+03  0.00000000000E+00 0.  1.
        -24    2    1    2    0    0  0.83692307004E+01 -0.49488840279E+02 -0.52051565993E+03  0.52898823743E+03  0.79829905221E+02 0.  0.
         25    2    1    2    0    0  0.20746286314E+02  0.17679598938E+02 -0.28710612239E+03  0.31435866270E+03  0.12509383152E+03 0.  0.
         24    2    1    2    0    0 -0.29115517015E+02  0.31809241341E+02  0.58522852101E+03  0.59216967534E+03  0.79454146702E+02 0.  0.
        -13    1    5    5    0    0 -0.47136308470E+02 -0.26247767091E+01  0.22820182371E+03  0.23303388890E+03  0.00000000000E+00 0.  1.
         14    1    5    5    0    0  0.18020791455E+02  0.34434018050E+02  0.35702669729E+03  0.35913578644E+03  0.00000000000E+00 0. -1.
         13    1    3    3    0    0 -0.75358428392E+01 -0.17344182600E+01 -0.19358807619E+01  0.79714972447E+01  0.00000000000E+00 0. -1.
        -14    1    3    3    0    0  0.15905073540E+02 -0.47754422019E+02 -0.51857977917E+03  0.52101674018E+03  0.00000000000E+00 0.  1.
          5    1    4    4  501    0  0.67023951827E+02 -0.96851695424E+01 -0.11016186394E+03  0.12937975613E+03  0.41800000000E+01 0.  1.
         -5    1    4    4    0  501 -0.46277665513E+02  0.27364768480E+02 -0.17694425845E+03  0.18497890658E+03  0.41800000000E+01 0.  1.
</event>
<event>
11    1  0.8037748E-009  0.1593686E+03  0.7561462E-02  0.1087673E+00
         22   -1    0    0    0    0  0.00000000000E+00  0.00000000000E+00  0.12477517070E+04  0.12477517070E+04  0.00000000000E+00 0. -1.
         22   -1    0    0    0    0 -0.00000000000E+00 -0.00000000000E+00 -0.43495154727E+03  0.43495154727E+03  0.00000000000E+00 0.  1.
        -24    2    1    2    0    0  0.13644666407E+02  0.12228591631E+02 -0.36926284692E+03  0.37828427689E+03  0.80051412586E+02 0.  0.
         25    2    1    2    0    0  0.61140394386E+02 -0.76926698814E+02  0.52207509770E+02  0.16741222631E+03  0.12508143198E+03 0.  0.
         24    2    1    2    0    0 -0.74785060793E+02  0.64698107183E+02  0.11298554969E+04  0.11370067510E+04  0.80201357429E+02 0.  0.
        -11    1    5    5    0    0 -0.30825451873E+02  0.71336646958E+02  0.55197413402E+03  0.55741777000E+03  0.00000000000E+00 0.  1.
         12    1    5    5    0    0 -0.43959608920E+02 -0.66385397753E+01  0.57788136284E+03  0.57958898104E+03  0.00000000000E+00 0. -1.
         13    1    3    3    0    0  0.37646510561E+02  0.73871837677E+01 -0.88523945234E+02  0.96479630603E+02  0.00000000000E+00 0. -1.
        -14    1    3    3    0    0 -0.24001844154E+02  0.48414078632E+01 -0.28073890168E+03  0.28180464629E+03  0.00000000000E+00 0.  1.
          5    1    4    4  501    0  0.99508132893E+02 -0.63881322655E+02  0.38525239543E+02  0.12443616186E+03  0.41800000000E+01 0. -1.
         -5    1    4    4    0  501 -0.38367738507E+02 -0.13045376159E+02  0.13682270227E+02  0.42976064453E+02  0.41800000000E+01 0. -1.
</event>
<event>
11    1  0.8037748E-009  0.1337332E+03  0.7561462E-02  0.1114765E+00
         22   -1    0    0    0    0  0.00000000000E+00  0.00000000000E+00  0.15134532472E+03  0.15134532472E+03  0.00000000000E+00 0.  1.
         22   -1    0    0    0    0 -0.00000000000E+00 -0.00000000000E+00 -0.11871683189E+04  0.11871683189E+04  0.00000000000E+00 0. -1.
         24    2    1    2    0    0  0.23484955549E+01  0.45328864043E+02 -0.10594675310E+04  0.10634977826E+04  0.80596917055E+02 0.  0.
         25    2    1    2    0    0 -0.11246786712E+02  0.88337349309E+01 -0.66003462504E+02  0.14215758813E+03  0.12509115763E+03 0.  0.
        -24    2    1    2    0    0  0.88982911571E+01 -0.54162598974E+02  0.89647999295E+02  0.13285827290E+03  0.81251401136E+02 0.  0.
        -11    1    3    3    0    0  0.70372751182E+01  0.65160207108E+02 -0.59804052107E+03  0.60162101083E+03  0.00000000000E+00 0.  1.
         12    1    3    3    0    0 -0.46887795633E+01 -0.19831343065E+02 -0.46142700993E+03  0.46187677179E+03  0.00000000000E+00 0. -1.
         13    1    5    5    0    0  0.34565254829E+02 -0.60454566669E+02  0.52228786784E+02  0.87048019170E+02  0.00000000000E+00 0. -1.
        -14    1    5    5    0    0 -0.25666963672E+02  0.62919676949E+01  0.37419212511E+02  0.45810253727E+02  0.00000000000E+00 0.  1.
          5    1    4    4  501    0 -0.51940255431E+02 -0.35278475910E+02 -0.48661141385E+02  0.79547093458E+02  0.41800000000E+01 0.  1.
         -5    1    4    4    0  501  0.40693468719E+02  0.44112210841E+02 -0.17342321119E+02  0.62610494675E+02  0.41800000000E+01 0.  1.
</event>
<event>
11    1  0.8037748E-009  0.1400545E+03  0.7561462E-02  0.1107498E+00
         22   -1    0    0    0    0  0.00000000000E+00  0.00000000000E+00  0.15006672854E+04  0.15006672854E+04  0.00000000000E+00 0.  1.
         22   -1    0    0    0    0 -0.00000000000E+00 -0.00000000000E+00 -0.63589349963E+03  0.63589349963E+03  0.00000000000E+00 0.  1.
         24    2    1    2    0    0 -0.59448730853E+00 -0.18145416519E+02 -0.56985152453E+03  0.57579900712E+03  0.80524077403E+02 0.  0.
         25    2    1    2    0    0  0.63568920866E+02  0.17796698806E+02  0.20391204777E+02  0.14290150691E+03  0.12508920520E+03 0.  0.
        -24    2    1    2    0    0 -0.62974433557E+02  0.34871771306E+00  0.14142341056E+04  0.14178602710E+04  0.79396107976E+02 0.  0.
        -13    1    3    3    0    0 -0.36894699922E+02 -0.16687149963E+02 -0.40349775227E+03  0.40552449487E+03  0.00000000000E+00 0.  1.
         14    1    3    3    0    0  0.36300212614E+02 -0.14582665557E+01 -0.16635377226E+03  0.17027451225E+03  0.00000000000E+00 0. -1.
         11    1    5    5    0    0 -0.29466144882E+02 -0.33145353623E+02  0.38676353196E+03  0.38929795507E+03  0.00000000000E+00 0. -1.
        -12    1    5    5    0    0 -0.33508288676E+02  0.33494071336E+02  0.10274705736E+04  0.10285623160E+04  0.00000000000E+00 0.  1.
          5    1    4    4  501    0  0.51860226799E+02  0.10656906454E+01 -0.48371706316E+02  0.71048667771E+02  0.41800000000E+01 0. -1.
         -5    1    4    4    0  501  0.11708694067E+02  0.16731008160E+02  0.68762911092E+02  0.71852839141E+02  0.41800000000E+01 0. -1.
</event>
<event>
11    1  0.8037748E-009  0.1280449E+03  0.7561462E-02  0.1121695E+00
         22   -1    0    0    0    0  0.00000000000E+00  0.00000000000E+00  0.13902373807E+04  0.13902373807E+04  0.00000000000E+00 0.  1.
         22   -1    0    0    0    0 -0.00000000000E+00 -0.00000000000E+00 -0.21673046775E+03  0.21673046775E+03  0.00000000000E+00 0. -1.
        -24    2    1    2    0    0  0.18671560007E+02 -0.22618974916E+02 -0.10782885870E+03  0.13712095316E+03  0.79466016938E+02 0.  0.
         25    2    1    2    0    0 -0.42768871114E+02  0.98648163642E+01 -0.45587241271E+02  0.14018543992E+03  0.12508904853E+03 0.  0.
         24    2    1    2    0    0  0.24097311108E+02  0.12754158552E+02  0.13269230130E+04  0.13296614554E+04  0.80818034650E+02 0.  0.
        -11    1    5    5    0    0  0.28077683284E+02  0.38149672677E+01  0.13084501413E+04  0.13087569226E+04  0.00000000000E+00 0.  1.
         12    1    5    5    0    0 -0.39803721757E+01  0.89391912841E+01  0.18472871687E+02  0.20904532806E+02  0.00000000000E+00 0. -1.
         11    1    3    3    0    0  0.24649745039E+02 -0.11985904979E+02 -0.11806000432E+03  0.12119998543E+03  0.00000000000E+00 0. -1.
        -12    1    3    3    0    0 -0.59781850327E+01 -0.10633069937E+02  0.10231145624E+02  0.15920967726E+02  0.00000000000E+00 0.  1.
          5    1    4    4  501    0 -0.31526830089E+02 -0.59917535087E+01 -0.87773193534E+02  0.93549174388E+02  0.41800000000E+01 0. -1.
         -5    1    4    4    0  501 -0.11242041025E+02  0.15856569873E+02  0.42185952263E+02  0.46636265533E+02  0.41800000000E+01 0. -1.
</event>
<event>
11    1  0.8037748E-009  0.1649171E+03  0.7561462E-02  0.1082542E+00
         22   -1    0    0    0    0  0.00000000000E+00  0.00000000000E+00  0.15487610740E+03  0.15487610740E+03  0.00000000000E+00 0.  1.
         22   -1    0    0    0    0 -0.00000000000E+00 -0.00000000000E+00 -0.11722327922E+04  0.11722327922E+04  0.00000000000E+00 0. -1.
         24    2    1    2    0    0  0.58050971922E+02  0.85965922986E+02 -0.70943194322E+03  0.72149095014E+03  0.80594378286E+02 0.  0.
         25    2    1    2    0    0 -0.14717475940E+03 -0.34877637341E+02 -0.40019108931E+03  0.44573247264E+03  0.12509064641E+03 0.  0.
        -24    2    1    2    0    0  0.89123787476E+02 -0.51088285645E+02  0.92266347724E+02  0.15988547682E+03  0.80605361807E+02 0.  0.
        -13    1    3    3    0    0 -0.12250078893E+02 -0.15503183840E+01 -0.24657698788E+02  0.27576621068E+02  0.00000000000E+00 0.  1.
         14    1    3    3    0    0  0.70301050815E+02  0.87516241370E+02 -0.68477424443E+03  0.69391432907E+03  0.00000000000E+00 0. -1.
         13    1    5    5    0    0  0.35203676193E+02 -0.65484773376E+02  0.46317840861E+02  0.87595072599E+02  0.00000000000E+00 0. -1.
        -14    1    5    5    0    0  0.53920111282E+02  0.14396487731E+02  0.45948506863E+02  0.72290404222E+02  0.00000000000E+00 0.  1.
          5    1    4    4  501    0 -0.10096387801E+02 -0.34287060833E+02 -0.19911001046E+03  0.20233587980E+03  0.41800000000E+01 0. -1.
         -5    1    4    4    0  501 -0.13707837160E+03 -0.59057650796E+00 -0.20108107884E+03  0.24339659285E+03  0.41800000000E+01 0. -1.
</event>
<event>
11    1  0.8037748E-009  0.1382737E+03  0.7561462E-02  0.1109502E+00
         22   -1    0    0    0    0  0.00000000000E+00  0.00000000000E+00  0.54001932328E+03  0.54001932328E+03  0.00000000000E+00 0.  1.
         22   -1    0    0    0    0 -0.00000000000E+00 -0.00000000000E+00 -0.96560382144E+02  0.96560382144E+02  0.00000000000E+00 0.  1.
         24    2    1    2    0    0 -0.57699284157E+02  0.11962997213E+02 -0.33598671738E+02  0.10498741751E+03  0.80132180796E+02 0.  0.
         25    2    1    2    0    0  0.61469521907E+02  0.86637002849E+01  0.21228728429E+03  0.25409988402E+03  0.12508916085E+03 0.  0.
        -24    2    1    2    0    0 -0.37702377499E+01 -0.20626697498E+02  0.26477032859E+03  0.27749240389E+03  0.80368102966E+02 0.  0.
        -13    1    3    3    0    0 -0.72024033575E+02 -0.73120518336E+01 -0.36002333979E+02  0.80852307118E+02  0.00000000000E+00 0.  1.
         14    1    3    3    0    0  0.14324749418E+02  0.19275049047E+02  0.24036622407E+01  0.24135110396E+02  0.00000000000E+00 0. -1.
         11    1    5    5    0    0 -0.62440877827E+01 -0.51251316265E+02  0.14798076371E+03  0.15672904160E+03  0.00000000000E+00 0. -1.
        -12    1    5    5    0    0  0.24738500329E+01  0.30624618767E+02  0.11678956487E+03  0.12076336229E+03  0.00000000000E+00 0.  1.
          5    1    4    4  501    0  0.37379985505E+02  0.64933981331E+02  0.14343353576E+03  0.16187753651E+03  0.41800000000E+01 0.  1.
         -5    1    4    4    0  501  0.24089536402E+02 -0.56270281046E+02  0.68853748529E+02  0.92222347506E+02  0.41800000000E+01 0.  1.
</event>
<event>
11    1  0.8037748E-009  0.1482374E+03  0.7561462E-02  0.1098694E+00
         22   -1    0    0    0    0  0.00000000000E+00  0.00000000000E+00  0.38199463345E+03  0.38199463345E+03  0.00000000000E+00 0.  1.
         22   -1    0    0    0    0 -0.00000000000E+00 -0.00000000000E+00 -0.12914208868E+04  0.12914208868E+04  0.00000000000E+00 0. -1.
        -24    2    1    2    0    0  0.10438211905E+02 -0.80273664551E+02 -0.11334856321E+04  0.11395917361E+04  0.85596899828E+02 0.  0.
         25    2    1    2    0    0  0.14753423610E+02  0.66109959048E+02 -0.11774000325E+03  0.18466367442E+03  0.12509905712E+03 0.  0.
         24    2    1    2    0    0 -0.25191635515E+02  0.14163705504E+02  0.34179938203E+03  0.34916010972E+03  0.65197665697E+02 0.  0.
        -11    1    5    5    0    0  0.49113638928E+01  0.22977560299E+02  0.26724653499E+03  0.26827746874E+03  0.00000000000E+00 0.  1.
         12    1    5    5    0    0 -0.30102999408E+02 -0.88138547949E+01  0.74552847039E+02  0.80882640977E+02  0.00000000000E+00 0. -1.
         11    1    3    3    0    0  0.74466905581E+01 -0.29952392700E+02 -0.90865706680E+03  0.90918109532E+03  0.00000000000E+00 0. -1.
        -12    1    3    3    0    0  0.29915213470E+01 -0.50321271851E+02 -0.22482856532E+03  0.23041064078E+03  0.00000000000E+00 0.  1.
          5    1    4    4  501    0  0.48216579871E+02 -0.17740656774E+02 -0.36740033620E+02  0.63299857406E+02  0.41800000000E+01 0.  1.
         -5    1    4    4    0  501 -0.33463156261E+02  0.83850615821E+02 -0.80999969626E+02  0.12136381701E+03  0.41800000000E+01 0.  1.
</event>
<event>
11    1  0.8037748E-009  0.1535222E+03  0.7561462E-02  0.1093333E+00
         22   -1    0    0    0    0  0.00000000000E+00  0.00000000000E+00  0.48257130820E+02  0.48257130820E+02  0.00000000000E+00 0.  1.
         22   -1    0    0    0    0 -0.00000000000E+00 -0.00000000000E+00 -0.32493648379E+04  0.32493648379E+04  0.00000000000E+00 0.  1.
        -24    2    1    2    0    0 -0.38544305039E+02  0.80451368235E+02 -0.29410098899E+04  0.29434932056E+04  0.81578136994E+02 0.  0.
         25    2    1    2    0    0  0.59346595238E+01 -0.90152199289E+02 -0.17823500316E+03  0.23575156202E+03  0.12509373855E+03 0.  0.
         24    2    1    2    0    0  0.32609645515E+02  0.97008310545E+01 -0.81862814010E+02  0.11837720115E+03  0.78448367295E+02 0.  0.
        -11    1    5    5    0    0 -0.14133714423E+02  0.27847684566E+02 -0.14579352260E+02  0.34464662067E+02  0.00000000000E+00 0.  1.
         12    1    5    5    0    0  0.46743359938E+02 -0.18146853511E+02 -0.67283461750E+02  0.83912539085E+02  0.00000000000E+00 0. -1.
         13    1    3    3    0    0 -0.54517029739E+02  0.43512423625E+02 -0.12051875484E+04  0.12072044004E+04  0.00000000000E+00 0. -1.
        -14    1    3    3    0    0  0.15972724700E+02  0.36938944610E+02 -0.17358223415E+04  0.17362888051E+04  0.00000000000E+00 0.  1.
          5    1    4    4  501    0 -0.14961940536E+02 -0.11694226201E+03 -0.15312210846E+03  0.19329564094E+03  0.41800000000E+01 0. -1.
         -5    1    4    4    0  501  0.20896600059E+02  0.26790062720E+02 -0.25112894701E+02  0.42455921081E+02  0.41800000000E+01 0. -1.
</event>
<event>
11    1  0.8037748E-009  0.5516827E+03  0.7561462E-02  0.9284915E-01
         22   -1    0    0    0    0  0.00000000000E+00  0.00000000000E+00  0.34940499539E+03  0.34940499539E+03  0.00000000000E+00 0.  1.
         22   -1    0    0    0    0 -0.00000000000E+00 -0.00000000000E+00 -0.21776576606E+03  0.21776576606E+03  0.00000000000E+00 0. -1.
        -24    2    1    2    0    0  0.74924779460E+02 -0.97276947752E+02 -0.92746432542E+01  0.14814889485E+03  0.82374443229E+02 0.  0.
         25    2    1    2    0    0 -0.14992512381E+03  0.17287351130E+03  0.87106602936E+02  0.27495109593E+03  0.12509097178E+03 0.  0.
         24    2    1    2    0    0  0.75000344349E+02 -0.75596563551E+02  0.53807269641E+02  0.14407077066E+03  0.80754396909E+02 0.  0.
        -11    1    5    5    0    0 -0.89971689215E+00  0.34215190373E+01  0.32201129073E+02  0.32394891520E+02  0.00000000000E+00 0.  1.
         12    1    5    5    0    0  0.75900061241E+02 -0.79018082588E+02  0.21606140568E+02  0.11167587914E+03  0.00000000000E+00 0. -1.
         11    1    3    3    0    0  0.69022351961E+02 -0.28206006765E+02 -0.21841634608E+02  0.77696337688E+02  0.00000000000E+00 0. -1.
        -12    1    3    3    0    0  0.59024274991E+01 -0.69070940987E+02  0.12566991354E+02  0.70452557164E+02  0.00000000000E+00 0.  1.
          5    1    4    4  501    0 -0.86255445599E+02  0.15192840181E+03  0.13446708630E+02  0.17527272333E+03  0.41800000000E+01 0. -1.
         -5    1    4    4    0  501 -0.63669678210E+02  0.20945109494E+02  0.73659894306E+02  0.99678372600E+02  0.41800000000E+01 0. -1.
</event>
<event>
11    1  0.8037748E-009  0.2345324E+03  0.7561462E-02  0.1032478E+00
         22   -1    0    0    0    0  0.00000000000E+00  0.00000000000E+00  0.47774421307E+03  0.47774421307E+03  0.00000000000E+00 0.  1.
         22   -1    0    0    0    0 -0.00000000000E+00 -0.00000000000E+00 -0.12039625734E+04  0.12039625734E+04  0.00000000000E+00 0. -1.
         24    2    1    2    0    0  0.91638819438E+02  0.17015052948E+03 -0.83706329020E+03  0.86193457834E+03  0.70052763091E+02 0.  0.
         25    2    1    2    0    0 -0.12529081042E+03 -0.17866316578E+03 -0.30427642303E+03  0.39477706290E+03  0.12508586570E+03 0.  0.
        -24    2    1    2    0    0  0.33651990986E+02  0.85126363000E+01  0.41512135294E+03  0.42499514520E+03  0.84203410275E+02 0.  0.
        -11    1    3    3    0    0 -0.38849071067E+01  0.47866314455E+02 -0.14722411011E+03  0.15485869417E+03  0.00000000000E+00 0.  1.
         12    1    3    3    0    0  0.95523726544E+02  0.12228421503E+03 -0.68983918009E+03  0.70707588417E+03  0.00000000000E+00 0. -1.
         13    1    5    5    0    0 -0.24794112540E+02 -0.13806490936E+02  0.11901650541E+03  0.12235316003E+03  0.00000000000E+00 0. -1.
        -14    1    5    5    0    0  0.58446103526E+02  0.22319127236E+02  0.29610484753E+03  0.30264198517E+03  0.00000000000E+00 0.  1.
          5    1    4    4  501    0 -0.90181094599E+02 -0.18949711744E+03 -0.28221332330E+03  0.35171525356E+03  0.41800000000E+01 0.  1.
         -5    1    4    4    0  501 -0.35109715825E+02  0.10833951658E+02 -0.22063099732E+02  0.43061809340E+02  0.41800000000E+01 0.  1.
</event>
<event>
11    1  0.8037748E-009  0.3726622E+03  0.7561462E-02  0.9734051E-01
         22   -1    0    0    0    0  0.00000000000E+00  0.00000000000E+00  0.73503595933E+02  0.73503595933E+02  0.00000000000E+00 0.  1.
         22   -1    0    0    0    0 -0.00000000000E+00 -0.00000000000E+00 -0.23873977778E+04  0.23873977778E+04  0.00000000000E+00 0.  1.
         24    2    1    2    0    0  0.49307190333E+02  0.32610053299E+01 -0.38329798891E+03  0.39507142497E+03  0.81989324584E+02 0.  0.
         25    2    1    2    0    0 -0.30622357799E+03  0.20956554374E+03 -0.10122214531E+04  0.10853243687E+04  0.12508444443E+03 0.  0.
        -24    2    1    2    0    0  0.25691638766E+03 -0.21282654907E+03 -0.91837473983E+03  0.98050558009E+03  0.81718171717E+02 0.  0.
        -13    1    3    3    0    0  0.50335102594E+01  0.37293032238E+02 -0.19790298055E+03  0.20144899153E+03  0.00000000000E+00 0.  1.
         14    1    3    3    0    0  0.44273680073E+02 -0.34032026908E+02 -0.18539500836E+03  0.19362243343E+03  0.00000000000E+00 0. -1.
         13    1    5    5    0    0  0.27570788092E+02 -0.91312565138E+01 -0.15698428577E+03  0.15964834537E+03  0.00000000000E+00 0. -1.
        -14    1    5    5    0    0  0.22934559957E+03 -0.20369529256E+03 -0.76139045406E+03  0.82085723471E+03  0.00000000000E+00 0.  1.
          5    1    4    4  501    0 -0.24171057632E+03  0.14603890046E+03 -0.59853853725E+03  0.66182869092E+03  0.41800000000E+01 0. -1.
         -5    1    4    4    0  501 -0.64513001670E+02  0.63526643282E+02 -0.41368291589E+03  0.42349567777E+03  0.41800000000E+01 0. -1.
</event>
<event>
11    1  0.8037748E-009  0.1944913E+03  0.7561462E-02  0.1058489E+00
         22   -1    0    0    0    0  0.00000000000E+00  0.00000000000E+00  0.44830388859E+03  0.44830388859E+03  0.00000000000E+00 0. -1.
         22   -1    0    0    0    0 -0.00000000000E+00 -0.00000000000E+00 -0.12271618209E+04  0.12271618209E+04  0.00000000000E+00 0.  1.
         24    2    1    2    0    0 -0.64990819617E+02  0.13309151954E+03 -0.11115532585E+04  0.11241894229E+04  0.79461014283E+02 0.  0.
         25    2    1    2    0    0  0.63555754086E+02 -0.14912337475E+03 -0.38213142522E+01  0.20479043781E+03  0.12508959269E+03 0.  0.
        -24    2    1    2    0    0  0.14350655307E+01  0.16031855206E+02  0.33651664044E+03  0.34648584883E+03  0.80931541143E+02 0.  0.
        -13    1    3    3    0    0 -0.70675338826E+02  0.76280364948E+02 -0.55026011914E+03  0.55999990742E+03  0.00000000000E+00 0.  1.
         14    1    3    3    0    0  0.56845192090E+01  0.56811154597E+02 -0.56129313939E+03  0.56418951548E+03  0.00000000000E+00 0. -1.
         11    1    5    5    0    0  0.19230064555E+02 -0.43462219962E+01  0.30193953565E+03  0.30258249820E+03  0.00000000000E+00 0. -1.
        -12    1    5    5    0    0 -0.17794999024E+02  0.20378077202E+02  0.34577104782E+02  0.43903350621E+02  0.00000000000E+00 0.  1.
          5    1    4    4  501    0  0.58608587519E+02 -0.14729059773E+03  0.37477768546E+02  0.16294643981E+03  0.41800000000E+01 0. -1.
         -5    1    4    4    0  501  0.49471665667E+01 -0.18327770202E+01 -0.41299082798E+02  0.41843998000E+02  0.41800000000E+01 0. -1.
</event>
<event>
11    1  0.8037748E-009  0.3314628E+03  0.7561462E-02  0.9876899E-01
         22   -1    0    0    0    0  0.00000000000E+00  0.00000000000E+00  0.12818702410E+04  0.12818702410E+04  0.00000000000E+00 0.  1.
         22   -1    0    0    0    0 -0.00000000000E+00 -0.00000000000E+00 -0.25601819925E+03  0.25601819925E+03  0.00000000000E+00 0.  1.
         24    2    1    2    0    0 -0.22345647623E+02  0.89914133458E+02 -0.41854752678E+02  0.12923329948E+03  0.79784371964E+02 0.  0.
         25    2    1    2    0    0 -0.20604583552E+03 -0.28567729856E+03  0.92722909769E+02  0.38511223496E+03  0.12508992874E+03 0.  0.
        -24    2    1    2    0    0  0.22839148314E+03  0.19576316510E+03  0.97498388469E+03  0.10235429058E+04  0.80997643962E+02 0.  0.
        -11    1    3    3    0    0  0.28327660139E+02  0.29298351923E+02 -0.26880204887E+02  0.48820028360E+02  0.00000000000E+00 0.  1.
         12    1    3    3    0    0 -0.50673307762E+02  0.60615781536E+02 -0.14974547791E+02  0.80413271120E+02  0.00000000000E+00 0. -1.
         11    1    5    5    0    0  0.54824380342E+02  0.10032597616E+02  0.13879720060E+03  0.14956947747E+03  0.00000000000E+00 0. -1.
        -12    1    5    5    0    0  0.17356710280E+03  0.18573056748E+03  0.83618668408E+03  0.87397342838E+03  0.00000000000E+00 0.  1.
          5    1    4    4  501    0  0.63969241293E+01 -0.23671884050E+02  0.34896858645E+02  0.42854893257E+02  0.41800000000E+01 0. -1.
         -5    1    4    4    0  501 -0.21244275965E+03 -0.26200541450E+03  0.57826051124E+02  0.34225734170E+03  0.41800000000E+01 0. -1.
</event>
<event>
11    1  0.8037748E-009  0.1641078E+03  0.7561462E-02  0.1083276E+00
         22   -1    0    0    0    0  0.00000000000E+00  0.00000000000E+00  0.42249443393E+02  0.42249443393E+02  0.00000000000E+00 0. -1.
         22   -1    0    0    0    0 -0.00000000000E+00 -0.00000000000E+00 -0.97411050379E+03  0.97411050379E+03  0.00000000000E+00 0.  1.
         24    2    1    2    0    0 -0.34850038093E+02 -0.11856379349E+03 -0.33484136813E+03  0.36578711686E+03  0.80059819932E+02 0.  0.
         25    2    1    2    0    0  0.65673415309E+02  0.69375987878E+02 -0.40606365759E+03  0.43550493724E+03  0.12510328203E+03 0.  0.
        -24    2    1    2    0    0 -0.30823377216E+02  0.49187805610E+02 -0.19095603468E+03  0.21506789308E+03  0.80127839426E+02 0.  0.
        -13    1    3    3    0    0 -0.27248798761E+02 -0.41141267219E+01 -0.33650212853E+02  0.43494366275E+02  0.00000000000E+00 0.  1.
         14    1    3    3    0    0 -0.76012393324E+01 -0.11444966677E+03 -0.30119115527E+03  0.32229275058E+03  0.00000000000E+00 0. -1.
         13    1    5    5    0    0 -0.30466954303E+02  0.63119324499E+02 -0.94736338291E+02  0.11784421166E+03  0.00000000000E+00 0. -1.
        -14    1    5    5    0    0 -0.35642291253E+00 -0.13931518889E+02 -0.96219696386E+02  0.97223681418E+02  0.00000000000E+00 0.  1.
          5    1    4    4  501    0  0.75078006081E+02  0.53959648307E+02 -0.13425569187E+03  0.16306567340E+03  0.41800000000E+01 0.  1.
         -5    1    4    4    0  501 -0.94045907718E+01  0.15416339571E+02 -0.27180796572E+03  0.27243926384E+03  0.41800000000E+01 0.  1.
</event>
<event>
11    1  0.8037748E-009  0.1507812E+03  0.7561462E-02  0.1096083E+00
         22   -1    0    0    0    0  0.00000000000E+00  0.00000000000E+00  0.31793814158E+02  0.31793814158E+02  0.00000000000E+00 0.  1.
         22   -1    0    0    0    0 -0.00000000000E+00 -0.00000000000E+00 -0.19374626276E+04  0.19374626276E+04  0.00000000000E+00 0. -1.
        -24    2    1    2    0    0 -0.48753195689E+02  0.70535020847E+02 -0.14320158281E+04  0.14367999524E+04  0.79829242310E+02 0.  0.
         25    2    1    2    0    0  0.73608888138E+02 -0.37535971830E+02 -0.34393990248E+03  0.37519452632E+03  0.12509619684E+03 0.  0.
         24    2    1    2    0    0 -0.24855692448E+02 -0.32999049017E+02 -0.12971308282E+03  0.15726196304E+03  0.78734353877E+02 0.  0.
        -11    1    5    5    0    0 -0.42803288335E+02 -0.14089691102E+02 -0.29851215159E+02  0.54053084408E+02  0.00000000000E+00 0.  1.
         12    1    5    5    0    0  0.17947595886E+02 -0.18909357915E+02 -0.99861867663E+02  0.10320887863E+03  0.00000000000E+00 0. -1.
         11    1    3    3    0    0 -0.29538057483E+02  0.86254598037E+02 -0.10345746475E+04  0.10385841583E+04  0.00000000000E+00 0. -1.
        -12    1    3    3    0    0 -0.19215138207E+02 -0.15719577190E+02 -0.39744118057E+03  0.39821579408E+03  0.00000000000E+00 0.  1.
          5    1    4    4  501    0 -0.25894171479E+02 -0.41615392549E+02 -0.93552458338E+02  0.10569713276E+03  0.41800000000E+01 0.  1.
         -5    1    4    4    0  501  0.99503059617E+02  0.40794207187E+01 -0.25038744414E+03  0.26949739355E+03  0.41800000000E+01 0.  1.
</event>
<event>
11    1  0.8037748E-009  0.1753423E+03  0.7561462E-02  0.1073474E+00
         22   -1    0    0    0    0  0.00000000000E+00  0.00000000000E+00  0.89171344119E+03  0.89171344119E+03  0.00000000000E+00 0.  1.
         22   -1    0    0    0    0 -0.00000000000E+00 -0.00000000000E+00 -0.78511216151E+03  0.78511216151E+03  0.00000000000E+00 0.  1.
         24    2    1    2    0    0  0.12193091264E+03 -0.24887624887E+02 -0.70297391737E+03  0.71857873692E+03  0.81832336601E+02 0.  0.
         25    2    1    2    0    0 -0.79961711059E+02  0.99268458916E+02  0.43703951619E+02  0.18386322159E+03  0.12509015427E+03 0.  0.
        -24    2    1    2    0    0 -0.41969201582E+02 -0.74380834029E+02  0.76587124543E+03  0.77438364419E+03  0.76271498346E+02 0.  0.
        -13    1    3    3    0    0  0.98424609379E+02  0.63739106412E+01 -0.35610451192E+03  0.36951110116E+03  0.00000000000E+00 0.  1.
         14    1    3    3    0    0  0.23506303262E+02 -0.31261535528E+02 -0.34686940545E+03  0.34906763576E+03  0.00000000000E+00 0. -1.
         13    1    5    5    0    0  0.13919623930E+02 -0.49272684924E+02  0.27749451245E+03  0.28217859212E+03  0.00000000000E+00 0. -1.
        -14    1    5    5    0    0 -0.55888825512E+02 -0.25108149105E+02  0.48837673298E+03  0.49220505207E+03  0.00000000000E+00 0.  1.
          5    1    4    4  501    0 -0.58049141711E+02  0.12450351504E+02 -0.31064491796E+02  0.67135602749E+02  0.41800000000E+01 0.  1.
         -5    1    4    4    0  501 -0.21912569348E+02  0.86818107412E+02  0.74768443416E+02  0.11672761884E+03  0.41800000000E+01 0.  1.
</event>
<event>
11    1  0.8037748E-009  0.1361479E+03  0.7561462E-02  0.1111938E+00
         22   -1    0    0    0    0  0.00000000000E+00  0.00000000000E+00  0.46445077322E+03  0.46445077322E+03  0.00000000000E+00 0.  1.
         22   -1    0    0    0    0 -0.00000000000E+00 -0.00000000000E+00 -0.35160555081E+03  0.35160555081E+03  0.00000000000E+00 0. -1.
        -24    2    1    2    0    0 -0.53980442648E+02  0.67911351279E+01 -0.30750454047E+03  0.32595364035E+03  0.93416944608E+02 0.  0.
         25    2    1    2    0    0  0.45741795563E+02  0.38620786666E+02  0.15034786261E+03  0.20453320781E+03  0.12508187832E+03 0.  0.
         24    2    1    2    0    0  0.82386470847E+01 -0.45411921794E+02  0.27000190028E+03  0.28556947587E+03  0.80738971067E+02 0.  0.
        -11    1    5    5    0    0  0.22373683293E+02 -0.52151982564E+02  0.26182319799E+03  0.26790259050E+03  0.00000000000E+00 0.  1.
         12    1    5    5    0    0 -0.14135036208E+02  0.67400607693E+01  0.81787022916E+01  0.17666885378E+02  0.00000000000E+00 0. -1.
         11    1    3    3    0    0 -0.70697427992E+02  0.27566332756E+02 -0.26607854734E+03  0.27668722844E+03  0.00000000000E+00 0. -1.
        -12    1    3    3    0    0  0.16716985344E+02 -0.20775197628E+02 -0.41425993135E+02  0.49266411912E+02  0.00000000000E+00 0.  1.
          5    1    4    4  501    0  0.45409426432E+02  0.76845749454E+02  0.13750890846E+03  0.16399224836E+03  0.41800000000E+01 0.  1.
         -5    1    4    4    0  501  0.33236913124E+00 -0.38224962787E+02  0.12838954146E+02  0.40540959447E+02  0.41800000000E+01 0.  1.
</event>
<event>
11    1  0.8037748E-009  0.1415749E+03  0.7561462E-02  0.1105812E+00
         22   -1    0    0    0    0  0.00000000000E+00  0.00000000000E+00  0.10233921769E+03  0.10233921769E+03  0.00000000000E+00 0.  1.
         22   -1    0    0    0    0 -0.00000000000E+00 -0.00000000000E+00 -0.94233691044E+03  0.94233691044E+03  0.00000000000E+00 0.  1.
        -24    2    1    2    0    0  0.19574487493E+02  0.19361822443E+02 -0.78118854559E+03  0.78478577411E+03  0.69822107826E+02 0.  0.
         25    2    1    2    0    0 -0.38399547878E+01  0.52473646979E+02 -0.65697339855E+02  0.15077075595E+03  0.12508977379E+03 0.  0.
         24    2    1    2    0    0 -0.15734532705E+02 -0.71835469422E+02  0.68881927029E+01  0.10911959807E+03  0.80322657441E+02 0.  0.
        -13    1    5    5    0    0 -0.24300556039E+02 -0.32740499362E+02  0.40043054113E+02  0.57148084001E+02  0.00000000000E+00 0.  1.
         14    1    5    5    0    0  0.85660233334E+01 -0.39094970060E+02 -0.33154861411E+02  0.51971514072E+02  0.00000000000E+00 0. -1.
         11    1    3    3    0    0  0.10712866841E+02  0.25475799679E+02 -0.10700580798E+03  0.11051707935E+03  0.00000000000E+00 0. -1.
        -12    1    3    3    0    0  0.88616206518E+01 -0.61139772356E+01 -0.67418273761E+03  0.67426869476E+03  0.00000000000E+00 0.  1.
          5    1    4    4  501    0 -0.34380513150E+02 -0.38771958442E+01 -0.77946212418E+02  0.85382297711E+02  0.41800000000E+01 0. -1.
         -5    1    4    4    0  501  0.30540558363E+02  0.56350842823E+02  0.12248872564E+02  0.65388458240E+02  0.41800000000E+01 0. -1.
</event>
<event>
11    1  0.8037748E-009  0.1444824E+03  0.7561462E-02  0.1102654E+00
         22   -1    0    0    0    0  0.00000000000E+00  0.00000000000E+00  0.92908461993E+03  0.92908461993E+03  0.00000000000E+00 0.  1.
         22   -1    0    0    0    0 -0.00000000000E+00 -0.00000000000E+00 -0.58405016088E+03  0.58405016088E+03  0.00000000000E+00 0.  1.
         24    2    1    2    0    0 -0.39275631030E+01 -0.96712016669E+01 -0.25391179842E+03  0.26393662746E+03  0.71290841218E+02 0.  0.
         25    2    1    2    0    0 -0.45846688618E+02  0.62051810352E+02 -0.30510657721E+03  0.33865930459E+03  0.12509098732E+03 0.  0.
        -24    2    1    2    0    0  0.49774251721E+02 -0.52380608685E+02  0.90405283468E+03  0.91053884876E+03  0.80921337780E+02 0.  0.
        -13    1    3    3    0    0  0.10159769710E+02 -0.21276330485E+02 -0.23956134438E+03  0.24071880043E+03  0.00000000000E+00 0.  1.
         14    1    3    3    0    0 -0.14087332813E+02  0.11605128818E+02 -0.14350454046E+02  0.23217827030E+02  0.00000000000E+00 0. -1.
         13    1    5    5    0    0 -0.47174440609E+01  0.11006702342E+02  0.27308328220E+02  0.29818560748E+02  0.00000000000E+00 0. -1.
        -14    1    5    5    0    0  0.54491695782E+02 -0.63387311027E+02  0.87674450646E+03  0.88072028801E+03  0.00000000000E+00 0.  1.
          5    1    4    4  501    0 -0.73591557510E+02  0.47898031425E+02 -0.10890109648E+03  0.13995306344E+03  0.41800000000E+01 0. -1.
         -5    1    4    4    0  501  0.27744868892E+02  0.14153778927E+02 -0.19620548073E+03  0.19870624116E+03  0.41800000000E+01 0. -1.
</event>
<event>
11    1  0.8058885E-009  0.3426368E+03  0.7561462E-02  0.9836041E-01
         22   -1    0    0    0    0  0.00000000000E+00  0.00000000000E+00  0.16724774933E+04  0.16724774933E+04  0.00000000000E+00 0.  1.
         22   -1    0    0    0    0 -0.00000000000E+00 -0.00000000000E+00 -0.56242348196E+03  0.56242348196E+03  0.00000000000E+00 0. -1.
         24    2    1    2    0    0 -0.58681986893E+02 -0.18387880720E+02 -0.75719450007E+02  0.13959481080E+03  0.99857830685E+02 0.  0.
         25    2    1    2    0    0  0.18040024581E+03 -0.27623085531E+03 -0.36624679349E+03  0.50855836003E+03  0.12508859942E+03 0.  0.
        -24    2    1    2    0    0 -0.12171825892E+03  0.29461873603E+03  0.15520202548E+04  0.15867478044E+04  0.85942941919E+02 0.  0.
        -13    1    3    3    0    0 -0.12738373501E+02  0.40456522680E+02 -0.23512448766E+02  0.48495686754E+02  0.00000000000E+00 0.  1.
         14    1    3    3    0    0 -0.45943613391E+02 -0.58844403399E+02 -0.52207001241E+02  0.91099124043E+02  0.00000000000E+00 0. -1.
         11    1    5    5    0    0 -0.16971580975E+01  0.88161004845E+02  0.52291327277E+03  0.53029570426E+03  0.00000000000E+00 0. -1.
        -12    1    5    5    0    0 -0.12002110082E+03  0.20645773118E+03  0.10291069820E+04  0.10564521001E+04  0.00000000000E+00 0.  1.
          5    1    4    4  501    0  0.14757473634E+03 -0.13047996130E+03 -0.15978821846E+03  0.25367906943E+03  0.41800000000E+01 0.  1.
         -5    1    4    4    0  501  0.32825509468E+02 -0.14575089400E+03 -0.20645857503E+03  0.25487929060E+03  0.41800000000E+01 0.  1.
</event>
<event>
11    1  0.8037748E-009  0.1480239E+03  0.7561462E-02  0.1098915E+00
         22   -1    0    0    0    0  0.00000000000E+00  0.00000000000E+00  0.89519102056E+03  0.89519102056E+03  0.00000000000E+00 0. -1.
         22   -1    0    0    0    0 -0.00000000000E+00 -0.00000000000E+00 -0.31549931254E+03  0.31549931254E+03  0.00000000000E+00 0. -1.
         24    2    1    2    0    0 -0.43868173680E+02  0.64146195278E+02 -0.27706670820E+03  0.29812029357E+03  0.77914039920E+02 0.  0.
         25    2    1    2    0    0  0.35721814145E+02  0.27580170861E+02  0.17468271318E+03  0.21954204009E+03  0.12509173934E+03 0.  0.
        -24    2    1    2    0    0  0.81463595348E+01 -0.91726366139E+02  0.68207570304E+03  0.69302799944E+03  0.81119997013E+02 0.  0.
        -11    1    3    3    0    0  0.69383818730E+01 -0.10956437221E+02 -0.81877960072E+02  0.82898642963E+02  0.00000000000E+00 0.  1.
         12    1    3    3    0    0 -0.50806555553E+02  0.75102632499E+02 -0.19518874812E+03  0.21522165061E+03  0.00000000000E+00 0. -1.
         13    1    5    5    0    0  0.10058093252E+02 -0.10674008377E+03  0.61399991824E+03  0.62329006917E+03  0.00000000000E+00 0. -1.
        -14    1    5    5    0    0 -0.19117337168E+01  0.15013717634E+02  0.68075784798E+02  0.69737930273E+02  0.00000000000E+00 0.  1.
          5    1    4    4  501    0  0.66426137930E+01 -0.48840109771E+02  0.49630779728E+02  0.70072586200E+02  0.41800000000E+01 0.  1.
         -5    1    4    4    0  501  0.29079200352E+02  0.76420280632E+02  0.12505193345E+03  0.14946945389E+03  0.41800000000E+01 0.  1.
</event>
<event>
11    1  0.8037748E-009  0.1509276E+03  0.7561462E-02  0.1095935E+00
         22   -1    0    0    0    0  0.00000000000E+00  0.00000000000E+00  0.31245094882E+03  0.31245094882E+03  0.00000000000E+00 0. -1.
         22   -1    0    0    0    0 -0.00000000000E+00 -0.00000000000E+00 -0.33635553330E+03  0.33635553330E+03  0.00000000000E+00 0.  1.
         24    2    1    2    0    0 -0.64548692808E+02 -0.66450051771E+02 -0.23045042910E+03  0.26044726547E+03  0.78378789828E+02 0.  0.
         25    2    1    2    0    0  0.52530238314E+02  0.22041980936E+02 -0.24618241348E+02  0.13964056161E+03  0.12509258083E+03 0.  0.
        -24    2    1    2    0    0  0.12018454494E+02  0.44408070835E+02  0.23116408596E+03  0.24871865504E+03  0.79420493110E+02 0.  0.
        -13    1    3    3    0    0 -0.67148627377E+02 -0.77080734175E+02 -0.22702556294E+03  0.24897988668E+03  0.00000000000E+00 0.  1.
         14    1    3    3    0    0  0.25999345691E+01  0.10630682404E+02 -0.34248661517E+01  0.11467378789E+02  0.00000000000E+00 0. -1.
         13    1    5    5    0    0  0.36579366084E+02  0.52994367676E+02  0.14372757080E+03  0.15749307171E+03  0.00000000000E+00 0. -1.
        -14    1    5    5    0    0 -0.24560911590E+02 -0.85862968406E+01  0.87436515158E+02  0.91225583333E+02  0.00000000000E+00 0.  1.
          5    1    4    4  501    0  0.58133156218E+02 -0.14425455468E+02 -0.62449802887E+02  0.86631448666E+02  0.41800000000E+01 0.  1.
         -5    1    4    4    0  501 -0.56029179035E+01  0.36467436404E+02  0.37831561539E+02  0.53009112946E+02  0.41800000000E+01 0.  1.
</event>
<event>
11    1  0.8037748E-009  0.1457659E+03  0.7561462E-02  0.1101285E+00
         22   -1    0    0    0    0  0.00000000000E+00  0.00000000000E+00  0.18989884915E+03  0.18989884915E+03  0.00000000000E+00 0. -1.
         22   -1    0    0    0    0 -0.00000000000E+00 -0.00000000000E+00 -0.26665862409E+03  0.26665862409E+03  0.00000000000E+00 0. -1.
         24    2    1    2    0    0  0.68644088618E+02 -0.15928214123E+02 -0.14758567991E+03  0.18135577211E+03  0.78375150754E+02 0.  0.
         25    2    1    2    0    0 -0.88354636739E+02  0.34015540547E+02 -0.93067199073E+01  0.15715322058E+03  0.12508765276E+03 0.  0.
        -24    2    1    2    0    0  0.19710548121E+02 -0.18087326424E+02  0.80132624875E+02  0.11804848054E+03  0.82453314698E+02 0.  0.
        -11    1    3    3    0    0  0.56155071248E+02 -0.45741902716E+02 -0.11096350019E+03  0.13250891315E+03  0.00000000000E+00 0.  1.
         12    1    3    3    0    0  0.12489017371E+02  0.29813688594E+02 -0.36622179727E+02  0.48846858961E+02  0.00000000000E+00 0. -1.
         13    1    5    5    0    0  0.17822007698E+02 -0.42208638790E+02  0.81841032064E+02  0.93793111028E+02  0.00000000000E+00 0. -1.
        -14    1    5    5    0    0  0.18885404229E+01  0.24121312366E+02 -0.17084071890E+01  0.24255369515E+02  0.00000000000E+00 0.  1.
          5    1    4    4  501    0 -0.17314725916E+01  0.48493584866E+02  0.33747532768E+02  0.59253642406E+02  0.41800000000E+01 0.  1.
         -5    1    4    4    0  501 -0.86623164147E+02 -0.14478044319E+02 -0.43054252675E+02  0.97899578179E+02  0.41800000000E+01 0.  1.
</event>
<event>
11    1  0.8037748E-009  0.1324278E+03  0.7561462E-02  0.1116321E+00
         22   -1    0    0    0    0  0.00000000000E+00  0.00000000000E+00  0.11938117882E+04  0.11938117882E+04  0.00000000000E+00 0. -1.
         22   -1    0    0    0    0 -0.00000000000E+00 -0.00000000000E+00 -0.26769142340E+03  0.26769142340E+03  0.00000000000E+00 0. -1.
         24    2    1    2    0    0  0.32829656985E+02  0.10819738610E+02 -0.24644872556E+03  0.26150338218E+03  0.80325534172E+02 0.  0.
         25    2    1    2    0    0 -0.53916479338E+02  0.23540385964E+02  0.46935331270E+03  0.48928626449E+03  0.12508948780E+03 0.  0.
        -24    2    1    2    0    0  0.21086822352E+02 -0.34360124574E+02  0.70321577771E+03  0.71071356497E+03  0.94742119382E+02 0.  0.
        -11    1    3    3    0    0  0.22794262544E+02 -0.55829629518E+01 -0.12168245333E+02  0.26435091729E+02  0.00000000000E+00 0.  1.
         12    1    3    3    0    0  0.10035394442E+02  0.16402701562E+02 -0.23428048023E+03  0.23506829045E+03  0.00000000000E+00 0. -1.
         11    1    5    5    0    0  0.57372995580E+02 -0.33942790055E+02  0.45000284961E+03  0.45491355033E+03  0.00000000000E+00 0. -1.
        -12    1    5    5    0    0 -0.36286173228E+02 -0.41733451920E+00  0.25321292810E+03  0.25580001464E+03  0.00000000000E+00 0.  1.
          5    1    4    4  501    0  0.31551753453E+01  0.61001192888E+02  0.13837480336E+03  0.15131476885E+03  0.41800000000E+01 0. -1.
         -5    1    4    4    0  501 -0.57071654683E+02 -0.37460806924E+02  0.33097850934E+03  0.33797149565E+03  0.41800000000E+01 0. -1.
</event>
<event>
11    1  0.8037748E-009  0.1546936E+03  0.7561462E-02  0.1092177E+00
         22   -1    0    0    0    0  0.00000000000E+00  0.00000000000E+00  0.28372519416E+03  0.28372519416E+03  0.00000000000E+00 0. -1.
         22   -1    0    0    0    0 -0.00000000000E+00 -0.00000000000E+00 -0.12515067083E+04  0.12515067083E+04  0.00000000000E+00 0. -1.
        -24    2    1    2    0    0  0.74281044536E+02  0.18351208031E+02 -0.10594165763E+04  0.10652061576E+04  0.80288452797E+02 0.  0.
         25    2    1    2    0    0  0.21511112336E+02 -0.31435761387E+02 -0.14950292656E+03  0.19861397433E+03  0.12508177606E+03 0.  0.
         24    2    1    2    0    0 -0.95792156872E+02  0.13084553356E+02  0.24113798871E+03  0.27141177054E+03  0.78546016653E+02 0.  0.
        -13    1    5    5    0    0  0.79955317178E+01  0.11107028560E+02  0.71717514076E+01  0.15450845580E+02  0.00000000000E+00 0.  1.
         14    1    5    5    0    0 -0.10378768859E+03  0.19775247953E+01  0.23396623730E+03  0.25596092496E+03  0.00000000000E+00 0. -1.
         11    1    3    3    0    0  0.34919863861E+02  0.19297659878E+02 -0.90399678861E+03  0.90487678188E+03  0.00000000000E+00 0. -1.
        -12    1    3    3    0    0  0.39361180675E+02 -0.94645184670E+00 -0.15541978765E+03  0.16032937569E+03  0.00000000000E+00 0.  1.
          5    1    4    4  501    0  0.19468893867E+02 -0.58046708916E+02 -0.15864020608E+03  0.17009598946E+03  0.41800000000E+01 0.  1.
         -5    1    4    4    0  501  0.20422184694E+01  0.26610947529E+02  0.91372795136E+01  0.28517984879E+02  0.41800000000E+01 0.  1.
</event>
<event>
11    1  0.8037748E-009  0.1327606E+03  0.7561462E-02  0.1115923E+00
         22   -1    0    0    0    0  0.00000000000E+00  0.00000000000E+00  0.24214810421E+03  0.24214810421E+03  0.00000000000E+00 0.  1.
         22   -1    0    0    0    0 -0.00000000000E+00 -0.00000000000E+00 -0.10224615121E+04  0.10224615121E+04  0.00000000000E+00 0. -1.
        -24    2    1    2    0    0 -0.42359365066E+02  0.15550946031E+02 -0.93708263826E+03  0.94176735864E+03  0.82254113217E+02 0.  0.
         25    2    1    2    0    0  0.20553434302E+02 -0.26549689211E+02 -0.16357496863E+02  0.13054703042E+03  0.12509048640E+03 0.  0.
         24    2    1    2    0    0  0.21805930764E+02  0.10998743180E+02  0.17312672719E+03  0.19229522730E+03  0.80050732688E+02 0.  0.
        -13    1    5    5    0    0 -0.18442849673E+02 -0.12774627827E+02  0.11755814052E+03  0.11967976530E+03  0.00000000000E+00 0.  1.
         14    1    5    5    0    0  0.40248780437E+02  0.23773371007E+02  0.55568586673E+02  0.72615461994E+02  0.00000000000E+00 0. -1.
         13    1    3    3    0    0 -0.27450978732E+01 -0.12884196444E+02 -0.67845133955E+03  0.67857922030E+03  0.00000000000E+00 0. -1.
        -14    1    3    3    0    0 -0.39614267193E+02  0.28435142475E+02 -0.25863129870E+03  0.26318813834E+03  0.00000000000E+00 0.  1.
          5    1    4    4  501    0  0.54940660353E+01  0.45303144326E+02  0.18188253897E+02  0.49303596494E+02  0.41800000000E+01 0.  1.
         -5    1    4    4    0  501  0.15059368267E+02 -0.71852833537E+02 -0.34545750760E+02  0.81243433922E+02  0.41800000000E+01 0.  1.
</event>
<event>
11    1  0.8037748E-009  0.1331787E+03  0.7561462E-02  0.1115424E+00
         22   -1    0    0    0    0  0.00000000000E+00  0.00000000000E+00  0.83360168944E+03  0.83360168944E+03  0.00000000000E+00 0. -1.
         22   -1    0    0    0    0 -0.00000000000E+00 -0.00000000000E+00 -0.68058195329E+03  0.68058195329E+03  0.00000000000E+00 0. -1.
         24    2    1    2    0    0 -0.28722641377E+01 -0.33399626648E+02 -0.54099675054E+03  0.54809149694E+03  0.81258968513E+02 0.  0.
         25    2    1    2    0    0  0.38096251982E+02  0.61750310341E+02 -0.93899983226E+02  0.17242064139E+03  0.12508895029E+03 0.  0.
        -24    2    1    2    0    0 -0.35223987845E+02 -0.28350683693E+02  0.78791646992E+03  0.79367150441E+03  0.84009539646E+02 0.  0.
        -11    1    3    3    0    0 -0.21140748550E+02 -0.19479361258E+02 -0.59838718539E+02  0.66385608385E+02  0.00000000000E+00 0.  1.
         12    1    3    3    0    0  0.18268484413E+02 -0.13920265390E+02 -0.48115803200E+03  0.48170588855E+03  0.00000000000E+00 0. -1.
         11    1    5    5    0    0 -0.51052014086E+02  0.17869145426E+01  0.63305817439E+03  0.63511585822E+03  0.00000000000E+00 0. -1.
        -12    1    5    5    0    0  0.15828026242E+02 -0.30137598235E+02  0.15485829553E+03  0.15855564618E+03  0.00000000000E+00 0.  1.
          5    1    4    4  501    0  0.55010793647E+02  0.93259268186E+02 -0.74766039166E+02  0.13164691995E+03  0.41800000000E+01 0.  1.
         -5    1    4    4    0  501 -0.16914541665E+02 -0.31508957846E+02 -0.19133944060E+02  0.40773721434E+02  0.41800000000E+01 0.  1.
</event>
<event>
11    1  0.8037748E-009  0.1320931E+03  0.7561462E-02  0.1116724E+00
         22   -1    0    0    0    0  0.00000000000E+00  0.00000000000E+00  0.85796187784E+03  0.85796187784E+03  0.00000000000E+00 0. -1.
         22   -1    0    0    0    0 -0.00000000000E+00 -0.00000000000E+00 -0.80555901484E+02  0.80555901484E+02  0.00000000000E+00 0.  1.
        -24    2    1    2    0    0  0.21324488044E+02 -0.24480297592E+02 -0.32776293019E+02  0.91512222698E+02  0.79032795462E+02 0.  0.
         25    2    1    2    0    0 -0.18756598226E+02  0.61399897080E+02  0.33125355460E+03  0.35985847335E+03  0.12508975205E+03 0.  0.
         24    2    1    2    0    0 -0.25678898176E+01 -0.36919599488E+02  0.47892871477E+03  0.48714708328E+03  0.81055018510E+02 0.  0.
        -11    1    5    5    0    0  0.22271082925E+02 -0.21650496489E+01  0.37590275504E+02  0.43746055675E+02  0.00000000000E+00 0.  1.
         12    1    5    5    0    0 -0.24838972742E+02 -0.34754549839E+02  0.44133843927E+03  0.44340102760E+03  0.00000000000E+00 0. -1.
         11    1    3    3    0    0 -0.20634454123E+02  0.11766890534E+02  0.51874563804E+01  0.24313578788E+02  0.00000000000E+00 0. -1.
        -12    1    3    3    0    0  0.41958942167E+02 -0.36247188126E+02 -0.37963749399E+02  0.67198643909E+02  0.00000000000E+00 0.  1.
          5    1    4    4  501    0  0.96582611114E+01  0.93495313737E+02  0.26115075304E+03  0.27758213903E+03  0.41800000000E+01 0.  1.
         -5    1    4    4    0  501 -0.28414859337E+02 -0.32095416657E+02  0.70102801567E+02  0.82276334319E+02  0.41800000000E+01 0.  1.
</event>
<event>
11    1  0.8037748E-009  0.3373074E+03  0.7561462E-02  0.9855316E-01
         22   -1    0    0    0    0  0.00000000000E+00  0.00000000000E+00  0.11359968156E+04  0.11359968156E+04  0.00000000000E+00 0. -1.
         22   -1    0    0    0    0 -0.00000000000E+00 -0.00000000000E+00 -0.23536353428E+03  0.23536353428E+03  0.00000000000E+00 0. -1.
        -24    2    1    2    0    0 -0.40072657907E+02  0.29324284073E+03  0.83339057186E+02  0.31784468103E+03  0.80514975328E+02 0.  0.
         25    2    1    2    0    0 -0.16405183228E+03 -0.37614308789E+03  0.56397059375E+03  0.70860246871E+03  0.12513193757E+03 0.  0.
         24    2    1    2    0    0  0.20412449018E+03  0.82900247157E+02  0.25332363040E+03  0.34491320015E+03  0.79075884138E+02 0.  0.
        -13    1    5    5    0    0  0.36994253000E+02 -0.10582585563E+02  0.20989478291E+02  0.43830629372E+02  0.00000000000E+00 0.  1.
         14    1    5    5    0    0  0.16713023718E+03  0.93482832720E+02  0.23233415211E+03  0.30108257078E+03  0.00000000000E+00 0. -1.
         11    1    3    3    0    0 -0.35476980536E+02  0.21206821350E+03  0.96154873671E+02  0.23553620328E+03  0.00000000000E+00 0. -1.
        -12    1    3    3    0    0 -0.45956773712E+01  0.81174627234E+02 -0.12815816485E+02  0.82308477749E+02  0.00000000000E+00 0.  1.
          5    1    4    4  501    0 -0.14285691390E+03 -0.30439724780E+03  0.52675048594E+03  0.62493946039E+03  0.41800000000E+01 0. -1.
         -5    1    4    4    0  501 -0.21194918378E+02 -0.71745840090E+02  0.37220107818E+02  0.83663008320E+02  0.41800000000E+01 0. -1.
</event>
<event>
11    1  0.8037748E-009  0.1333309E+03  0.7561462E-02  0.1115243E+00
         22   -1    0    0    0    0  0.00000000000E+00  0.00000000000E+00  0.27960890620E+04  0.27960890620E+04  0.00000000000E+00 0. -1.
         22   -1    0    0    0    0 -0.00000000000E+00 -0.00000000000E+00 -0.79287900468E+02  0.79287900468E+02  0.00000000000E+00 0. -1.
        -24    2    1    2    0    0  0.53947936522E+01 -0.43832688569E+02 -0.27611284177E+02  0.97987163241E+02  0.82998149138E+02 0.  0.
         25    2    1    2    0    0  0.49589877779E+01  0.64864616709E+02  0.29962277663E+03  0.33113915712E+03  0.12508926031E+03 0.  0.
         24    2    1    2    0    0 -0.10353781430E+02 -0.21031928140E+02  0.24447896690E+04  0.24462506421E+04  0.81216594136E+02 0.  0.
        -13    1    5    5    0    0  0.34157030258E+02 -0.12649527008E+02  0.78713227582E+03  0.78797457630E+03  0.00000000000E+00 0.  1.
         14    1    5    5    0    0 -0.44510811688E+02 -0.83824011321E+01  0.16576573932E+04  0.16582760658E+04  0.00000000000E+00 0. -1.
         13    1    3    3    0    0  0.30980581483E+02 -0.54254283252E+02 -0.31701266940E+02  0.70059217851E+02  0.00000000000E+00 0. -1.
        -14    1    3    3    0    0 -0.25585787831E+02  0.10421594683E+02  0.40899827630E+01  0.27927945390E+02  0.00000000000E+00 0.  1.
          5    1    4    4  501    0 -0.54782143098E+02  0.46201833203E+02  0.20851100398E+03  0.22052211630E+03  0.41800000000E+01 0. -1.
         -5    1    4    4    0  501  0.59741130876E+02  0.18662783506E+02  0.91111772644E+02  0.11061704083E+03  0.41800000000E+01 0. -1.
</event>
<event>
11    1  0.8037748E-009  0.1617935E+03  0.7561462E-02  0.1085402E+00
         22   -1    0    0    0    0  0.00000000000E+00  0.00000000000E+00  0.32431185740E+03  0.32431185740E+03  0.00000000000E+00 0.  1.
         22   -1    0    0    0    0 -0.00000000000E+00 -0.00000000000E+00 -0.47927077448E+03  0.47927077448E+03  0.00000000000E+00 0.  1.
        -24    2    1    2    0    0 -0.24076738697E+02 -0.98914028190E+02 -0.36102592721E+03  0.38366073875E+03  0.80573990995E+02 0.  0.
         25    2    1    2    0    0 -0.16165510849E+00  0.11002402271E+03 -0.29560343546E+02  0.16921878923E+03  0.12512343110E+03 0.  0.
         24    2    1    2    0    0  0.24238393805E+02 -0.11109994522E+02  0.23562735368E+03  0.25070310391E+03  0.81368696647E+02 0.  0.
        -11    1    5    5    0    0  0.33316267530E+02 -0.87897251103E+01  0.23844283498E+03  0.24091952703E+03  0.00000000000E+00 0.  1.
         12    1    5    5    0    0 -0.90778737249E+01 -0.23202694121E+01 -0.28154813046E+01  0.97835768759E+01  0.00000000000E+00 0. -1.
         11    1    3    3    0    0  0.18494715300E+02 -0.53581102849E+02 -0.96438535394E+02  0.11186322088E+03  0.00000000000E+00 0. -1.
        -12    1    3    3    0    0 -0.42571453996E+02 -0.45332925341E+02 -0.26458739181E+03  0.27179751787E+03  0.00000000000E+00 0.  1.
          5    1    4    4  501    0 -0.41826395138E+02  0.55306611970E+02  0.32311601304E+02  0.76614493646E+02  0.41800000000E+01 0. -1.
         -5    1    4    4    0  501  0.41664740030E+02  0.54717410743E+02 -0.61871944850E+02  0.92604295579E+02  0.41800000000E+01 0. -1.
</event>
<event>
11    1  0.8037748E-009  0.1448946E+03  0.7561462E-02  0.1102213E+00
         22   -1    0    0    0    0  0.00000000000E+00  0.00000000000E+00  0.19696105274E+04  0.19696105274E+04  0.00000000000E+00 0.  1.
         22   -1    0    0    0    0 -0.00000000000E+00 -0.00000000000E+00 -0.23127094291E+02  0.23127094291E+02  0.00000000000E+00 0.  1.
        -24    2    1    2    0    0 -0.30216425197E+01 -0.20329744259E+02  0.11176502644E+03  0.13796276223E+03  0.78229622278E+02 0.  0.
         25    2    1    2    0    0  0.75363304693E+02  0.14224578579E+02  0.71945456893E+03  0.73426312332E+03  0.12508193786E+03 0.  0.
         24    2    1    2    0    0 -0.72341662173E+02  0.61051656804E+01  0.11152638378E+04  0.11205117362E+04  0.80389887012E+02 0.  0.
        -13    1    5    5    0    0 -0.82446356288E+02  0.14840823881E+02  0.10711311171E+04  0.10744019367E+04  0.00000000000E+00 0.  1.
         14    1    5    5    0    0  0.10104694115E+02 -0.87356582010E+01  0.44132720700E+02  0.46109799433E+02  0.00000000000E+00 0. -1.
         13    1    3    3    0    0  0.17923866724E+02 -0.38225787776E+02  0.98945709215E+02  0.10757662024E+03  0.00000000000E+00 0. -1.
        -14    1    3    3    0    0 -0.20945509243E+02  0.17896043517E+02  0.12819317221E+02  0.30386141990E+02  0.00000000000E+00 0.  1.
          5    1    4    4  501    0  0.69083094776E+02  0.27075103820E+02  0.18181598428E+03  0.19641807394E+03  0.41800000000E+01 0. -1.
         -5    1    4    4    0  501  0.62802099169E+01 -0.12850525241E+02  0.53763858465E+03  0.53784504938E+03  0.41800000000E+01 0. -1.
</event>
<event>
11    1  0.8037748E-009  0.1451945E+03  0.7561462E-02  0.1101893E+00
         22   -1    0    0    0    0  0.00000000000E+00  0.00000000000E+00  0.14821062744E+04  0.14821062744E+04  0.00000000000E+00 0. -1.
         22   -1    0    0    0    0 -0.00000000000E+00 -0.00000000000E+00 -0.16836531789E+03  0.16836531789E+03  0.00000000000E+00 0. -1.
        -24    2    1    2    0    0 -0.67863585453E+02 -0.28384294457E+02 -0.13629388577E+03  0.17436389121E+03  0.80097495953E+02 0.  0.
         25    2    1    2    0    0  0.60921050499E+02  0.54761044308E+02  0.48810210282E+03  0.51049263757E+03  0.12509565887E+03 0.  0.
         24    2    1    2    0    0  0.69425349542E+01 -0.26376749851E+02  0.96193273942E+03  0.96561506349E+03  0.79711504402E+02 0.  0.
        -13    1    5    5    0    0 -0.34135789045E+02 -0.31071374982E+01  0.28841780693E+03  0.29044747848E+03  0.00000000000E+00 0.  1.
         14    1    5    5    0    0  0.41078323999E+02 -0.23269612353E+02  0.67351493249E+03  0.67516758501E+03  0.00000000000E+00 0. -1.
         11    1    3    3    0    0 -0.25265111023E+02 -0.10330561101E+01 -0.11777617000E+03  0.12046003179E+03  0.00000000000E+00 0. -1.
        -12    1    3    3    0    0 -0.42598474431E+02 -0.27351238347E+02 -0.18517715770E+02  0.53903859419E+02  0.00000000000E+00 0.  1.
          5    1    4    4  501    0  0.34409016034E+02  0.56804599899E+02  0.92357877973E+02  0.11383405895E+03  0.41800000000E+01 0.  1.
         -5    1    4    4    0  501  0.26512034465E+02 -0.20435555909E+01  0.39574422485E+03  0.39665857862E+03  0.41800000000E+01 0.  1.
</event>
<event>
11    1  0.8037748E-009  0.2785263E+03  0.7561462E-02  0.1009712E+00
         22   -1    0    0    0    0  0.00000000000E+00  0.00000000000E+00  0.59846638439E+03  0.59846638439E+03  0.00000000000E+00 0.  1.
         22   -1    0    0    0    0 -0.00000000000E+00 -0.00000000000E+00 -0.84818383674E+03  0.84818383674E+03  0.00000000000E+00 0.  1.
         24    2    1    2    0    0  0.10420385022E+03  0.27492433362E+01 -0.54844540130E+03  0.56389070606E+03  0.79463006676E+02 0.  0.
         25    2    1    2    0    0  0.91191085574E+02  0.16568513209E+03 -0.20892606676E+03  0.30832626846E+03  0.12509040478E+03 0.  0.
        -24    2    1    2    0    0 -0.19539493580E+03 -0.16843437543E+03  0.50765401572E+03  0.57443324661E+03  0.75575362263E+02 0.  0.
        -11    1    3    3    0    0  0.66094478957E+02 -0.31753684117E+02 -0.23245806340E+03  0.24374890326E+03  0.00000000000E+00 0.  1.
         12    1    3    3    0    0  0.38109371264E+02  0.34502927453E+02 -0.31598733790E+03  0.32014180279E+03  0.00000000000E+00 0. -1.
         11    1    5    5    0    0 -0.11841125884E+02 -0.31799405946E+02  0.32192889567E+02  0.46773888222E+02  0.00000000000E+00 0. -1.
        -12    1    5    5    0    0 -0.18355380991E+03 -0.13663496948E+03  0.47546112615E+03  0.52765935839E+03  0.00000000000E+00 0.  1.
          5    1    4    4  501    0  0.15891305939E+02  0.70432723796E+02 -0.69918170212E+01  0.72661269539E+02  0.41800000000E+01 0. -1.
         -5    1    4    4    0  501  0.75299779635E+02  0.95252408296E+02 -0.20193424974E+03  0.23566499893E+03  0.41800000000E+01 0. -1.
</event>
<event>
11    1  0.8037748E-009  0.1388041E+03  0.7561462E-02  0.1108901E+00
         22   -1    0    0    0    0  0.00000000000E+00  0.00000000000E+00  0.26878012644E+03  0.26878012644E+03  0.00000000000E+00 0.  1.
         22   -1    0    0    0    0 -0.00000000000E+00 -0.00000000000E+00 -0.83377436174E+03  0.83377436174E+03  0.00000000000E+00 0. -1.
        -24    2    1    2    0    0  0.38607658055E+02  0.48241447302E+02 -0.77793328932E+03  0.78468760684E+03  0.82077092997E+02 0.  0.
         25    2    1    2    0    0 -0.19249642127E+02  0.66527745975E+01  0.73528699900E+02  0.14652403919E+03  0.12509203100E+03 0.  0.
         24    2    1    2    0    0 -0.19358015928E+02 -0.54894221899E+02  0.13941035412E+03  0.17134284215E+03  0.80839435563E+02 0.  0.
        -11    1    5    5    0    0 -0.49430073249E+02 -0.45273070582E+02  0.82883236013E+02  0.10659556217E+03  0.00000000000E+00 0.  1.
         12    1    5    5    0    0  0.30072057321E+02 -0.96211513171E+01  0.56527118110E+02  0.64747279989E+02  0.00000000000E+00 0. -1.
         11    1    3    3    0    0  0.32092393683E+02  0.48551550250E+02 -0.77556912822E+03  0.77774973315E+03  0.00000000000E+00 0. -1.
        -12    1    3    3    0    0  0.65152643717E+01 -0.31010294798E+00 -0.23641611044E+01  0.69378736944E+01  0.00000000000E+00 0.  1.
          5    1    4    4  501    0 -0.30778035782E+02 -0.55347531627E+02  0.34399355215E+02  0.72190198663E+02  0.41800000000E+01 0.  1.
         -5    1    4    4    0  501  0.11528393655E+02  0.62000306224E+02  0.39129344685E+02  0.74333840528E+02  0.41800000000E+01 0.  1.
</event>
<event>
11    1  0.8037748E-009  0.1750695E+03  0.7561462E-02  0.1073702E+00
         22   -1    0    0    0    0  0.00000000000E+00  0.00000000000E+00  0.31406963206E+03  0.31406963206E+03  0.00000000000E+00 0. -1.
         22   -1    0    0    0    0 -0.00000000000E+00 -0.00000000000E+00 -0.13907426387E+04  0.13907426387E+04  0.00000000000E+00 0. -1.
         24    2    1    2    0    0  0.73015906553E+01 -0.16359880752E+02 -0.12310412802E+04  0.12338548745E+04  0.81328094503E+02 0.  0.
         25    2    1    2    0    0  0.89208817425E+02 -0.62424702235E+02 -0.87427733691E+02  0.18747314609E+03  0.12509002890E+03 0.  0.
        -24    2    1    2    0    0 -0.96510408080E+02  0.78784582987E+02  0.24179600722E+03  0.28348425015E+03  0.79854502622E+02 0.  0.
        -13    1    3    3    0    0  0.39985167334E+02 -0.22852379495E+02 -0.88963210667E+03  0.89082340005E+03  0.00000000000E+00 0.  1.
         14    1    3    3    0    0 -0.32683576679E+02  0.64924987426E+01 -0.34140917353E+03  0.34303147450E+03  0.00000000000E+00 0. -1.
         11    1    5    5    0    0 -0.62694124472E+02  0.13166994519E+02  0.16482419769E+03  0.17683591019E+03  0.00000000000E+00 0. -1.
        -12    1    5    5    0    0 -0.33816283609E+02  0.65617588469E+02  0.76971809533E+02  0.10664833996E+03  0.00000000000E+00 0.  1.
          5    1    4    4  501    0  0.43203108989E+02 -0.47231404677E+02  0.21929007744E+02  0.67791356342E+02  0.41800000000E+01 0.  1.
         -5    1    4    4    0  501  0.46005708436E+02 -0.15193297559E+02 -0.10935674144E+03  0.11968178975E+03  0.41800000000E+01 0.  1.
</event>
<event>
11    1  0.8037748E-009  0.1701622E+03  0.7561462E-02  0.1077891E+00
         22   -1    0    0    0    0  0.00000000000E+00  0.00000000000E+00  0.14320286800E+04  0.14320286800E+04  0.00000000000E+00 0.  1.
         22   -1    0    0    0    0 -0.00000000000E+00 -0.00000000000E+00 -0.28058350189E+04  0.28058350189E+04  0.00000000000E+00 0.  1.
         24    2    1    2    0    0  0.53622295062E+02  0.71580779843E+02 -0.25968367673E+04  0.25996528633E+04  0.81453392693E+02 0.  0.
         25    2    1    2    0    0 -0.11624795867E+03 -0.16661121286E+03 -0.13422022967E+03  0.27374193831E+03  0.12508674828E+03 0.  0.
        -24    2    1    2    0    0  0.62625663604E+02  0.95030433017E+02  0.13572506581E+04  0.13644688973E+04  0.81812382411E+02 0.  0.
        -11    1    3    3    0    0  0.24493601442E+02  0.28690637060E+02 -0.20538631086E+04  0.20542095215E+04  0.00000000000E+00 0.  1.
         12    1    3    3    0    0  0.29128693620E+02  0.42890142784E+02 -0.54297365866E+03  0.54544334182E+03  0.00000000000E+00 0. -1.
         11    1    5    5    0    0 -0.87718248698E+01  0.17774008273E+02  0.55460153591E+03  0.55495560535E+03  0.00000000000E+00 0. -1.
        -12    1    5    5    0    0  0.71397488474E+02  0.77256424744E+02  0.80264912218E+03  0.80951329196E+03  0.00000000000E+00 0.  1.
          5    1    4    4  501    0 -0.88181582318E+02 -0.18124382784E+03 -0.13352221827E+03  0.24180771651E+03  0.41800000000E+01 0. -1.
         -5    1    4    4    0  501 -0.28066376348E+02  0.14632614982E+02 -0.69801139959E+00  0.31934221807E+02  0.41800000000E+01 0. -1.
</event>
<event>
11    1  0.8037748E-009  0.1372261E+03  0.7561462E-02  0.1110696E+00
         22   -1    0    0    0    0  0.00000000000E+00  0.00000000000E+00  0.59831524979E+03  0.59831524979E+03  0.00000000000E+00 0. -1.
         22   -1    0    0    0    0 -0.00000000000E+00 -0.00000000000E+00 -0.77460285888E+03  0.77460285888E+03  0.00000000000E+00 0. -1.
        -24    2    1    2    0    0  0.64501850599E+01 -0.22026646549E+02 -0.56422698174E+03  0.57061011285E+03  0.81957525070E+02 0.  0.
         25    2    1    2    0    0 -0.47875235437E+02 -0.16643285021E+02 -0.18014278340E+03  0.22509017729E+03  0.12508048768E+03 0.  0.
         24    2    1    2    0    0  0.41425050377E+02  0.38669931570E+02  0.56808215605E+03  0.57721781852E+03  0.85156770661E+02 0.  0.
        -13    1    5    5    0    0  0.31742727924E+02 -0.13945402395E+02  0.95160619227E+02  0.10127990164E+03  0.00000000000E+00 0.  1.
         14    1    5    5    0    0  0.96823224523E+01  0.52615333966E+02  0.47292153682E+03  0.47593791688E+03  0.00000000000E+00 0. -1.
         11    1    3    3    0    0  0.19776511792E+02 -0.47068036261E+02 -0.45114303154E+03  0.45402262649E+03  0.00000000000E+00 0. -1.
        -12    1    3    3    0    0 -0.13326326732E+02  0.25041389712E+02 -0.11308395020E+03  0.11658748636E+03  0.00000000000E+00 0.  1.
          5    1    4    4  501    0  0.13854038999E+02  0.43899866822E+02 -0.82770623632E+02  0.94802854598E+02  0.41800000000E+01 0.  1.
         -5    1    4    4    0  501 -0.61729274435E+02 -0.60543151843E+02 -0.97372159768E+02  0.13028732270E+03  0.41800000000E+01 0.  1.
</event>
<event>
11    1  0.8037748E-009  0.2253435E+03  0.7561462E-02  0.1037921E+00
         22   -1    0    0    0    0  0.00000000000E+00  0.00000000000E+00  0.43679907881E+03  0.43679907881E+03  0.00000000000E+00 0.  1.
         22   -1    0    0    0    0 -0.00000000000E+00 -0.00000000000E+00 -0.13457749361E+04  0.13457749361E+04  0.00000000000E+00 0.  1.
        -24    2    1    2    0    0  0.47164039458E+02  0.12047862761E+03 -0.12187265165E+04  0.12279867816E+04  0.76926377228E+02 0.  0.
         25    2    1    2    0    0 -0.14473654080E+03 -0.22568495568E+03  0.20022976160E+03  0.35723202862E+03  0.12506158235E+03 0.  0.
         24    2    1    2    0    0  0.97572501345E+02  0.10520632807E+03  0.10952089761E+03  0.19735520464E+03  0.79783991512E+02 0.  0.
        -11    1    5    5    0    0  0.84252969284E+02  0.11133167557E+03  0.11581447330E+03  0.18140092900E+03  0.00000000000E+00 0.  1.
         12    1    5    5    0    0  0.13319532061E+02 -0.61253475018E+01 -0.62935756825E+01  0.15954275640E+02  0.00000000000E+00 0. -1.
         11    1    3    3    0    0  0.17361807895E+02 -0.65519847602E+01 -0.10318416764E+03  0.10483955995E+03  0.00000000000E+00 0. -1.
        -12    1    3    3    0    0  0.29802231563E+02  0.12703061237E+03 -0.11155423488E+04  0.11231472217E+04  0.00000000000E+00 0.  1.
          5    1    4    4  501    0 -0.38147039847E+02 -0.16285961744E+02  0.86786351665E+02  0.96279657427E+02  0.41800000000E+01 0. -1.
         -5    1    4    4    0  501 -0.10658950096E+03 -0.20939899394E+03  0.11344340993E+03  0.26095237120E+03  0.41800000000E+01 0. -1.
</event>
<event>
11    1  0.8037748E-009  0.1469480E+03  0.7561462E-02  0.1100039E+00
         22   -1    0    0    0    0  0.00000000000E+00  0.00000000000E+00  0.17286075431E+04  0.17286075431E+04  0.00000000000E+00 0.  1.
         22   -1    0    0    0    0 -0.00000000000E+00 -0.00000000000E+00 -0.50345359414E+03  0.50345359414E+03  0.00000000000E+00 0. -1.
         24    2    1    2    0    0  0.49812794375E+02  0.57010948869E+02 -0.45574059004E+03  0.46852010207E+03  0.77974597529E+02 0.  0.
         25    2    1    2    0    0 -0.90843543527E+02 -0.77378874763E+02  0.14704173852E+03  0.22695680709E+03  0.12509228496E+03 0.  0.
        -24    2    1    2    0    0  0.41030749152E+02  0.20367925895E+02  0.15338528004E+04  0.15365842280E+04  0.79298812540E+02 0.  0.
        -13    1    3    3    0    0  0.40587391678E+01 -0.26702806337E+01  0.15404342058E+01  0.50967342326E+01  0.00000000000E+00 0.  1.
         14    1    3    3    0    0  0.45754055207E+02  0.59681229502E+02 -0.45728102425E+03  0.46342336784E+03  0.00000000000E+00 0. -1.
         13    1    5    5    0    0  0.14845008191E+02  0.14187994709E+01  0.45520255910E+02  0.47900740686E+02  0.00000000000E+00 0. -1.
        -14    1    5    5    0    0  0.26185740961E+02  0.18949126424E+02  0.14883325445E+04  0.14886834874E+04  0.00000000000E+00 0.  1.
          5    1    4    4  501    0 -0.20648328200E+02 -0.46977720644E+02  0.14100388251E+03  0.15010938337E+03  0.41800000000E+01 0.  1.
         -5    1    4    4    0  501 -0.70195215327E+02 -0.30401154119E+02  0.60378560166E+01  0.76847423717E+02  0.41800000000E+01 0.  1.
</event>
<event>
11    1  0.8037748E-009  0.1448540E+03  0.7561462E-02  0.1102256E+00
         22   -1    0    0    0    0  0.00000000000E+00  0.00000000000E+00  0.68574087265E+03  0.68574087265E+03  0.00000000000E+00 0. -1.
         22   -1    0    0    0    0 -0.00000000000E+00 -0.00000000000E+00 -0.19188504075E+03  0.19188504075E+03  0.00000000000E+00 0.  1.
        -24    2    1    2    0    0  0.13644691726E+02 -0.69066551964E+02 -0.94364739900E+02  0.14173346123E+03  0.78913266841E+02 0.  0.
         25    2    1    2    0    0  0.11134651592E+02 -0.47556054626E+01 -0.11272957703E+02  0.12617985797E+03  0.12509069003E+03 0.  0.
         24    2    1    2    0    0 -0.24779343318E+02  0.73822157426E+02  0.59949352950E+03  0.60971259420E+03  0.79329873479E+02 0.  0.
        -13    1    5    5    0    0 -0.16866124624E+01 -0.16981784343E+02  0.11263389545E+03  0.11391935773E+03  0.00000000000E+00 0.  1.
         14    1    5    5    0    0 -0.23092730856E+02  0.90803941769E+02  0.48685963405E+03  0.49579323647E+03  0.00000000000E+00 0. -1.
         13    1    3    3    0    0 -0.12241396102E+02 -0.18823997828E+01  0.93213910640E+01  0.15501081860E+02  0.00000000000E+00 0. -1.
        -14    1    3    3    0    0  0.25886087828E+02 -0.67184152181E+02 -0.10368613096E+03  0.12623237937E+03  0.00000000000E+00 0.  1.
          5    1    4    4  501    0  0.51178053479E+02 -0.34099818681E+02 -0.35124145116E+02  0.70944829002E+02  0.41800000000E+01 0.  1.
         -5    1    4    4    0  501 -0.40043401887E+02  0.29344213218E+02  0.23851187413E+02  0.55235028968E+02  0.41800000000E+01 0.  1.
</event>
<event>
11    1  0.8037748E-009  0.2042329E+03  0.7561462E-02  0.1051570E+00
         22   -1    0    0    0    0  0.00000000000E+00  0.00000000000E+00  0.33796366036E+03  0.33796366036E+03  0.00000000000E+00 0. -1.
         22   -1    0    0    0    0 -0.00000000000E+00 -0.00000000000E+00 -0.13559678944E+04  0.13559678944E+04  0.00000000000E+00 0.  1.
         24    2    1    2    0    0  0.14117320869E+03  0.81369030881E+02 -0.12779932797E+04  0.12909075165E+04  0.81391640283E+02 0.  0.
         25    2    1    2    0    0 -0.12249477964E+03 -0.48111878408E+02  0.72706539824E+02  0.19558613618E+03  0.12509185364E+03 0.  0.
        -24    2    1    2    0    0 -0.18678429049E+02 -0.33257152474E+02  0.18728250585E+03  0.20743790210E+03  0.80627689587E+02 0.  0.
        -13    1    3    3    0    0  0.11115449930E+03  0.71014476415E+02 -0.71804594063E+03  0.73006051217E+03  0.00000000000E+00 0.  1.
         14    1    3    3    0    0  0.30018709393E+02  0.10354554466E+02 -0.55994733910E+03  0.56084700434E+03  0.00000000000E+00 0. -1.
         11    1    5    5    0    0  0.20169641058E+02 -0.27403518450E+02  0.14807517377E+03  0.15193427635E+03  0.00000000000E+00 0. -1.
        -12    1    5    5    0    0 -0.38848070107E+02 -0.58536340233E+01  0.39207332080E+02  0.55503625748E+02  0.00000000000E+00 0.  1.
          5    1    4    4  501    0 -0.10681109684E+03 -0.56552238786E+02  0.32784722831E+00  0.12093116226E+03  0.41800000000E+01 0.  1.
         -5    1    4    4    0  501 -0.15683682798E+02  0.84403603783E+01  0.72378692595E+02  0.74654973922E+02  0.41800000000E+01 0.  1.
</event>
<event>
11    1  0.8037748E-009  0.1292476E+03  0.7561462E-02  0.1120197E+00
         22   -1    0    0    0    0  0.00000000000E+00  0.00000000000E+00  0.29586796733E+03  0.29586796733E+03  0.00000000000E+00 0.  1.
         22   -1    0    0    0    0 -0.00000000000E+00 -0.00000000000E+00 -0.73305521399E+03  0.73305521399E+03  0.00000000000E+00 0. -1.
        -24    2    1    2    0    0 -0.21301518466E+02 -0.25894926606E+02 -0.53316807064E+03  0.54009322075E+03  0.79424137649E+02 0.  0.
         25    2    1    2    0    0 -0.10058524410E+02  0.35867786625E+02 -0.16677053344E+03  0.21177926601E+03  0.12510145745E+03 0.  0.
         24    2    1    2    0    0  0.31360042876E+02 -0.99728600192E+01  0.26275135743E+03  0.27705069456E+03  0.81461041598E+02 0.  0.
        -11    1    5    5    0    0  0.18024919118E+02 -0.25219703263E+02  0.25241278048E+03  0.25430914826E+03  0.00000000000E+00 0.  1.
         12    1    5    5    0    0  0.13335123759E+02  0.15246843244E+02  0.10338576953E+02  0.22741546297E+02  0.00000000000E+00 0. -1.
         11    1    3    3    0    0 -0.31540948919E+02  0.19946848691E+02 -0.29374216290E+03  0.29610330376E+03  0.00000000000E+00 0. -1.
        -12    1    3    3    0    0  0.10239430452E+02 -0.45841775297E+02 -0.23942590774E+03  0.24398991700E+03  0.00000000000E+00 0.  1.
          5    1    4    4  501    0 -0.37391607018E+02 -0.22350541117E+02 -0.13963484322E+02  0.45936154149E+02  0.41800000000E+01 0. -1.
         -5    1    4    4    0  501  0.27333082608E+02  0.58218327742E+02 -0.15280704912E+03  0.16584311186E+03  0.41800000000E+01 0. -1.
</event>
<event>
11    1  0.8037748E-009  0.1477347E+03  0.7561462E-02  0.1099216E+00
         22   -1    0    0    0    0  0.00000000000E+00  0.00000000000E+00  0.64261079452E+02  0.64261079452E+02  0.00000000000E+00 0. -1.
         22   -1    0    0    0    0 -0.00000000000E+00 -0.00000000000E+00 -0.17817323011E+04  0.17817323011E+04  0.00000000000E+00 0. -1.
         24    2    1    2    0    0  0.57757340474E+02 -0.45218891408E+02 -0.12478012113E+04  0.12523835733E+04  0.77949298879E+02 0.  0.
         25    2    1    2    0    0 -0.11641403111E+03  0.35554314778E+02 -0.46214456940E+03  0.49400491960E+03  0.12508765576E+03 0.  0.
        -24    2    1    2    0    0  0.58656690639E+02  0.96645766299E+01 -0.75254409720E+01  0.99604887692E+02  0.79564376401E+02 0.  0.
        -13    1    3    3    0    0  0.13633619736E+02  0.18095711736E+02 -0.13313774826E+03  0.13505180629E+03  0.00000000000E+00 0.  1.
         14    1    3    3    0    0  0.44123720738E+02 -0.63314603144E+02 -0.11146634630E+04  0.11173317670E+04  0.00000000000E+00 0. -1.
         11    1    5    5    0    0  0.61324442455E+02  0.36187446455E+02 -0.13024614248E+02  0.72386871045E+02  0.00000000000E+00 0. -1.
        -12    1    5    5    0    0 -0.26677518157E+01 -0.26522869825E+02  0.54991732756E+01  0.27218016647E+02  0.00000000000E+00 0.  1.
          5    1    4    4  501    0 -0.58364151913E+02 -0.99972763828E+01 -0.37531495175E+03  0.37998040104E+03  0.41800000000E+01 0.  1.
         -5    1    4    4    0  501 -0.58049879200E+02  0.45551591161E+02 -0.86829617651E+02  0.11402451856E+03  0.41800000000E+01 0.  1.
</event>
<event>
11    1  0.8037748E-009  0.2014626E+03  0.7561462E-02  0.1053494E+00
         22   -1    0    0    0    0  0.00000000000E+00  0.00000000000E+00  0.52743490883E+03  0.52743490883E+03  0.00000000000E+00 0.  1.
         22   -1    0    0    0    0 -0.00000000000E+00 -0.00000000000E+00 -0.36005725174E+03  0.36005725174E+03  0.00000000000E+00 0. -1.
        -24    2    1    2    0    0 -0.80482708789E+02  0.13521293947E+03 -0.28287864685E+03  0.33371327288E+03  0.81143171234E+02 0.  0.
         25    2    1    2    0    0  0.78511169059E+02 -0.14275192057E+03  0.17139085395E+03  0.26751595615E+03  0.12509135655E+03 0.  0.
         24    2    1    2    0    0  0.19715397297E+01  0.75389811031E+01  0.27886544998E+03  0.28626293154E+03  0.64185696043E+02 0.  0.
        -11    1    5    5    0    0 -0.90054237412E+01 -0.21322680014E+02  0.20357139440E+03  0.20488305678E+03  0.00000000000E+00 0.  1.
         12    1    5    5    0    0  0.10976963471E+02  0.28861661117E+02  0.75294055586E+02  0.81379874761E+02  0.00000000000E+00 0. -1.
         11    1    3    3    0    0 -0.66046628919E+02  0.95348723724E+02 -0.26184499155E+03  0.28638494358E+03  0.00000000000E+00 0. -1.
        -12    1    3    3    0    0 -0.14436079870E+02  0.39864215745E+02 -0.21033655293E+02  0.47328329296E+02  0.00000000000E+00 0.  1.
          5    1    4    4  501    0 -0.11398580913E+02  0.12524675182E+02  0.44263087420E+02  0.47576133126E+02  0.41800000000E+01 0.  1.
         -5    1    4    4    0  501  0.89909749972E+02 -0.15527659575E+03  0.12712776653E+03  0.21993982303E+03  0.41800000000E+01 0.  1.
</event>
<event>
11    1  0.8037748E-009  0.1316413E+03  0.7561462E-02  0.1117269E+00
         22   -1    0    0    0    0  0.00000000000E+00  0.00000000000E+00  0.31840929403E+04  0.31840929403E+04  0.00000000000E+00 0. -1.
         22   -1    0    0    0    0 -0.00000000000E+00 -0.00000000000E+00 -0.48060907407E+03  0.48060907407E+03  0.00000000000E+00 0. -1.
         24    2    1    2    0    0  0.23743344921E+02 -0.32496127852E+02 -0.44502756156E+03  0.45417099479E+03  0.81252798153E+02 0.  0.
         25    2    1    2    0    0 -0.47487577602E+02  0.50961378766E+02  0.13820724986E+03  0.19899994637E+03  0.12509037769E+03 0.  0.
        -24    2    1    2    0    0  0.23744232681E+02 -0.18465250914E+02  0.30103041779E+04  0.30115310732E+04  0.80519607420E+02 0.  0.
        -13    1    3    3    0    0  0.78717618986E+01 -0.37490923687E+02 -0.79332102308E+02  0.88097198882E+02  0.00000000000E+00 0.  1.
         14    1    3    3    0    0  0.15871583023E+02  0.49947958356E+01 -0.36569545925E+03  0.36607379591E+03  0.00000000000E+00 0. -1.
         11    1    5    5    0    0 -0.11898568965E+02  0.10640723688E+02  0.21030875468E+04  0.21031481237E+04  0.00000000000E+00 0. -1.
        -12    1    5    5    0    0  0.35642801646E+02 -0.29105974602E+02  0.90721663115E+03  0.90838294948E+03  0.00000000000E+00 0.  1.
          5    1    4    4  501    0  0.40504813845E+02  0.21014592220E+02  0.69878305147E+02  0.83562569139E+02  0.41800000000E+01 0.  1.
         -5    1    4    4    0  501 -0.87992391447E+02  0.29946786546E+02  0.68328944714E+02  0.11543737723E+03  0.41800000000E+01 0.  1.
</event>
<event>
11    1  0.8037748E-009  0.2709251E+03  0.7561462E-02  0.1013307E+00
         22   -1    0    0    0    0  0.00000000000E+00  0.00000000000E+00  0.20839009005E+04  0.20839009005E+04  0.00000000000E+00 0.  1.
         22   -1    0    0    0    0 -0.00000000000E+00 -0.00000000000E+00 -0.10330719103E+03  0.10330719103E+03  0.00000000000E+00 0. -1.
        -24    2    1    2    0    0 -0.29216503753E+02  0.27517963128E+00 -0.10094914231E+02  0.85681067221E+02  0.79910313298E+02 0.  0.
         25    2    1    2    0    0 -0.18988141203E+03  0.10953475993E+03  0.30581487877E+03  0.39651344217E+03  0.12508938995E+03 0.  0.
         24    2    1    2    0    0  0.21909791578E+03 -0.10980993956E+03  0.16848737449E+04  0.17050135822E+04  0.90607170931E+02 0.  0.
        -13    1    5    5    0    0  0.22714516731E+03 -0.10972615176E+03  0.16531092931E+04  0.16722455233E+04  0.00000000000E+00 0.  1.
         14    1    5    5    0    0 -0.80472515315E+01 -0.83787797757E-01  0.31764451867E+02  0.32768058838E+02  0.00000000000E+00 0. -1.
         13    1    3    3    0    0  0.19785061683E+02 -0.11047576086E+02 -0.24493221089E+02  0.33367881001E+02  0.00000000000E+00 0. -1.
        -14    1    3    3    0    0 -0.49001565435E+02  0.11322755717E+02  0.14398306858E+02  0.52313186220E+02  0.00000000000E+00 0.  1.
          5    1    4    4  501    0 -0.34130230999E+02  0.83858950654E+02  0.14600015574E+03  0.17184502945E+03  0.41800000000E+01 0. -1.
         -5    1    4    4    0  501 -0.15575118103E+03  0.25675809277E+02  0.15981472303E+03  0.22466841271E+03  0.41800000000E+01 0. -1.
</event>
<event>
11    1  0.8037748E-009  0.1306655E+03  0.7561462E-02  0.1118454E+00
         22   -1    0    0    0    0  0.00000000000E+00  0.00000000000E+00  0.15209815831E+04  0.15209815831E+04  0.00000000000E+00 0. -1.
         22   -1    0    0    0    0 -0.00000000000E+00 -0.00000000000E+00 -0.66876743050E+02  0.66876743050E+02  0.00000000000E+00 0.  1.
         24    2    1    2    0    0  0.40068446244E+01  0.21529548697E+02 -0.94166727594E+01  0.80521940202E+02  0.76912501305E+02 0.  0.
         25    2    1    2    0    0  0.33260389071E+02 -0.27542027098E+02  0.19454794826E+03  0.23529265094E+03  0.12509560615E+03 0.  0.
        -24    2    1    2    0    0 -0.37267233696E+02  0.60124784006E+01  0.12689735646E+04  0.12720437350E+04  0.79852111035E+02 0.  0.
        -13    1    3    3    0    0  0.35798596441E+02  0.27801001037E+02  0.38883978041E+01  0.45492359834E+02  0.00000000000E+00 0.  1.
         14    1    3    3    0    0 -0.31791751817E+02 -0.62714523398E+01 -0.13305070564E+02  0.35029580367E+02  0.00000000000E+00 0. -1.
         13    1    5    5    0    0  0.51924983017E+01 -0.91377002862E+01  0.93298765226E+03  0.93304684710E+03  0.00000000000E+00 0. -1.
        -14    1    5    5    0    0 -0.42459731998E+02  0.15150178687E+02  0.33598591230E+03  0.33899688792E+03  0.00000000000E+00 0.  1.
          5    1    4    4  501    0  0.65295684216E+02  0.24356505015E+02  0.86612665400E+02  0.11124743557E+03  0.41800000000E+01 0.  1.
         -5    1    4    4    0  501 -0.32035295144E+02 -0.51898532113E+02  0.10793528286E+03  0.12404521537E+03  0.41800000000E+01 0.  1.
</event>
<event>
11    1  0.8037748E-009  0.2910557E+03  0.7561462E-02  0.1004049E+00
         22   -1    0    0    0    0  0.00000000000E+00  0.00000000000E+00  0.30611029825E+03  0.30611029825E+03  0.00000000000E+00 0.  1.
         22   -1    0    0    0    0 -0.00000000000E+00 -0.00000000000E+00 -0.14541401793E+04  0.14541401793E+04  0.00000000000E+00 0.  1.
         24    2    1    2    0    0 -0.39186077706E+02  0.32852147607E+01 -0.11663413966E+04  0.11697885399E+04  0.80663705298E+02 0.  0.
         25    2    1    2    0    0 -0.23690910208E+03 -0.82662441771E+01 -0.93253729091E+02  0.28379256986E+03  0.12509081212E+03 0.  0.
        -24    2    1    2    0    0  0.27609517979E+03  0.49810294165E+01  0.11156524462E+03  0.30666936779E+03  0.73115924222E+02 0.  0.
        -13    1    3    3    0    0 -0.58121887510E+02 -0.18092666481E+02 -0.83756239787E+03  0.83977155746E+03  0.00000000000E+00 0.  1.
         14    1    3    3    0    0  0.18935809804E+02  0.21377881242E+02 -0.32877899875E+03  0.33001698247E+03  0.00000000000E+00 0. -1.
         13    1    5    5    0    0  0.98568963257E+01  0.16352023822E+02  0.93212568221E+01  0.21246950769E+02  0.00000000000E+00 0. -1.
        -14    1    5    5    0    0  0.26623828346E+03 -0.11370994405E+02  0.10224398780E+03  0.28542241702E+03  0.00000000000E+00 0.  1.
          5    1    4    4  501    0 -0.10700920267E+03 -0.65460847248E+02 -0.52624981664E+02  0.13609905611E+03  0.41800000000E+01 0. -1.
         -5    1    4    4    0  501 -0.12989989941E+03  0.57194603071E+02 -0.40628747427E+02  0.14769351375E+03  0.41800000000E+01 0. -1.
</event>
<event>
11    1  0.8037748E-009  0.1321981E+03  0.7561462E-02  0.1116597E+00
         22   -1    0    0    0    0  0.00000000000E+00  0.00000000000E+00  0.63626878066E+03  0.63626878066E+03  0.00000000000E+00 0.  1.
         22   -1    0    0    0    0 -0.00000000000E+00 -0.00000000000E+00 -0.11425217342E+03  0.11425217342E+03  0.00000000000E+00 0. -1.
         24    2    1    2    0    0  0.41069946738E+02 -0.13119466256E+02 -0.67804050383E+02  0.11363309610E+03  0.80350671187E+02 0.  0.
         25    2    1    2    0    0 -0.40303459588E+02  0.28768243870E+01  0.20338236454E+03  0.24216632083E+03  0.12508995070E+03 0.  0.
        -24    2    1    2    0    0 -0.76648714948E+00  0.10242641869E+02  0.38643829308E+03  0.39472153715E+03  0.79781190240E+02 0.  0.
        -11    1    3    3    0    0  0.12250805720E+02  0.21936963084E+02  0.70503637841E+01  0.26096364108E+02  0.00000000000E+00 0.  1.
         12    1    3    3    0    0  0.28819141017E+02 -0.35056429340E+02 -0.74854414167E+02  0.87536731989E+02  0.00000000000E+00 0. -1.
         11    1    5    5    0    0 -0.90732958128E+01  0.36731177894E+02  0.99619146178E+02  0.10656208712E+03  0.00000000000E+00 0. -1.
        -12    1    5    5    0    0  0.83068086633E+01 -0.26488536026E+02  0.28681914690E+03  0.28815945003E+03  0.00000000000E+00 0.  1.
          5    1    4    4  501    0  0.43921748305E+02 -0.11942858195E+02  0.65818926341E+02  0.80133359475E+02  0.41800000000E+01 0. -1.
         -5    1    4    4    0  501 -0.84225207893E+02  0.14819682582E+02  0.13756343820E+03  0.16203296136E+03  0.41800000000E+01 0. -1.
</event>
<event>
11    1  0.8037748E-009  0.1516657E+03  0.7561462E-02  0.1095189E+00
         22   -1    0    0    0    0  0.00000000000E+00  0.00000000000E+00  0.15187669448E+04  0.15187669448E+04  0.00000000000E+00 0.  1.
         22   -1    0    0    0    0 -0.00000000000E+00 -0.00000000000E+00 -0.73566206004E+03  0.73566206004E+03  0.00000000000E+00 0.  1.
         24    2    1    2    0    0 -0.41312217484E+02  0.10513219461E+01 -0.69495797988E+03  0.70049133570E+03  0.77548133434E+02 0.  0.
         25    2    1    2    0    0  0.13037850764E+02 -0.82846546173E+02  0.12449391023E+03  0.19539539971E+03  0.12508833989E+03 0.  0.
        -24    2    1    2    0    0  0.28274366720E+02  0.81795224227E+02  0.13535689544E+04  0.13585422694E+04  0.77448595365E+02 0.  0.
        -13    1    3    3    0    0 -0.48273342575E+02  0.28063267494E+02 -0.55349432838E+03  0.55630372471E+03  0.00000000000E+00 0.  1.
         14    1    3    3    0    0  0.69611250910E+01 -0.27011945548E+02 -0.14146365151E+03  0.14418761099E+03  0.00000000000E+00 0. -1.
         13    1    5    5    0    0  0.23908509523E+02  0.44936965739E+02  0.29763381505E+03  0.30195502245E+03  0.00000000000E+00 0. -1.
        -14    1    5    5    0    0  0.43658571972E+01  0.36858258489E+02  0.10559351394E+04  0.10565872470E+04  0.00000000000E+00 0.  1.
          5    1    4    4  501    0 -0.45800870821E+02 -0.13868831368E+02  0.82330466180E+02  0.95319684813E+02  0.41800000000E+01 0. -1.
         -5    1    4    4    0  501  0.58838721585E+02 -0.68977714805E+02  0.42163444047E+02  0.10007571489E+03  0.41800000000E+01 0. -1.
</event>
<event>
11    1  0.8037748E-009  0.1930440E+03  0.7561462E-02  0.1059555E+00
         22   -1    0    0    0    0  0.00000000000E+00  0.00000000000E+00  0.15024217730E+03  0.15024217730E+03  0.00000000000E+00 0.  1.
         22   -1    0    0    0    0 -0.00000000000E+00 -0.00000000000E+00 -0.19003855436E+04  0.19003855436E+04  0.00000000000E+00 0.  1.
         24    2    1    2    0    0  0.28790520304E+02  0.33236455365E+02 -0.71444186685E+03  0.72012020040E+03  0.78818563143E+02 0.  0.
         25    2    1    2    0    0 -0.31215363601E+02 -0.17879193643E+03 -0.11214342762E+04  0.11428925094E+04  0.12508995406E+03 0.  0.
        -24    2    1    2    0    0  0.24248432973E+01  0.14555548106E+03  0.85732776749E+02  0.18761501115E+03  0.81590474134E+02 0.  0.
        -11    1    3    3    0    0 -0.15119222198E+02  0.50342068765E+01 -0.46523163408E+03  0.46550446557E+03  0.00000000000E+00 0.  1.
         12    1    3    3    0    0  0.43909742501E+02  0.28202248489E+02 -0.24921023277E+03  0.25461573483E+03  0.00000000000E+00 0. -1.
         11    1    5    5    0    0 -0.58088116386E+01  0.11281322481E+03  0.21415015104E+02  0.11497464441E+03  0.00000000000E+00 0. -1.
        -12    1    5    5    0    0  0.82336549358E+01  0.32742256249E+02  0.64317761645E+02  0.72640366745E+02  0.00000000000E+00 0.  1.
          5    1    4    4  501    0  0.47633325166E+02 -0.48834447563E+02 -0.35441398515E+03  0.36094387680E+03  0.41800000000E+01 0.  1.
         -5    1    4    4    0  501 -0.78848688767E+02 -0.12995748886E+03 -0.76702029109E+03  0.78194863257E+03  0.41800000000E+01 0.  1.
</event>
<event>
11    1  0.8037748E-009  0.1573444E+03  0.7561462E-02  0.1089602E+00
         22   -1    0    0    0    0  0.00000000000E+00  0.00000000000E+00  0.60729092523E+03  0.60729092523E+03  0.00000000000E+00 0.  1.
         22   -1    0    0    0    0 -0.00000000000E+00 -0.00000000000E+00 -0.21544094367E+04  0.21544094367E+04  0.00000000000E+00 0. -1.
         24    2    1    2    0    0  0.88146090115E+01  0.62605902900E+02 -0.19278257908E+04  0.19304846668E+04  0.79130099052E+02 0.  0.
         25    2    1    2    0    0 -0.77594222315E+02 -0.12653182670E+03 -0.17530830212E+03  0.26157574347E+03  0.12513074073E+03 0.  0.
        -24    2    1    2    0    0  0.68779613303E+02  0.63925923800E+02  0.55601558148E+03  0.56963995165E+03  0.80741493269E+02 0.  0.
        -13    1    3    3    0    0 -0.15576921476E+02  0.53431899057E+02 -0.64573975779E+03  0.64813381575E+03  0.00000000000E+00 0.  1.
         14    1    3    3    0    0  0.24391530487E+02  0.91740038428E+01 -0.12820860331E+04  0.12823508511E+04  0.00000000000E+00 0. -1.
         11    1    5    5    0    0 -0.68394185075E+00  0.27908665094E+02  0.47159170175E+02  0.54802816491E+02  0.00000000000E+00 0. -1.
        -12    1    5    5    0    0  0.69463555154E+02  0.36017258706E+02  0.50885641130E+03  0.51483713516E+03  0.00000000000E+00 0.  1.
          5    1    4    4  501    0 -0.55508392978E+02  0.52397370559E+01 -0.79157883003E+02  0.96912741046E+02  0.41800000000E+01 0. -1.
         -5    1    4    4    0  501 -0.22085829337E+02 -0.13177156376E+03 -0.96150419116E+02  0.16466300243E+03  0.41800000000E+01 0. -1.
</event>
<event>
11    1  0.8037748E-009  0.1596793E+03  0.7561462E-02  0.1087379E+00
         22   -1    0    0    0    0  0.00000000000E+00  0.00000000000E+00  0.56476110404E+03  0.56476110404E+03  0.00000000000E+00 0. -1.
         22   -1    0    0    0    0 -0.00000000000E+00 -0.00000000000E+00 -0.35205089833E+03  0.35205089833E+03  0.00000000000E+00 0.  1.
         24    2    1    2    0    0  0.17037459751E+02  0.17112769803E+01 -0.27019051703E+03  0.28253978330E+03  0.80824564019E+02 0.  0.
         25    2    1    2    0    0 -0.93515793286E+02 -0.62250470992E+02  0.39126221969E+02  0.17262225174E+03  0.12508899159E+03 0.  0.
        -24    2    1    2    0    0  0.76478333534E+02  0.60539194012E+02  0.44377450077E+03  0.46164996734E+03  0.81675916288E+02 0.  0.
        -13    1    3    3    0    0  0.20983783804E+02  0.37095618303E+02 -0.19125704510E+03  0.19594810890E+03  0.00000000000E+00 0.  1.
         14    1    3    3    0    0 -0.39463240531E+01 -0.35384341323E+02 -0.78933471928E+02  0.86591674397E+02  0.00000000000E+00 0. -1.
         11    1    5    5    0    0  0.12785349490E+02  0.48693661928E+02  0.29667279169E+03  0.30091407943E+03  0.00000000000E+00 0. -1.
        -12    1    5    5    0    0  0.63692984044E+02  0.11845532084E+02  0.14710170908E+03  0.16073588790E+03  0.00000000000E+00 0.  1.
          5    1    4    4  501    0 -0.74893117373E+02  0.24562370266E+02  0.13137710752E+02  0.80014754307E+02  0.41800000000E+01 0. -1.
         -5    1    4    4    0  501 -0.18622675913E+02 -0.86812841259E+02  0.25988511217E+02  0.92607497433E+02  0.41800000000E+01 0. -1.
</event>
<event>
11    1  0.8037748E-009  0.1549193E+03  0.7561462E-02  0.1091956E+00
         22   -1    0    0    0    0  0.00000000000E+00  0.00000000000E+00  0.18087608614E+03  0.18087608614E+03  0.00000000000E+00 0. -1.
         22   -1    0    0    0    0 -0.00000000000E+00 -0.00000000000E+00 -0.44249632686E+03  0.44249632686E+03  0.00000000000E+00 0. -1.
         24    2    1    2    0    0 -0.86548153421E+02  0.29334867349E+02 -0.34596673546E+03  0.36595847864E+03  0.76690995134E+02 0.  0.
         25    2    1    2    0    0  0.92923476364E+02 -0.10254301829E+02  0.68176940050E+02  0.17039863941E+03  0.12509067908E+03 0.  0.
        -24    2    1    2    0    0 -0.63753229427E+01 -0.19080565520E+02  0.16169554692E+02  0.87015294960E+02  0.83099304058E+02 0.  0.
        -11    1    3    3    0    0 -0.66426379107E+02  0.44684772118E+02 -0.16684818446E+03  0.18506082611E+03  0.00000000000E+00 0.  1.
         12    1    3    3    0    0 -0.20121774314E+02 -0.15349904769E+02 -0.17911855100E+03  0.18089765253E+03  0.00000000000E+00 0. -1.
         13    1    5    5    0    0 -0.41117235891E+02 -0.11253658478E+02  0.26174736461E+02  0.50023881749E+02  0.00000000000E+00 0. -1.
        -14    1    5    5    0    0  0.34741912948E+02 -0.78269070429E+01 -0.10005181769E+02  0.36991413211E+02  0.00000000000E+00 0.  1.
          5    1    4    4  501    0  0.38321445445E+02  0.32732508660E+02  0.84881407762E+02  0.98804231123E+02  0.41800000000E+01 0.  1.
         -5    1    4    4    0  501  0.54602030919E+02 -0.42986810489E+02 -0.16704467712E+02  0.71594408288E+02  0.41800000000E+01 0.  1.
</event>
<event>
11    1  0.8037748E-009  0.1700671E+03  0.7561462E-02  0.1077973E+00
         22   -1    0    0    0    0  0.00000000000E+00  0.00000000000E+00  0.14393359219E+04  0.14393359219E+04  0.00000000000E+00 0.  1.
         22   -1    0    0    0    0 -0.00000000000E+00 -0.00000000000E+00 -0.17049857352E+03  0.17049857352E+03  0.00000000000E+00 0. -1.
         24    2    1    2    0    0 -0.11009450132E+03 -0.25810350400E+02 -0.11826028510E+03  0.18255354616E+03  0.80952632892E+02 0.  0.
         25    2    1    2    0    0  0.15607816672E+03  0.58206950516E+01  0.55834856288E+03  0.59312335730E+03  0.12509166513E+03 0.  0.
        -24    2    1    2    0    0 -0.45983665394E+02  0.19989655348E+02  0.82874907059E+03  0.83415759196E+03  0.80497095704E+02 0.  0.
        -11    1    3    3    0    0  0.11241932546E+02 -0.11827511232E+02 -0.87838814144E+01  0.18531800830E+02  0.00000000000E+00 0.  1.
         12    1    3    3    0    0 -0.12133643387E+03 -0.13982839168E+02 -0.10947640369E+03  0.16402174533E+03  0.00000000000E+00 0. -1.
         11    1    5    5    0    0 -0.96517145319E+01  0.45746231902E+02  0.31073111261E+03  0.31422873464E+03  0.00000000000E+00 0. -1.
        -12    1    5    5    0    0 -0.36331950862E+02 -0.25756576554E+02  0.51801795798E+03  0.51992885732E+03  0.00000000000E+00 0.  1.
          5    1    4    4  501    0  0.13370560784E+03 -0.42432995366E+02  0.46372092650E+03  0.48449181493E+03  0.41800000000E+01 0. -1.
         -5    1    4    4    0  501  0.22372558878E+02  0.48253690417E+02  0.94627636380E+02  0.10863154236E+03  0.41800000000E+01 0. -1.
</event>
<event>
11    1  0.8037748E-009  0.1417466E+03  0.7561462E-02  0.1105624E+00
         22   -1    0    0    0    0  0.00000000000E+00  0.00000000000E+00  0.97876621883E+03  0.97876621883E+03  0.00000000000E+00 0.  1.
         22   -1    0    0    0    0 -0.00000000000E+00 -0.00000000000E+00 -0.69500007018E+03  0.69500007018E+03  0.00000000000E+00 0.  1.
        -24    2    1    2    0    0 -0.33336300830E+02 -0.39101948084E+02 -0.67349983556E+03  0.68017324595E+03  0.79958393620E+02 0.  0.
         25    2    1    2    0    0  0.16092858656E+01  0.91430211629E+02  0.43376249269E+03  0.46061238391E+03  0.12510713308E+03 0.  0.
         24    2    1    2    0    0  0.31727014964E+02 -0.52328263545E+02  0.52350349152E+03  0.53298065914E+03  0.79168344339E+02 0.  0.
        -13    1    5    5    0    0 -0.49705340498E+01 -0.61929672797E+02  0.32604450646E+03  0.33191114892E+03  0.00000000000E+00 0.  1.
         14    1    5    5    0    0  0.36697549014E+02  0.96014092524E+01  0.19745898506E+03  0.20106951023E+03  0.00000000000E+00 0. -1.
         13    1    3    3    0    0 -0.38946554518E+02  0.10597006474E+02 -0.19950308974E+03  0.20354511409E+03  0.00000000000E+00 0. -1.
        -14    1    3    3    0    0  0.56102536882E+01 -0.49698954558E+02 -0.47399674582E+03  0.47662813186E+03  0.00000000000E+00 0.  1.
          5    1    4    4  501    0 -0.59481275911E+02  0.48283735269E+02  0.26686187454E+03  0.27767260174E+03  0.41800000000E+01 0. -1.
         -5    1    4    4    0  501  0.61090561777E+02  0.43146476360E+02  0.16690061815E+03  0.18293978217E+03  0.41800000000E+01 0. -1.
</event>
<event>
11    1  0.8037748E-009  0.1650251E+03  0.7561462E-02  0.1082444E+00
         22   -1    0    0    0    0  0.00000000000E+00  0.00000000000E+00  0.14720667473E+03  0.14720667473E+03  0.00000000000E+00 0. -1.
         22   -1    0    0    0    0 -0.00000000000E+00 -0.00000000000E+00 -0.35346597245E+04  0.35346597245E+04  0.00000000000E+00 0.  1.
         24    2    1    2    0    0  0.51471513601E+02 -0.95043575548E+02 -0.33000974750E+04  0.33028553705E+04  0.80793912620E+02 0.  0.
         25    2    1    2    0    0 -0.31410206387E+02  0.94400023186E+02 -0.18935504203E+03  0.24779376795E+03  0.12509378103E+03 0.  0.
        -24    2    1    2    0    0 -0.20061307214E+02  0.64355236195E+00  0.10199946724E+03  0.13121726074E+03  0.80070019314E+02 0.  0.
        -13    1    3    3    0    0  0.14680097061E+02 -0.94064574755E+02 -0.20396208046E+04  0.20418414914E+04  0.00000000000E+00 0.  1.
         14    1    3    3    0    0  0.36791416540E+02 -0.97900079305E+00 -0.12604766703E+04  0.12610138791E+04  0.00000000000E+00 0. -1.
         13    1    5    5    0    0 -0.11285323792E+02  0.31510270288E+02  0.91537730837E+02  0.97464926171E+02  0.00000000000E+00 0. -1.
        -14    1    5    5    0    0 -0.87759834229E+01 -0.30866717926E+02  0.10461736404E+02  0.33752334573E+02  0.00000000000E+00 0.  1.
          5    1    4    4  501    0 -0.14208249007E+01  0.98726139945E+02 -0.61651973734E+02  0.11647878655E+03  0.41800000000E+01 0. -1.
         -5    1    4    4    0  501 -0.29989381486E+02 -0.43261167589E+01 -0.12770306829E+03  0.13131498140E+03  0.41800000000E+01 0. -1.
</event>
<event>
11    1  0.8037748E-009  0.1507482E+03  0.7561462E-02  0.1096117E+00
         22   -1    0    0    0    0  0.00000000000E+00  0.00000000000E+00  0.24345825631E+04  0.24345825631E+04  0.00000000000E+00 0. -1.
         22   -1    0    0    0    0 -0.00000000000E+00 -0.00000000000E+00 -0.57262039715E+03  0.57262039715E+03  0.00000000000E+00 0. -1.
        -24    2    1    2    0    0  0.10826527639E+02  0.36825948704E+01 -0.53209782091E+03  0.53854191742E+03  0.82271079942E+02 0.  0.
         25    2    1    2    0    0  0.68112982643E+02  0.26701231987E+02  0.11079535144E+03  0.18241542839E+03  0.12508974546E+03 0.  0.
         24    2    1    2    0    0 -0.78939510282E+02 -0.30383826857E+02  0.22832646355E+04  0.22862456145E+04  0.80417603770E+02 0.  0.
        -13    1    5    5    0    0  0.11336239090E+02  0.22592702358E+01  0.74090492161E+02  0.74986769816E+02  0.00000000000E+00 0.  1.
         14    1    5    5    0    0 -0.90275749372E+02 -0.32643097093E+02  0.22091741433E+04  0.22112588447E+04  0.00000000000E+00 0. -1.
         11    1    3    3    0    0  0.10071803520E+02  0.30877371860E+02 -0.46508051308E+03  0.46621318832E+03  0.00000000000E+00 0. -1.
        -12    1    3    3    0    0  0.75472411898E+00 -0.27194776989E+02 -0.67017307833E+02  0.72328729100E+02  0.00000000000E+00 0.  1.
          5    1    4    4  501    0  0.90422267688E+02  0.12511935088E+02  0.12280846985E+03  0.15307556200E+03  0.41800000000E+01 0. -1.
         -5    1    4    4    0  501 -0.22309285045E+02  0.14189296899E+02 -0.12013118412E+02  0.29339866388E+02  0.41800000000E+01 0. -1.
</event>
<event>
11    1  0.8037748E-009  0.2162114E+03  0.7561462E-02  0.1043617E+00
         22   -1    0    0    0    0  0.00000000000E+00  0.00000000000E+00  0.23789679970E+04  0.23789679970E+04  0.00000000000E+00 0.  1.
         22   -1    0    0    0    0 -0.00000000000E+00 -0.00000000000E+00 -0.90751651417E+02  0.90751651417E+02  0.00000000000E+00 0. -1.
         24    2    1    2    0    0 -0.54359570418E+02 -0.16170654169E+03  0.51680654849E+02  0.19598689999E+03  0.81461686476E+02 0.  0.
         25    2    1    2    0    0  0.68901376862E+02  0.21767627071E+03  0.11025294351E+04  0.11328497189E+04  0.12508785581E+03 0.  0.
        -24    2    1    2    0    0 -0.14541806444E+02 -0.55969729021E+02  0.11340062556E+04  0.11408830296E+04  0.11090457455E+03 0.  0.
        -11    1    3    3    0    0  0.56976055947E+01 -0.11945437014E+02  0.30500744507E+02  0.33248332146E+02  0.00000000000E+00 0.  1.
         12    1    3    3    0    0 -0.60057176013E+02 -0.14976110467E+03  0.21179910342E+02  0.16273856785E+03  0.00000000000E+00 0. -1.
         11    1    5    5    0    0 -0.55355897858E+02 -0.49771318948E+02  0.49739018226E+03  0.50292986889E+03  0.00000000000E+00 0. -1.
        -12    1    5    5    0    0  0.40814091414E+02 -0.61984100728E+01  0.63661607337E+03  0.63795316068E+03  0.00000000000E+00 0.  1.
          5    1    4    4  501    0 -0.71528719722E+01  0.20751122776E+02  0.20211666038E+02  0.30128997958E+02  0.41800000000E+01 0.  1.
         -5    1    4    4    0  501  0.76054248834E+02  0.19692514793E+03  0.10823177691E+04  0.11027207209E+04  0.41800000000E+01 0.  1.
</event>
<event>
11    1  0.8037748E-009  0.1850901E+03  0.7561462E-02  0.1065598E+00
         22   -1    0    0    0    0  0.00000000000E+00  0.00000000000E+00  0.10907025547E+04  0.10907025547E+04  0.00000000000E+00 0.  1.
         22   -1    0    0    0    0 -0.00000000000E+00 -0.00000000000E+00 -0.51318574511E+03  0.51318574511E+03  0.00000000000E+00 0. -1.
         24    2    1    2    0    0 -0.27631679846E+02  0.13402837696E+03 -0.44964827146E+03  0.47643991973E+03  0.78002009717E+02 0.  0.
         25    2    1    2    0    0  0.39611915915E+02 -0.12550006394E+03  0.12196657020E+03  0.21873200739E+03  0.12509387227E+03 0.  0.
        -24    2    1    2    0    0 -0.11980236069E+02 -0.85283130208E+01  0.90519851085E+03  0.90871637268E+03  0.78516519002E+02 0.  0.
        -11    1    3    3    0    0 -0.18541730389E+02  0.11567273372E+03 -0.25390466113E+03  0.27962752732E+03  0.00000000000E+00 0.  1.
         12    1    3    3    0    0 -0.90899494570E+01  0.18355643246E+02 -0.19574361033E+03  0.19681239241E+03  0.00000000000E+00 0. -1.
         13    1    5    5    0    0 -0.38366091217E+02 -0.27648864361E+02  0.53061247545E+03  0.53271569881E+03  0.00000000000E+00 0. -1.
        -14    1    5    5    0    0  0.26385855148E+02  0.19120551340E+02  0.37458603540E+03  0.37600067387E+03  0.00000000000E+00 0.  1.
          5    1    4    4  501    0 -0.33209286579E+02 -0.73887552125E+02  0.20770494475E+02  0.83732388684E+02  0.41800000000E+01 0. -1.
         -5    1    4    4    0  501  0.72821202494E+02 -0.51612511816E+02  0.10119607573E+03  0.13499961871E+03  0.41800000000E+01 0. -1.
</event>
<event>
11    1  0.8037748E-009  0.1734895E+03  0.7561462E-02  0.1075034E+00
         22   -1    0    0    0    0  0.00000000000E+00  0.00000000000E+00  0.15398629899E+03  0.15398629899E+03  0.00000000000E+00 0.  1.
         22   -1    0    0    0    0 -0.00000000000E+00 -0.00000000000E+00 -0.12264027607E+04  0.12264027607E+04  0.00000000000E+00 0. -1.
         24    2    1    2    0    0  0.25348668754E+02 -0.47655874166E+02 -0.99723330906E+03  0.10018444033E+04  0.79399612111E+02 0.  0.
         25    2    1    2    0    0  0.46762588224E+02  0.13774350133E+03 -0.12923444915E+03  0.23132007939E+03  0.12508966570E+03 0.  0.
        -24    2    1    2    0    0 -0.72111256978E+02 -0.90087627167E+02  0.54051296544E+02  0.14722457695E+03  0.73740893996E+02 0.  0.
        -11    1    3    3    0    0 -0.10419255634E+01 -0.53974926846E+02 -0.35918389011E+03  0.36321817858E+03  0.00000000000E+00 0.  1.
         12    1    3    3    0    0  0.26390594318E+02  0.63190526801E+01 -0.63804941895E+03  0.63862622474E+03  0.00000000000E+00 0. -1.
         11    1    5    5    0    0 -0.38783117412E+01  0.11540966681E+02  0.13717195327E+02  0.18341119419E+02  0.00000000000E+00 0. -1.
        -12    1    5    5    0    0 -0.68232945237E+02 -0.10162859385E+03  0.40334101217E+02  0.12888345753E+03  0.00000000000E+00 0.  1.
          5    1    4    4  501    0  0.69574058884E+02  0.49006439605E+02 -0.17884805833E+02  0.87060435744E+02  0.41800000000E+01 0. -1.
         -5    1    4    4    0  501 -0.22811470660E+02  0.88737061727E+02 -0.11134964332E+03  0.14425964364E+03  0.41800000000E+01 0. -1.
</event>
<event>
11    1  0.8037748E-009  0.1642881E+03  0.7561462E-02  0.1083112E+00
         22   -1    0    0    0    0  0.00000000000E+00  0.00000000000E+00  0.29300170833E+04  0.29300170833E+04  0.00000000000E+00 0. -1.
         22   -1    0    0    0    0 -0.00000000000E+00 -0.00000000000E+00 -0.99588136890E+03  0.99588136890E+03  0.00000000000E+00 0.  1.
         24    2    1    2    0    0 -0.10565266379E+03  0.40753581028E+01 -0.94362088302E+03  0.95297498550E+03  0.81005297442E+02 0.  0.
         25    2    1    2    0    0  0.14151590053E+03 -0.89373373191E+02  0.19009604386E+03  0.28248635174E+03  0.12509069946E+03 0.  0.
        -24    2    1    2    0    0 -0.35863236738E+02  0.85298015088E+02  0.26876605536E+04  0.26904371149E+04  0.79816635097E+02 0.  0.
        -11    1    3    3    0    0 -0.11045458113E+03  0.47186072325E+01 -0.94098944616E+03  0.94746167075E+03  0.00000000000E+00 0.  1.
         12    1    3    3    0    0  0.48019173458E+01 -0.64324912972E+00 -0.26314368555E+01  0.55133147527E+01  0.00000000000E+00 0. -1.
         13    1    5    5    0    0 -0.29455610389E+02  0.65146829849E+02  0.25629176114E+04  0.25639146681E+04  0.00000000000E+00 0. -1.
        -14    1    5    5    0    0 -0.64076263496E+01  0.20151185239E+02  0.12474294216E+03  0.12652244686E+03  0.00000000000E+00 0.  1.
          5    1    4    4  501    0  0.52918042426E+02 -0.10498390195E+03  0.12283406804E+03  0.17008121459E+03  0.41800000000E+01 0.  1.
         -5    1    4    4    0  501  0.88597858100E+02  0.15610528760E+02  0.67261975813E+02  0.11240513715E+03  0.41800000000E+01 0.  1.
</event>
<event>
11    1  0.8037748E-009  0.1305838E+03  0.7561462E-02  0.1118554E+00
         22   -1    0    0    0    0  0.00000000000E+00  0.00000000000E+00  0.30424776645E+03  0.30424776645E+03  0.00000000000E+00 0. -1.
         22   -1    0    0    0    0 -0.00000000000E+00 -0.00000000000E+00 -0.25854285935E+03  0.25854285935E+03  0.00000000000E+00 0. -1.
        -24    2    1    2    0    0 -0.40168840916E+01  0.86747986836E+01 -0.19005520042E+03  0.20540885120E+03  0.77333236397E+02 0.  0.
         25    2    1    2    0    0  0.13684950593E+02 -0.43345401711E+02  0.34967391750E+02  0.13761257110E+03  0.12509356305E+03 0.  0.
         24    2    1    2    0    0 -0.96680665010E+01  0.34670603027E+02  0.20079271577E+03  0.21976920351E+03  0.81763475219E+02 0.  0.
        -11    1    5    5    0    0 -0.87344663761E+01 -0.71946379685E+01 -0.30094128584E+01  0.11709410067E+02  0.00000000000E+00 0.  1.
         12    1    5    5    0    0 -0.93360012488E+00  0.41865240996E+02  0.20380212863E+03  0.20805979344E+03  0.00000000000E+00 0. -1.
         11    1    3    3    0    0  0.23699296860E+02  0.22142328054E+02 -0.15660510766E+03  0.15992841870E+03  0.00000000000E+00 0. -1.
        -12    1    3    3    0    0 -0.27716180952E+02 -0.13467529371E+02 -0.33450092761E+02  0.45480432491E+02  0.00000000000E+00 0.  1.
          5    1    4    4  501    0  0.68515165593E+01 -0.76871660076E+02  0.57586435868E+02  0.96383947823E+02  0.41800000000E+01 0.  1.
         -5    1    4    4    0  501  0.68334340333E+01  0.33526258366E+02 -0.22619044118E+02  0.41228623279E+02  0.41800000000E+01 0.  1.
</event>
<event>
11    1  0.8037748E-009  0.1753410E+03  0.7561462E-02  0.1073475E+00
         22   -1    0    0    0    0  0.00000000000E+00  0.00000000000E+00  0.16670807245E+04  0.16670807245E+04  0.00000000000E+00 0.  1.
         22   -1    0    0    0    0 -0.00000000000E+00 -0.00000000000E+00 -0.31884566405E+03  0.31884566405E+03  0.00000000000E+00 0. -1.
         24    2    1    2    0    0 -0.12186141034E+03  0.17639566286E+02 -0.23453927299E+03  0.27707734915E+03  0.81251641269E+02 0.  0.
         25    2    1    2    0    0  0.11788072309E+03 -0.31616418545E+02  0.61256433872E+02  0.18519331410E+03  0.12509496432E+03 0.  0.
        -24    2    1    2    0    0  0.39806872527E+01  0.13976852259E+02  0.15215178995E+04  0.15236557253E+04  0.79365308931E+02 0.  0.
        -11    1    3    3    0    0  0.97294699775E+01 -0.53393117986E+01 -0.36867605294E+02  0.38501833159E+02  0.00000000000E+00 0.  1.
         12    1    3    3    0    0 -0.13159088032E+03  0.22978878084E+02 -0.19767166769E+03  0.23857551599E+03  0.00000000000E+00 0. -1.
         11    1    5    5    0    0 -0.16291735026E+02 -0.35131084144E+01  0.72518273861E+02  0.74408753549E+02  0.00000000000E+00 0. -1.
        -12    1    5    5    0    0  0.20272422279E+02  0.17489960674E+02  0.14489996257E+04  0.14492469717E+04  0.00000000000E+00 0.  1.
          5    1    4    4  501    0 -0.33991482027E+01  0.25856741514E+02  0.41902388293E+02  0.49531887052E+02  0.41800000000E+01 0.  1.
         -5    1    4    4    0  501  0.12127987129E+03 -0.57473160059E+02  0.19354045579E+02  0.13566142705E+03  0.41800000000E+01 0.  1.
</event>
<event>
11    1  0.8037748E-009  0.1457949E+03  0.7561462E-02  0.1101255E+00
         22   -1    0    0    0    0  0.00000000000E+00  0.00000000000E+00  0.23164757447E+03  0.23164757447E+03  0.00000000000E+00 0. -1.
         22   -1    0    0    0    0 -0.00000000000E+00 -0.00000000000E+00 -0.58847761820E+03  0.58847761820E+03  0.00000000000E+00 0.  1.
        -24    2    1    2    0    0 -0.72066751956E+02  0.65727153083E+01 -0.36303788657E+03  0.37780722017E+03  0.75531259764E+02 0.  0.
         25    2    1    2    0    0  0.86221627461E+02  0.47505577554E+02 -0.17468163790E+03  0.23632665350E+03  0.12508262707E+03 0.  0.
         24    2    1    2    0    0 -0.14154875506E+02 -0.54078292862E+02  0.18088948074E+03  0.20599131900E+03  0.81157852382E+02 0.  0.
        -11    1    5    5    0    0  0.29946313625E+02 -0.12494395170E+02  0.33567659664E+02  0.46687036591E+02  0.00000000000E+00 0.  1.
         12    1    5    5    0    0 -0.44101189130E+02 -0.41583897692E+02  0.14732182107E+03  0.15930428241E+03  0.00000000000E+00 0. -1.
         11    1    3    3    0    0 -0.61633213689E+02  0.17061539017E+02 -0.13597564030E+03  0.15026351486E+03  0.00000000000E+00 0. -1.
        -12    1    3    3    0    0 -0.10433538266E+02 -0.10488823709E+02 -0.22706224627E+03  0.22754370531E+03  0.00000000000E+00 0.  1.
          5    1    4    4  501    0 -0.13218178269E+02  0.45822049494E+02 -0.18923709328E+02  0.51477758608E+02  0.41800000000E+01 0. -1.
         -5    1    4    4    0  501  0.99439805731E+02  0.16835280601E+01 -0.15575792857E+03  0.18484889489E+03  0.41800000000E+01 0. -1.
</event>
<event>
11    1  0.8037748E-009  0.1347796E+03  0.7561462E-02  0.1113532E+00
         22   -1    0    0    0    0  0.00000000000E+00  0.00000000000E+00  0.28196954985E+03  0.28196954985E+03  0.00000000000E+00 0. -1.
         22   -1    0    0    0    0 -0.00000000000E+00 -0.00000000000E+00 -0.23059762508E+03  0.23059762508E+03  0.00000000000E+00 0. -1.
         24    2    1    2    0    0 -0.98559355951E+01 -0.31556336628E+02 -0.14439280922E+03  0.16696272382E+03  0.77034576272E+02 0.  0.
         25    2    1    2    0    0  0.58456772855E+02  0.29532418975E+02  0.14882639778E+02  0.14198265354E+03  0.12509285702E+03 0.  0.
        -24    2    1    2    0    0 -0.48600837260E+02  0.20239176523E+01  0.18088209423E+03  0.20362179757E+03  0.79858417278E+02 0.  0.
        -13    1    3    3    0    0 -0.11126005881E+02  0.22070521663E+02 -0.21068774983E+02  0.32477518572E+02  0.00000000000E+00 0.  1.
         14    1    3    3    0    0  0.12700702858E+01 -0.53626858290E+02 -0.12332403424E+03  0.13448520525E+03  0.00000000000E+00 0. -1.
         11    1    5    5    0    0  0.18796736836E+01 -0.24644622842E+02  0.10930352586E+03  0.11206315796E+03  0.00000000000E+00 0. -1.
        -12    1    5    5    0    0 -0.50480510943E+02  0.26668540494E+02  0.71578568369E+02  0.91558639609E+02  0.00000000000E+00 0.  1.
          5    1    4    4  501    0  0.66635316893E+02  0.29031717163E+01 -0.41702726992E+02  0.78773623136E+02  0.41800000000E+01 0. -1.
         -5    1    4    4    0  501 -0.81785440381E+01  0.26629247259E+02  0.56585366769E+02  0.63209030404E+02  0.41800000000E+01 0. -1.
</event>
<event>
11    1  0.8037748E-009  0.1355672E+03  0.7561462E-02  0.1112612E+00
         22   -1    0    0    0    0  0.00000000000E+00  0.00000000000E+00  0.41359196453E+03  0.41359196453E+03  0.00000000000E+00 0.  1.
         22   -1    0    0    0    0 -0.00000000000E+00 -0.00000000000E+00 -0.44767555716E+03  0.44767555716E+03  0.00000000000E+00 0. -1.
         24    2    1    2    0    0  0.54068293023E+01  0.28730246864E+01 -0.38813397978E+03  0.39588419283E+03  0.77709843639E+02 0.  0.
         25    2    1    2    0    0  0.46017536912E+02 -0.15176638681E+02  0.45427433614E+02  0.14163151655E+03  0.12509152926E+03 0.  0.
        -24    2    1    2    0    0 -0.51424366214E+02  0.12303613995E+02  0.30862295354E+03  0.32375181231E+03  0.82287691467E+02 0.  0.
        -11    1    3    3    0    0  0.31244669403E+02  0.26052730012E+02 -0.15829980812E+03  0.16344357852E+03  0.00000000000E+00 0.  1.
         12    1    3    3    0    0 -0.25837840100E+02 -0.23179705325E+02 -0.22983417166E+03  0.23244061431E+03  0.00000000000E+00 0. -1.
         11    1    5    5    0    0 -0.65650847653E+02 -0.13735522682E+02  0.19063658107E+03  0.20209157435E+03  0.00000000000E+00 0. -1.
        -12    1    5    5    0    0  0.14226481439E+02  0.26039136677E+02  0.11798637247E+03  0.12166023796E+03  0.00000000000E+00 0.  1.
          5    1    4    4  501    0  0.60022586548E+02 -0.61104066621E+02  0.25382343255E+02  0.89432396830E+02  0.41800000000E+01 0.  1.
         -5    1    4    4    0  501 -0.14005049636E+02  0.45927427940E+02  0.20045090359E+02  0.52199119725E+02  0.41800000000E+01 0.  1.
</event>
<event>
11    1  0.1230712E-008  0.1780139E+03  0.7561462E-02  0.1071261E+00
         22   -1    0    0    0    0  0.00000000000E+00  0.00000000000E+00  0.12977409361E+04  0.12977409361E+04  0.00000000000E+00 0. -1.
         22   -1    0    0    0    0 -0.00000000000E+00 -0.00000000000E+00 -0.98973944036E+03  0.98973944036E+03  0.00000000000E+00 0. -1.
         24    2    1    2    0    0  0.57541129551E+00  0.86539472103E+02 -0.48401969605E+03  0.49793225806E+03  0.78562434549E+02 0.  0.
         25    2    1    2    0    0  0.94591527944E+02 -0.16935182233E+03 -0.46737758462E+03  0.52126425114E+03  0.12508803308E+03 0.  0.
        -24    2    1    2    0    0 -0.95166939239E+02  0.82812350228E+02  0.12593987764E+04  0.12682838672E+04  0.80895353501E+02 0.  0.
        -11    1    3    3    0    0  0.50079903251E+01  0.71322878353E+02 -0.18264106031E+03  0.19613717102E+03  0.00000000000E+00 0.  1.
         12    1    3    3    0    0 -0.44325790295E+01  0.15216593750E+02 -0.30137863574E+03  0.30179508705E+03  0.00000000000E+00 0. -1.
         11    1    5    5    0    0 -0.10283715112E+03  0.81809249153E+02  0.12451993881E+04  0.12521141118E+04  0.00000000000E+00 0. -1.
        -12    1    5    5    0    0  0.76702118784E+01  0.10031010751E+01  0.14199388287E+02  0.16169755402E+02  0.00000000000E+00 0.  1.
          5    1    4    4  501    0  0.86967818732E+02 -0.18083386127E+03 -0.46526423420E+03  0.50670757534E+03  0.41800000000E+01 0. -1.
         -5    1    4    4    0  501  0.76237092123E+01  0.11482038942E+02 -0.21133504267E+01  0.14556675804E+02  0.41800000000E+01 0. -1.
</event>
<event>
11    1  0.8037748E-009  0.1548323E+03  0.7561462E-02  0.1092041E+00
         22   -1    0    0    0    0  0.00000000000E+00  0.00000000000E+00  0.43665647211E+03  0.43665647211E+03  0.00000000000E+00 0.  1.
         22   -1    0    0    0    0 -0.00000000000E+00 -0.00000000000E+00 -0.13979603197E+04  0.13979603197E+04  0.00000000000E+00 0.  1.
         24    2    1    2    0    0  0.37104466473E+02 -0.85489696666E+02 -0.13294136028E+04  0.13349822526E+04  0.78433778876E+02 0.  0.
         25    2    1    2    0    0 -0.15911267921E+02  0.37097397090E+02  0.13445662541E+02  0.13212492161E+03  0.12508726455E+03 0.  0.
        -24    2    1    2    0    0 -0.21193198552E+02  0.48392299576E+02  0.35466409275E+03  0.36750961755E+03  0.80534054778E+02 0.  0.
        -13    1    3    3    0    0  0.41478018466E+02 -0.78672154992E+02 -0.13179415527E+04  0.13209389351E+04  0.00000000000E+00 0.  1.
         14    1    3    3    0    0 -0.43735519937E+01 -0.68175416735E+01 -0.11472050174E+02  0.14043317510E+02  0.00000000000E+00 0. -1.
         13    1    5    5    0    0  0.27628305507E+02  0.29693666470E+00  0.92763453857E+02  0.96790856015E+02  0.00000000000E+00 0. -1.
        -14    1    5    5    0    0 -0.48821504059E+02  0.48095362912E+02  0.26190063890E+03  0.27071876154E+03  0.00000000000E+00 0.  1.
          5    1    4    4  501    0  0.68266668192E+01 -0.31627332359E+02 -0.32688584093E+02  0.46183411113E+02  0.41800000000E+01 0.  1.
         -5    1    4    4    0  501 -0.22737934740E+02  0.68724729449E+02  0.46134246634E+02  0.85941510497E+02  0.41800000000E+01 0.  1.
</event>
<event>
11    1  0.8037748E-009  0.1374940E+03  0.7561462E-02  0.1110389E+00
         22   -1    0    0    0    0  0.00000000000E+00  0.00000000000E+00  0.50681884198E+03  0.50681884198E+03  0.00000000000E+00 0.  1.
         22   -1    0    0    0    0 -0.00000000000E+00 -0.00000000000E+00 -0.53753779991E+02  0.53753779991E+02  0.00000000000E+00 0.  1.
         24    2    1    2    0    0  0.35268602232E+02  0.17352174452E+02  0.78524963455E+02  0.11309448088E+03  0.71268642883E+02 0.  0.
         25    2    1    2    0    0  0.32627144994E+02 -0.10071772759E+02  0.14129838022E+03  0.19177831053E+03  0.12509083476E+03 0.  0.
        -24    2    1    2    0    0 -0.67895747226E+02 -0.72804016928E+01  0.23324171831E+03  0.25569983056E+03  0.79485013965E+02 0.  0.
        -11    1    3    3    0    0  0.18770709247E+02  0.45241305668E+02  0.47867378632E+02  0.68486503789E+02  0.00000000000E+00 0.  1.
         12    1    3    3    0    0  0.16497892985E+02 -0.27889131217E+02  0.30657584823E+02  0.44607977091E+02  0.00000000000E+00 0. -1.
         13    1    5    5    0    0  0.26733870833E+01  0.93329860049E+01  0.12527450740E+03  0.12565012467E+03  0.00000000000E+00 0. -1.
        -14    1    5    5    0    0 -0.70569134309E+02 -0.16613387698E+02  0.10796721091E+03  0.13004970588E+03  0.00000000000E+00 0.  1.
          5    1    4    4  501    0  0.30810503411E+02  0.24850643470E+01 -0.15208712126E+02  0.34702161169E+02  0.41800000000E+01 0.  1.
         -5    1    4    4    0  501  0.18166415832E+01 -0.12556837106E+02  0.15650709235E+03  0.15707614937E+03  0.41800000000E+01 0.  1.
</event>
<event>
11    1  0.8037748E-009  0.2017821E+03  0.7561462E-02  0.1053271E+00
         22   -1    0    0    0    0  0.00000000000E+00  0.00000000000E+00  0.45527871711E+04  0.45527871711E+04  0.00000000000E+00 0. -1.
         22   -1    0    0    0    0 -0.00000000000E+00 -0.00000000000E+00 -0.17213655354E+03  0.17213655354E+03  0.00000000000E+00 0.  1.
         24    2    1    2    0    0  0.18618379196E+02  0.16218986482E+03 -0.10677076945E+03  0.21136944625E+03  0.81393177272E+02 0.  0.
         25    2    1    2    0    0 -0.23012745301E+01 -0.10736288818E+03  0.53348394786E+03  0.55837615450E+03  0.12508685650E+03 0.  0.
        -24    2    1    2    0    0 -0.16317104666E+02 -0.54826976643E+02  0.39539374392E+04  0.39551781239E+04  0.80873194735E+02 0.  0.
        -13    1    3    3    0    0  0.49168054014E+02  0.86425403353E+02 -0.71054364754E+02  0.12221117228E+03  0.00000000000E+00 0.  1.
         14    1    3    3    0    0 -0.30549674819E+02  0.75764461468E+02 -0.35716404695E+02  0.89158273971E+02  0.00000000000E+00 0. -1.
         13    1    5    5    0    0 -0.23899037963E+02 -0.33598053150E+01  0.27625592106E+04  0.27626646276E+04  0.00000000000E+00 0. -1.
        -14    1    5    5    0    0  0.75819332975E+01 -0.51467171328E+02  0.11913782285E+04  0.11925134963E+04  0.00000000000E+00 0.  1.
          5    1    4    4  501    0  0.89904442359E+01 -0.93073925007E+01 -0.20973470158E+01  0.13759611449E+02  0.41800000000E+01 0.  1.
         -5    1    4    4    0  501 -0.11291718766E+02 -0.98055495678E+02  0.53558129488E+03  0.54461654306E+03  0.41800000000E+01 0.  1.
</event>
<event>
11    1  0.8037748E-009  0.2562555E+03  0.7561462E-02  0.1020619E+00
         22   -1    0    0    0    0  0.00000000000E+00  0.00000000000E+00  0.72968208986E+03  0.72968208986E+03  0.00000000000E+00 0. -1.
         22   -1    0    0    0    0 -0.00000000000E+00 -0.00000000000E+00 -0.38235550958E+03  0.38235550958E+03  0.00000000000E+00 0.  1.
        -24    2    1    2    0    0  0.44709079563E+02  0.13418612100E+03 -0.23604091554E+03  0.28615292038E+03  0.78507089935E+02 0.  0.
         25    2    1    2    0    0 -0.25745511835E+03 -0.11140181467E+03  0.16354293307E+03  0.34797624613E+03  0.12509066567E+03 0.  0.
         24    2    1    2    0    0  0.21274603879E+03 -0.22784306324E+02  0.41982456275E+03  0.47790843294E+03  0.79773461419E+02 0.  0.
        -13    1    5    5    0    0  0.20806206989E+03 -0.18808669315E+02  0.34850085180E+03  0.40632060577E+03  0.00000000000E+00 0.  1.
         14    1    5    5    0    0  0.46839688984E+01 -0.39756370081E+01  0.71323710957E+02  0.71587827170E+02  0.00000000000E+00 0. -1.
         13    1    3    3    0    0  0.85624987691E+01 -0.96764275061E+01 -0.25753467260E+02  0.28813030218E+02  0.00000000000E+00 0. -1.
        -14    1    3    3    0    0  0.36146580793E+02  0.14386254850E+03 -0.21028744828E+03  0.25733989016E+03  0.00000000000E+00 0.  1.
          5    1    4    4  501    0 -0.61946692483E+02 -0.32532336758E+02 -0.14999727169E+02  0.71681307603E+02  0.41800000000E+01 0. -1.
         -5    1    4    4    0  501 -0.19550842587E+03 -0.78869477916E+02  0.17854266024E+03  0.27629493853E+03  0.41800000000E+01 0. -1.
</event>
<event>
11    1  0.8037748E-009  0.1381352E+03  0.7561462E-02  0.1109659E+00
         22   -1    0    0    0    0  0.00000000000E+00  0.00000000000E+00  0.65209394847E+03  0.65209394847E+03  0.00000000000E+00 0.  1.
         22   -1    0    0    0    0 -0.00000000000E+00 -0.00000000000E+00 -0.33024356526E+03  0.33024356526E+03  0.00000000000E+00 0. -1.
         24    2    1    2    0    0 -0.24110682260E+02  0.64608108522E+01 -0.22689588354E+03  0.24254656709E+03  0.82000171743E+02 0.  0.
         25    2    1    2    0    0 -0.24882173662E+02 -0.39872826780E+02 -0.42604423456E+02  0.14025113692E+03  0.12508508955E+03 0.  0.
        -24    2    1    2    0    0  0.48992855923E+02  0.33412015928E+02  0.59135069020E+03  0.59953980972E+03  0.78966333916E+02 0.  0.
        -11    1    3    3    0    0  0.15632034633E+01  0.41037840455E+02 -0.87671538907E+02  0.96813463364E+02  0.00000000000E+00 0.  1.
         12    1    3    3    0    0 -0.25673885723E+02 -0.34577029602E+02 -0.13922434463E+03  0.14573310373E+03  0.00000000000E+00 0. -1.
         13    1    5    5    0    0 -0.15146162486E+02 -0.64871947618E+01  0.21815683304E+03  0.21877818387E+03  0.00000000000E+00 0. -1.
        -14    1    5    5    0    0  0.64139018408E+02  0.39899210690E+02  0.37319385716E+03  0.38076162585E+03  0.00000000000E+00 0.  1.
          5    1    4    4  501    0 -0.20657501224E+01 -0.82604149129E+02 -0.39083686763E+02  0.91502566893E+02  0.41800000000E+01 0. -1.
         -5    1    4    4    0  501 -0.22816423540E+02  0.42731322349E+02 -0.35207366925E+01  0.48748570028E+02  0.41800000000E+01 0. -1.
</event>
<event>
11    1  0.8037748E-009  0.2139275E+03  0.7561462E-02  0.1045089E+00
         22   -1    0    0    0    0  0.00000000000E+00  0.00000000000E+00  0.27916821324E+03  0.27916821324E+03  0.00000000000E+00 0.  1.
         22   -1    0    0    0    0 -0.00000000000E+00 -0.00000000000E+00 -0.35798396169E+03  0.35798396169E+03  0.00000000000E+00 0. -1.
        -24    2    1    2    0    0 -0.26814403866E+02 -0.16778923307E+03 -0.18569190748E+03  0.26425216114E+03  0.80470374517E+02 0.  0.
         25    2    1    2    0    0  0.62896762928E+02  0.17456158406E+03 -0.12849441656E+02  0.22415672183E+03  0.12511346201E+03 0.  0.
         24    2    1    2    0    0 -0.36082359062E+02 -0.67723509895E+01  0.11972560069E+03  0.14874329196E+03  0.80265472453E+02 0.  0.
        -11    1    5    5    0    0 -0.46233602585E+02 -0.19755381764E+02  0.12214333464E+03  0.13208639337E+03  0.00000000000E+00 0.  1.
         12    1    5    5    0    0  0.10151243523E+02  0.12983030774E+02 -0.24177339469E+01  0.16656898589E+02  0.00000000000E+00 0. -1.
         13    1    3    3    0    0 -0.53034268634E+02 -0.11521852982E+03 -0.10632145770E+03  0.16550587794E+03  0.00000000000E+00 0. -1.
        -14    1    3    3    0    0  0.26219864768E+02 -0.52570703247E+02 -0.79370449780E+02  0.98746283204E+02  0.00000000000E+00 0.  1.
          5    1    4    4  501    0  0.30981429060E+02  0.99467165589E+02 -0.68992584129E+02  0.12502405785E+03  0.41800000000E+01 0.  1.
         -5    1    4    4    0  501  0.31915333868E+02  0.75094418469E+02  0.56143142473E+02  0.99132663980E+02  0.41800000000E+01 0.  1.
</event>
<event>
11    1  0.8037748E-009  0.1429673E+03  0.7561462E-02  0.1104289E+00
         22   -1    0    0    0    0  0.00000000000E+00  0.00000000000E+00  0.56212471025E+03  0.56212471025E+03  0.00000000000E+00 0.  1.
         22   -1    0    0    0    0 -0.00000000000E+00 -0.00000000000E+00 -0.32109767617E+03  0.32109767617E+03  0.00000000000E+00 0.  1.
         24    2    1    2    0    0  0.57244699718E+02 -0.68581765881E+01 -0.13798192807E+03  0.16957762102E+03  0.79959782666E+02 0.  0.
         25    2    1    2    0    0 -0.97184735930E+01  0.58702220884E+02 -0.13205296675E+03  0.19137954637E+03  0.12509094802E+03 0.  0.
        -24    2    1    2    0    0 -0.47526226125E+02 -0.51844044296E+02  0.51106192890E+03  0.52226521903E+03  0.81425528781E+02 0.  0.
        -11    1    3    3    0    0  0.36159848166E+02 -0.11715083506E+01 -0.14271754917E+03  0.14723181005E+03  0.00000000000E+00 0.  1.
         12    1    3    3    0    0  0.21084851552E+02 -0.56866682374E+01  0.47356210940E+01  0.22345810967E+02  0.00000000000E+00 0. -1.
         11    1    5    5    0    0  0.71833872503E+01 -0.14067654871E+02  0.15050305878E+02  0.21817691743E+02  0.00000000000E+00 0. -1.
        -12    1    5    5    0    0 -0.54709613375E+02 -0.37776389425E+02  0.49601162302E+03  0.50044752729E+03  0.00000000000E+00 0.  1.
          5    1    4    4  501    0 -0.22880002325E+02  0.45749927388E+02  0.63262179004E+01  0.51711157358E+02  0.41800000000E+01 0.  1.
         -5    1    4    4    0  501  0.13161528732E+02  0.12952293496E+02 -0.13837918465E+03  0.13966838902E+03  0.41800000000E+01 0.  1.
</event>
<event>
11    1  0.8037748E-009  0.2432732E+03  0.7561462E-02  0.1027545E+00
         22   -1    0    0    0    0  0.00000000000E+00  0.00000000000E+00  0.14004390214E+04  0.14004390214E+04  0.00000000000E+00 0.  1.
         22   -1    0    0    0    0 -0.00000000000E+00 -0.00000000000E+00 -0.31295168240E+03  0.31295168240E+03  0.00000000000E+00 0.  1.
         24    2    1    2    0    0  0.20392391406E+03  0.42597999963E+02 -0.23121865293E+03  0.32093570654E+03  0.78346090817E+02 0.  0.
         25    2    1    2    0    0 -0.21132100180E+03 -0.23788000655E+02  0.40114693986E+03  0.47094384720E+03  0.12508718993E+03 0.  0.
        -24    2    1    2    0    0  0.73970877400E+01 -0.18809999307E+02  0.91755905209E+03  0.92151115007E+03  0.82823020069E+02 0.  0.
        -11    1    3    3    0    0  0.14064681390E+03  0.32212086969E+02 -0.20713961632E+03  0.25244002348E+03  0.00000000000E+00 0.  1.
         12    1    3    3    0    0  0.63277100166E+02  0.10385912993E+02 -0.24079036604E+02  0.68495683060E+02  0.00000000000E+00 0. -1.
         13    1    5    5    0    0  0.60959935748E+01  0.18957027419E+02  0.62030137250E+02  0.65148046429E+02  0.00000000000E+00 0. -1.
        -14    1    5    5    0    0  0.13010941652E+01 -0.37767026726E+02  0.85552891484E+03  0.85636310364E+03  0.00000000000E+00 0.  1.
          5    1    4    4  501    0  0.16545364465E+02 -0.50958666712E+01  0.34674287531E+02  0.38980707513E+02  0.41800000000E+01 0. -1.
         -5    1    4    4    0  501 -0.22786636627E+03 -0.18692133984E+02  0.36647265232E+03  0.43196313969E+03  0.41800000000E+01 0. -1.
</event>
<event>
11    1  0.8037748E-009  0.1342053E+03  0.7561462E-02  0.1114207E+00
         22   -1    0    0    0    0  0.00000000000E+00  0.00000000000E+00  0.38314545402E+03  0.38314545402E+03  0.00000000000E+00 0. -1.
         22   -1    0    0    0    0 -0.00000000000E+00 -0.00000000000E+00 -0.52288374807E+03  0.52288374807E+03  0.00000000000E+00 0.  1.
         24    2    1    2    0    0  0.45430439574E+02  0.42128382011E+01 -0.37930080068E+03  0.39039899025E+03  0.80377866038E+02 0.  0.
         25    2    1    2    0    0 -0.72108201083E+02  0.23598989694E+02 -0.91764752999E+02  0.17268752883E+03  0.12507480858E+03 0.  0.
        -24    2    1    2    0    0  0.26677761509E+02 -0.27811827895E+02  0.33132725963E+03  0.34294268300E+03  0.79666367541E+02 0.  0.
        -11    1    3    3    0    0  0.62038435618E+02  0.93906033456E+01 -0.35506272247E+03  0.36056412441E+03  0.00000000000E+00 0.  1.
         12    1    3    3    0    0 -0.16607996044E+02 -0.51777651445E+01 -0.24238078213E+02  0.29834865845E+02  0.00000000000E+00 0. -1.
         13    1    5    5    0    0 -0.12486573728E+02 -0.43537528305E+02  0.19709373963E+03  0.20223098946E+03  0.00000000000E+00 0. -1.
        -14    1    5    5    0    0  0.39164335238E+02  0.15725700410E+02  0.13423352000E+03  0.14071169354E+03  0.00000000000E+00 0.  1.
          5    1    4    4  501    0  0.23229010599E+02  0.66326871552E+01  0.14799794429E+02  0.28637140001E+02  0.41800000000E+01 0. -1.
         -5    1    4    4    0  501 -0.95337211682E+02  0.16966302539E+02 -0.10656454743E+03  0.14405038883E+03  0.41800000000E+01 0. -1.
</event>
<event>
11    1  0.8037748E-009  0.1981707E+03  0.7561462E-02  0.1055825E+00
         22   -1    0    0    0    0  0.00000000000E+00  0.00000000000E+00  0.32276931261E+03  0.32276931261E+03  0.00000000000E+00 0. -1.
         22   -1    0    0    0    0 -0.00000000000E+00 -0.00000000000E+00 -0.15674088657E+04  0.15674088657E+04  0.00000000000E+00 0. -1.
         24    2    1    2    0    0 -0.17339722466E+02  0.36156707774E+02 -0.11923889982E+04  0.11958721957E+04  0.81919545275E+02 0.  0.
         25    2    1    2    0    0  0.12281244774E+03 -0.14401850377E+03 -0.30813231952E+03  0.38264566921E+03  0.12509178663E+03 0.  0.
        -24    2    1    2    0    0 -0.10547272528E+03  0.10786179600E+03  0.25588176460E+03  0.31166031345E+03  0.94329267508E+02 0.  0.
        -13    1    3    3    0    0 -0.28614708163E+02 -0.29325521664E+01 -0.15258365785E+03  0.15527129171E+03  0.00000000000E+00 0.  1.
         14    1    3    3    0    0  0.11274985697E+02  0.39089259940E+02 -0.10398053403E+04  0.10406009040E+04  0.00000000000E+00 0. -1.
         13    1    5    5    0    0 -0.20280316566E+02  0.77856062358E+02  0.16478534145E+03  0.18337684271E+03  0.00000000000E+00 0. -1.
        -14    1    5    5    0    0 -0.85192408709E+02  0.30005733640E+02  0.91096423157E+02  0.12828347074E+03  0.00000000000E+00 0.  1.
          5    1    4    4  501    0 -0.19194272413E+01  0.59721520777E+01  0.80971425027E+01  0.11062862111E+02  0.41800000000E+01 0. -1.
         -5    1    4    4    0  501  0.12473187498E+03 -0.14999065585E+03 -0.31622946202E+03  0.37158280710E+03  0.41800000000E+01 0. -1.
</event>
<event>
11    1  0.8037748E-009  0.1300252E+03  0.7561462E-02  0.1119238E+00
         22   -1    0    0    0    0  0.00000000000E+00  0.00000000000E+00  0.10327785328E+04  0.10327785328E+04  0.00000000000E+00 0. -1.
         22   -1    0    0    0    0 -0.00000000000E+00 -0.00000000000E+00 -0.11651360514E+04  0.11651360514E+04  0.00000000000E+00 0.  1.
        -24    2    1    2    0    0 -0.92132691276E+01  0.36783173327E+02 -0.10219071661E+04  0.10257702714E+04  0.80451895035E+02 0.  0.
         25    2    1    2    0    0  0.58254794580E+01  0.14930510984E+01 -0.11120862430E+03  0.16748425595E+03  0.12508977760E+03 0.  0.
         24    2    1    2    0    0  0.33877896696E+01 -0.38276224425E+02  0.10007582718E+04  0.10046600569E+04  0.79675371565E+02 0.  0.
        -13    1    5    5    0    0 -0.23352477979E+02  0.14832236668E+02  0.40427632278E+03  0.40522176475E+03  0.00000000000E+00 0.  1.
         14    1    5    5    0    0  0.26740267649E+02 -0.53108461093E+02  0.59648194904E+03  0.59943829214E+03  0.00000000000E+00 0. -1.
         11    1    3    3    0    0  0.22234253835E+02  0.23688801030E+02 -0.16400084995E+03  0.16718791859E+03  0.00000000000E+00 0. -1.
        -12    1    3    3    0    0 -0.31447522962E+02  0.13094372297E+02 -0.85790631610E+03  0.85858235277E+03  0.00000000000E+00 0.  1.
          5    1    4    4  501    0  0.45772903310E+02 -0.28350870111E+02 -0.10365338507E+03  0.11687783002E+03  0.41800000000E+01 0.  1.
         -5    1    4    4    0  501 -0.39947423852E+02  0.29843921210E+02 -0.75552392263E+01  0.50606425930E+02  0.41800000000E+01 0.  1.
</event>
<event>
11    1  0.8037748E-009  0.1391112E+03  0.7561462E-02  0.1108555E+00
         22   -1    0    0    0    0  0.00000000000E+00  0.00000000000E+00  0.14345107371E+04  0.14345107371E+04  0.00000000000E+00 0. -1.
         22   -1    0    0    0    0 -0.00000000000E+00 -0.00000000000E+00 -0.60015654886E+03  0.60015654886E+03  0.00000000000E+00 0. -1.
        -24    2    1    2    0    0 -0.47371897424E+02  0.42664009564E+02 -0.50315197170E+03  0.51375270567E+03  0.81948896183E+02 0.  0.
         25    2    1    2    0    0  0.48099642863E+02  0.43647117584E+01 -0.40625654277E+02  0.14010694681E+03  0.12508751499E+03 0.  0.
         24    2    1    2    0    0 -0.72774543890E+00 -0.47028721322E+02  0.13781318142E+04  0.13808076335E+04  0.71904054829E+02 0.  0.
        -11    1    5    5    0    0 -0.28119016557E+02 -0.13553928678E+01  0.28714336433E+03  0.28852006491E+03  0.00000000000E+00 0.  1.
         12    1    5    5    0    0  0.27391271118E+02 -0.45673328454E+02  0.10909884499E+04  0.10922875686E+04  0.00000000000E+00 0. -1.
         11    1    3    3    0    0  0.85643502365E+00  0.22843641726E+02 -0.37073960584E+03  0.37144369800E+03  0.00000000000E+00 0. -1.
        -12    1    3    3    0    0 -0.48228332447E+02  0.19820367838E+02 -0.13241236586E+03  0.14230900767E+03  0.00000000000E+00 0.  1.
          5    1    4    4  501    0  0.50088293156E+01  0.43048144138E+02 -0.64095279553E+02  0.77484891080E+02  0.41800000000E+01 0.  1.
         -5    1    4    4    0  501  0.43090813547E+02 -0.38683432379E+02  0.23469625276E+02  0.62622055726E+02  0.41800000000E+01 0.  1.
</event>
<event>
11    1  0.8037748E-009  0.2176124E+03  0.7561462E-02  0.1042724E+00
         22   -1    0    0    0    0  0.00000000000E+00  0.00000000000E+00  0.17813581038E+03  0.17813581038E+03  0.00000000000E+00 0. -1.
         22   -1    0    0    0    0 -0.00000000000E+00 -0.00000000000E+00 -0.10668733235E+04  0.10668733235E+04  0.00000000000E+00 0.  1.
         24    2    1    2    0    0 -0.35662088690E+02 -0.45644027324E+02 -0.54284872024E+03  0.55182733109E+03  0.80458116233E+02 0.  0.
         25    2    1    2    0    0  0.61050497103E+02  0.21548231275E+03 -0.41837906605E+03  0.49076347684E+03  0.12509179427E+03 0.  0.
        -24    2    1    2    0    0 -0.25388408413E+02 -0.16983828543E+03  0.72490273153E+02  0.20241832597E+03  0.78922268774E+02 0.  0.
        -11    1    3    3    0    0 -0.51566889355E+02 -0.58592741682E+02 -0.40383479106E+03  0.41130863342E+03  0.00000000000E+00 0.  1.
         12    1    3    3    0    0  0.15904800665E+02  0.12948714358E+02 -0.13901392917E+03  0.14051869766E+03  0.00000000000E+00 0. -1.
         13    1    5    5    0    0 -0.35062303346E+02 -0.17468566083E+03  0.68081126909E+02  0.19073406895E+03  0.00000000000E+00 0. -1.
        -14    1    5    5    0    0  0.96738949330E+01  0.48473754075E+01  0.44091462436E+01  0.11684257020E+02  0.00000000000E+00 0.  1.
          5    1    4    4  501    0  0.23163223024E+02  0.21591187307E+03 -0.33740771846E+03  0.40126788148E+03  0.41800000000E+01 0. -1.
         -5    1    4    4    0  501  0.37887274079E+02 -0.42956031832E+00 -0.80971347587E+02  0.89495595363E+02  0.41800000000E+01 0. -1.
</event>
<event>
11    1  0.8037748E-009  0.1407419E+03  0.7561462E-02  0.1106733E+00
         22   -1    0    0    0    0  0.00000000000E+00  0.00000000000E+00  0.40121940830E+03  0.40121940830E+03  0.00000000000E+00 0.  1.
         22   -1    0    0    0    0 -0.00000000000E+00 -0.00000000000E+00 -0.30569410439E+03  0.30569410439E+03  0.00000000000E+00 0. -1.
         24    2    1    2    0    0 -0.25033774357E+02 -0.20502642231E+02 -0.19967288656E+03  0.21854732149E+03  0.82744316444E+02 0.  0.
         25    2    1    2    0    0 -0.38998410749E+02  0.36816757415E+02 -0.36168268913E+02  0.14082468187E+03  0.12508835950E+03 0.  0.
        -24    2    1    2    0    0  0.64032185106E+02 -0.16314115183E+02  0.33136645939E+03  0.34754150933E+03  0.81333260204E+02 0.  0.
        -11    1    3    3    0    0  0.22441394432E+02 -0.20752183985E+02 -0.13441777553E+03  0.13784922090E+03  0.00000000000E+00 0.  1.
         12    1    3    3    0    0 -0.47475168789E+02  0.24954175355E+00 -0.65255111037E+02  0.80698100591E+02  0.00000000000E+00 0. -1.
         11    1    5    5    0    0 -0.18626936263E+01 -0.14377378752E+01 -0.44307267477E+01  0.50167775769E+01  0.00000000000E+00 0. -1.
        -12    1    5    5    0    0  0.65894878733E+02 -0.14876377308E+02  0.33579718614E+03  0.34252473175E+03  0.00000000000E+00 0.  1.
          5    1    4    4  501    0 -0.35704475308E+02 -0.18016615609E+01  0.40885048006E+02  0.54471231782E+02  0.41800000000E+01 0. -1.
         -5    1    4    4    0  501 -0.32939354414E+01  0.38618418975E+02 -0.77053316918E+02  0.86353450093E+02  0.41800000000E+01 0. -1.
</event>
<event>
11    1  0.8037748E-009  0.1709777E+03  0.7561462E-02  0.1077184E+00
         22   -1    0    0    0    0  0.00000000000E+00  0.00000000000E+00  0.15507063183E+03  0.15507063183E+03  0.00000000000E+00 0.  1.
         22   -1    0    0    0    0 -0.00000000000E+00 -0.00000000000E+00 -0.14826466558E+04  0.14826466558E+04  0.00000000000E+00 0.  1.
         24    2    1    2    0    0 -0.52139864648E+02  0.10352038019E+03 -0.11313857279E+04  0.11401385836E+04  0.80295017699E+02 0.  0.
         25    2    1    2    0    0  0.25543618616E+02 -0.12072653643E+03 -0.30930339283E+03  0.35573010082E+03  0.12509173740E+03 0.  0.
        -24    2    1    2    0    0  0.26596246033E+02  0.17206156234E+02  0.11311309678E+03  0.14184860321E+03  0.79517554370E+02 0.  0.
        -13    1    3    3    0    0  0.43849473042E+01  0.58302671505E+02 -0.30252204262E+03  0.30812013167E+03  0.00000000000E+00 0.  1.
         14    1    3    3    0    0 -0.56524811953E+02  0.45217708688E+02 -0.82886368527E+03  0.83201845190E+03  0.00000000000E+00 0. -1.
         11    1    5    5    0    0 -0.15081575552E+02  0.35867482498E+02  0.63031301468E+02  0.74073444544E+02  0.00000000000E+00 0. -1.
        -12    1    5    5    0    0  0.41677821585E+02 -0.18661326264E+02  0.50081795310E+02  0.67775158661E+02  0.00000000000E+00 0.  1.
          5    1    4    4  501    0  0.84394395118E+01 -0.13036053868E+03 -0.30916702556E+03  0.33565877953E+03  0.41800000000E+01 0. -1.
         -5    1    4    4    0  501  0.17104179104E+02  0.96340022528E+01 -0.13636726756E+00  0.20071321288E+02  0.41800000000E+01 0. -1.
</event>
<event>
11    1  0.8037748E-009  0.4287414E+03  0.7561462E-02  0.9568565E-01
         22   -1    0    0    0    0  0.00000000000E+00  0.00000000000E+00  0.10622026397E+04  0.10622026397E+04  0.00000000000E+00 0.  1.
         22   -1    0    0    0    0 -0.00000000000E+00 -0.00000000000E+00 -0.50116410653E+03  0.50116410653E+03  0.00000000000E+00 0.  1.
         24    2    1    2    0    0  0.91540354487E+02  0.20082155390E+03 -0.20875743572E+03  0.31204921362E+03  0.71316980746E+02 0.  0.
         25    2    1    2    0    0  0.32228876417E+03 -0.22871145486E+02 -0.10637579224E+02  0.34663265758E+03  0.12509158406E+03 0.  0.
        -24    2    1    2    0    0 -0.41382911866E+03 -0.17795040841E+03  0.78043354807E+03  0.90468487498E+03  0.80357406348E+02 0.  0.
        -11    1    3    3    0    0 -0.74336833414E+01  0.62896001082E+00 -0.20295998540E+01  0.77313979514E+01  0.00000000000E+00 0.  1.
         12    1    3    3    0    0  0.98974037829E+02  0.20019259389E+03 -0.20672783587E+03  0.30431781567E+03  0.00000000000E+00 0. -1.
         13    1    5    5    0    0 -0.31463172710E+03 -0.15574999441E+03  0.65576384337E+03  0.74382619121E+03  0.00000000000E+00 0. -1.
        -14    1    5    5    0    0 -0.99197391557E+02 -0.22200413998E+02  0.12466970471E+03  0.16085868377E+03  0.00000000000E+00 0.  1.
          5    1    4    4  501    0  0.23810312109E+03 -0.53041291296E+02  0.34447143643E+02  0.24639511553E+03  0.41800000000E+01 0. -1.
         -5    1    4    4    0  501  0.84185643086E+02  0.30170145810E+02 -0.45084722867E+02  0.10023754205E+03  0.41800000000E+01 0. -1.
</event>
<event>
11    1  0.8037748E-009  0.3585091E+03  0.7561462E-02  0.9780792E-01
         22   -1    0    0    0    0  0.00000000000E+00  0.00000000000E+00  0.85617941207E+03  0.85617941207E+03  0.00000000000E+00 0.  1.
         22   -1    0    0    0    0 -0.00000000000E+00 -0.00000000000E+00 -0.13823651792E+04  0.13823651792E+04  0.00000000000E+00 0. -1.
        -24    2    1    2    0    0 -0.24639200796E+03 -0.22035247798E+03 -0.12065746117E+04  0.12535133198E+04  0.78797926259E+02 0.  0.
         25    2    1    2    0    0  0.42803118385E+03  0.24476192683E+03  0.53277357160E+03  0.73662286711E+03  0.12508586880E+03 0.  0.
         24    2    1    2    0    0 -0.18163917589E+03 -0.24409448852E+02  0.14761527293E+03  0.24840840439E+03  0.79547816787E+02 0.  0.
        -11    1    5    5    0    0 -0.16695639531E+03 -0.46374543814E+02  0.12546432878E+03  0.21393067579E+03  0.00000000000E+00 0.  1.
         12    1    5    5    0    0 -0.14682780585E+02  0.21965094962E+02  0.22150944152E+02  0.34477728597E+02  0.00000000000E+00 0. -1.
         11    1    3    3    0    0 -0.18691098091E+03 -0.11926901022E+03 -0.74720664358E+03  0.77940912222E+03  0.00000000000E+00 0. -1.
        -12    1    3    3    0    0 -0.59481027045E+02 -0.10108346776E+03 -0.45936796809E+03  0.47410419755E+03  0.00000000000E+00 0.  1.
          5    1    4    4  501    0  0.22199049274E+03  0.59145368039E+02  0.27030089984E+03  0.35476471397E+03  0.41800000000E+01 0.  1.
         -5    1    4    4    0  501  0.20604069111E+03  0.18561655879E+03  0.26247267177E+03  0.38185815314E+03  0.41800000000E+01 0.  1.
</event>
<event>
11    1  0.8037748E-009  0.2675701E+04  0.7561462E-02  0.7835335E-01
         22   -1    0    0    0    0  0.00000000000E+00  0.00000000000E+00  0.19444005960E+04  0.19444005960E+04  0.00000000000E+00 0. -1.
         22   -1    0    0    0    0 -0.00000000000E+00 -0.00000000000E+00 -0.92051222626E+03  0.92051222626E+03  0.00000000000E+00 0. -1.
         24    2    1    2    0    0 -0.39522997045E+03 -0.10113835215E+04  0.90630394603E+02  0.10925842297E+04  0.80144078919E+02 0.  0.
         25    2    1    2    0    0  0.28537844382E+03  0.12113942602E+04  0.86106861036E+03  0.15185532600E+04  0.12509173467E+03 0.  0.
        -24    2    1    2    0    0  0.10985152663E+03 -0.20001073863E+03  0.72189364803E+02  0.25377533257E+03  0.84373938852E+02 0.  0.
        -13    1    3    3    0    0 -0.84897611671E+02 -0.25411931132E+03 -0.95097453208E+01  0.26809450593E+03  0.00000000000E+00 0.  1.
         14    1    3    3    0    0 -0.31033235878E+03 -0.75726421020E+03  0.10014013992E+03  0.82448972376E+03  0.00000000000E+00 0. -1.
         11    1    5    5    0    0  0.10513451973E+03 -0.11405274199E+03  0.62150339560E+02  0.16710463758E+03  0.00000000000E+00 0. -1.
        -12    1    5    5    0    0  0.47170068995E+01 -0.85957996647E+02  0.10039025242E+02  0.86670694987E+02  0.00000000000E+00 0.  1.
          5    1    4    4  501    0  0.87495399108E+02  0.62872867822E+03  0.46186430921E+03  0.78504223339E+03  0.41800000000E+01 0. -1.
         -5    1    4    4    0  501  0.19788304471E+03  0.58266558193E+03  0.39920430115E+03  0.73351102664E+03  0.41800000000E+01 0. -1.
</event>
<event>
11    1  0.8037748E-009  0.1688281E+03  0.7561462E-02  0.1079056E+00
         22   -1    0    0    0    0  0.00000000000E+00  0.00000000000E+00  0.69679224773E+03  0.69679224773E+03  0.00000000000E+00 0. -1.
         22   -1    0    0    0    0 -0.00000000000E+00 -0.00000000000E+00 -0.69550245229E+03  0.69550245229E+03  0.00000000000E+00 0.  1.
        -24    2    1    2    0    0 -0.49582958058E+02 -0.57680408715E+01 -0.60215834701E+03  0.60931836042E+03  0.78628553602E+02 0.  0.
         25    2    1    2    0    0  0.15738993225E+03 -0.83368497783E+01  0.43602417400E+02  0.20588767483E+03  0.12508984774E+03 0.  0.
         24    2    1    2    0    0 -0.10780697420E+03  0.14104890650E+02  0.55984572505E+03  0.57708866476E+03  0.88220176349E+02 0.  0.
        -11    1    5    5    0    0 -0.11858841948E+03  0.16923339553E+01  0.42478896582E+03  0.44103485431E+03  0.00000000000E+00 0.  1.
         12    1    5    5    0    0  0.10781445287E+02  0.12412556695E+02  0.13505675923E+03  0.13605381046E+03  0.00000000000E+00 0. -1.
         11    1    3    3    0    0 -0.54655851738E+01 -0.16686654019E+02 -0.26021186787E+02  0.31391387441E+02  0.00000000000E+00 0. -1.
        -12    1    3    3    0    0 -0.44117372885E+02  0.10918613147E+02 -0.57613716022E+03  0.57792697298E+03  0.00000000000E+00 0.  1.
          5    1    4    4  501    0  0.13375411285E+03  0.43809391298E+02  0.14573642084E+02  0.14156019538E+03  0.41800000000E+01 0.  1.
         -5    1    4    4    0  501  0.23635819399E+02 -0.52146241077E+02  0.29028775317E+02  0.64327479458E+02  0.41800000000E+01 0.  1.
</event>
<event>
11    1  0.8037748E-009  0.1336543E+03  0.7561462E-02  0.1114859E+00
         22   -1    0    0    0    0  0.00000000000E+00  0.00000000000E+00  0.98070855687E+02  0.98070855687E+02  0.00000000000E+00 0. -1.
         22   -1    0    0    0    0 -0.00000000000E+00 -0.00000000000E+00 -0.13046797938E+04  0.13046797938E+04  0.00000000000E+00 0. -1.
        -24    2    1    2    0    0 -0.49168557676E+02 -0.12241511238E+02 -0.10295236272E+04  0.10338428211E+04  0.79653487880E+02 0.  0.
         25    2    1    2    0    0  0.22325278862E+02 -0.73624309795E+01 -0.23307361252E+03  0.26556141029E+03  0.12508769052E+03 0.  0.
         24    2    1    2    0    0  0.26843278814E+02  0.19603942217E+02  0.55988301655E+02  0.10334641804E+03  0.80255317774E+02 0.  0.
        -11    1    5    5    0    0 -0.13627440091E+02  0.21709173221E+02 -0.86522294677E+01  0.27052844585E+02  0.00000000000E+00 0.  1.
         12    1    5    5    0    0  0.40470718905E+02 -0.21052310040E+01  0.64640531123E+02  0.76293573452E+02  0.00000000000E+00 0. -1.
         13    1    3    3    0    0 -0.58745247027E+02  0.16974646079E+02 -0.78822369511E+03  0.79059201627E+03  0.00000000000E+00 0. -1.
        -14    1    3    3    0    0  0.95766893513E+01 -0.29216157317E+02 -0.24129993212E+03  0.24325080487E+03  0.00000000000E+00 0.  1.
          5    1    4    4  501    0  0.38101020054E+01  0.58470964590E+02 -0.10984754264E+03  0.12456855783E+03  0.41800000000E+01 0. -1.
         -5    1    4    4    0  501  0.18515176857E+02 -0.65833395570E+02 -0.12322606988E+03  0.14099285246E+03  0.41800000000E+01 0. -1.
</event>
