<event>
11    1  0.5813833E-009  0.1641356E+03  0.7561462E-02  0.1083251E+00
         22   -1    0    0    0    0  0.00000000000E+00  0.00000000000E+00  0.27434532090E+03  0.27434532090E+03  0.00000000000E+00 0. -1.
         22   -1    0    0    0    0 -0.00000000000E+00 -0.00000000000E+00 -0.31235638937E+03  0.31235638937E+03  0.00000000000E+00 0.  1.
        -24    2    1    2    0    0  0.63168962173E+02  0.68926583021E+02 -0.11312034885E+03  0.18280501042E+03  0.10899663703E+03 0.  0.
         25    2    1    2    0    0 -0.29518217712E+02 -0.13426290733E+03 -0.90697290239E+02  0.20683383537E+03  0.12512547116E+03 0.  0.
         24    2    1    2    0    0 -0.33650744460E+02  0.65336324313E+02  0.16580657061E+03  0.19706286448E+03  0.77076233838E+02 0.  0.
        -11    1    5    5    0    0 -0.40517790505E+02  0.61117155586E+02  0.71515111050E+02  0.10242758009E+03  0.00000000000E+00 0.  1.
         12    1    5    5    0    0  0.68670460451E+01  0.42191687276E+01  0.94291459559E+02  0.94635284391E+02  0.00000000000E+00 0. -1.
         11    1    3    3    0    0 -0.85340540160E+01  0.69925424339E+02 -0.43122111087E+02  0.82594863712E+02  0.00000000000E+00 0. -1.
        -12    1    3    3    0    0  0.71703016189E+02 -0.99884131809E+00 -0.69998237759E+02  0.10021014671E+03  0.00000000000E+00 0.  1.
          5    1    4    4  501    0  0.37732670924E+02 -0.37514378697E+02 -0.68540660382E+02  0.86869888854E+02  0.41800000000E+01 0.  1.
         -5    1    4    4    0  501 -0.67250888636E+02 -0.96748528638E+02 -0.22156629858E+02  0.11996394651E+03  0.41800000000E+01 0.  1.
</event>
<event>
11    1  0.5813833E-009  0.1599783E+03  0.7561462E-02  0.1087098E+00
         22   -1    0    0    0    0  0.00000000000E+00  0.00000000000E+00  0.19128503825E+04  0.19128503825E+04  0.00000000000E+00 0. -1.
         22   -1    0    0    0    0 -0.00000000000E+00 -0.00000000000E+00 -0.83749662302E+02  0.83749662302E+02  0.00000000000E+00 0. -1.
         24    2    1    2    0    0  0.30052444193E+02 -0.43126974570E+02 -0.57787814569E-01  0.97279290396E+02  0.81854576311E+02 0.  0.
         25    2    1    2    0    0  0.67568372820E+02  0.70062981322E+02  0.16604907402E+03  0.22955532135E+03  0.12509613991E+03 0.  0.
        -24    2    1    2    0    0 -0.97620817013E+02 -0.26936006752E+02  0.16631094339E+04  0.16697654330E+04  0.10921648054E+03 0.  0.
        -11    1    3    3    0    0  0.50699960093E+02 -0.32131991078E+02  0.23143955549E+02  0.64331900971E+02  0.00000000000E+00 0.  1.
         12    1    3    3    0    0 -0.20647515900E+02 -0.10994983492E+02 -0.23201743363E+02  0.32947389425E+02  0.00000000000E+00 0. -1.
         11    1    5    5    0    0  0.21549049045E+02 -0.98093710836E+01  0.14819026127E+03  0.15006977981E+03  0.00000000000E+00 0. -1.
        -12    1    5    5    0    0 -0.11916986606E+03 -0.17126635668E+02  0.15149191727E+04  0.15196956532E+04  0.00000000000E+00 0.  1.
          5    1    4    4  501    0 -0.31417755930E+02  0.47034218892E+02  0.56161571037E+02  0.79817840085E+02  0.41800000000E+01 0.  1.
         -5    1    4    4    0  501  0.98986128749E+02  0.23028762430E+02  0.10988750298E+03  0.14973748126E+03  0.41800000000E+01 0.  1.
</event>
<event>
11    1  0.5813833E-009  0.1276882E+03  0.7561462E-02  0.1122143E+00
         22   -1    0    0    0    0  0.00000000000E+00  0.00000000000E+00  0.46971130175E+03  0.46971130175E+03  0.00000000000E+00 0. -1.
         22   -1    0    0    0    0 -0.00000000000E+00 -0.00000000000E+00 -0.14628621139E+04  0.14628621139E+04  0.00000000000E+00 0.  1.
        -24    2    1    2    0    0  0.68016454809E+01  0.85296797512E+01 -0.14274622397E+04  0.14297894492E+04  0.80810923323E+02 0.  0.
         25    2    1    2    0    0 -0.79249115533E+00 -0.32354143414E+02  0.11682621353E+03  0.17418524440E+03  0.12507884138E+03 0.  0.
         24    2    1    2    0    0 -0.60091543256E+01  0.23824463663E+02  0.31748521400E+03  0.32859872213E+03  0.81095894268E+02 0.  0.
        -13    1    5    5    0    0  0.24736083266E+02  0.19469149887E+02  0.48455329659E+02  0.57782701435E+02  0.00000000000E+00 0.  1.
         14    1    5    5    0    0 -0.30745237592E+02  0.43553137759E+01  0.26902988435E+03  0.27081602069E+03  0.00000000000E+00 0. -1.
         13    1    3    3    0    0  0.52144152480E+01 -0.15714521700E+02 -0.63882000036E+02  0.65992774205E+02  0.00000000000E+00 0. -1.
        -14    1    3    3    0    0  0.15872302330E+01  0.24244201451E+02 -0.13635802397E+04  0.13637966750E+04  0.00000000000E+00 0.  1.
          5    1    4    4  501    0  0.17058918148E+02  0.33596561659E+02 -0.99401798849E+00  0.37923556208E+02  0.41800000000E+01 0. -1.
         -5    1    4    4    0  501 -0.17851409304E+02 -0.65950705073E+02  0.11782023151E+03  0.13626168819E+03  0.41800000000E+01 0. -1.
</event>
<event>
11    1  0.5813833E-009  0.1282589E+03  0.7561462E-02  0.1121427E+00
         22   -1    0    0    0    0  0.00000000000E+00  0.00000000000E+00  0.22771845629E+03  0.22771845629E+03  0.00000000000E+00 0. -1.
         22   -1    0    0    0    0 -0.00000000000E+00 -0.00000000000E+00 -0.79199490626E+03  0.79199490626E+03  0.00000000000E+00 0.  1.
         24    2    1    2    0    0 -0.33484420277E+02  0.19740485181E+02 -0.64097087587E+03  0.65173501272E+03  0.11137311137E+03 0.  0.
         25    2    1    2    0    0 -0.37597456510E+02  0.85010992612E+01 -0.96715210453E+02  0.16275030112E+03  0.12509193082E+03 0.  0.
        -24    2    1    2    0    0  0.71081876788E+02 -0.28241584442E+02  0.17340963635E+03  0.20522804872E+03  0.78723755639E+02 0.  0.
        -13    1    3    3    0    0  0.75628757180E+01  0.23722894524E+02 -0.56281935031E+03  0.56336985534E+03  0.00000000000E+00 0.  1.
         14    1    3    3    0    0 -0.41047295995E+02 -0.39824093437E+01 -0.78151525552E+02  0.88365157380E+02  0.00000000000E+00 0. -1.
         11    1    5    5    0    0  0.76614039284E+02 -0.71805140528E-01  0.14900976972E+03  0.16755186554E+03  0.00000000000E+00 0. -1.
        -12    1    5    5    0    0 -0.55321624968E+01 -0.28169779301E+02  0.24399866628E+02  0.37676183183E+02  0.00000000000E+00 0.  1.
          5    1    4    4  501    0 -0.55698826794E+02 -0.46254433252E+02 -0.46334233944E+02  0.86059081664E+02  0.41800000000E+01 0. -1.
         -5    1    4    4    0  501  0.18101370284E+02  0.54755532513E+02 -0.50380976509E+02  0.76691219452E+02  0.41800000000E+01 0. -1.
</event>
<event>
11    1  0.5813833E-009  0.1417228E+03  0.7561462E-02  0.1105650E+00
         22   -1    0    0    0    0  0.00000000000E+00  0.00000000000E+00  0.11016280029E+04  0.11016280029E+04  0.00000000000E+00 0. -1.
         22   -1    0    0    0    0 -0.00000000000E+00 -0.00000000000E+00 -0.26754483791E+03  0.26754483791E+03  0.00000000000E+00 0. -1.
        -24    2    1    2    0    0 -0.77122861288E+01  0.79032178445E+01 -0.23122265941E+03  0.24591887801E+03  0.83007446194E+02 0.  0.
         25    2    1    2    0    0 -0.51681721325E+02 -0.38774797029E+02  0.16534809611E+03  0.21717049177E+03  0.12509414218E+03 0.  0.
         24    2    1    2    0    0  0.59394007454E+02  0.30871579184E+02  0.89995772825E+03  0.90608347098E+03  0.81133477815E+02 0.  0.
        -13    1    5    5    0    0  0.15161794272E+01  0.41517236138E+02  0.24602022076E+03  0.24950336414E+03  0.00000000000E+00 0.  1.
         14    1    5    5    0    0  0.57877828027E+02 -0.10645656954E+02  0.65393750750E+03  0.65658010684E+03  0.00000000000E+00 0. -1.
         13    1    3    3    0    0  0.98623766539E+01 -0.88587754481E+01 -0.21773555768E+03  0.21813875734E+03  0.00000000000E+00 0. -1.
        -14    1    3    3    0    0 -0.17574662783E+02  0.16761993293E+02 -0.13487101736E+02  0.27780120667E+02  0.00000000000E+00 0.  1.
          5    1    4    4  501    0 -0.44301689042E+02  0.19467525498E+02  0.80647610525E+01  0.49235525506E+02  0.41800000000E+01 0.  1.
         -5    1    4    4    0  501 -0.73800322837E+01 -0.58242322527E+02  0.15728333506E+03  0.16793496627E+03  0.41800000000E+01 0.  1.
</event>
<event>
11    1  0.5813833E-009  0.1324768E+03  0.7561462E-02  0.1116263E+00
         22   -1    0    0    0    0  0.00000000000E+00  0.00000000000E+00  0.73300679976E+02  0.73300679976E+02  0.00000000000E+00 0.  1.
         22   -1    0    0    0    0 -0.00000000000E+00 -0.00000000000E+00 -0.67267808619E+03  0.67267808619E+03  0.00000000000E+00 0. -1.
         24    2    1    2    0    0 -0.17504215814E+02 -0.49913333356E+02 -0.39942564646E+03  0.41097482412E+03  0.81004447991E+02 0.  0.
         25    2    1    2    0    0 -0.28124804351E+02  0.21403689294E+02 -0.21027802368E+03  0.24720959352E+03  0.12508642352E+03 0.  0.
        -24    2    1    2    0    0  0.45629020164E+02  0.28509644061E+02  0.10326263920E+02  0.87794348532E+02  0.68603269762E+02 0.  0.
        -13    1    3    3    0    0 -0.14870431583E+02  0.17986847409E+02 -0.17317097493E+03  0.17473649582E+03  0.00000000000E+00 0.  1.
         14    1    3    3    0    0 -0.26337842308E+01 -0.67900180765E+02 -0.22625467153E+03  0.23623832829E+03  0.00000000000E+00 0. -1.
         13    1    5    5    0    0  0.15415304767E+02  0.15436755485E+02 -0.29139232810E+02  0.36400823201E+02  0.00000000000E+00 0. -1.
        -14    1    5    5    0    0  0.30213715398E+02  0.13072888576E+02  0.39465496730E+02  0.51393525331E+02  0.00000000000E+00 0.  1.
          5    1    4    4  501    0 -0.73980143125E+01 -0.20817172735E+02 -0.19683337884E+03  0.19811344407E+03  0.41800000000E+01 0.  1.
         -5    1    4    4    0  501 -0.20726790038E+02  0.42220862029E+02 -0.13444644843E+02  0.49096149449E+02  0.41800000000E+01 0.  1.
</event>
<event>
11    1  0.5813833E-009  0.1647237E+03  0.7561462E-02  0.1082717E+00
         22   -1    0    0    0    0  0.00000000000E+00  0.00000000000E+00  0.68121447852E+03  0.68121447852E+03  0.00000000000E+00 0.  1.
         22   -1    0    0    0    0 -0.00000000000E+00 -0.00000000000E+00 -0.67874875834E+03  0.67874875834E+03  0.00000000000E+00 0.  1.
        -24    2    1    2    0    0 -0.22710985671E+02 -0.31804030333E+02 -0.54208453326E+03  0.54948668122E+03  0.80948665419E+02 0.  0.
         25    2    1    2    0    0  0.41953775742E+02 -0.75156767442E+02 -0.79698983227E+02  0.17148635104E+03  0.12508789580E+03 0.  0.
         24    2    1    2    0    0 -0.19242790071E+02  0.10696079777E+03  0.62424923666E+03  0.63899020459E+03  0.82525601235E+02 0.  0.
        -11    1    5    5    0    0 -0.78637455008E+01  0.46642235744E+02  0.47864209636E+03  0.48097358873E+03  0.00000000000E+00 0.  1.
         12    1    5    5    0    0 -0.11379044570E+02  0.60318562030E+02  0.14560714030E+03  0.15801661585E+03  0.00000000000E+00 0. -1.
         11    1    3    3    0    0 -0.26756931901E+01 -0.39082099428E+02 -0.10810135001E+03  0.11498031007E+03  0.00000000000E+00 0. -1.
        -12    1    3    3    0    0 -0.20035292481E+02  0.72780690951E+01 -0.43398318325E+03  0.43450637116E+03  0.00000000000E+00 0.  1.
          5    1    4    4  501    0  0.62232267269E+02 -0.18082999407E+02  0.73506152433E+01  0.65355595793E+02  0.41800000000E+01 0.  1.
         -5    1    4    4    0  501 -0.20278491527E+02 -0.57073768035E+02 -0.87049598470E+02  0.10613075525E+03  0.41800000000E+01 0.  1.
</event>
<event>
11    1  0.5813833E-009  0.1297339E+03  0.7561462E-02  0.1119596E+00
         22   -1    0    0    0    0  0.00000000000E+00  0.00000000000E+00  0.98558736086E+03  0.98558736086E+03  0.00000000000E+00 0.  1.
         22   -1    0    0    0    0 -0.00000000000E+00 -0.00000000000E+00 -0.52278590059E+03  0.52278590059E+03  0.00000000000E+00 0. -1.
         24    2    1    2    0    0  0.13120950981E+02  0.32363618144E+02 -0.49234827684E+03  0.50190334148E+03  0.90997666721E+02 0.  0.
         25    2    1    2    0    0 -0.72269585843E+01 -0.10639595194E+02  0.14448510088E+03  0.19156056304E+03  0.12511624602E+03 0.  0.
        -24    2    1    2    0    0 -0.58939923971E+01 -0.21724022950E+02  0.81066463622E+03  0.81490935693E+03  0.79958959910E+02 0.  0.
        -11    1    3    3    0    0  0.41759761190E+02 -0.12269215492E+02 -0.25649390810E+03  0.26016059693E+03  0.00000000000E+00 0.  1.
         12    1    3    3    0    0 -0.28638810209E+02  0.44632833637E+02 -0.23585436874E+03  0.24174274455E+03  0.00000000000E+00 0. -1.
         11    1    5    5    0    0  0.30789681612E+02  0.61194721268E+01  0.19360351370E+03  0.19613202939E+03  0.00000000000E+00 0. -1.
        -12    1    5    5    0    0 -0.36683674009E+02 -0.27843495077E+02  0.61706112252E+03  0.61877732754E+03  0.00000000000E+00 0.  1.
          5    1    4    4  501    0  0.29502212357E+02  0.19732869094E+01 -0.10557717902E+02  0.31673525262E+02  0.41800000000E+01 0.  1.
         -5    1    4    4    0  501 -0.36729170941E+02 -0.12612882103E+02  0.15504281879E+03  0.15988703778E+03  0.41800000000E+01 0.  1.
</event>
<event>
11    1  0.5813833E-009  0.1531867E+03  0.7561462E-02  0.1093666E+00
         22   -1    0    0    0    0  0.00000000000E+00  0.00000000000E+00  0.12138194534E+04  0.12138194534E+04  0.00000000000E+00 0.  1.
         22   -1    0    0    0    0 -0.00000000000E+00 -0.00000000000E+00 -0.26025334722E+03  0.26025334722E+03  0.00000000000E+00 0.  1.
        -24    2    1    2    0    0  0.43404214780E+02 -0.18749146009E+02 -0.20958486525E+03  0.22898063945E+03  0.79188769184E+02 0.  0.
         25    2    1    2    0    0  0.28645329408E+02 -0.38840629888E+02  0.82178359901E+02  0.15725727095E+03  0.12508963588E+03 0.  0.
         24    2    1    2    0    0 -0.72049544188E+02  0.57589775897E+02  0.10809726115E+04  0.10878348902E+04  0.79845115173E+02 0.  0.
        -11    1    5    5    0    0 -0.57320140830E+02  0.49165228803E+02  0.10483203821E+04  0.10510368413E+04  0.00000000000E+00 0.  1.
         12    1    5    5    0    0 -0.14729403358E+02  0.84245470947E+01  0.32652229383E+02  0.36798048871E+02  0.00000000000E+00 0. -1.
         11    1    3    3    0    0  0.24444133680E+02  0.16851886661E+02 -0.21596801591E+02  0.36714078966E+02  0.00000000000E+00 0. -1.
        -12    1    3    3    0    0  0.18960081101E+02 -0.35601032670E+02 -0.18798806366E+03  0.19226656048E+03  0.00000000000E+00 0.  1.
          5    1    4    4  501    0  0.67832975220E+02 -0.16760579813E+02  0.87184245024E+02  0.11180695212E+03  0.41800000000E+01 0. -1.
         -5    1    4    4    0  501 -0.39187645812E+02 -0.22080050075E+02 -0.50058851225E+01  0.45450318827E+02  0.41800000000E+01 0. -1.
</event>
<event>
11    1  0.5813833E-009  0.1414817E+03  0.7561462E-02  0.1105915E+00
         22   -1    0    0    0    0  0.00000000000E+00  0.00000000000E+00  0.13508551117E+03  0.13508551117E+03  0.00000000000E+00 0. -1.
         22   -1    0    0    0    0 -0.00000000000E+00 -0.00000000000E+00 -0.15350282307E+04  0.15350282307E+04  0.00000000000E+00 0.  1.
        -24    2    1    2    0    0 -0.37651495382E+02  0.12265413517E+00 -0.99252009738E+03  0.99650233191E+03  0.80641823281E+02 0.  0.
         25    2    1    2    0    0  0.44235723188E+02 -0.65712146383E+02 -0.50797692643E+03  0.52911627504E+03  0.12509432178E+03 0.  0.
         24    2    1    2    0    0 -0.65842278063E+01  0.65589492247E+02  0.10055430433E+03  0.14449513487E+03  0.80139517910E+02 0.  0.
        -11    1    5    5    0    0 -0.11454312324E+02 -0.14716759799E+02  0.38882373599E+02  0.43123349435E+02  0.00000000000E+00 0.  1.
         12    1    5    5    0    0  0.48700845178E+01  0.80306252046E+02  0.61671930733E+02  0.10137178543E+03  0.00000000000E+00 0. -1.
         11    1    3    3    0    0 -0.34631075919E+02 -0.36600350030E+02 -0.47270155638E+03  0.47537948888E+03  0.00000000000E+00 0. -1.
        -12    1    3    3    0    0 -0.30204194621E+01  0.36723004166E+02 -0.51981854100E+03  0.52112284303E+03  0.00000000000E+00 0.  1.
          5    1    4    4  501    0  0.28711847688E+01  0.34116093027E+02 -0.70677544884E+02  0.78644384772E+02  0.41800000000E+01 0.  1.
         -5    1    4    4    0  501  0.41364538419E+02 -0.99828239410E+02 -0.43729938155E+03  0.45047189027E+03  0.41800000000E+01 0.  1.
</event>
<event>
11    1  0.6238714E-009  0.1508315E+03  0.7561462E-02  0.1096032E+00
         22   -1    0    0    0    0  0.00000000000E+00  0.00000000000E+00  0.10729960311E+04  0.10729960311E+04  0.00000000000E+00 0. -1.
         22   -1    0    0    0    0 -0.00000000000E+00 -0.00000000000E+00 -0.38991291392E+03  0.38991291392E+03  0.00000000000E+00 0. -1.
        -24    2    1    2    0    0 -0.29989266321E+02  0.12128785554E+02 -0.25145893029E+03  0.26615184160E+03  0.80986082945E+02 0.  0.
         25    2    1    2    0    0 -0.32730825144E+01 -0.89576345079E+02 -0.81287534871E+02  0.17404096577E+03  0.12509180538E+03 0.  0.
         24    2    1    2    0    0  0.33262348836E+02  0.77447559524E+02  0.10158295823E+04  0.10227161376E+04  0.83270940407E+02 0.  0.
        -13    1    5    5    0    0  0.33299177124E+02 -0.39710911271E+01  0.42209853397E+03  0.42342859745E+03  0.00000000000E+00 0.  1.
         14    1    5    5    0    0 -0.36828288511E-01  0.81418650651E+02  0.59373104835E+03  0.59928754018E+03  0.00000000000E+00 0. -1.
         13    1    3    3    0    0 -0.68221479433E+01 -0.11937081951E+01 -0.23427934367E+03  0.23438169193E+03  0.00000000000E+00 0. -1.
        -14    1    3    3    0    0 -0.23167118378E+02  0.13322493749E+02 -0.17179586622E+02  0.31770149672E+02  0.00000000000E+00 0.  1.
          5    1    4    4  501    0 -0.52827074009E+01 -0.10897773478E+03 -0.21856993936E+02  0.11135193873E+03  0.41800000000E+01 0.  1.
         -5    1    4    4    0  501  0.20096248865E+01  0.19401389704E+02 -0.59430540935E+02  0.62689027034E+02  0.41800000000E+01 0.  1.
</event>
<event>
11    1  0.5813833E-009  0.1497457E+03  0.7561462E-02  0.1097139E+00
         22   -1    0    0    0    0  0.00000000000E+00  0.00000000000E+00  0.56340021094E+03  0.56340021094E+03  0.00000000000E+00 0.  1.
         22   -1    0    0    0    0 -0.00000000000E+00 -0.00000000000E+00 -0.93965329169E+03  0.93965329169E+03  0.00000000000E+00 0. -1.
        -24    2    1    2    0    0  0.83205102427E+02 -0.55236631287E+01 -0.87287410459E+03  0.88056263516E+03  0.80794505121E+02 0.  0.
         25    2    1    2    0    0 -0.52823920427E+02  0.52527947456E+02  0.34271595898E+02  0.14957051053E+03  0.12508894236E+03 0.  0.
         24    2    1    2    0    0 -0.30381182000E+02 -0.47004284328E+02  0.46234942794E+03  0.47292035694E+03  0.82184253535E+02 0.  0.
        -13    1    5    5    0    0 -0.40880004018E+02  0.81260169892E+01  0.24034878436E+03  0.24393594451E+03  0.00000000000E+00 0.  1.
         14    1    5    5    0    0  0.10498822018E+02 -0.55130301317E+02  0.22200064357E+03  0.22898441243E+03  0.00000000000E+00 0. -1.
         13    1    3    3    0    0  0.57686357819E+02 -0.32855534280E+02 -0.72503348761E+03  0.72806645312E+03  0.00000000000E+00 0. -1.
        -14    1    3    3    0    0  0.25518744608E+02  0.27331871151E+02 -0.14784061698E+03  0.15249618204E+03  0.00000000000E+00 0.  1.
          5    1    4    4  501    0  0.53953852256E+01  0.72787852396E+02 -0.96828684925E+01  0.73745589566E+02  0.41800000000E+01 0.  1.
         -5    1    4    4    0  501 -0.58219305652E+02 -0.20259904939E+02  0.43954464390E+02  0.75824920960E+02  0.41800000000E+01 0.  1.
</event>
<event>
11    1  0.5813833E-009  0.1445473E+03  0.7561462E-02  0.1102584E+00
         22   -1    0    0    0    0  0.00000000000E+00  0.00000000000E+00  0.11643764951E+03  0.11643764951E+03  0.00000000000E+00 0. -1.
         22   -1    0    0    0    0 -0.00000000000E+00 -0.00000000000E+00 -0.13303872959E+04  0.13303872959E+04  0.00000000000E+00 0.  1.
         24    2    1    2    0    0  0.47306094264E+02 -0.22791117126E+02 -0.94242687021E+03  0.94692807205E+03  0.75809408161E+02 0.  0.
         25    2    1    2    0    0 -0.29012113463E+02  0.91981539531E+02 -0.33885033744E+03  0.37385761041E+03  0.12509058851E+03 0.  0.
        -24    2    1    2    0    0 -0.18293980801E+02 -0.69190422404E+02  0.67327561248E+02  0.12603926297E+03  0.78936119872E+02 0.  0.
        -11    1    3    3    0    0  0.65759491031E+02 -0.40148032792E+01 -0.67986019260E+03  0.68304488197E+03  0.00000000000E+00 0.  1.
         12    1    3    3    0    0 -0.18453396767E+02 -0.18776313847E+02 -0.26256667761E+03  0.26388319008E+03  0.00000000000E+00 0. -1.
         11    1    5    5    0    0 -0.44040714373E+02 -0.26773341185E+02  0.54026931228E+02  0.74667969161E+02  0.00000000000E+00 0. -1.
        -12    1    5    5    0    0  0.25746733572E+02 -0.42417081219E+02  0.13300630020E+02  0.51371293810E+02  0.00000000000E+00 0.  1.
          5    1    4    4  501    0  0.39678809832E+02  0.71103412222E+02 -0.13519081110E+03  0.15787378182E+03  0.41800000000E+01 0. -1.
         -5    1    4    4    0  501 -0.68690923295E+02  0.20878127309E+02 -0.20365952634E+03  0.21598382859E+03  0.41800000000E+01 0. -1.
</event>
<event>
11    1  0.5813833E-009  0.1410748E+03  0.7561462E-02  0.1106364E+00
         22   -1    0    0    0    0  0.00000000000E+00  0.00000000000E+00  0.12202843562E+04  0.12202843562E+04  0.00000000000E+00 0. -1.
         22   -1    0    0    0    0 -0.00000000000E+00 -0.00000000000E+00 -0.46265044937E+03  0.46265044937E+03  0.00000000000E+00 0. -1.
         24    2    1    2    0    0  0.89885392585E+01  0.11012283519E+02 -0.41940698788E+03  0.42702623421E+03  0.79038718325E+02 0.  0.
         25    2    1    2    0    0 -0.15726984163E+02  0.54471717528E+02  0.90096361138E+02  0.16425167696E+03  0.12508698194E+03 0.  0.
        -24    2    1    2    0    0  0.67384449042E+01 -0.65484001047E+02  0.10869445336E+04  0.10916568944E+04  0.77024638935E+02 0.  0.
        -11    1    3    3    0    0  0.54813935371E+01 -0.33419517438E+02 -0.13699539734E+03  0.14111927123E+03  0.00000000000E+00 0.  1.
         12    1    3    3    0    0  0.35071457214E+01  0.44431800957E+02 -0.28241159054E+03  0.28590696298E+03  0.00000000000E+00 0. -1.
         13    1    5    5    0    0  0.36684727104E+02 -0.25106394445E+02  0.32085901286E+03  0.32392376630E+03  0.00000000000E+00 0. -1.
        -14    1    5    5    0    0 -0.29946282200E+02 -0.40377606602E+02  0.76608552071E+03  0.76773312810E+03  0.00000000000E+00 0.  1.
          5    1    4    4  501    0 -0.27487758183E+02  0.98502413593E+01 -0.25956330408E+02  0.39291317018E+02  0.41800000000E+01 0. -1.
         -5    1    4    4    0  501  0.11760774020E+02  0.44621476168E+02  0.11605269155E+03  0.12496035994E+03  0.41800000000E+01 0. -1.
</event>
<event>
11    1  0.5813833E-009  0.1487516E+03  0.7561462E-02  0.1098161E+00
         22   -1    0    0    0    0  0.00000000000E+00  0.00000000000E+00  0.11390085197E+04  0.11390085197E+04  0.00000000000E+00 0. -1.
         22   -1    0    0    0    0 -0.00000000000E+00 -0.00000000000E+00 -0.12196489069E+03  0.12196489069E+03  0.00000000000E+00 0.  1.
        -24    2    1    2    0    0  0.55982706765E+02 -0.63055378354E+02 -0.61233032926E+02  0.12979313646E+03  0.77373960441E+02 0.  0.
         25    2    1    2    0    0 -0.51972047457E+02  0.31263002700E+02  0.17530096559E+03  0.22373538424E+03  0.12509446257E+03 0.  0.
         24    2    1    2    0    0 -0.40106593078E+01  0.31792375654E+02  0.90297569631E+03  0.90744488966E+03  0.84049265927E+02 0.  0.
        -11    1    5    5    0    0  0.38019696810E+02  0.14918160893E+02  0.29948095651E+03  0.30225302676E+03  0.00000000000E+00 0.  1.
         12    1    5    5    0    0 -0.42030356118E+02  0.16874214761E+02  0.60349473980E+03  0.60519186291E+03  0.00000000000E+00 0. -1.
         13    1    3    3    0    0  0.86548303438E+01 -0.26258999565E+01  0.17585432068E+02  0.19774955370E+02  0.00000000000E+00 0. -1.
        -14    1    3    3    0    0  0.47327876421E+02 -0.60429478397E+02 -0.78818464995E+02  0.11001818109E+03  0.00000000000E+00 0.  1.
          5    1    4    4  501    0  0.21327664378E+02  0.52825846978E+02  0.10641254997E+03  0.12077475965E+03  0.41800000000E+01 0. -1.
         -5    1    4    4    0  501 -0.73299711835E+02 -0.21562844279E+02  0.68888415623E+02  0.10296062459E+03  0.41800000000E+01 0. -1.
</event>
<event>
11    1  0.5813833E-009  0.1334429E+03  0.7561462E-02  0.1115110E+00
         22   -1    0    0    0    0  0.00000000000E+00  0.00000000000E+00  0.61555879216E+03  0.61555879216E+03  0.00000000000E+00 0. -1.
         22   -1    0    0    0    0 -0.00000000000E+00 -0.00000000000E+00 -0.50338197867E+03  0.50338197867E+03  0.00000000000E+00 0. -1.
        -24    2    1    2    0    0  0.38730972414E+01  0.12025939662E+02 -0.32480434461E+03  0.33491910182E+03  0.80705132290E+02 0.  0.
         25    2    1    2    0    0  0.46719474639E+00  0.34503843056E+02 -0.14507062629E+03  0.19463723439E+03  0.12508969959E+03 0.  0.
         24    2    1    2    0    0 -0.43402919878E+01 -0.46529782718E+02  0.58205178440E+03  0.58938443462E+03  0.80036699279E+02 0.  0.
        -13    1    5    5    0    0  0.74335826162E+01  0.15310747302E+02  0.37207041328E+02  0.40915046839E+02  0.00000000000E+00 0.  1.
         14    1    5    5    0    0 -0.11773874604E+02 -0.61840530020E+02  0.54484474307E+03  0.54846938778E+03  0.00000000000E+00 0. -1.
         13    1    3    3    0    0  0.22628769583E+02 -0.16468486138E+02 -0.26163152614E+03  0.26312416788E+03  0.00000000000E+00 0. -1.
        -14    1    3    3    0    0 -0.18755672342E+02  0.28494425800E+02 -0.63172818470E+02  0.71794933944E+02  0.00000000000E+00 0.  1.
          5    1    4    4  501    0 -0.20881690759E+02  0.77240862484E+02 -0.75143660673E+02  0.10984642910E+03  0.41800000000E+01 0. -1.
         -5    1    4    4    0  501  0.21348885505E+02 -0.42737019428E+02 -0.69926965617E+02  0.84790805294E+02  0.41800000000E+01 0. -1.
</event>
<event>
11    1  0.5813833E-009  0.3453871E+03  0.7561462E-02  0.9826241E-01
         22   -1    0    0    0    0  0.00000000000E+00  0.00000000000E+00  0.18638013249E+03  0.18638013249E+03  0.00000000000E+00 0. -1.
         22   -1    0    0    0    0 -0.00000000000E+00 -0.00000000000E+00 -0.45788887058E+03  0.45788887058E+03  0.00000000000E+00 0. -1.
        -24    2    1    2    0    0 -0.19568982522E+03 -0.11144554684E+03 -0.11556885213E+03  0.26531053680E+03  0.79491532536E+02 0.  0.
         25    2    1    2    0    0  0.81126937375E+02  0.60080788448E+01 -0.13855063192E+03  0.20362044695E+03  0.12508929542E+03 0.  0.
         24    2    1    2    0    0  0.11456288785E+03  0.10543746799E+03 -0.17389254034E+02  0.17533801932E+03  0.78735760206E+02 0.  0.
        -13    1    5    5    0    0 -0.14582598806E-01 -0.32227697920E+01 -0.17128916020E+02  0.17429464186E+02  0.00000000000E+00 0.  1.
         14    1    5    5    0    0  0.11457747045E+03  0.10866023779E+03 -0.26033801444E+00  0.15790855514E+03  0.00000000000E+00 0. -1.
         13    1    3    3    0    0 -0.17705890185E+03 -0.12409174081E+03 -0.10256290894E+03  0.23930684310E+03  0.00000000000E+00 0. -1.
        -14    1    3    3    0    0 -0.18630923371E+02  0.12646193972E+02 -0.13005943190E+02  0.26003693697E+02  0.00000000000E+00 0.  1.
          5    1    4    4  501    0 -0.10043745378E+02 -0.27706564269E+02  0.50219949360E+01  0.30186476408E+02  0.41800000000E+01 0.  1.
         -5    1    4    4    0  501  0.91170682752E+02  0.33714643114E+02 -0.14357262686E+03  0.17343397054E+03  0.41800000000E+01 0.  1.
</event>
<event>
11    1  0.5813833E-009  0.1398996E+03  0.7561462E-02  0.1107671E+00
         22   -1    0    0    0    0  0.00000000000E+00  0.00000000000E+00  0.87083323226E+03  0.87083323226E+03  0.00000000000E+00 0. -1.
         22   -1    0    0    0    0 -0.00000000000E+00 -0.00000000000E+00 -0.48112365458E+03  0.48112365458E+03  0.00000000000E+00 0.  1.
         24    2    1    2    0    0 -0.47232641056E+02 -0.43209748359E+02 -0.42058931634E+03  0.43337302684E+03  0.82576041571E+02 0.  0.
         25    2    1    2    0    0 -0.64729473242E+01  0.66530741236E+02  0.47919665580E+02  0.14970489070E+03  0.12508805449E+03 0.  0.
        -24    2    1    2    0    0  0.53705588380E+02 -0.23320992877E+02  0.76237922845E+03  0.76887896929E+03  0.80775135566E+02 0.  0.
        -11    1    3    3    0    0 -0.38053067649E+02  0.11714424064E+02 -0.26797473461E+03  0.27091644852E+03  0.00000000000E+00 0.  1.
         12    1    3    3    0    0 -0.91795734070E+01 -0.54924172423E+02 -0.15261458173E+03  0.16245657832E+03  0.00000000000E+00 0. -1.
         11    1    5    5    0    0  0.67913761735E+02 -0.36812394101E+02  0.51967064972E+03  0.52538082909E+03  0.00000000000E+00 0. -1.
        -12    1    5    5    0    0 -0.14208173355E+02  0.13491401224E+02  0.24270857872E+03  0.24349814020E+03  0.00000000000E+00 0.  1.
          5    1    4    4  501    0  0.55654100724E+02  0.38678265002E+02  0.28807175367E+01  0.67964388061E+02  0.41800000000E+01 0.  1.
         -5    1    4    4    0  501 -0.62127048049E+02  0.27852476234E+02  0.45038948044E+02  0.81740502644E+02  0.41800000000E+01 0.  1.
</event>
<event>
11    1  0.5813833E-009  0.5218683E+03  0.7561462E-02  0.9345941E-01
         22   -1    0    0    0    0  0.00000000000E+00  0.00000000000E+00  0.66415863409E+03  0.66415863409E+03  0.00000000000E+00 0. -1.
         22   -1    0    0    0    0 -0.00000000000E+00 -0.00000000000E+00 -0.19980258306E+04  0.19980258306E+04  0.00000000000E+00 0.  1.
        -24    2    1    2    0    0  0.96751614116E+02 -0.56827554129E+03 -0.15311101660E+04  0.16380618146E+04  0.81548771500E+02 0.  0.
         25    2    1    2    0    0  0.14778054104E+03  0.36701477963E+03 -0.23904154452E+03  0.47888063813E+03  0.12508744459E+03 0.  0.
         24    2    1    2    0    0 -0.24453215515E+03  0.20126076166E+03  0.43628451406E+03  0.54524201199E+03  0.81503406915E+02 0.  0.
        -13    1    5    5    0    0 -0.50452575363E+02  0.10223543632E+02  0.10041455956E+03  0.11284089231E+03  0.00000000000E+00 0.  1.
         14    1    5    5    0    0 -0.19407957979E+03  0.19103721803E+03  0.33586995450E+03  0.43240111968E+03  0.00000000000E+00 0. -1.
         13    1    3    3    0    0  0.50907407652E+02 -0.30201955645E+03 -0.69807124306E+03  0.76230626195E+03  0.00000000000E+00 0. -1.
        -14    1    3    3    0    0  0.45844206464E+02 -0.26625598484E+03 -0.83303892297E+03  0.87575555260E+03  0.00000000000E+00 0.  1.
          5    1    4    4  501    0  0.15343385049E+03  0.25160086364E+03 -0.13846107193E+03  0.32562844148E+03  0.41800000000E+01 0.  1.
         -5    1    4    4    0  501 -0.56533094525E+01  0.11541391599E+03 -0.10058047259E+03  0.15325219665E+03  0.41800000000E+01 0.  1.
</event>
<event>
11    1  0.5813833E-009  0.1663092E+03  0.7561462E-02  0.1081289E+00
         22   -1    0    0    0    0  0.00000000000E+00  0.00000000000E+00  0.59807025143E+03  0.59807025143E+03  0.00000000000E+00 0.  1.
         22   -1    0    0    0    0 -0.00000000000E+00 -0.00000000000E+00 -0.21221702333E+04  0.21221702333E+04  0.00000000000E+00 0.  1.
        -24    2    1    2    0    0 -0.10025407785E+03  0.40213239377E+02 -0.19715773193E+04  0.19760749796E+04  0.78020601566E+02 0.  0.
         25    2    1    2    0    0  0.17729541048E+03 -0.82681574811E+01 -0.58693729275E+02  0.22493038598E+03  0.12508676859E+03 0.  0.
         24    2    1    2    0    0 -0.77041332635E+02 -0.31945081896E+02  0.50617106669E+03  0.51923511917E+03  0.80250265048E+02 0.  0.
        -13    1    5    5    0    0 -0.52593640134E+02  0.42764224608E+01  0.41262340041E+03  0.41598371283E+03  0.00000000000E+00 0.  1.
         14    1    5    5    0    0 -0.24447692501E+02 -0.36221504357E+02  0.93547666274E+02  0.10325140634E+03  0.00000000000E+00 0. -1.
         13    1    3    3    0    0 -0.57176685805E+02  0.59802693602E+01 -0.47193616320E+03  0.47542473553E+03  0.00000000000E+00 0. -1.
        -14    1    3    3    0    0 -0.43077392044E+02  0.34232970017E+02 -0.14996411561E+04  0.15006502441E+04  0.00000000000E+00 0.  1.
          5    1    4    4  501    0  0.10926424079E+03 -0.41898333395E+02 -0.84788705234E+02  0.14457088778E+03  0.41800000000E+01 0.  1.
         -5    1    4    4    0  501  0.68031169690E+02  0.33630175914E+02  0.26094975960E+02  0.80359498205E+02  0.41800000000E+01 0.  1.
</event>
<event>
11    1  0.5813833E-009  0.1609184E+03  0.7561462E-02  0.1086217E+00
         22   -1    0    0    0    0  0.00000000000E+00  0.00000000000E+00  0.21883759460E+04  0.21883759460E+04  0.00000000000E+00 0.  1.
         22   -1    0    0    0    0 -0.00000000000E+00 -0.00000000000E+00 -0.14119030680E+04  0.14119030680E+04  0.00000000000E+00 0. -1.
         24    2    1    2    0    0  0.46937828109E+02  0.89266691374E+02 -0.13797367506E+04  0.13857525574E+04  0.80404896782E+02 0.  0.
         25    2    1    2    0    0 -0.81178488597E+02 -0.11647202364E+03  0.29187430795E+03  0.34784185791E+03  0.12509063582E+03 0.  0.
        -24    2    1    2    0    0  0.34240660488E+02  0.27205332267E+02  0.18643353207E+04  0.18666845987E+04  0.82780734425E+02 0.  0.
        -13    1    3    3    0    0 -0.19582764188E+02  0.28768908847E+02 -0.56459657459E+03  0.56566812427E+03  0.00000000000E+00 0.  1.
         14    1    3    3    0    0  0.66520592297E+02  0.60497782528E+02 -0.81514017602E+03  0.82008443312E+03  0.00000000000E+00 0. -1.
         11    1    5    5    0    0  0.50028082389E+02  0.19721456151E+02  0.64910100347E+03  0.65132469442E+03  0.00000000000E+00 0. -1.
        -12    1    5    5    0    0 -0.15787421901E+02  0.74838761165E+01  0.12152343172E+04  0.12153599043E+04  0.00000000000E+00 0.  1.
          5    1    4    4  501    0 -0.41720584220E+01  0.22069517711E+02  0.11123548943E+02  0.25410144128E+02  0.41800000000E+01 0. -1.
         -5    1    4    4    0  501 -0.77006430175E+02 -0.13854154135E+03  0.28075075901E+03  0.32243171378E+03  0.41800000000E+01 0. -1.
</event>
<event>
11    1  0.5813833E-009  0.3622334E+03  0.7561462E-02  0.9768271E-01
         22   -1    0    0    0    0  0.00000000000E+00  0.00000000000E+00  0.34687606069E+03  0.34687606069E+03  0.00000000000E+00 0.  1.
         22   -1    0    0    0    0 -0.00000000000E+00 -0.00000000000E+00 -0.18343393230E+04  0.18343393230E+04  0.00000000000E+00 0. -1.
         24    2    1    2    0    0  0.38937884296E+02 -0.61825642602E+02 -0.62362089245E+03  0.63303891921E+03  0.80602027438E+02 0.  0.
         25    2    1    2    0    0 -0.55795342306E+02  0.39617545079E+03 -0.10686652227E+04  0.11479380016E+04  0.12509272301E+03 0.  0.
        -24    2    1    2    0    0  0.16857458010E+02 -0.33434980819E+03  0.20482285280E+03  0.40023846289E+03  0.78514062571E+02 0.  0.
        -11    1    3    3    0    0 -0.16887807102E+02  0.82953429009E+01 -0.12861526325E+03  0.12998421705E+03  0.00000000000E+00 0.  1.
         12    1    3    3    0    0  0.55825691398E+02 -0.70120985503E+02 -0.49500562920E+03  0.50305470216E+03  0.00000000000E+00 0. -1.
         13    1    5    5    0    0  0.52255342571E+01 -0.40023256400E+02 -0.18562796991E+01  0.40405606485E+02  0.00000000000E+00 0. -1.
        -14    1    5    5    0    0  0.11631923753E+02 -0.29432655179E+03  0.20667913250E+03  0.35983285640E+03  0.00000000000E+00 0.  1.
          5    1    4    4  501    0 -0.88312474560E+02  0.35770409917E+03 -0.95011335212E+03  0.10190604349E+04  0.41800000000E+01 0.  1.
         -5    1    4    4    0  501  0.32517132254E+02  0.38471351615E+02 -0.11855187058E+03  0.12887756671E+03  0.41800000000E+01 0.  1.
</event>
<event>
11    1  0.5813833E-009  0.1308491E+03  0.7561462E-02  0.1118230E+00
         22   -1    0    0    0    0  0.00000000000E+00  0.00000000000E+00  0.59465531988E+03  0.59465531988E+03  0.00000000000E+00 0. -1.
         22   -1    0    0    0    0 -0.00000000000E+00 -0.00000000000E+00 -0.40217239705E+03  0.40217239705E+03  0.00000000000E+00 0.  1.
        -24    2    1    2    0    0  0.38106907951E+02  0.39355737680E+01 -0.34525082330E+03  0.35698952537E+03  0.82315035454E+02 0.  0.
         25    2    1    2    0    0 -0.40235212019E+02  0.47032535827E+01  0.42812690466E+02  0.13828139126E+03  0.12509126198E+03 0.  0.
         24    2    1    2    0    0  0.21283040671E+01 -0.86388273507E+01  0.49492105565E+03  0.50155680031E+03  0.80828296943E+02 0.  0.
        -11    1    5    5    0    0 -0.13796200173E+02  0.19213121245E+02  0.48258416359E+02  0.53743408123E+02  0.00000000000E+00 0.  1.
         12    1    5    5    0    0  0.15924504240E+02 -0.27851948596E+02  0.44666263930E+03  0.44781339218E+03  0.00000000000E+00 0. -1.
         11    1    3    3    0    0  0.20145102489E+02 -0.38777442457E+02 -0.19067481692E+03  0.19561799765E+03  0.00000000000E+00 0. -1.
        -12    1    3    3    0    0  0.17961805462E+02  0.42713016225E+02 -0.15457600637E+03  0.16137152772E+03  0.00000000000E+00 0.  1.
          5    1    4    4  501    0 -0.66557891712E+02 -0.41115627388E+02  0.22451104543E+02  0.81498296055E+02  0.41800000000E+01 0.  1.
         -5    1    4    4    0  501  0.26322679694E+02  0.45818880971E+02  0.20361585923E+02  0.56783095204E+02  0.41800000000E+01 0.  1.
</event>
<event>
11    1  0.5813833E-009  0.1597613E+03  0.7561462E-02  0.1087302E+00
         22   -1    0    0    0    0  0.00000000000E+00  0.00000000000E+00  0.62889864585E+03  0.62889864585E+03  0.00000000000E+00 0. -1.
         22   -1    0    0    0    0 -0.00000000000E+00 -0.00000000000E+00 -0.62115832909E+03  0.62115832909E+03  0.00000000000E+00 0.  1.
        -24    2    1    2    0    0 -0.94397709606E+02 -0.23536711971E+02 -0.39915250943E+03  0.41814603473E+03  0.77836213833E+02 0.  0.
         25    2    1    2    0    0  0.11152092361E+03 -0.12842748673E+02 -0.17516119565E+03  0.24275667026E+03  0.12508998320E+03 0.  0.
         24    2    1    2    0    0 -0.17123214001E+02  0.36379460644E+02  0.58205402184E+03  0.58915426995E+03  0.81848639921E+02 0.  0.
        -11    1    5    5    0    0  0.25939934489E+02  0.37382297736E+02  0.22852217163E+03  0.23300793830E+03  0.00000000000E+00 0.  1.
         12    1    5    5    0    0 -0.43063148490E+02 -0.10028370927E+01  0.35353185020E+03  0.35614633165E+03  0.00000000000E+00 0. -1.
         13    1    3    3    0    0 -0.56389160997E+02 -0.48450500713E+02 -0.18816808821E+03  0.20232255909E+03  0.00000000000E+00 0. -1.
        -14    1    3    3    0    0 -0.38008548610E+02  0.24913788743E+02 -0.21098442122E+03  0.21582347564E+03  0.00000000000E+00 0.  1.
          5    1    4    4  501    0  0.19955367929E+02 -0.35745790693E+02 -0.13313938598E+03  0.13935403388E+03  0.41800000000E+01 0. -1.
         -5    1    4    4    0  501  0.91565555678E+02  0.22903042020E+02 -0.42021809671E+02  0.10340263637E+03  0.41800000000E+01 0. -1.
</event>
<event>
11    1  0.5813833E-009  0.2950432E+03  0.7561462E-02  0.1002311E+00
         22   -1    0    0    0    0  0.00000000000E+00  0.00000000000E+00  0.37294588671E+03  0.37294588671E+03  0.00000000000E+00 0. -1.
         22   -1    0    0    0    0 -0.00000000000E+00 -0.00000000000E+00 -0.57127413848E+03  0.57127413848E+03  0.00000000000E+00 0. -1.
         24    2    1    2    0    0  0.38139227975E+02 -0.37029845610E+02 -0.33247755846E+03  0.34591770370E+03  0.79321628033E+02 0.  0.
         25    2    1    2    0    0  0.24332615297E+03 -0.48122261114E+01 -0.75047964637E+00  0.27364278326E+03  0.12509610454E+03 0.  0.
        -24    2    1    2    0    0 -0.28146538095E+03  0.41842071721E+02  0.13489978633E+03  0.32465953823E+03  0.78945194742E+02 0.  0.
        -13    1    3    3    0    0  0.56604004082E+02 -0.47811663498E+02 -0.26012270915E+03  0.27046957733E+03  0.00000000000E+00 0.  1.
         14    1    3    3    0    0 -0.18464776107E+02  0.10781817888E+02 -0.72354849307E+02  0.75448126364E+02  0.00000000000E+00 0. -1.
         13    1    5    5    0    0 -0.26708258585E+03  0.24330153153E+02  0.10707297718E+03  0.28877272458E+03  0.00000000000E+00 0. -1.
        -14    1    5    5    0    0 -0.14382795100E+02  0.17511918568E+02  0.27826809149E+02  0.35886813654E+02  0.00000000000E+00 0.  1.
          5    1    4    4  501    0  0.13489389532E+03  0.58368668513E+02 -0.12260744301E+02  0.14755020403E+03  0.41800000000E+01 0. -1.
         -5    1    4    4    0  501  0.10843225765E+03 -0.63180894625E+02  0.11510264655E+02  0.12609257923E+03  0.41800000000E+01 0. -1.
</event>
<event>
11    1  0.5813833E-009  0.1351300E+03  0.7561462E-02  0.1113122E+00
         22   -1    0    0    0    0  0.00000000000E+00  0.00000000000E+00  0.58312711211E+03  0.58312711211E+03  0.00000000000E+00 0.  1.
         22   -1    0    0    0    0 -0.00000000000E+00 -0.00000000000E+00 -0.64061284767E+02  0.64061284767E+02  0.00000000000E+00 0. -1.
         24    2    1    2    0    0 -0.50305367891E+01 -0.13766936802E+02  0.17696153979E+01  0.83068557235E+02  0.81746062983E+02 0.  0.
         25    2    1    2    0    0  0.54253092638E+02  0.14954528636E+02  0.27747002423E+03  0.30952317232E+03  0.12509174183E+03 0.  0.
        -24    2    1    2    0    0 -0.49222555849E+02 -0.11875918331E+01  0.23982618772E+03  0.25459666732E+03  0.69846920586E+02 0.  0.
        -11    1    3    3    0    0  0.27724855160E+02  0.14166160750E+02  0.19251726605E+02  0.36605691925E+02  0.00000000000E+00 0.  1.
         12    1    3    3    0    0 -0.32755391949E+02 -0.27933097552E+02 -0.17482111207E+02  0.46462865310E+02  0.00000000000E+00 0. -1.
         13    1    5    5    0    0 -0.29342911705E+02 -0.31493023688E+01  0.24528150809E+02  0.38373881154E+02  0.00000000000E+00 0. -1.
        -14    1    5    5    0    0 -0.19879644144E+02  0.19617105357E+01  0.21529803691E+03  0.21622278616E+03  0.00000000000E+00 0.  1.
          5    1    4    4  501    0  0.34174391088E+01 -0.31913909191E+02  0.21117413231E+03  0.21364026551E+03  0.41800000000E+01 0. -1.
         -5    1    4    4    0  501  0.50835653530E+02  0.46868437826E+02  0.66295891913E+02  0.95882906811E+02  0.41800000000E+01 0. -1.
</event>
<event>
11    1  0.5813833E-009  0.1424830E+03  0.7561462E-02  0.1104817E+00
         22   -1    0    0    0    0  0.00000000000E+00  0.00000000000E+00  0.15725755800E+04  0.15725755800E+04  0.00000000000E+00 0. -1.
         22   -1    0    0    0    0 -0.00000000000E+00 -0.00000000000E+00 -0.39049419219E+02  0.39049419219E+02  0.00000000000E+00 0. -1.
         24    2    1    2    0    0 -0.64655561092E+02 -0.26544705272E+02  0.63885033995E+02  0.12378738934E+03  0.79731155980E+02 0.  0.
         25    2    1    2    0    0  0.51972824952E+02  0.21329153539E+02  0.66940724799E+03  0.68330766680E+03  0.12508875461E+03 0.  0.
        -24    2    1    2    0    0  0.12682736140E+02  0.52155517337E+01  0.80023387882E+03  0.80452994309E+03  0.81890870965E+02 0.  0.
        -13    1    3    3    0    0  0.13623333501E+02  0.12468525704E+02  0.91509302793E+01  0.20610649526E+02  0.00000000000E+00 0.  1.
         14    1    3    3    0    0 -0.78278894593E+02 -0.39013230976E+02  0.54734103716E+02  0.10317673982E+03  0.00000000000E+00 0. -1.
         11    1    5    5    0    0  0.93036099366E+01  0.96382383439E+01  0.79862345463E+03  0.79873579804E+03  0.00000000000E+00 0. -1.
        -12    1    5    5    0    0  0.33791262034E+01 -0.44226866102E+01  0.16104241894E+01  0.57941450465E+01  0.00000000000E+00 0.  1.
          5    1    4    4  501    0 -0.32428029479E+02 -0.24599151112E+02  0.19334645281E+03  0.19762848617E+03  0.41800000000E+01 0.  1.
         -5    1    4    4    0  501  0.84400854430E+02  0.45928304651E+02  0.47606079517E+03  0.48567918063E+03  0.41800000000E+01 0.  1.
</event>
<event>
11    1  0.5813833E-009  0.2604194E+03  0.7561462E-02  0.1018491E+00
         22   -1    0    0    0    0  0.00000000000E+00  0.00000000000E+00  0.13549547879E+03  0.13549547879E+03  0.00000000000E+00 0.  1.
         22   -1    0    0    0    0 -0.00000000000E+00 -0.00000000000E+00 -0.12417068921E+04  0.12417068921E+04  0.00000000000E+00 0. -1.
         24    2    1    2    0    0 -0.94773746214E+02  0.20139530615E+02 -0.61189865118E+03  0.62470564609E+03  0.80308911566E+02 0.  0.
         25    2    1    2    0    0  0.28408694018E+03 -0.92588278192E+02 -0.39871263962E+03  0.51371001392E+03  0.12509288776E+03 0.  0.
        -24    2    1    2    0    0 -0.18931319396E+03  0.72448747577E+02 -0.95600122560E+02  0.23878671093E+03  0.82409971789E+02 0.  0.
        -13    1    3    3    0    0  0.33576955094E+01  0.37439792734E+01 -0.23015715584E+03  0.23021209327E+03  0.00000000000E+00 0.  1.
         14    1    3    3    0    0 -0.98131441724E+02  0.16395551342E+02 -0.38174149533E+03  0.39449355282E+03  0.00000000000E+00 0. -1.
         11    1    5    5    0    0 -0.11307736677E+03  0.19586471313E+02 -0.90008583939E+02  0.14584809192E+03  0.00000000000E+00 0. -1.
        -12    1    5    5    0    0 -0.76235827195E+02  0.52862276264E+02 -0.55915386210E+01  0.92938619013E+02  0.00000000000E+00 0.  1.
          5    1    4    4  501    0  0.24100268600E+03 -0.12339502491E+03 -0.33221389982E+03  0.42859325061E+03  0.41800000000E+01 0. -1.
         -5    1    4    4    0  501  0.43084254173E+02  0.30806746718E+02 -0.66498739804E+02  0.85116763311E+02  0.41800000000E+01 0. -1.
</event>
<event>
11    1  0.5813833E-009  0.1534867E+03  0.7561462E-02  0.1093368E+00
         22   -1    0    0    0    0  0.00000000000E+00  0.00000000000E+00  0.51895790081E+02  0.51895790081E+02  0.00000000000E+00 0. -1.
         22   -1    0    0    0    0 -0.00000000000E+00 -0.00000000000E+00 -0.20357043135E+04  0.20357043135E+04  0.00000000000E+00 0.  1.
         24    2    1    2    0    0 -0.60326892719E+02  0.64427212845E+02 -0.15123014087E+04  0.15170580096E+04  0.81358798199E+02 0.  0.
         25    2    1    2    0    0  0.42816282787E+01 -0.12966171883E+03 -0.17287601582E+03  0.24972713275E+03  0.12508809022E+03 0.  0.
        -24    2    1    2    0    0  0.56045264440E+02  0.65234505981E+02 -0.29863109890E+03  0.32081496122E+03  0.79656096289E+02 0.  0.
        -11    1    3    3    0    0 -0.53612169677E+02  0.83690743522E+02 -0.12894565148E+04  0.12932812953E+04  0.00000000000E+00 0.  1.
         12    1    3    3    0    0 -0.67147230419E+01 -0.19263530677E+02 -0.22284489385E+03  0.22377671424E+03  0.00000000000E+00 0. -1.
         11    1    5    5    0    0  0.12430880648E+02  0.24055662712E+02 -0.15089688879E+02  0.30998393711E+02  0.00000000000E+00 0. -1.
        -12    1    5    5    0    0  0.43614383792E+02  0.41178843270E+02 -0.28354141002E+03  0.28981656751E+03  0.00000000000E+00 0.  1.
          5    1    4    4  501    0  0.26055060244E+02 -0.28420488310E+01  0.79920605777E+01  0.27718023706E+02  0.41800000000E+01 0.  1.
         -5    1    4    4    0  501 -0.21773431965E+02 -0.12681967000E+03 -0.18086807640E+03  0.22200910904E+03  0.41800000000E+01 0.  1.
</event>
<event>
11    1  0.8639060E-009  0.1753534E+03  0.7561462E-02  0.1073465E+00
         22   -1    0    0    0    0  0.00000000000E+00  0.00000000000E+00  0.87141269679E+03  0.87141269679E+03  0.00000000000E+00 0.  1.
         22   -1    0    0    0    0 -0.00000000000E+00 -0.00000000000E+00 -0.47201245027E+03  0.47201245027E+03  0.00000000000E+00 0. -1.
        -24    2    1    2    0    0 -0.68213003881E+02  0.85291766254E+02 -0.31795254887E+03  0.34341326533E+03  0.70079584631E+02 0.  0.
         25    2    1    2    0    0 -0.53168510675E+02 -0.11496874688E+03 -0.75875946067E+02  0.19351929474E+03  0.12509138643E+03 0.  0.
         24    2    1    2    0    0  0.12138151456E+03  0.29676980630E+02  0.79322874146E+03  0.80649258698E+03  0.74861614522E+02 0.  0.
        -13    1    5    5    0    0  0.80991957846E+02  0.44856984727E+02  0.65971203462E+03  0.66617701471E+03  0.00000000000E+00 0.  1.
         14    1    5    5    0    0  0.40389556710E+02 -0.15180004097E+02  0.13351670684E+03  0.14031557227E+03  0.00000000000E+00 0. -1.
         11    1    3    3    0    0 -0.45160115010E+02  0.14992364924E+02 -0.18748550365E+03  0.19342962822E+03  0.00000000000E+00 0. -1.
        -12    1    3    3    0    0 -0.23052888871E+02  0.70299401330E+02 -0.13046704522E+03  0.14998363711E+03  0.00000000000E+00 0.  1.
          5    1    4    4  501    0 -0.64962128743E+02 -0.13603106620E+03 -0.76319238847E+02  0.16901664936E+03  0.41800000000E+01 0. -1.
         -5    1    4    4    0  501  0.11793618067E+02  0.21062319319E+02  0.44329277928E+00  0.24502645381E+02  0.41800000000E+01 0. -1.
</event>
<event>
11    1  0.5813833E-009  0.1951357E+03  0.7561462E-02  0.1058018E+00
         22   -1    0    0    0    0  0.00000000000E+00  0.00000000000E+00  0.10666470532E+03  0.10666470532E+03  0.00000000000E+00 0.  1.
         22   -1    0    0    0    0 -0.00000000000E+00 -0.00000000000E+00 -0.99402672973E+03  0.99402672973E+03  0.00000000000E+00 0. -1.
        -24    2    1    2    0    0 -0.14347393337E+03  0.85577994833E+02 -0.65086146212E+03  0.67646744664E+03  0.77969229445E+02 0.  0.
         25    2    1    2    0    0  0.12942087444E+03  0.27104091446E+02 -0.21519325857E+03  0.28185198036E+03  0.12509198929E+03 0.  0.
         24    2    1    2    0    0  0.14053058927E+02 -0.11268208628E+03 -0.21307303721E+02  0.14237200804E+03  0.83192826906E+02 0.  0.
        -13    1    5    5    0    0 -0.12389164929E+02 -0.16258370678E+01  0.17756790576E+02  0.21712631471E+02  0.00000000000E+00 0.  1.
         14    1    5    5    0    0  0.26442223856E+02 -0.11105624921E+03 -0.39064094297E+02  0.12065937657E+03  0.00000000000E+00 0. -1.
         13    1    3    3    0    0 -0.10205534752E+03  0.27111154531E+02 -0.47448153548E+03  0.48608953514E+03  0.00000000000E+00 0. -1.
        -14    1    3    3    0    0 -0.41418585848E+02  0.58466840302E+02 -0.17637992664E+03  0.19037791151E+03  0.00000000000E+00 0.  1.
          5    1    4    4  501    0 -0.74614500717E+01  0.54579929109E+01  0.11988100687E+02  0.15705090954E+02  0.41800000000E+01 0.  1.
         -5    1    4    4    0  501  0.13688232452E+03  0.21646098535E+02 -0.22718135926E+03  0.26614688941E+03  0.41800000000E+01 0.  1.
</event>
<event>
11    1  0.5813833E-009  0.2362539E+03  0.7561462E-02  0.1031488E+00
         22   -1    0    0    0    0  0.00000000000E+00  0.00000000000E+00  0.26272178501E+03  0.26272178501E+03  0.00000000000E+00 0.  1.
         22   -1    0    0    0    0 -0.00000000000E+00 -0.00000000000E+00 -0.32749728039E+03  0.32749728039E+03  0.00000000000E+00 0. -1.
        -24    2    1    2    0    0 -0.28093204302E+02  0.23505764634E+02  0.30920349602E+02  0.93070877351E+02  0.79777008545E+02 0.  0.
         25    2    1    2    0    0 -0.17787192844E+03 -0.77987009617E+02 -0.11275579668E+03  0.25706383781E+03  0.12509016921E+03 0.  0.
         24    2    1    2    0    0  0.20596513274E+03  0.54481244982E+02  0.17059951697E+02  0.24008435024E+03  0.10936000786E+03 0.  0.
        -13    1    5    5    0    0  0.12042762130E+03  0.85938125894E+02  0.38755593173E+01  0.14799727502E+03  0.00000000000E+00 0.  1.
         14    1    5    5    0    0  0.85537511437E+02 -0.31456880911E+02  0.13184392380E+02  0.92087075216E+02  0.00000000000E+00 0. -1.
         13    1    3    3    0    0 -0.35634389950E+02  0.49313129559E+02  0.22984671197E+02  0.65037601462E+02  0.00000000000E+00 0. -1.
        -14    1    3    3    0    0  0.75411856476E+01 -0.25807364924E+02  0.79356784055E+01  0.28033275889E+02  0.00000000000E+00 0.  1.
          5    1    4    4  501    0  0.13828283834E+02 -0.24785826319E+02 -0.70903847986E+00  0.28697277845E+02  0.41800000000E+01 0.  1.
         -5    1    4    4    0  501 -0.19170021227E+03 -0.53201183297E+02 -0.11204675820E+03  0.22836655997E+03  0.41800000000E+01 0.  1.
</event>
<event>
11    1  0.5813833E-009  0.2741666E+03  0.7561462E-02  0.1011759E+00
         22   -1    0    0    0    0  0.00000000000E+00  0.00000000000E+00  0.36581670392E+03  0.36581670392E+03  0.00000000000E+00 0.  1.
         22   -1    0    0    0    0 -0.00000000000E+00 -0.00000000000E+00 -0.71845092127E+03  0.71845092127E+03  0.00000000000E+00 0. -1.
         24    2    1    2    0    0  0.14618693240E+03 -0.19297919077E+03 -0.48206336252E+03  0.54534073386E+03  0.79999020329E+02 0.  0.
         25    2    1    2    0    0 -0.18705625617E+03  0.17059709130E+03 -0.94538845077E+02  0.29778915110E+03  0.12508946698E+03 0.  0.
        -24    2    1    2    0    0  0.40869323766E+02  0.22382099462E+02  0.22396799025E+03  0.24113774023E+03  0.76252797347E+02 0.  0.
        -13    1    3    3    0    0  0.31397620376E+02 -0.36827438758E+02 -0.18046820111E+03  0.18684443375E+03  0.00000000000E+00 0.  1.
         14    1    3    3    0    0  0.11478931203E+03 -0.15615175201E+03 -0.30159516141E+03  0.35849630011E+03  0.00000000000E+00 0. -1.
         11    1    5    5    0    0  0.13571770718E+02  0.45899546202E+02  0.84742603334E+02  0.97325588217E+02  0.00000000000E+00 0. -1.
        -12    1    5    5    0    0  0.27297553048E+02 -0.23517446739E+02  0.13922538692E+03  0.14381215201E+03  0.00000000000E+00 0.  1.
          5    1    4    4  501    0 -0.11344350575E+03  0.14945147281E+03 -0.16556388391E+02  0.18840583356E+03  0.41800000000E+01 0.  1.
         -5    1    4    4    0  501 -0.73612750416E+02  0.21145618497E+02 -0.77982456685E+02  0.10938331754E+03  0.41800000000E+01 0.  1.
</event>
<event>
11    1  0.1148053E-008  0.1618214E+03  0.7561462E-02  0.1085377E+00
         22   -1    0    0    0    0  0.00000000000E+00  0.00000000000E+00  0.22481248654E+04  0.22481248654E+04  0.00000000000E+00 0.  1.
         22   -1    0    0    0    0 -0.00000000000E+00 -0.00000000000E+00 -0.85957465902E+03  0.85957465902E+03  0.00000000000E+00 0. -1.
         24    2    1    2    0    0 -0.45319513390E+02  0.10918373413E+01 -0.54615891820E+03  0.55214985441E+03  0.67266985919E+02 0.  0.
         25    2    1    2    0    0 -0.18137200454E+02  0.79829545906E+02 -0.29039979004E+03  0.32662101138E+03  0.12509009784E+03 0.  0.
        -24    2    1    2    0    0  0.63456713845E+02 -0.80921383247E+02  0.22251089147E+04  0.22289286587E+04  0.80238759584E+02 0.  0.
        -13    1    3    3    0    0  0.44486430003E+01  0.25324600349E+02 -0.18236582409E+03  0.18416954037E+03  0.00000000000E+00 0.  1.
         14    1    3    3    0    0 -0.49768156390E+02 -0.24232763007E+02 -0.36379309412E+03  0.36798031404E+03  0.00000000000E+00 0. -1.
         11    1    5    5    0    0  0.24287614727E+02 -0.34970459589E+02  0.31485985724E+03  0.31772559069E+03  0.00000000000E+00 0. -1.
        -12    1    5    5    0    0  0.39169099117E+02 -0.45950923659E+02  0.19102490574E+04  0.19112030680E+04  0.00000000000E+00 0.  1.
          5    1    4    4  501    0 -0.68001723693E+02  0.62950748422E+02 -0.14715157847E+03  0.17394852859E+03  0.41800000000E+01 0.  1.
         -5    1    4    4    0  501  0.49864523239E+02  0.16878797484E+02 -0.14324821157E+03  0.15267248278E+03  0.41800000000E+01 0.  1.
</event>
<event>
11    1  0.5813833E-009  0.1380402E+03  0.7561462E-02  0.1109767E+00
         22   -1    0    0    0    0  0.00000000000E+00  0.00000000000E+00  0.14376474553E+04  0.14376474553E+04  0.00000000000E+00 0.  1.
         22   -1    0    0    0    0 -0.00000000000E+00 -0.00000000000E+00 -0.91856986016E+03  0.91856986016E+03  0.00000000000E+00 0.  1.
         24    2    1    2    0    0  0.48011393055E+02 -0.33061160837E+02 -0.90574162122E+03  0.91125950739E+03  0.81411738632E+02 0.  0.
         25    2    1    2    0    0 -0.63774722491E+02  0.49698030643E+02  0.71107061035E+03  0.72650222434E+03  0.12508780752E+03 0.  0.
        -24    2    1    2    0    0  0.15763329437E+02 -0.16636869806E+02  0.71374860598E+03  0.71845558370E+03  0.78842153819E+02 0.  0.
        -13    1    3    3    0    0  0.35868758714E+02 -0.57532486351E+02 -0.75700367311E+03  0.76003362816E+03  0.00000000000E+00 0.  1.
         14    1    3    3    0    0  0.12142634341E+02  0.24471325514E+02 -0.14873794811E+03  0.15122587923E+03  0.00000000000E+00 0. -1.
         13    1    5    5    0    0 -0.23199744931E+01  0.15900118380E+02  0.33143155265E+02  0.36832930743E+02  0.00000000000E+00 0. -1.
        -14    1    5    5    0    0  0.18083303930E+02 -0.32536988187E+02  0.68060545071E+03  0.68162265295E+03  0.00000000000E+00 0.  1.
          5    1    4    4  501    0  0.30078640799E+01 -0.20909190771E+02  0.22687745789E+02  0.31280148881E+02  0.41800000000E+01 0.  1.
         -5    1    4    4    0  501 -0.66782586571E+02  0.70607221415E+02  0.68838286456E+03  0.69522207546E+03  0.41800000000E+01 0.  1.
</event>
<event>
11    1  0.5813833E-009  0.1429880E+03  0.7561462E-02  0.1104267E+00
         22   -1    0    0    0    0  0.00000000000E+00  0.00000000000E+00  0.23926263808E+03  0.23926263808E+03  0.00000000000E+00 0. -1.
         22   -1    0    0    0    0 -0.00000000000E+00 -0.00000000000E+00 -0.83950766892E+03  0.83950766892E+03  0.00000000000E+00 0.  1.
         24    2    1    2    0    0  0.31015353025E+02 -0.23427327357E+02 -0.50625871009E+03  0.51411624772E+03  0.80665003804E+02 0.  0.
         25    2    1    2    0    0  0.39097418009E+02  0.29670216170E+02 -0.30213959708E+03  0.33067329035E+03  0.12509020348E+03 0.  0.
        -24    2    1    2    0    0 -0.70112771035E+02 -0.62428888130E+01  0.20815327632E+03  0.23398076893E+03  0.80401737917E+02 0.  0.
        -11    1    3    3    0    0  0.13646770828E+02 -0.33137141394E+02 -0.47915055484E+03  0.48048887469E+03  0.00000000000E+00 0.  1.
         12    1    3    3    0    0  0.17368582197E+02  0.97098140375E+01 -0.27108155249E+02  0.33627373034E+02  0.00000000000E+00 0. -1.
         13    1    5    5    0    0 -0.24639534665E+02 -0.51663105271E+01  0.17715888192E+03  0.17893872381E+03  0.00000000000E+00 0. -1.
        -14    1    5    5    0    0 -0.45473236369E+02 -0.10765782859E+01  0.30994394400E+02  0.55042045119E+02  0.00000000000E+00 0.  1.
          5    1    4    4  501    0 -0.16992891590E+02  0.60549200757E+02 -0.96530203344E+02  0.11528450301E+03  0.41800000000E+01 0. -1.
         -5    1    4    4    0  501  0.56090309600E+02 -0.30878984587E+02 -0.20560939374E+03  0.21538878734E+03  0.41800000000E+01 0. -1.
</event>
<event>
11    1  0.5813833E-009  0.1834742E+03  0.7561462E-02  0.1066867E+00
         22   -1    0    0    0    0  0.00000000000E+00  0.00000000000E+00  0.61821588173E+03  0.61821588173E+03  0.00000000000E+00 0.  1.
         22   -1    0    0    0    0 -0.00000000000E+00 -0.00000000000E+00 -0.21084240837E+03  0.21084240837E+03  0.00000000000E+00 0. -1.
        -24    2    1    2    0    0 -0.96378529709E+02 -0.95074552035E+02 -0.12624563785E+03  0.20309676361E+03  0.83560414562E+02 0.  0.
         25    2    1    2    0    0  0.38244686058E+02  0.13835703467E+03  0.19682326225E+03  0.27384977012E+03  0.12509586316E+03 0.  0.
         24    2    1    2    0    0  0.58133843651E+02 -0.43282482631E+02  0.33679584896E+03  0.35211175636E+03  0.72789614735E+02 0.  0.
        -11    1    5    5    0    0  0.52375321397E+02 -0.35845711404E+02  0.33677793608E+03  0.34270609500E+03  0.00000000000E+00 0.  1.
         12    1    5    5    0    0  0.57585222545E+01 -0.74367712265E+01  0.17912875980E-01  0.94056613644E+01  0.00000000000E+00 0. -1.
         13    1    3    3    0    0 -0.46331049517E+02 -0.98328873079E+02 -0.91517899796E+02  0.14209384017E+03  0.00000000000E+00 0. -1.
        -14    1    3    3    0    0 -0.50047480192E+02  0.32543210439E+01 -0.34727738050E+02  0.61002923447E+02  0.00000000000E+00 0.  1.
          5    1    4    4  501    0  0.33849857123E+02  0.37604856755E+02 -0.20705976291E+01  0.50810410876E+02  0.41800000000E+01 0. -1.
         -5    1    4    4    0  501  0.43948289350E+01  0.10075217791E+03  0.19889385988E+03  0.22303935925E+03  0.41800000000E+01 0. -1.
</event>
<event>
11    1  0.5813833E-009  0.1349520E+03  0.7561462E-02  0.1113330E+00
         22   -1    0    0    0    0  0.00000000000E+00  0.00000000000E+00  0.77988359560E+03  0.77988359560E+03  0.00000000000E+00 0.  1.
         22   -1    0    0    0    0 -0.00000000000E+00 -0.00000000000E+00 -0.31472415049E+03  0.31472415049E+03  0.00000000000E+00 0. -1.
        -24    2    1    2    0    0  0.27636524986E+02  0.42868904560E+02 -0.29191242435E+03  0.30667635029E+03  0.78968347101E+02 0.  0.
         25    2    1    2    0    0 -0.31633356719E+02 -0.16956772807E+02  0.37823854256E+03  0.40000017105E+03  0.12509012896E+03 0.  0.
         24    2    1    2    0    0  0.39968317327E+01 -0.25912131753E+02  0.37883332691E+03  0.38793122474E+03  0.79300266837E+02 0.  0.
        -13    1    5    5    0    0  0.48770429361E+01  0.13375279229E+02  0.29501247752E+03  0.29535579482E+03  0.00000000000E+00 0.  1.
         14    1    5    5    0    0 -0.88021120339E+00 -0.39287410982E+02  0.83820849389E+02  0.92575429925E+02  0.00000000000E+00 0. -1.
         11    1    3    3    0    0  0.69997810462E+01 -0.22781460367E+02 -0.99925092513E+02  0.10272787346E+03  0.00000000000E+00 0. -1.
        -12    1    3    3    0    0  0.20636743940E+02  0.65650364927E+02 -0.19198733184E+03  0.20394847683E+03  0.00000000000E+00 0.  1.
          5    1    4    4  501    0 -0.20495508971E+02 -0.56489317508E+01  0.38244364858E+03  0.38305690577E+03  0.41800000000E+01 0.  1.
         -5    1    4    4    0  501 -0.11137847748E+02 -0.11307841056E+02 -0.42051060197E+01  0.16943265283E+02  0.41800000000E+01 0.  1.
</event>
<event>
11    1  0.5813833E-009  0.1525905E+03  0.7561462E-02  0.1094261E+00
         22   -1    0    0    0    0  0.00000000000E+00  0.00000000000E+00  0.36508137243E+03  0.36508137243E+03  0.00000000000E+00 0. -1.
         22   -1    0    0    0    0 -0.00000000000E+00 -0.00000000000E+00 -0.81515532242E+03  0.81515532242E+03  0.00000000000E+00 0. -1.
         24    2    1    2    0    0  0.54611783135E+02 -0.63713451090E+02 -0.55523430346E+03  0.56701824526E+03  0.78630197843E+02 0.  0.
         25    2    1    2    0    0  0.25495673242E+02  0.21168069077E+02 -0.22599838721E+03  0.26042394377E+03  0.12508894021E+03 0.  0.
        -24    2    1    2    0    0 -0.80107456377E+02  0.42545382013E+02  0.33115874068E+03  0.35279450582E+03  0.81058853361E+02 0.  0.
        -11    1    3    3    0    0  0.42815854674E+02 -0.36098206807E+02 -0.14125840595E+03  0.15195464849E+03  0.00000000000E+00 0.  1.
         12    1    3    3    0    0  0.11795928461E+02 -0.27615244283E+02 -0.41397589751E+03  0.41506359677E+03  0.00000000000E+00 0. -1.
         11    1    5    5    0    0 -0.30810848713E+02  0.24468495895E+02  0.26702766380E+03  0.26991070547E+03  0.00000000000E+00 0. -1.
        -12    1    5    5    0    0 -0.49296607664E+02  0.18076886119E+02  0.64131076874E+02  0.82883800347E+02  0.00000000000E+00 0.  1.
          5    1    4    4  501    0 -0.31554562207E+02  0.32282475272E+02 -0.18157551265E+03  0.18714964013E+03  0.41800000000E+01 0.  1.
         -5    1    4    4    0  501  0.57050235450E+02 -0.11114406195E+02 -0.44422874561E+02  0.73274303642E+02  0.41800000000E+01 0.  1.
</event>
<event>
11    1  0.5813833E-009  0.1634910E+03  0.7561462E-02  0.1083839E+00
         22   -1    0    0    0    0  0.00000000000E+00  0.00000000000E+00  0.36234505985E+03  0.36234505985E+03  0.00000000000E+00 0.  1.
         22   -1    0    0    0    0 -0.00000000000E+00 -0.00000000000E+00 -0.32944669990E+03  0.32944669990E+03  0.00000000000E+00 0. -1.
        -24    2    1    2    0    0 -0.56579691605E+02 -0.40500002165E+02 -0.14831552729E+03  0.18033218705E+03  0.75370354737E+02 0.  0.
         25    2    1    2    0    0  0.23584516228E+02  0.13840400889E+03 -0.91493978727E+02  0.20909958298E+03  0.12505833989E+03 0.  0.
         24    2    1    2    0    0  0.32995175377E+02 -0.97904006730E+02  0.27270786597E+03  0.30235998972E+03  0.79863052106E+02 0.  0.
        -11    1    5    5    0    0  0.49230754227E+02 -0.10169264563E+03  0.24836102375E+03  0.27285208347E+03  0.00000000000E+00 0.  1.
         12    1    5    5    0    0 -0.16235578850E+02  0.37886388977E+01  0.24346842217E+02  0.29507906249E+02  0.00000000000E+00 0. -1.
         13    1    3    3    0    0 -0.42238666450E+02  0.11242098599E+02 -0.95449900504E+02  0.10498177571E+03  0.00000000000E+00 0. -1.
        -14    1    3    3    0    0 -0.14341025155E+02 -0.51742100764E+02 -0.52865626789E+02  0.75350411345E+02  0.00000000000E+00 0.  1.
          5    1    4    4  501    0  0.29243178531E+01  0.12792833146E+03 -0.14809310395E+02  0.12888365955E+03  0.41800000000E+01 0. -1.
         -5    1    4    4    0  501  0.20660198375E+02  0.10475677436E+02 -0.76684668332E+02  0.80215923430E+02  0.41800000000E+01 0. -1.
</event>
<event>
11    1  0.5813833E-009  0.1560007E+03  0.7561462E-02  0.1090900E+00
         22   -1    0    0    0    0  0.00000000000E+00  0.00000000000E+00  0.92584287621E+03  0.92584287621E+03  0.00000000000E+00 0. -1.
         22   -1    0    0    0    0 -0.00000000000E+00 -0.00000000000E+00 -0.17947982253E+03  0.17947982253E+03  0.00000000000E+00 0. -1.
         24    2    1    2    0    0 -0.80228667303E+01 -0.35258521514E+02 -0.11798477283E+03  0.14749468608E+03  0.80788279300E+02 0.  0.
         25    2    1    2    0    0 -0.82066823209E+02  0.46844288094E+01  0.91884298348E+02  0.17562971201E+03  0.12508462780E+03 0.  0.
        -24    2    1    2    0    0  0.90089689940E+02  0.30574092704E+02  0.77246352816E+03  0.78219830065E+03  0.77995844900E+02 0.  0.
        -11    1    3    3    0    0 -0.17843138541E+01  0.26414041120E+02 -0.37604717243E+02  0.45989130271E+02  0.00000000000E+00 0.  1.
         12    1    3    3    0    0 -0.62385528763E+01 -0.61672562634E+02 -0.80380055590E+02  0.10150555581E+03  0.00000000000E+00 0. -1.
         13    1    5    5    0    0  0.10187390669E+03  0.14276931293E+02  0.63852706142E+03  0.64676033567E+03  0.00000000000E+00 0. -1.
        -14    1    5    5    0    0 -0.11784216750E+02  0.16297161412E+02  0.13393646674E+03  0.13543796498E+03  0.00000000000E+00 0.  1.
          5    1    4    4  501    0 -0.23185272280E+02  0.45146426513E+02  0.90742187418E+02  0.10405466667E+03  0.41800000000E+01 0.  1.
         -5    1    4    4    0  501 -0.58881550930E+02 -0.40461997704E+02  0.11421109303E+01  0.71575045340E+02  0.41800000000E+01 0.  1.
</event>
<event>
11    1  0.5813833E-009  0.1471471E+03  0.7561462E-02  0.1099830E+00
         22   -1    0    0    0    0  0.00000000000E+00  0.00000000000E+00  0.21465604721E+04  0.21465604721E+04  0.00000000000E+00 0.  1.
         22   -1    0    0    0    0 -0.00000000000E+00 -0.00000000000E+00 -0.13294471531E+04  0.13294471531E+04  0.00000000000E+00 0. -1.
        -24    2    1    2    0    0  0.90873795426E+01 -0.77797572327E+02 -0.12268994839E+04  0.12319557329E+04  0.79357050913E+02 0.  0.
         25    2    1    2    0    0 -0.63173613465E+02  0.50996367869E+02 -0.42562972028E+02  0.15508282276E+03  0.12509012892E+03 0.  0.
         24    2    1    2    0    0  0.54086233922E+02  0.26801204458E+02  0.20865757750E+04  0.20889690695E+04  0.79684899407E+02 0.  0.
        -13    1    5    5    0    0  0.21532686901E+02  0.28094047764E+02  0.18288196877E+04  0.18291622077E+04  0.00000000000E+00 0.  1.
         14    1    5    5    0    0  0.32553547021E+02 -0.12928433058E+01  0.25775608729E+03  0.25980686173E+03  0.00000000000E+00 0. -1.
         11    1    3    3    0    0  0.11468762621E+02 -0.77958382537E+02 -0.12270374507E+04  0.12295649423E+04  0.00000000000E+00 0. -1.
        -12    1    3    3    0    0 -0.23813830781E+01  0.16081021029E+00  0.13796671961E+00  0.23907906860E+01  0.00000000000E+00 0.  1.
          5    1    4    4  501    0 -0.69582899064E+02 -0.21395889562E+01 -0.66444915506E+02  0.96326304194E+02  0.41800000000E+01 0.  1.
         -5    1    4    4    0  501  0.64092855991E+01  0.53135956825E+02  0.23881943478E+02  0.58756518565E+02  0.41800000000E+01 0.  1.
</event>
<event>
11    1  0.5813833E-009  0.1641644E+03  0.7561462E-02  0.1083225E+00
         22   -1    0    0    0    0  0.00000000000E+00  0.00000000000E+00  0.20674374371E+03  0.20674374371E+03  0.00000000000E+00 0. -1.
         22   -1    0    0    0    0 -0.00000000000E+00 -0.00000000000E+00 -0.19950725416E+04  0.19950725416E+04  0.00000000000E+00 0. -1.
        -24    2    1    2    0    0 -0.11029605038E+03 -0.12819880557E+02 -0.18769189576E+04  0.18818408180E+04  0.78552674730E+02 0.  0.
         25    2    1    2    0    0  0.18140352492E+02 -0.30960760582E+02 -0.40910770593E+02  0.13641136201E+03  0.12508687960E+03 0.  0.
         24    2    1    2    0    0  0.92155697888E+02  0.43780641140E+02  0.12950093029E+03  0.18356410535E+03  0.80720955378E+02 0.  0.
        -13    1    5    5    0    0  0.85732644648E+02  0.36144575240E+02  0.54346124699E+02  0.10774979326E+03  0.00000000000E+00 0.  1.
         14    1    5    5    0    0  0.64230532404E+01  0.76360659000E+01  0.75154805589E+02  0.75814312095E+02  0.00000000000E+00 0. -1.
         13    1    3    3    0    0 -0.10685621133E+03  0.91579221135E+01 -0.12721028255E+04  0.12766157276E+04  0.00000000000E+00 0. -1.
        -14    1    3    3    0    0 -0.34398390481E+01 -0.21977802671E+02 -0.60481613212E+03  0.60522509033E+03  0.00000000000E+00 0.  1.
          5    1    4    4  501    0 -0.11661069639E+02 -0.11633806424E+01 -0.78685236862E+02  0.79662870270E+02  0.41800000000E+01 0.  1.
         -5    1    4    4    0  501  0.29801422130E+02 -0.29797379940E+02  0.37774466269E+02  0.56748491735E+02  0.41800000000E+01 0.  1.
</event>
<event>
11    1  0.5813833E-009  0.3332529E+03  0.7561462E-02  0.9870238E-01
         22   -1    0    0    0    0  0.00000000000E+00  0.00000000000E+00  0.16772765943E+04  0.16772765943E+04  0.00000000000E+00 0. -1.
         22   -1    0    0    0    0 -0.00000000000E+00 -0.00000000000E+00 -0.28867694598E+03  0.28867694598E+03  0.00000000000E+00 0. -1.
         24    2    1    2    0    0 -0.23357650308E+03  0.16948214890E+03 -0.29252188810E+02  0.29563565867E+03  0.57118915768E+02 0.  0.
         25    2    1    2    0    0  0.32468399250E+03 -0.14994377223E+03  0.16828809350E+03  0.41457449570E+03  0.12509316629E+03 0.  0.
        -24    2    1    2    0    0 -0.91107489421E+02 -0.19538376680E+02  0.12495637436E+04  0.12557433859E+04  0.82459560137E+02 0.  0.
        -11    1    3    3    0    0 -0.59966947331E+00  0.11514299265E+02 -0.64996666791E+01  0.13235722798E+02  0.00000000000E+00 0.  1.
         12    1    3    3    0    0 -0.23297683361E+03  0.15796784964E+03 -0.22752522131E+02  0.28239993587E+03  0.00000000000E+00 0. -1.
         13    1    5    5    0    0 -0.10623404970E+03 -0.17627516933E+02  0.10184712552E+04  0.10241484757E+04  0.00000000000E+00 0. -1.
        -14    1    5    5    0    0  0.15126560279E+02 -0.19108597470E+01  0.23109248841E+03  0.23159491015E+03  0.00000000000E+00 0.  1.
          5    1    4    4  501    0  0.93831073545E+02 -0.29795362979E+02  0.11031542202E+03  0.14791551221E+03  0.41800000000E+01 0. -1.
         -5    1    4    4    0  501  0.23085291896E+03 -0.12014840925E+03  0.57972671487E+02  0.26665898349E+03  0.41800000000E+01 0. -1.
</event>
<event>
11    1  0.5813833E-009  0.1305408E+03  0.7561462E-02  0.1118606E+00
         22   -1    0    0    0    0  0.00000000000E+00  0.00000000000E+00  0.21186545196E+03  0.21186545196E+03  0.00000000000E+00 0. -1.
         22   -1    0    0    0    0 -0.00000000000E+00 -0.00000000000E+00 -0.52667949278E+03  0.52667949278E+03  0.00000000000E+00 0. -1.
        -24    2    1    2    0    0  0.21125564173E+02 -0.34595796793E+02 -0.32154025000E+03  0.33393011029E+03  0.80486194907E+02 0.  0.
         25    2    1    2    0    0  0.20825954485E+02  0.37648173752E+02 -0.16459499898E+03  0.21116421046E+03  0.12509078593E+03 0.  0.
         24    2    1    2    0    0 -0.41951518657E+02 -0.30523769592E+01  0.17132120815E+03  0.19345062398E+03  0.79391061416E+02 0.  0.
        -11    1    5    5    0    0  0.78505364464E+01 -0.24671174903E+02  0.20093739523E+02  0.32772796060E+02  0.00000000000E+00 0.  1.
         12    1    5    5    0    0 -0.49802055104E+02  0.21618797943E+02  0.15122746863E+03  0.16067782792E+03  0.00000000000E+00 0. -1.
         13    1    3    3    0    0  0.28807175891E+02 -0.53448287425E+02 -0.29072538727E+03  0.29699801955E+03  0.00000000000E+00 0. -1.
        -14    1    3    3    0    0 -0.76816117187E+01  0.18852490632E+02 -0.30814862736E+02  0.36932090749E+02  0.00000000000E+00 0.  1.
          5    1    4    4  501    0 -0.32074028824E+02  0.58911267198E+02 -0.12402888777E+03  0.14106706962E+03  0.41800000000E+01 0.  1.
         -5    1    4    4    0  501  0.52899983308E+02 -0.21263093446E+02 -0.40566111204E+02  0.70097140849E+02  0.41800000000E+01 0.  1.
</event>
<event>
11    1  0.5813833E-009  0.1264829E+03  0.7561462E-02  0.1123667E+00
         22   -1    0    0    0    0  0.00000000000E+00  0.00000000000E+00  0.23684580575E+03  0.23684580575E+03  0.00000000000E+00 0. -1.
         22   -1    0    0    0    0 -0.00000000000E+00 -0.00000000000E+00 -0.10070720401E+04  0.10070720401E+04  0.00000000000E+00 0. -1.
         24    2    1    2    0    0  0.21233834102E+02  0.72744290382E+00 -0.81231858562E+03  0.81701455569E+03  0.84852193794E+02 0.  0.
         25    2    1    2    0    0  0.53870443100E+01  0.21312302229E+02 -0.16147800953E+03  0.20544091286E+03  0.12509031394E+03 0.  0.
        -24    2    1    2    0    0 -0.26620878412E+02 -0.22039745133E+02  0.20357036075E+03  0.22146237735E+03  0.80064169710E+02 0.  0.
        -13    1    3    3    0    0 -0.29852564624E+01  0.36151453230E+02 -0.20521879675E+03  0.20840008126E+03  0.00000000000E+00 0.  1.
         14    1    3    3    0    0  0.24219090564E+02 -0.35424010327E+02 -0.60709978886E+03  0.60861447444E+03  0.00000000000E+00 0. -1.
         13    1    5    5    0    0  0.10305069213E+02  0.64051851080E+01  0.14984462135E+03  0.15033506376E+03  0.00000000000E+00 0. -1.
        -14    1    5    5    0    0 -0.36925947625E+02 -0.28444930241E+02  0.53725739406E+02  0.71127313594E+02  0.00000000000E+00 0.  1.
          5    1    4    4  501    0  0.52755260946E+02 -0.25305390905E+02 -0.58777394480E+02  0.83040561584E+02  0.41800000000E+01 0. -1.
         -5    1    4    4    0  501 -0.47368216636E+02  0.46617693133E+02 -0.10270061505E+03  0.12240035127E+03  0.41800000000E+01 0. -1.
</event>
<event>
11    1  0.5813833E-009  0.1403646E+03  0.7561462E-02  0.1107152E+00
         22   -1    0    0    0    0  0.00000000000E+00  0.00000000000E+00  0.20644511708E+03  0.20644511708E+03  0.00000000000E+00 0.  1.
         22   -1    0    0    0    0 -0.00000000000E+00 -0.00000000000E+00 -0.62663120100E+03  0.62663120100E+03  0.00000000000E+00 0. -1.
         24    2    1    2    0    0  0.42266455819E+02  0.52045075065E+02 -0.51529719527E+03  0.52551740245E+03  0.78372174235E+02 0.  0.
         25    2    1    2    0    0 -0.56814830365E+01 -0.38128890493E+02 -0.48688783663E+02  0.13966656525E+03  0.12510020086E+03 0.  0.
        -24    2    1    2    0    0 -0.36584972783E+02 -0.13916184572E+02  0.14379989501E+03  0.16789235038E+03  0.77313071883E+02 0.  0.
        -13    1    3    3    0    0  0.12453243751E+02 -0.19015106333E+02 -0.69895954304E+02  0.73498993033E+02  0.00000000000E+00 0.  1.
         14    1    3    3    0    0  0.29813212068E+02  0.71060181398E+02 -0.44540124097E+03  0.45201840942E+03  0.00000000000E+00 0. -1.
         11    1    5    5    0    0  0.58284366519E+01  0.15662357153E+02  0.18452946695E+01  0.16813245309E+02  0.00000000000E+00 0. -1.
        -12    1    5    5    0    0 -0.42413409435E+02 -0.29578541725E+02  0.14195460035E+03  0.15107910507E+03  0.00000000000E+00 0.  1.
          5    1    4    4  501    0  0.13707637885E+02  0.36201767408E+02  0.13008903602E+02  0.41050837663E+02  0.41800000000E+01 0. -1.
         -5    1    4    4    0  501 -0.19389120921E+02 -0.74330657902E+02 -0.61697687265E+02  0.98615727589E+02  0.41800000000E+01 0. -1.
</event>
<event>
11    1  0.5813833E-009  0.1437157E+03  0.7561462E-02  0.1103479E+00
         22   -1    0    0    0    0  0.00000000000E+00  0.00000000000E+00  0.47508591401E+03  0.47508591401E+03  0.00000000000E+00 0. -1.
         22   -1    0    0    0    0 -0.00000000000E+00 -0.00000000000E+00 -0.88574515939E+03  0.88574515939E+03  0.00000000000E+00 0.  1.
        -24    2    1    2    0    0  0.65922596550E+02 -0.39408139190E+01 -0.59747476084E+03  0.60642671033E+03  0.80099603071E+02 0.  0.
         25    2    1    2    0    0 -0.93151223755E+02  0.12891959355E+02 -0.25793433878E+03  0.30169694981E+03  0.12509026062E+03 0.  0.
         24    2    1    2    0    0  0.27228627204E+02 -0.89511454357E+01  0.44474985424E+03  0.45270741325E+03  0.79498729722E+02 0.  0.
        -13    1    5    5    0    0  0.19799465626E+02 -0.39163894956E+02  0.14907367269E+03  0.15539880758E+03  0.00000000000E+00 0.  1.
         14    1    5    5    0    0  0.74291615786E+01  0.30212749520E+02  0.29567618154E+03  0.29730860567E+03  0.00000000000E+00 0. -1.
         11    1    3    3    0    0  0.57206081769E+02 -0.38618045131E+00 -0.18056471023E+03  0.18941039968E+03  0.00000000000E+00 0. -1.
        -12    1    3    3    0    0  0.87165147811E+01 -0.35546334677E+01 -0.41691005061E+03  0.41701631065E+03  0.00000000000E+00 0.  1.
          5    1    4    4  501    0  0.40947699389E+01 -0.14605554123E+02 -0.16045373749E+03  0.16122333462E+03  0.41800000000E+01 0. -1.
         -5    1    4    4    0  501 -0.97245993694E+02  0.27497513478E+02 -0.97480601292E+02  0.14047361519E+03  0.41800000000E+01 0. -1.
</event>
<event>
11    1  0.5813833E-009  0.1390870E+03  0.7561462E-02  0.1108582E+00
         22   -1    0    0    0    0  0.00000000000E+00  0.00000000000E+00  0.53723333441E+02  0.53723333441E+02  0.00000000000E+00 0. -1.
         22   -1    0    0    0    0 -0.00000000000E+00 -0.00000000000E+00 -0.12730102393E+04  0.12730102393E+04  0.00000000000E+00 0.  1.
         24    2    1    2    0    0  0.70009965120E+02  0.39861972434E+02 -0.89370901963E+03  0.90400654703E+03  0.10964330002E+03 0.  0.
         25    2    1    2    0    0  0.17689362240E+02 -0.27650705826E+02 -0.25035509827E+03  0.28178555892E+03  0.12509177000E+03 0.  0.
        -24    2    1    2    0    0 -0.87699327360E+02 -0.12211266609E+02 -0.75222787978E+02  0.14094146680E+03  0.79785601342E+02 0.  0.
        -11    1    3    3    0    0 -0.15963951458E+02  0.42878089528E+02 -0.42616743260E+03  0.42861644733E+03  0.00000000000E+00 0.  1.
         12    1    3    3    0    0  0.85973916578E+02 -0.30161170933E+01 -0.46754158703E+03  0.47539009970E+03  0.00000000000E+00 0. -1.
         11    1    5    5    0    0 -0.72829621007E+02  0.96711720209E+01 -0.14750505716E+02  0.74935056437E+02  0.00000000000E+00 0. -1.
        -12    1    5    5    0    0 -0.14869706353E+02 -0.21882438630E+02 -0.60472282262E+02  0.66006410366E+02  0.00000000000E+00 0.  1.
          5    1    4    4  501    0  0.61230875972E+02 -0.47275045135E+02 -0.11939949243E+03  0.14233011367E+03  0.41800000000E+01 0.  1.
         -5    1    4    4    0  501 -0.43541513732E+02  0.19624339310E+02 -0.13095560583E+03  0.13945544525E+03  0.41800000000E+01 0.  1.
</event>
<event>
11    1  0.5813833E-009  0.1335174E+03  0.7561462E-02  0.1115021E+00
         22   -1    0    0    0    0  0.00000000000E+00  0.00000000000E+00  0.37977139065E+03  0.37977139065E+03  0.00000000000E+00 0.  1.
         22   -1    0    0    0    0 -0.00000000000E+00 -0.00000000000E+00 -0.34037839491E+03  0.34037839491E+03  0.00000000000E+00 0.  1.
         24    2    1    2    0    0 -0.20979502318E+02  0.33657687383E+02 -0.16209980866E+03  0.18508828394E+03  0.80052142037E+02 0.  0.
         25    2    1    2    0    0  0.44130798877E+02 -0.49429624022E+02 -0.13037183802E+03  0.19244420276E+03  0.12508852820E+03 0.  0.
        -24    2    1    2    0    0 -0.23151296559E+02  0.15771936639E+02  0.33186464242E+03  0.34261729886E+03  0.80422236177E+02 0.  0.
        -11    1    3    3    0    0 -0.82174948753E+01  0.24606495681E+02 -0.16675789075E+03  0.16876374309E+03  0.00000000000E+00 0.  1.
         12    1    3    3    0    0 -0.12762007443E+02  0.90511917014E+01  0.46580820918E+01  0.16324540850E+02  0.00000000000E+00 0. -1.
         11    1    5    5    0    0 -0.68242517396E+01  0.10874537966E+01 -0.26364445639E+01  0.73962022352E+01  0.00000000000E+00 0. -1.
        -12    1    5    5    0    0 -0.16327044819E+02  0.14684482842E+02  0.33450108698E+03  0.33522109662E+03  0.00000000000E+00 0.  1.
          5    1    4    4  501    0 -0.18600051387E+02 -0.19453010156E+02 -0.11874620951E+03  0.12182986575E+03  0.41800000000E+01 0.  1.
         -5    1    4    4    0  501  0.62730850264E+02 -0.29976613866E+02 -0.11625628515E+02  0.70614337015E+02  0.41800000000E+01 0.  1.
</event>
<event>
11    1  0.5813833E-009  0.1624322E+03  0.7561462E-02  0.1084812E+00
         22   -1    0    0    0    0  0.00000000000E+00  0.00000000000E+00  0.16180002357E+04  0.16180002357E+04  0.00000000000E+00 0. -1.
         22   -1    0    0    0    0 -0.00000000000E+00 -0.00000000000E+00 -0.66389548785E+03  0.66389548785E+03  0.00000000000E+00 0.  1.
        -24    2    1    2    0    0 -0.30709857053E+02  0.14139262837E+02 -0.60668047604E+03  0.61270149249E+03  0.78733124045E+02 0.  0.
         25    2    1    2    0    0  0.12578825910E+03  0.23792194409E+02  0.10479623076E+03  0.20740866962E+03  0.12508937448E+03 0.  0.
         24    2    1    2    0    0 -0.95078402043E+02 -0.37931457246E+02  0.14559889932E+04  0.14617855615E+04  0.80214597043E+02 0.  0.
        -11    1    5    5    0    0  0.11907713826E+02 -0.11676031845E+02  0.32985849554E+03  0.33027980630E+03  0.00000000000E+00 0.  1.
         12    1    5    5    0    0 -0.10698611587E+03 -0.26255425401E+02  0.11261304976E+04  0.11315057552E+04  0.00000000000E+00 0. -1.
         13    1    3    3    0    0 -0.45564962385E+02 -0.18448149041E+02 -0.31121732711E+03  0.31507574437E+03  0.00000000000E+00 0. -1.
        -14    1    3    3    0    0  0.14855105332E+02  0.32587411877E+02 -0.29546314893E+03  0.29762574812E+03  0.00000000000E+00 0.  1.
          5    1    4    4  501    0  0.32538980114E+02  0.27999610300E+02  0.10549197559E+03  0.11396838473E+03  0.41800000000E+01 0.  1.
         -5    1    4    4    0  501  0.93249278982E+02 -0.42074158904E+01 -0.69574482759E+00  0.93440284888E+02  0.41800000000E+01 0.  1.
</event>
<event>
11    1  0.5813833E-009  0.1373458E+03  0.7561462E-02  0.1110559E+00
         22   -1    0    0    0    0  0.00000000000E+00  0.00000000000E+00  0.28746938623E+04  0.28746938623E+04  0.00000000000E+00 0. -1.
         22   -1    0    0    0    0 -0.00000000000E+00 -0.00000000000E+00 -0.24909042571E+03  0.24909042571E+03  0.00000000000E+00 0.  1.
         24    2    1    2    0    0  0.25932280579E+02  0.50718450962E+02 -0.22624624999E+03  0.24672456916E+03  0.80254613230E+02 0.  0.
         25    2    1    2    0    0  0.12862486825E+02 -0.58657254896E+02  0.39674373020E+03  0.42030857264E+03  0.12509033401E+03 0.  0.
        -24    2    1    2    0    0 -0.38794767404E+02  0.79388039337E+01  0.24551059564E+04  0.24567511462E+04  0.80702408402E+02 0.  0.
        -11    1    3    3    0    0 -0.98580312432E+01  0.43019403945E+02 -0.19054484989E+03  0.19558933947E+03  0.00000000000E+00 0.  1.
         12    1    3    3    0    0  0.35790311822E+02  0.76990470174E+01 -0.35701400103E+02  0.51135229682E+02  0.00000000000E+00 0. -1.
         13    1    5    5    0    0 -0.90156800090E+01 -0.14676870129E+02  0.20109883652E+04  0.20110621318E+04  0.00000000000E+00 0. -1.
        -14    1    5    5    0    0 -0.29779087395E+02  0.22615674063E+02  0.44411759116E+03  0.44568901438E+03  0.00000000000E+00 0.  1.
          5    1    4    4  501    0 -0.32780554286E+02  0.14746983114E+02  0.43328008886E+02  0.56451988488E+02  0.41800000000E+01 0.  1.
         -5    1    4    4    0  501  0.45643041111E+02 -0.73404238010E+02  0.35341572131E+03  0.36385658415E+03  0.41800000000E+01 0.  1.
</event>
<event>
11    1  0.5813833E-009  0.1420118E+03  0.7561462E-02  0.1105333E+00
         22   -1    0    0    0    0  0.00000000000E+00  0.00000000000E+00  0.12502065009E+04  0.12502065009E+04  0.00000000000E+00 0. -1.
         22   -1    0    0    0    0 -0.00000000000E+00 -0.00000000000E+00 -0.16629905801E+04  0.16629905801E+04  0.00000000000E+00 0. -1.
         24    2    1    2    0    0 -0.16535508117E+02  0.98099707861E+02 -0.16363752839E+04  0.16409484389E+04  0.71349375334E+02 0.  0.
         25    2    1    2    0    0 -0.29059920015E+02 -0.28734669575E+02  0.19631812619E+03  0.23634349591E+03  0.12508909305E+03 0.  0.
        -24    2    1    2    0    0  0.45595428132E+02 -0.69365038285E+02  0.10272730787E+04  0.10359051462E+04  0.10449422118E+03 0.  0.
        -13    1    3    3    0    0 -0.26319156615E+02  0.14614622651E+02 -0.74795196812E+03  0.74855756747E+03  0.00000000000E+00 0.  1.
         14    1    3    3    0    0  0.97836484974E+01  0.83485085210E+02 -0.88842331583E+03  0.89239087139E+03  0.00000000000E+00 0. -1.
         11    1    5    5    0    0  0.61813230358E+02 -0.72324888748E+02  0.53754156006E+03  0.54589622986E+03  0.00000000000E+00 0. -1.
        -12    1    5    5    0    0 -0.16217802226E+02  0.29598504624E+01  0.48973151859E+03  0.49000891638E+03  0.00000000000E+00 0.  1.
          5    1    4    4  501    0 -0.53880241458E+02 -0.42688789965E+02  0.19580131473E+03  0.20755972745E+03  0.41800000000E+01 0.  1.
         -5    1    4    4    0  501  0.24820321444E+02  0.13954120390E+02  0.51681145683E+00  0.28783768456E+02  0.41800000000E+01 0.  1.
</event>
<event>
11    1  0.5813833E-009  0.1549884E+03  0.7561462E-02  0.1091888E+00
         22   -1    0    0    0    0  0.00000000000E+00  0.00000000000E+00  0.16296666922E+04  0.16296666922E+04  0.00000000000E+00 0. -1.
         22   -1    0    0    0    0 -0.00000000000E+00 -0.00000000000E+00 -0.13940896316E+04  0.13940896316E+04  0.00000000000E+00 0. -1.
        -24    2    1    2    0    0 -0.15569090093E+02  0.11405352841E+02 -0.13789858496E+04  0.13814480352E+04  0.80151244700E+02 0.  0.
         25    2    1    2    0    0  0.73697024088E+02 -0.75596731574E+02  0.64162515244E+03  0.66217585911E+03  0.12509162627E+03 0.  0.
         24    2    1    2    0    0 -0.58127933995E+02  0.64191378734E+02  0.97293775769E+03  0.98013242951E+03  0.80946335384E+02 0.  0.
        -11    1    5    5    0    0 -0.75374950403E+01  0.19007011766E+02  0.41857660320E+02  0.46584804981E+02  0.00000000000E+00 0.  1.
         12    1    5    5    0    0 -0.50590438955E+02  0.45184366968E+02  0.93108009737E+03  0.93354762453E+03  0.00000000000E+00 0. -1.
         13    1    3    3    0    0 -0.40970950590E+02  0.16256385701E+02 -0.11754069624E+04  0.11762331470E+04  0.00000000000E+00 0. -1.
        -14    1    3    3    0    0  0.25401860497E+02 -0.48510328601E+01 -0.20357888714E+03  0.20521488817E+03  0.00000000000E+00 0.  1.
          5    1    4    4  501    0  0.90467016813E+02 -0.84044522375E+02  0.37440801871E+03  0.39426716798E+03  0.41800000000E+01 0. -1.
         -5    1    4    4    0  501 -0.16769992725E+02  0.84477908005E+01  0.26721713373E+03  0.26790869114E+03  0.41800000000E+01 0. -1.
</event>
<event>
11    1  0.5813833E-009  0.1742502E+03  0.7561462E-02  0.1074391E+00
         22   -1    0    0    0    0  0.00000000000E+00  0.00000000000E+00  0.85397718855E+03  0.85397718855E+03  0.00000000000E+00 0. -1.
         22   -1    0    0    0    0 -0.00000000000E+00 -0.00000000000E+00 -0.25075198139E+03  0.25075198139E+03  0.00000000000E+00 0.  1.
         24    2    1    2    0    0 -0.62305946471E+02 -0.11222405731E+03 -0.20001826268E+03  0.25055210248E+03  0.79327048673E+02 0.  0.
         25    2    1    2    0    0 -0.41739231975E+02  0.52369410943E+02  0.32622544353E+03  0.35573490355E+03  0.12505823807E+03 0.  0.
        -24    2    1    2    0    0  0.10404517845E+03  0.59854646366E+02  0.47701802631E+03  0.49844216391E+03  0.80563114930E+02 0.  0.
        -11    1    3    3    0    0 -0.66093258643E+02 -0.94287127185E+02 -0.20158513621E+03  0.23215285553E+03  0.00000000000E+00 0.  1.
         12    1    3    3    0    0  0.37873121721E+01 -0.17936930124E+02  0.15668735341E+01  0.18399246953E+02  0.00000000000E+00 0. -1.
         11    1    5    5    0    0  0.85763308479E+02  0.14657609522E+02  0.21519816805E+03  0.23212161065E+03  0.00000000000E+00 0. -1.
        -12    1    5    5    0    0  0.18281869966E+02  0.45197036845E+02  0.26181985826E+03  0.26632055326E+03  0.00000000000E+00 0.  1.
          5    1    4    4  501    0  0.41854041325E+02  0.33630438089E+01  0.69592623283E+02  0.81385972098E+02  0.41800000000E+01 0.  1.
         -5    1    4    4    0  501 -0.83593273300E+02  0.49006367134E+02  0.25663282025E+03  0.27434893145E+03  0.41800000000E+01 0.  1.
</event>
<event>
11    1  0.5813833E-009  0.2149610E+03  0.7561462E-02  0.1044421E+00
         22   -1    0    0    0    0  0.00000000000E+00  0.00000000000E+00  0.90435142474E+03  0.90435142474E+03  0.00000000000E+00 0.  1.
         22   -1    0    0    0    0 -0.00000000000E+00 -0.00000000000E+00 -0.12533765779E+04  0.12533765779E+04  0.00000000000E+00 0. -1.
         24    2    1    2    0    0  0.11236481297E+03 -0.14167812873E+03 -0.11408397801E+04  0.11577484695E+04  0.78533887700E+02 0.  0.
         25    2    1    2    0    0 -0.14466333581E+03  0.19155510424E+02 -0.22993717880E+01  0.19221589433E+03  0.12508896280E+03 0.  0.
        -24    2    1    2    0    0  0.32298522839E+02  0.12252261830E+03  0.79411399871E+03  0.80776363878E+03  0.76223792985E+02 0.  0.
        -13    1    3    3    0    0  0.13455716487E+02  0.93548266686E+01 -0.11109686432E+03  0.11229907547E+03  0.00000000000E+00 0.  1.
         14    1    3    3    0    0  0.98909096486E+02 -0.15103295539E+03 -0.10297429158E+04  0.10454493941E+04  0.00000000000E+00 0. -1.
         13    1    5    5    0    0 -0.17859063339E+01  0.23888674564E+02  0.37817900835E+03  0.37893696123E+03  0.00000000000E+00 0. -1.
        -14    1    5    5    0    0  0.34084429173E+02  0.98633943738E+02  0.41593499036E+03  0.42882667755E+03  0.00000000000E+00 0.  1.
          5    1    4    4  501    0 -0.67698753263E+02 -0.44990283434E+02 -0.32268030595E+02  0.87555382446E+02  0.41800000000E+01 0.  1.
         -5    1    4    4    0  501 -0.76964582549E+02  0.64145793858E+02  0.29968658807E+02  0.10466051188E+03  0.41800000000E+01 0.  1.
</event>
<event>
11    1  0.5813833E-009  0.1341062E+03  0.7561462E-02  0.1114324E+00
         22   -1    0    0    0    0  0.00000000000E+00  0.00000000000E+00  0.13841185399E+04  0.13841185399E+04  0.00000000000E+00 0.  1.
         22   -1    0    0    0    0 -0.00000000000E+00 -0.00000000000E+00 -0.56335866792E+03  0.56335866792E+03  0.00000000000E+00 0. -1.
        -24    2    1    2    0    0  0.33848614266E+02  0.35177519855E+02 -0.54225124525E+03  0.55066525423E+03  0.82538613094E+02 0.  0.
         25    2    1    2    0    0 -0.81357738063E+01 -0.15048037755E+02  0.24670977820E+03  0.27714486271E+03  0.12510366107E+03 0.  0.
         24    2    1    2    0    0 -0.25712840459E+02 -0.20129482100E+02  0.11163013390E+04  0.11196670909E+04  0.80370197490E+02 0.  0.
        -11    1    5    5    0    0 -0.43687523116E+02 -0.22319449414E+02  0.38133817577E+03  0.38448089913E+03  0.00000000000E+00 0.  1.
         12    1    5    5    0    0  0.17974682657E+02  0.21899673140E+01  0.73496316324E+03  0.73518619172E+03  0.00000000000E+00 0. -1.
         11    1    3    3    0    0  0.52896747157E+02  0.28692786113E+02 -0.22921011569E+03  0.23697809808E+03  0.00000000000E+00 0. -1.
        -12    1    3    3    0    0 -0.19048132891E+02  0.64847337413E+01 -0.31304112956E+03  0.31368715615E+03  0.00000000000E+00 0.  1.
          5    1    4    4  501    0  0.46672550559E+02 -0.43355329862E+02  0.11181835363E+03  0.12875879858E+03  0.41800000000E+01 0. -1.
         -5    1    4    4    0  501 -0.54808324366E+02  0.28307292107E+02  0.13489142457E+03  0.14838606413E+03  0.41800000000E+01 0. -1.
</event>
<event>
11    1  0.5813833E-009  0.2285749E+03  0.7561462E-02  0.1035975E+00
         22   -1    0    0    0    0  0.00000000000E+00  0.00000000000E+00  0.11626500707E+04  0.11626500707E+04  0.00000000000E+00 0. -1.
         22   -1    0    0    0    0 -0.00000000000E+00 -0.00000000000E+00 -0.40469714432E+03  0.40469714432E+03  0.00000000000E+00 0.  1.
        -24    2    1    2    0    0  0.62141077838E+02 -0.21118395479E+03 -0.10528071054E+03  0.25717904592E+03  0.81221039975E+02 0.  0.
         25    2    1    2    0    0 -0.56581611202E+02  0.16243992858E+03 -0.17026222722E+03  0.27244234009E+03  0.12508954206E+03 0.  0.
         24    2    1    2    0    0 -0.55594666360E+01  0.48744026202E+02  0.10334958642E+04  0.10377258291E+04  0.79713908914E+02 0.  0.
        -11    1    5    5    0    0  0.96242996310E+01 -0.26917240608E+01  0.16317290180E+02  0.19134431808E+02  0.00000000000E+00 0.  1.
         12    1    5    5    0    0 -0.15183766267E+02  0.51435750263E+02  0.10171785740E+04  0.10185913973E+04  0.00000000000E+00 0. -1.
         11    1    3    3    0    0  0.31059723625E+02 -0.48059498491E+02  0.56121838123E+01  0.57497116745E+02  0.00000000000E+00 0. -1.
        -12    1    3    3    0    0  0.31081354213E+02 -0.16312445629E+03 -0.11089289435E+03  0.19968192917E+03  0.00000000000E+00 0.  1.
          5    1    4    4  501    0  0.49405366344E+01 -0.16848399985E+02 -0.35523389835E+02  0.39845465359E+02  0.41800000000E+01 0.  1.
         -5    1    4    4    0  501 -0.61522147836E+02  0.17928832857E+03 -0.13473883738E+03  0.23259687473E+03  0.41800000000E+01 0.  1.
</event>
<event>
11    1  0.5813833E-009  0.2265711E+03  0.7561462E-02  0.1037178E+00
         22   -1    0    0    0    0  0.00000000000E+00  0.00000000000E+00  0.71907456534E+03  0.71907456534E+03  0.00000000000E+00 0. -1.
         22   -1    0    0    0    0 -0.00000000000E+00 -0.00000000000E+00 -0.96188196289E+03  0.96188196289E+03  0.00000000000E+00 0. -1.
        -24    2    1    2    0    0 -0.25085673328E+02 -0.22889986069E+02 -0.82320311697E+03  0.82784432627E+03  0.80682180678E+02 0.  0.
         25    2    1    2    0    0  0.88471707892E+02  0.19674153210E+03  0.11817420737E+02  0.24964475078E+03  0.12509347149E+03 0.  0.
         24    2    1    2    0    0 -0.63386034564E+02 -0.17385154603E+03  0.56857829869E+03  0.60346745118E+03  0.81544671573E+02 0.  0.
        -11    1    5    5    0    0 -0.46155175420E+02 -0.11394845998E+03  0.24701243346E+03  0.27591609963E+03  0.00000000000E+00 0.  1.
         12    1    5    5    0    0 -0.17230859144E+02 -0.59903086049E+02  0.32156586523E+03  0.32755135155E+03  0.00000000000E+00 0. -1.
         11    1    3    3    0    0 -0.30338846660E+02 -0.10232072938E+02 -0.80173942252E+03  0.80237849084E+03  0.00000000000E+00 0. -1.
        -12    1    3    3    0    0  0.52531733316E+01 -0.12657913131E+02 -0.21463694448E+02  0.25465835432E+02  0.00000000000E+00 0.  1.
          5    1    4    4  501    0 -0.27224949823E+02  0.36197381863E+02  0.23825288785E+02  0.51347493924E+02  0.41800000000E+01 0. -1.
         -5    1    4    4    0  501  0.11569665771E+03  0.16054415023E+03 -0.12007868049E+02  0.19829725685E+03  0.41800000000E+01 0. -1.
</event>
<event>
11    1  0.5813833E-009  0.1283592E+03  0.7561462E-02  0.1121302E+00
         22   -1    0    0    0    0  0.00000000000E+00  0.00000000000E+00  0.17133948638E+04  0.17133948638E+04  0.00000000000E+00 0.  1.
         22   -1    0    0    0    0 -0.00000000000E+00 -0.00000000000E+00 -0.13041252153E+03  0.13041252153E+03  0.00000000000E+00 0.  1.
         24    2    1    2    0    0 -0.15168052533E+02 -0.23839220769E+02 -0.10363454627E+03  0.13505042965E+03  0.81854267465E+02 0.  0.
         25    2    1    2    0    0  0.36110921002E+02  0.28673691703E+02  0.45238510119E+03  0.47162186589E+03  0.12509486560E+03 0.  0.
        -24    2    1    2    0    0 -0.20942868469E+02 -0.48344709335E+01  0.12342317873E+04  0.12371350898E+04  0.81933812538E+02 0.  0.
        -11    1    3    3    0    0 -0.33625478618E+02 -0.27486974030E+02 -0.10741246303E+03  0.11586044954E+03  0.00000000000E+00 0.  1.
         12    1    3    3    0    0  0.18457426085E+02  0.36477532602E+01  0.37779167564E+01  0.19189980108E+02  0.00000000000E+00 0. -1.
         13    1    5    5    0    0  0.24397942631E+01  0.35429168418E+02  0.38743203276E+03  0.38905624090E+03  0.00000000000E+00 0. -1.
        -14    1    5    5    0    0 -0.23382662732E+02 -0.40263639352E+02  0.84679975455E+03  0.84807884886E+03  0.00000000000E+00 0.  1.
          5    1    4    4  501    0  0.44628086654E+02  0.55046369068E+02  0.42981193025E+03  0.43563463666E+03  0.41800000000E+01 0. -1.
         -5    1    4    4    0  501 -0.85171656521E+01 -0.26372677365E+02  0.22573170935E+02  0.35987229238E+02  0.41800000000E+01 0. -1.
</event>
<event>
11    1  0.5813833E-009  0.1477279E+03  0.7561462E-02  0.1099223E+00
         22   -1    0    0    0    0  0.00000000000E+00  0.00000000000E+00  0.27227623870E+04  0.27227623870E+04  0.00000000000E+00 0. -1.
         22   -1    0    0    0    0 -0.00000000000E+00 -0.00000000000E+00 -0.78865093302E+03  0.78865093302E+03  0.00000000000E+00 0.  1.
         24    2    1    2    0    0 -0.39677368157E+02 -0.68003790884E+02 -0.77928311611E+03  0.78707779747E+03  0.77527253878E+02 0.  0.
         25    2    1    2    0    0  0.56040146187E+02  0.61532462959E+00  0.14102644237E+04  0.14169096425E+04  0.12508522548E+03 0.  0.
        -24    2    1    2    0    0 -0.16362778030E+02  0.67388466255E+02  0.13031301464E+04  0.13074258800E+04  0.80033165158E+02 0.  0.
        -13    1    3    3    0    0 -0.51698810260E+02 -0.76467877243E+02 -0.72449340730E+03  0.73034977952E+03  0.00000000000E+00 0.  1.
         14    1    3    3    0    0  0.12021442103E+02  0.84640863586E+01 -0.54789708815E+02  0.56728017946E+02  0.00000000000E+00 0. -1.
         11    1    5    5    0    0 -0.14770001844E+02  0.58238534339E+02  0.42289460930E+03  0.42714134711E+03  0.00000000000E+00 0. -1.
        -12    1    5    5    0    0 -0.15927761857E+01  0.91499319160E+01  0.88023553706E+03  0.88028453292E+03  0.00000000000E+00 0.  1.
          5    1    4    4  501    0 -0.15565430231E+02 -0.47487012940E+02  0.58101805142E+03  0.58317814387E+03  0.41800000000E+01 0.  1.
         -5    1    4    4    0  501  0.71605576418E+02  0.48102337570E+02  0.82924637232E+03  0.83373149866E+03  0.41800000000E+01 0.  1.
</event>
<event>
11    1  0.5813833E-009  0.1384048E+03  0.7561462E-02  0.1109353E+00
         22   -1    0    0    0    0  0.00000000000E+00  0.00000000000E+00  0.75132070686E+03  0.75132070686E+03  0.00000000000E+00 0. -1.
         22   -1    0    0    0    0 -0.00000000000E+00 -0.00000000000E+00 -0.15343834620E+04  0.15343834620E+04  0.00000000000E+00 0. -1.
         24    2    1    2    0    0 -0.31440336501E+02  0.51810113640E+00 -0.10546795349E+04  0.10576938501E+04  0.73338911973E+02 0.  0.
         25    2    1    2    0    0  0.73521842384E+02  0.40936996445E+02 -0.46282905963E+03  0.48676482096E+03  0.12509178032E+03 0.  0.
        -24    2    1    2    0    0 -0.42081505883E+02 -0.41455097582E+02  0.73444583940E+03  0.74124549779E+03  0.80900053971E+02 0.  0.
        -13    1    3    3    0    0  0.15857988153E+02  0.18067455945E+02 -0.18546398691E+03  0.18701550522E+03  0.00000000000E+00 0.  1.
         14    1    3    3    0    0 -0.47298324654E+02 -0.17549354808E+02 -0.86921554802E+03  0.87067834491E+03  0.00000000000E+00 0. -1.
         13    1    5    5    0    0 -0.45017145345E+02 -0.50388704522E+02  0.72417364991E+03  0.72731907725E+03  0.00000000000E+00 0. -1.
        -14    1    5    5    0    0  0.29356394625E+01  0.89336069405E+01  0.10272189493E+02  0.13926420538E+02  0.00000000000E+00 0.  1.
          5    1    4    4  501    0  0.41545876341E+02  0.37422699626E+02 -0.44729951512E+03  0.45080022950E+03  0.41800000000E+01 0.  1.
         -5    1    4    4    0  501  0.31975966043E+02  0.35142968196E+01 -0.15529544508E+02  0.35964591464E+02  0.41800000000E+01 0.  1.
</event>
<event>
11    1  0.5813833E-009  0.1362462E+03  0.7561462E-02  0.1111824E+00
         22   -1    0    0    0    0  0.00000000000E+00  0.00000000000E+00  0.15285112061E+04  0.15285112061E+04  0.00000000000E+00 0.  1.
         22   -1    0    0    0    0 -0.00000000000E+00 -0.00000000000E+00 -0.92061202527E+02  0.92061202527E+02  0.00000000000E+00 0. -1.
        -24    2    1    2    0    0  0.52301816117E+01  0.51902244912E+02 -0.49120230090E+02  0.10887578523E+03  0.81975251013E+02 0.  0.
         25    2    1    2    0    0 -0.20325058337E+02 -0.83505599573E+02  0.50218483957E+03  0.52461884329E+03  0.12509606106E+03 0.  0.
         24    2    1    2    0    0  0.15094876725E+02  0.31603354661E+02  0.98338539406E+03  0.98707778006E+03  0.77775853104E+02 0.  0.
        -13    1    5    5    0    0  0.52779690141E+00 -0.18747056419E+02  0.57975924713E+03  0.58006250984E+03  0.00000000000E+00 0.  1.
         14    1    5    5    0    0  0.14567079824E+02  0.50350411080E+02  0.40362614693E+03  0.40701527022E+03  0.00000000000E+00 0. -1.
         13    1    3    3    0    0 -0.27591119230E+02  0.25585233837E+02 -0.54747702281E+02  0.66431806809E+02  0.00000000000E+00 0. -1.
        -14    1    3    3    0    0  0.32821300841E+02  0.26317011075E+02  0.56274721915E+01  0.42443978420E+02  0.00000000000E+00 0.  1.
          5    1    4    4  501    0  0.19453285593E+02 -0.17997858203E+02  0.13670301489E+02  0.30111505493E+02  0.41800000000E+01 0. -1.
         -5    1    4    4    0  501 -0.39778343930E+02 -0.65507741370E+02  0.48851453808E+03  0.49450733780E+03  0.41800000000E+01 0. -1.
</event>
<event>
11    1  0.5813833E-009  0.1445142E+03  0.7561462E-02  0.1102620E+00
         22   -1    0    0    0    0  0.00000000000E+00  0.00000000000E+00  0.27361191178E+03  0.27361191178E+03  0.00000000000E+00 0. -1.
         22   -1    0    0    0    0 -0.00000000000E+00 -0.00000000000E+00 -0.72341414550E+03  0.72341414550E+03  0.00000000000E+00 0.  1.
         24    2    1    2    0    0 -0.69703097496E+02  0.15884675207E+02 -0.65643795658E+03  0.66524276486E+03  0.80785522502E+02 0.  0.
         25    2    1    2    0    0  0.93452477962E+02 -0.26270263823E+02  0.74004939210E+02  0.17478130954E+03  0.12509309629E+03 0.  0.
        -24    2    1    2    0    0 -0.23749380466E+02  0.10385588617E+02  0.13263078365E+03  0.15700198289E+03  0.79917484542E+02 0.  0.
        -11    1    3    3    0    0 -0.56307691170E+02  0.28623005770E+02 -0.62897140951E+03  0.63213516476E+03  0.00000000000E+00 0.  1.
         12    1    3    3    0    0 -0.13395406326E+02 -0.12738330563E+02 -0.27466547071E+02  0.33107600097E+02  0.00000000000E+00 0. -1.
         11    1    5    5    0    0 -0.44574211056E+02  0.31302843989E+02  0.83927667611E+02  0.10005289463E+03  0.00000000000E+00 0. -1.
        -12    1    5    5    0    0  0.20824830590E+02 -0.20917255373E+02  0.48703116041E+02  0.56949088259E+02  0.00000000000E+00 0.  1.
          5    1    4    4  501    0  0.10213515976E+03  0.17065401896E+02  0.78712588047E+02  0.13013824464E+03  0.41800000000E+01 0. -1.
         -5    1    4    4    0  501 -0.86826817942E+01 -0.43335665719E+02 -0.47076488367E+01  0.44643064904E+02  0.41800000000E+01 0. -1.
</event>
<event>
11    1  0.5813833E-009  0.1387810E+03  0.7561462E-02  0.1108927E+00
         22   -1    0    0    0    0  0.00000000000E+00  0.00000000000E+00  0.70729168696E+03  0.70729168696E+03  0.00000000000E+00 0. -1.
         22   -1    0    0    0    0 -0.00000000000E+00 -0.00000000000E+00 -0.43228519041E+03  0.43228519041E+03  0.00000000000E+00 0.  1.
         24    2    1    2    0    0 -0.34142733317E+02  0.48979269550E+02 -0.34755120295E+03  0.36119509786E+03  0.78136834840E+02 0.  0.
         25    2    1    2    0    0  0.77593360359E+02 -0.22472387875E+02  0.33471385404E+00  0.14890306494E+03  0.12508506276E+03 0.  0.
        -24    2    1    2    0    0 -0.43450627042E+02 -0.26506881675E+02  0.62222298565E+03  0.62947871457E+03  0.80569451194E+02 0.  0.
        -13    1    3    3    0    0 -0.51553578863E+02  0.48721472717E+02 -0.32528223715E+03  0.33292654926E+03  0.00000000000E+00 0.  1.
         14    1    3    3    0    0  0.17410845546E+02  0.25779683257E+00 -0.22268965799E+02  0.28268548593E+02  0.00000000000E+00 0. -1.
         13    1    5    5    0    0  0.50335812021E+00  0.18380072497E+02  0.33318937597E+03  0.33369633006E+03  0.00000000000E+00 0. -1.
        -14    1    5    5    0    0 -0.43953985162E+02 -0.44886954172E+02  0.28903360967E+03  0.29578238451E+03  0.00000000000E+00 0.  1.
          5    1    4    4  501    0 -0.19046090808E+02  0.26728211225E+02 -0.19757207884E+02  0.38535315150E+02  0.41800000000E+01 0. -1.
         -5    1    4    4    0  501  0.96639451167E+02 -0.49200599099E+02  0.20091921738E+02  0.11036774979E+03  0.41800000000E+01 0. -1.
</event>
<event>
11    1  0.5813833E-009  0.2928446E+03  0.7561462E-02  0.1003266E+00
         22   -1    0    0    0    0  0.00000000000E+00  0.00000000000E+00  0.63944076681E+03  0.63944076681E+03  0.00000000000E+00 0.  1.
         22   -1    0    0    0    0 -0.00000000000E+00 -0.00000000000E+00 -0.37521877058E+03  0.37521877058E+03  0.00000000000E+00 0.  1.
         24    2    1    2    0    0  0.14614883407E+03  0.17232745950E+03 -0.76143354838E+02  0.25225496321E+03  0.82331773832E+02 0.  0.
         25    2    1    2    0    0  0.12156046164E+03 -0.25844499306E+03 -0.42874825248E+01  0.31182793754E+03  0.12509004698E+03 0.  0.
        -24    2    1    2    0    0 -0.26770929571E+03  0.86117533557E+02  0.34465283359E+03  0.45057663663E+03  0.71758157619E+02 0.  0.
        -11    1    3    3    0    0  0.65714633373E+02  0.95705575493E+02  0.25425649072E+01  0.11612249935E+03  0.00000000000E+00 0.  1.
         12    1    3    3    0    0  0.80434200695E+02  0.76621884008E+02 -0.78685919745E+02  0.13613246386E+03  0.00000000000E+00 0. -1.
         11    1    5    5    0    0 -0.10000794017E+02 -0.13731808415E+01 -0.15445416330E+01  0.10212106318E+02  0.00000000000E+00 0. -1.
        -12    1    5    5    0    0 -0.25770850169E+03  0.87490714399E+02  0.34619737522E+03  0.44036453032E+03  0.00000000000E+00 0.  1.
          5    1    4    4  501    0  0.63319046804E+02 -0.66866470160E+02 -0.52144497784E+02  0.10591009191E+03  0.41800000000E+01 0.  1.
         -5    1    4    4    0  501  0.58241414836E+02 -0.19157852290E+03  0.47857015259E+02  0.20591784563E+03  0.41800000000E+01 0.  1.
</event>
<event>
11    1  0.5813833E-009  0.1741354E+03  0.7561462E-02  0.1074488E+00
         22   -1    0    0    0    0  0.00000000000E+00  0.00000000000E+00  0.39641114486E+03  0.39641114486E+03  0.00000000000E+00 0. -1.
         22   -1    0    0    0    0 -0.00000000000E+00 -0.00000000000E+00 -0.44180662786E+03  0.44180662786E+03  0.00000000000E+00 0. -1.
         24    2    1    2    0    0 -0.37179402227E+02 -0.61343316795E+02 -0.36252706569E+03  0.37812937950E+03  0.80066496198E+02 0.  0.
         25    2    1    2    0    0  0.14428524297E+03  0.50570617968E+02  0.16867675233E+03  0.25975956839E+03  0.12509023884E+03 0.  0.
        -24    2    1    2    0    0 -0.10710584074E+03  0.10772698827E+02  0.14845483035E+03  0.20032882483E+03  0.80654133432E+02 0.  0.
        -11    1    3    3    0    0 -0.44240966364E+02 -0.23454393135E+02 -0.90881406886E+02  0.10376320051E+03  0.00000000000E+00 0.  1.
         12    1    3    3    0    0  0.70615641365E+01 -0.37888923660E+02 -0.27164565881E+03  0.27436617899E+03  0.00000000000E+00 0. -1.
         11    1    5    5    0    0 -0.51989045548E+02  0.26733962957E+02  0.12564633016E+03  0.13858053946E+03  0.00000000000E+00 0. -1.
        -12    1    5    5    0    0 -0.55116795194E+02 -0.15961264130E+02  0.22808500189E+02  0.61748285369E+02  0.00000000000E+00 0.  1.
          5    1    4    4  501    0  0.13957501416E+03  0.82725961870E+02  0.15441939631E+03  0.22402587285E+03  0.41800000000E+01 0. -1.
         -5    1    4    4    0  501  0.47102288050E+01 -0.32155343902E+02  0.14257356021E+02  0.35733695549E+02  0.41800000000E+01 0. -1.
</event>
<event>
11    1  0.5813833E-009  0.2094686E+03  0.7561462E-02  0.1048023E+00
         22   -1    0    0    0    0  0.00000000000E+00  0.00000000000E+00  0.66918570619E+02  0.66918570619E+02  0.00000000000E+00 0. -1.
         22   -1    0    0    0    0 -0.00000000000E+00 -0.00000000000E+00 -0.12574815164E+04  0.12574815164E+04  0.00000000000E+00 0.  1.
         24    2    1    2    0    0  0.15265940634E+03 -0.97136800800E+02 -0.78479650208E+03  0.80928070329E+03  0.79304820970E+02 0.  0.
         25    2    1    2    0    0 -0.10776788805E+03  0.12608525339E+03 -0.20135115036E+03  0.28931324374E+03  0.12509379854E+03 0.  0.
        -24    2    1    2    0    0 -0.44891518291E+02 -0.28948452594E+02 -0.20441529337E+03  0.22580614002E+03  0.79683997042E+02 0.  0.
        -11    1    3    3    0    0  0.11507136782E+03 -0.98500374638E+02 -0.51303394830E+03  0.53492763586E+03  0.00000000000E+00 0.  1.
         12    1    3    3    0    0  0.37588038521E+02  0.13635738374E+01 -0.27176255378E+03  0.27435306744E+03  0.00000000000E+00 0. -1.
         11    1    5    5    0    0 -0.24567841305E+01 -0.38219971900E+02 -0.15656686714E+03  0.16118308201E+03  0.00000000000E+00 0. -1.
        -12    1    5    5    0    0 -0.42434734160E+02  0.92715193058E+01 -0.47848426223E+02  0.64623058002E+02  0.00000000000E+00 0.  1.
          5    1    4    4  501    0 -0.18494499984E+02 -0.25500669290E+02 -0.30348251000E+02  0.43941090139E+02  0.41800000000E+01 0. -1.
         -5    1    4    4    0  501 -0.89273388065E+02  0.15158592268E+03 -0.17100289936E+03  0.24537215360E+03  0.41800000000E+01 0. -1.
</event>
<event>
11    1  0.5813833E-009  0.1356328E+03  0.7561462E-02  0.1112535E+00
         22   -1    0    0    0    0  0.00000000000E+00  0.00000000000E+00  0.19588058121E+03  0.19588058121E+03  0.00000000000E+00 0.  1.
         22   -1    0    0    0    0 -0.00000000000E+00 -0.00000000000E+00 -0.72607006435E+03  0.72607006435E+03  0.00000000000E+00 0. -1.
         24    2    1    2    0    0  0.27137384630E+02 -0.40295256634E+02 -0.40872382029E+03  0.41899730312E+03  0.78380057405E+02 0.  0.
         25    2    1    2    0    0 -0.60064225447E+02  0.35658319624E+02 -0.28496084775E+03  0.31895209307E+03  0.12509406855E+03 0.  0.
        -24    2    1    2    0    0  0.32926840817E+02  0.46369370101E+01  0.16349518490E+03  0.18400124937E+03  0.77589343684E+02 0.  0.
        -13    1    3    3    0    0  0.21621989351E+02 -0.18208359782E+02 -0.36928016116E+02  0.46505195018E+02  0.00000000000E+00 0.  1.
         14    1    3    3    0    0  0.55153952789E+01 -0.22086896853E+02 -0.37179580417E+03  0.37249210810E+03  0.00000000000E+00 0. -1.
         13    1    5    5    0    0 -0.15213798398E+02 -0.15270962436E+02  0.97854488597E+02  0.10020061324E+03  0.00000000000E+00 0. -1.
        -14    1    5    5    0    0  0.48140639215E+02  0.19907899446E+02  0.65640696303E+02  0.83800636128E+02  0.00000000000E+00 0.  1.
          5    1    4    4  501    0 -0.81296800270E+02  0.16129170550E+02 -0.27637397787E+03  0.28856432198E+03  0.41800000000E+01 0. -1.
         -5    1    4    4    0  501  0.21232574824E+02  0.19529149074E+02 -0.85868698767E+01  0.30387771084E+02  0.41800000000E+01 0. -1.
</event>
<event>
11    1  0.5813833E-009  0.5178761E+03  0.7561462E-02  0.9354440E-01
         22   -1    0    0    0    0  0.00000000000E+00  0.00000000000E+00  0.86957949106E+03  0.86957949106E+03  0.00000000000E+00 0. -1.
         22   -1    0    0    0    0 -0.00000000000E+00 -0.00000000000E+00 -0.42646612519E+03  0.42646612519E+03  0.00000000000E+00 0.  1.
         24    2    1    2    0    0 -0.12116641330E+03 -0.23813593122E+02 -0.34517987420E+02  0.15062124071E+03  0.79037204972E+02 0.  0.
         25    2    1    2    0    0 -0.35823723670E+03  0.27980065081E+03  0.11027746364E+03  0.48418045179E+03  0.12508904412E+03 0.  0.
        -24    2    1    2    0    0  0.47940364999E+03 -0.25598705769E+03  0.36735388965E+03  0.66124392375E+03  0.83291134721E+02 0.  0.
        -13    1    3    3    0    0 -0.11510025073E+03 -0.43171407641E+02 -0.40569840245E+02  0.12945172882E+03  0.00000000000E+00 0.  1.
         14    1    3    3    0    0 -0.60661625616E+01  0.19357814519E+02  0.60518528257E+01  0.21169511893E+02  0.00000000000E+00 0. -1.
         13    1    5    5    0    0  0.27576460583E+03 -0.19238224675E+03  0.21534370281E+03  0.39928681049E+03  0.00000000000E+00 0. -1.
        -14    1    5    5    0    0  0.20363904417E+03 -0.63604810935E+02  0.15201018684E+03  0.26195711326E+03  0.00000000000E+00 0.  1.
          5    1    4    4  501    0 -0.23198552753E+03  0.25055702157E+03  0.72108604655E+02  0.34901752005E+03  0.41800000000E+01 0.  1.
         -5    1    4    4    0  501 -0.12625170917E+03  0.29243629243E+02  0.38168858990E+02  0.13516293174E+03  0.41800000000E+01 0.  1.
</event>
<event>
11    1  0.5813833E-009  0.2136453E+03  0.7561462E-02  0.1045273E+00
         22   -1    0    0    0    0  0.00000000000E+00  0.00000000000E+00  0.11201019219E+04  0.11201019219E+04  0.00000000000E+00 0. -1.
         22   -1    0    0    0    0 -0.00000000000E+00 -0.00000000000E+00 -0.10177079061E+04  0.10177079061E+04  0.00000000000E+00 0. -1.
         24    2    1    2    0    0 -0.77318710423E+02  0.15088725060E+03 -0.79332414712E+03  0.81515412295E+03  0.79799100075E+02 0.  0.
         25    2    1    2    0    0  0.44589216116E+01 -0.21659880628E+03 -0.13502773331E+03  0.28428371511E+03  0.12509922881E+03 0.  0.
        -24    2    1    2    0    0  0.72859788811E+02  0.65711555681E+02  0.10307458963E+04  0.10383719899E+04  0.78439335472E+02 0.  0.
        -11    1    3    3    0    0  0.10543950605E+02  0.40969063837E+02 -0.11878639633E+03  0.12609459560E+03  0.00000000000E+00 0.  1.
         12    1    3    3    0    0 -0.87862661028E+02  0.10991818677E+03 -0.67453775079E+03  0.68905952735E+03  0.00000000000E+00 0. -1.
         13    1    5    5    0    0  0.56666278716E+02  0.50014451821E+02  0.97914622937E+03  0.98205898552E+03  0.00000000000E+00 0. -1.
        -14    1    5    5    0    0  0.16193510095E+02  0.15697103860E+02  0.51599666909E+02  0.56313004394E+02  0.00000000000E+00 0.  1.
          5    1    4    4  501    0  0.60340031482E+02 -0.13920617584E+03 -0.10332996399E+03  0.18361326926E+03  0.41800000000E+01 0.  1.
         -5    1    4    4    0  501 -0.55881109871E+02 -0.77392630448E+02 -0.31697769323E+02  0.10067044585E+03  0.41800000000E+01 0.  1.
</event>
<event>
11    1  0.5813833E-009  0.1438003E+03  0.7561462E-02  0.1103387E+00
         22   -1    0    0    0    0  0.00000000000E+00  0.00000000000E+00  0.90398891345E+03  0.90398891345E+03  0.00000000000E+00 0.  1.
         22   -1    0    0    0    0 -0.00000000000E+00 -0.00000000000E+00 -0.42833934322E+03  0.42833934322E+03  0.00000000000E+00 0.  1.
        -24    2    1    2    0    0  0.18199560616E+02 -0.63258055510E+02 -0.25308369155E+03  0.27284976367E+03  0.77864195957E+02 0.  0.
         25    2    1    2    0    0  0.31953969644E+02  0.10024323506E+03 -0.12121218149E+03  0.20349312458E+03  0.12508915405E+03 0.  0.
         24    2    1    2    0    0 -0.50153530260E+02 -0.36985179548E+02  0.84994544327E+03  0.85598536842E+03  0.80127487787E+02 0.  0.
        -13    1    5    5    0    0  0.45429001465E+01 -0.14188111513E+02  0.55217907888E+03  0.55238001014E+03  0.00000000000E+00 0.  1.
         14    1    5    5    0    0 -0.54696430407E+02 -0.22797068035E+02  0.29776636440E+03  0.30360535828E+03  0.00000000000E+00 0. -1.
         13    1    3    3    0    0 -0.57535722970E+01 -0.43153102536E+02 -0.45683964443E+02  0.63105613537E+02  0.00000000000E+00 0. -1.
        -14    1    3    3    0    0  0.23953132913E+02 -0.20104952974E+02 -0.20739972711E+03  0.20974415013E+03  0.00000000000E+00 0.  1.
          5    1    4    4  501    0  0.46006771325E+02  0.12066074318E+03 -0.12287583114E+03  0.17830193558E+03  0.41800000000E+01 0.  1.
         -5    1    4    4    0  501 -0.14052801681E+02 -0.20417508124E+02  0.16636496575E+01  0.25191189001E+02  0.41800000000E+01 0.  1.
</event>
<event>
11    1  0.5813833E-009  0.1511836E+03  0.7561462E-02  0.1095675E+00
         22   -1    0    0    0    0  0.00000000000E+00  0.00000000000E+00  0.31748128590E+03  0.31748128590E+03  0.00000000000E+00 0.  1.
         22   -1    0    0    0    0 -0.00000000000E+00 -0.00000000000E+00 -0.39488457178E+03  0.39488457178E+03  0.00000000000E+00 0. -1.
        -24    2    1    2    0    0  0.13477104793E+02  0.15713291533E+02 -0.32310888905E+03  0.33306981397E+03  0.78151179871E+02 0.  0.
         25    2    1    2    0    0 -0.56198136951E+02  0.59581628402E+02  0.63454064600E+02  0.16242751015E+03  0.12509227274E+03 0.  0.
         24    2    1    2    0    0  0.42721032157E+02 -0.75294919936E+02  0.18225153856E+03  0.21686853356E+03  0.79510540073E+02 0.  0.
        -13    1    5    5    0    0  0.12460296652E+02 -0.79260366485E+02  0.16035216197E+03  0.17930499306E+03  0.00000000000E+00 0.  1.
         14    1    5    5    0    0  0.30260735505E+02  0.39654465491E+01  0.21899376593E+02  0.37563540499E+02  0.00000000000E+00 0. -1.
         11    1    3    3    0    0 -0.90926943365E+01 -0.12494279561E+01 -0.28740594040E+03  0.28755245215E+03  0.00000000000E+00 0. -1.
        -12    1    3    3    0    0  0.22569799130E+02  0.16962719490E+02 -0.35702948643E+02  0.45517361820E+02  0.00000000000E+00 0.  1.
          5    1    4    4  501    0 -0.94686348383E+02  0.55754560548E+02  0.53421915678E+02  0.12225158104E+03  0.41800000000E+01 0. -1.
         -5    1    4    4    0  501  0.38488211433E+02  0.38270678540E+01  0.10032148922E+02  0.40175929107E+02  0.41800000000E+01 0. -1.
</event>
<event>
11    1  0.5813833E-009  0.1771826E+03  0.7561462E-02  0.1071945E+00
         22   -1    0    0    0    0  0.00000000000E+00  0.00000000000E+00  0.61230261886E+03  0.61230261886E+03  0.00000000000E+00 0.  1.
         22   -1    0    0    0    0 -0.00000000000E+00 -0.00000000000E+00 -0.43721927799E+03  0.43721927799E+03  0.00000000000E+00 0. -1.
        -24    2    1    2    0    0 -0.59353440872E+02  0.10782651009E+03 -0.36017136325E+03  0.38898979099E+03  0.80251226563E+02 0.  0.
         25    2    1    2    0    0  0.71510741474E+02 -0.13578766826E+03  0.10936661221E+03  0.22618695212E+03  0.12508958569E+03 0.  0.
         24    2    1    2    0    0 -0.12157300602E+02  0.27961158165E+02  0.42588809191E+03  0.43434515374E+03  0.79658141000E+02 0.  0.
        -11    1    5    5    0    0 -0.36093691215E+02  0.12135994294E+02  0.36558746316E+03  0.36756527328E+03  0.00000000000E+00 0.  1.
         12    1    5    5    0    0  0.23936390613E+02  0.15825163872E+02  0.60300628752E+02  0.66779880466E+02  0.00000000000E+00 0. -1.
         11    1    3    3    0    0 -0.17226140319E+02  0.10310296834E+03 -0.25410839997E+03  0.27476906836E+03  0.00000000000E+00 0. -1.
        -12    1    3    3    0    0 -0.42127300553E+02  0.47235417565E+01 -0.10606296328E+03  0.11422072263E+03  0.00000000000E+00 0.  1.
          5    1    4    4  501    0  0.32436957244E+02 -0.98440453759E+02  0.13162140997E+03  0.16758385094E+03  0.41800000000E+01 0. -1.
         -5    1    4    4    0  501  0.39073784230E+02 -0.37347214498E+02 -0.22254797765E+02  0.58603101184E+02  0.41800000000E+01 0. -1.
</event>
<event>
11    1  0.5813833E-009  0.1661211E+03  0.7561462E-02  0.1081457E+00
         22   -1    0    0    0    0  0.00000000000E+00  0.00000000000E+00  0.22285697579E+04  0.22285697579E+04  0.00000000000E+00 0.  1.
         22   -1    0    0    0    0 -0.00000000000E+00 -0.00000000000E+00 -0.26648723557E+03  0.26648723557E+03  0.00000000000E+00 0.  1.
         24    2    1    2    0    0  0.45255532449E+02 -0.63306779310E+01 -0.23312364675E+03  0.25039279402E+03  0.79131383909E+02 0.  0.
         25    2    1    2    0    0 -0.69462018809E+02 -0.99770979340E+02  0.31942169415E+03  0.36394615566E+03  0.12508942863E+03 0.  0.
        -24    2    1    2    0    0  0.24206486360E+02  0.10610165727E+03  0.18757844749E+04  0.18807180438E+04  0.81789046724E+02 0.  0.
        -13    1    3    3    0    0  0.45363146322E+02 -0.21432909782E+02 -0.22942104953E+03  0.23484293184E+03  0.00000000000E+00 0.  1.
         14    1    3    3    0    0 -0.10761387322E+00  0.15102231851E+02 -0.37025972242E+01  0.15549862181E+02  0.00000000000E+00 0. -1.
         13    1    5    5    0    0  0.51716287666E+02  0.81473392218E+02  0.11722688585E+04  0.11762341453E+04  0.00000000000E+00 0. -1.
        -14    1    5    5    0    0 -0.27509801306E+02  0.24628265053E+02  0.70351561644E+03  0.70448389845E+03  0.00000000000E+00 0.  1.
          5    1    4    4  501    0  0.15537129018E+02 -0.10844519011E+02  0.16657153648E+03  0.16769780898E+03  0.41800000000E+01 0. -1.
         -5    1    4    4    0  501 -0.84999147827E+02 -0.88926460330E+02  0.15285015767E+03  0.19624834669E+03  0.41800000000E+01 0. -1.
</event>
<event>
11    1  0.5813833E-009  0.1873241E+03  0.7561462E-02  0.1063868E+00
         22   -1    0    0    0    0  0.00000000000E+00  0.00000000000E+00  0.48974113366E+03  0.48974113366E+03  0.00000000000E+00 0. -1.
         22   -1    0    0    0    0 -0.00000000000E+00 -0.00000000000E+00 -0.30414949209E+03  0.30414949209E+03  0.00000000000E+00 0.  1.
         24    2    1    2    0    0  0.48633364636E+02 -0.64358584550E+01 -0.15620593761E+03  0.18263259102E+03  0.80918131015E+02 0.  0.
         25    2    1    2    0    0 -0.67962018288E+02 -0.13148455726E+03 -0.39308751409E+02  0.19773577944E+03  0.12508891160E+03 0.  0.
        -24    2    1    2    0    0  0.19328653652E+02  0.13792041572E+03  0.38110633060E+03  0.41352225529E+03  0.79768304965E+02 0.  0.
        -11    1    3    3    0    0  0.40047909784E+02 -0.41011469042E+02 -0.11236783587E+03  0.12614398998E+03  0.00000000000E+00 0.  1.
         12    1    3    3    0    0  0.85854548517E+01  0.34575610587E+02 -0.43838101746E+02  0.56488601037E+02  0.00000000000E+00 0. -1.
         13    1    5    5    0    0  0.16703227062E+02  0.95778999926E+02  0.34345210096E+03  0.35694811987E+03  0.00000000000E+00 0. -1.
        -14    1    5    5    0    0  0.26254265895E+01  0.42141415792E+02  0.37654229635E+02  0.56574135426E+02  0.00000000000E+00 0.  1.
          5    1    4    4  501    0 -0.57537596066E+01 -0.81630536189E+02 -0.74266410561E+02  0.11058762284E+03  0.41800000000E+01 0. -1.
         -5    1    4    4    0  501 -0.62208258681E+02 -0.49854021074E+02  0.34957659152E+02  0.87148156600E+02  0.41800000000E+01 0. -1.
</event>
<event>
11    1  0.5813833E-009  0.1639174E+03  0.7561462E-02  0.1083450E+00
         22   -1    0    0    0    0  0.00000000000E+00  0.00000000000E+00  0.14779494032E+03  0.14779494032E+03  0.00000000000E+00 0. -1.
         22   -1    0    0    0    0 -0.00000000000E+00 -0.00000000000E+00 -0.42259275830E+04  0.42259275830E+04  0.00000000000E+00 0.  1.
        -24    2    1    2    0    0 -0.93294865580E+01 -0.23146141188E+02 -0.38923892305E+04  0.38933040123E+04  0.80619025635E+02 0.  0.
         25    2    1    2    0    0  0.92271829441E+02  0.85692222616E+02 -0.27510764019E+03  0.32739680445E+03  0.12508879384E+03 0.  0.
         24    2    1    2    0    0 -0.82942342883E+02 -0.62546081429E+02  0.89364227991E+02  0.15302170659E+03  0.68104573256E+02 0.  0.
        -13    1    5    5    0    0 -0.18601375777E+02  0.58319340737E+01 -0.47691445124E+01  0.20069065131E+02  0.00000000000E+00 0.  1.
         14    1    5    5    0    0 -0.64340967105E+02 -0.68378015502E+02  0.94133372503E+02  0.13295264146E+03  0.00000000000E+00 0. -1.
         13    1    3    3    0    0 -0.34707547681E+02  0.35107426489E+01 -0.88172894749E+03  0.88241876455E+03  0.00000000000E+00 0. -1.
        -14    1    3    3    0    0  0.25378061123E+02 -0.26656883837E+02 -0.30106602830E+04  0.30108852477E+04  0.00000000000E+00 0.  1.
          5    1    4    4  501    0 -0.47172971466E+01  0.75106886453E+02 -0.15693495691E+03  0.17409580806E+03  0.41800000000E+01 0. -1.
         -5    1    4    4    0  501  0.96989126587E+02  0.10585336164E+02 -0.11817268328E+03  0.15330099638E+03  0.41800000000E+01 0. -1.
</event>
<event>
11    1  0.5813833E-009  0.2154914E+03  0.7561462E-02  0.1044079E+00
         22   -1    0    0    0    0  0.00000000000E+00  0.00000000000E+00  0.24281615493E+04  0.24281615493E+04  0.00000000000E+00 0. -1.
         22   -1    0    0    0    0 -0.00000000000E+00 -0.00000000000E+00 -0.44968553354E+02  0.44968553354E+02  0.00000000000E+00 0.  1.
        -24    2    1    2    0    0  0.19248886329E+03  0.42926434443E+02  0.56178230827E+03  0.60065451162E+03  0.79321114288E+02 0.  0.
         25    2    1    2    0    0 -0.15852932237E+03  0.70513815716E+02  0.50598597504E+03  0.54933822881E+03  0.12508772300E+03 0.  0.
         24    2    1    2    0    0 -0.33959540923E+02 -0.11344025016E+03  0.13154247126E+04  0.13231373622E+04  0.79551014566E+02 0.  0.
        -13    1    5    5    0    0  0.19423107825E+02 -0.27133190571E+02  0.17122958190E+03  0.17445067173E+03  0.00000000000E+00 0.  1.
         14    1    5    5    0    0 -0.53382648748E+02 -0.86307059588E+02  0.11441951307E+04  0.11486866905E+04  0.00000000000E+00 0. -1.
         13    1    3    3    0    0  0.17121285932E+03  0.63194014372E+02  0.46587545316E+03  0.50034714400E+03  0.00000000000E+00 0. -1.
        -14    1    3    3    0    0  0.21276003971E+02 -0.20267579929E+02  0.95906855108E+02  0.10030736761E+03  0.00000000000E+00 0.  1.
          5    1    4    4  501    0 -0.17385399103E+03  0.45249075464E+02  0.46598064121E+03  0.49942779199E+03  0.41800000000E+01 0. -1.
         -5    1    4    4    0  501  0.15324668662E+02  0.25264740252E+02  0.40005333824E+02  0.49910436824E+02  0.41800000000E+01 0. -1.
</event>
<event>
11    1  0.5813833E-009  0.1287044E+03  0.7561462E-02  0.1120871E+00
         22   -1    0    0    0    0  0.00000000000E+00  0.00000000000E+00  0.38679870601E+03  0.38679870601E+03  0.00000000000E+00 0. -1.
         22   -1    0    0    0    0 -0.00000000000E+00 -0.00000000000E+00 -0.10750844067E+04  0.10750844067E+04  0.00000000000E+00 0.  1.
        -24    2    1    2    0    0 -0.15673370776E+02 -0.81987006006E+01 -0.78256174375E+03  0.78697016543E+03  0.81279057886E+02 0.  0.
         25    2    1    2    0    0 -0.98565831329E+00 -0.17423373997E+02 -0.27143498784E+03  0.29937960141E+03  0.12508656057E+03 0.  0.
         24    2    1    2    0    0  0.16659029089E+02  0.25622074598E+02  0.36571103086E+03  0.37553334592E+03  0.79666315649E+02 0.  0.
        -11    1    5    5    0    0 -0.32276471449E+02  0.12857546524E+02  0.14594941897E+03  0.15002773080E+03  0.00000000000E+00 0.  1.
         12    1    5    5    0    0  0.48935500538E+02  0.12764528074E+02  0.21976161189E+03  0.22550561512E+03  0.00000000000E+00 0. -1.
         11    1    3    3    0    0 -0.32782502047E+02  0.25634742943E+02 -0.29271929345E+03  0.29566267476E+03  0.00000000000E+00 0. -1.
        -12    1    3    3    0    0  0.17109131271E+02 -0.33833443544E+02 -0.48984245030E+03  0.49130749067E+03  0.00000000000E+00 0.  1.
          5    1    4    4  501    0  0.55714679711E+02  0.18562148844E+02 -0.11969932427E+03  0.13339445092E+03  0.41800000000E+01 0.  1.
         -5    1    4    4    0  501 -0.56700338024E+02 -0.35985522842E+02 -0.15173566357E+03  0.16598515049E+03  0.41800000000E+01 0.  1.
</event>
<event>
11    1  0.5813833E-009  0.1627219E+03  0.7561462E-02  0.1084545E+00
         22   -1    0    0    0    0  0.00000000000E+00  0.00000000000E+00  0.35222585915E+03  0.35222585915E+03  0.00000000000E+00 0. -1.
         22   -1    0    0    0    0 -0.00000000000E+00 -0.00000000000E+00 -0.17084157543E+03  0.17084157543E+03  0.00000000000E+00 0.  1.
        -24    2    1    2    0    0  0.97903633926E+00 -0.26501610492E+02 -0.86443282376E+02  0.12317455301E+03  0.83643502863E+02 0.  0.
         25    2    1    2    0    0 -0.91569247709E+02 -0.34313724356E+02  0.11519075696E+03  0.19615778349E+03  0.12508639706E+03 0.  0.
         24    2    1    2    0    0  0.90590211370E+02  0.60815334849E+02  0.15263680914E+03  0.20373509808E+03  0.79403421436E+02 0.  0.
        -11    1    5    5    0    0  0.21843321322E+02  0.12497103917E+02  0.10323996138E+03  0.10626287178E+03  0.00000000000E+00 0.  1.
         12    1    5    5    0    0  0.68746890048E+02  0.48318230931E+02  0.49396847762E+02  0.97472226303E+02  0.00000000000E+00 0. -1.
         11    1    3    3    0    0  0.25733929712E+02  0.21632054668E+02 -0.32666723587E+02  0.46875321412E+02  0.00000000000E+00 0. -1.
        -12    1    3    3    0    0 -0.24754893373E+02 -0.48133665160E+02 -0.53776558789E+02  0.76299231601E+02  0.00000000000E+00 0.  1.
          5    1    4    4  501    0  0.70804096171E+00 -0.57489816646E+02  0.18746811218E+02  0.60617618486E+02  0.41800000000E+01 0.  1.
         -5    1    4    4    0  501 -0.92277288671E+02  0.23176092290E+02  0.96443945741E+02  0.13554016500E+03  0.41800000000E+01 0.  1.
</event>
<event>
11    1  0.5813833E-009  0.1799919E+03  0.7561462E-02  0.1069649E+00
         22   -1    0    0    0    0  0.00000000000E+00  0.00000000000E+00  0.32860731901E+03  0.32860731901E+03  0.00000000000E+00 0. -1.
         22   -1    0    0    0    0 -0.00000000000E+00 -0.00000000000E+00 -0.12582994632E+04  0.12582994632E+04  0.00000000000E+00 0. -1.
        -24    2    1    2    0    0  0.59780290813E+02 -0.20597301690E+02 -0.10649759571E+04  0.10698452200E+04  0.79981707616E+02 0.  0.
         25    2    1    2    0    0  0.41240573333E+02 -0.70022407534E+02 -0.13749827445E+03  0.20287298026E+03  0.12509095970E+03 0.  0.
         24    2    1    2    0    0 -0.10102086415E+03  0.90619709225E+02  0.27278208744E+03  0.31418858187E+03  0.76728424021E+02 0.  0.
        -13    1    5    5    0    0  0.23341547549E+01 -0.10823809545E+02  0.20048730107E+02  0.22903159397E+02  0.00000000000E+00 0.  1.
         14    1    5    5    0    0 -0.10335501890E+03  0.10144351877E+03  0.25273335734E+03  0.29128542247E+03  0.00000000000E+00 0. -1.
         11    1    3    3    0    0  0.11031278885E+01  0.50175071981E+01 -0.64470480777E+03  0.64472527593E+03  0.00000000000E+00 0. -1.
        -12    1    3    3    0    0  0.58677162924E+02 -0.25614808889E+02 -0.42027114937E+03  0.42511994410E+03  0.00000000000E+00 0.  1.
          5    1    4    4  501    0  0.59660471847E+02 -0.59780341431E+02 -0.15406211167E+03  0.17574318699E+03  0.41800000000E+01 0. -1.
         -5    1    4    4    0  501 -0.18419898514E+02 -0.10242066103E+02  0.16563837221E+02  0.27129793268E+02  0.41800000000E+01 0. -1.
</event>
<event>
11    1  0.5813833E-009  0.1449481E+03  0.7561462E-02  0.1102156E+00
         22   -1    0    0    0    0  0.00000000000E+00  0.00000000000E+00  0.15963455181E+04  0.15963455181E+04  0.00000000000E+00 0.  1.
         22   -1    0    0    0    0 -0.00000000000E+00 -0.00000000000E+00 -0.13149684072E+04  0.13149684072E+04  0.00000000000E+00 0. -1.
        -24    2    1    2    0    0  0.46554955395E+02 -0.57982339109E+02 -0.12759853756E+04  0.12807416644E+04  0.81432282946E+02 0.  0.
         25    2    1    2    0    0 -0.40301730773E+02 -0.15037019125E+02  0.91881945592E+02  0.16105422661E+03  0.12508329439E+03 0.  0.
         24    2    1    2    0    0 -0.62532246212E+01  0.73019358234E+02  0.14654805409E+04  0.14695180343E+04  0.80492905790E+02 0.  0.
        -11    1    5    5    0    0 -0.23080227329E+02  0.34565787164E+02  0.12017210694E+04  0.12024396114E+04  0.00000000000E+00 0.  1.
         12    1    5    5    0    0  0.16827002708E+02  0.38453571070E+02  0.26375947150E+03  0.26707842285E+03  0.00000000000E+00 0. -1.
         13    1    3    3    0    0  0.38990510467E+02 -0.62841547679E+02 -0.12616799860E+04  0.12638456026E+04  0.00000000000E+00 0. -1.
        -14    1    3    3    0    0  0.75644449277E+01  0.48592085702E+01 -0.14305389628E+02  0.16896061890E+02  0.00000000000E+00 0.  1.
          5    1    4    4  501    0 -0.79775805538E+02 -0.31355136541E+02  0.42945740159E+02  0.95964226327E+02  0.41800000000E+01 0. -1.
         -5    1    4    4    0  501  0.39474074764E+02  0.16318117415E+02  0.48936205433E+02  0.65090000281E+02  0.41800000000E+01 0. -1.
</event>
<event>
11    1  0.5813833E-009  0.2245008E+03  0.7561462E-02  0.1038434E+00
         22   -1    0    0    0    0  0.00000000000E+00  0.00000000000E+00  0.10351438613E+03  0.10351438613E+03  0.00000000000E+00 0. -1.
         22   -1    0    0    0    0 -0.00000000000E+00 -0.00000000000E+00 -0.40116380371E+04  0.40116380371E+04  0.00000000000E+00 0.  1.
        -24    2    1    2    0    0  0.80385437345E+02 -0.17961563037E+03 -0.24374798110E+04  0.24466325153E+04  0.77325562642E+02 0.  0.
         25    2    1    2    0    0 -0.11370694684E+03  0.13205983993E+03 -0.15348164589E+04  0.15497351068E+04  0.12509303589E+03 0.  0.
         24    2    1    2    0    0  0.33321509499E+02  0.47555790438E+02  0.64172618867E+02  0.11878480122E+03  0.81362324136E+02 0.  0.
        -11    1    5    5    0    0  0.42960124450E+02  0.52645306613E+02  0.16556737699E+02  0.69937301666E+02  0.00000000000E+00 0.  1.
         12    1    5    5    0    0 -0.96386149516E+01 -0.50895161750E+01  0.47615881168E+02  0.48847499553E+02  0.00000000000E+00 0. -1.
         13    1    3    3    0    0 -0.79754517337E+01 -0.39620432856E+02 -0.29330990878E+03  0.29608122048E+03  0.00000000000E+00 0. -1.
        -14    1    3    3    0    0  0.88360889079E+02 -0.13999519751E+03 -0.21441699022E+04  0.21505512948E+04  0.00000000000E+00 0.  1.
          5    1    4    4  501    0 -0.95463229077E+02  0.14573760798E+03 -0.14799110385E+04  0.14901365148E+04  0.41800000000E+01 0.  1.
         -5    1    4    4    0  501 -0.18243717766E+02 -0.13677768051E+02 -0.54905420342E+02  0.59598591927E+02  0.41800000000E+01 0.  1.
</event>
<event>
11    1  0.5813833E-009  0.1464409E+03  0.7561462E-02  0.1100572E+00
         22   -1    0    0    0    0  0.00000000000E+00  0.00000000000E+00  0.13818668686E+03  0.13818668686E+03  0.00000000000E+00 0.  1.
         22   -1    0    0    0    0 -0.00000000000E+00 -0.00000000000E+00 -0.60281185557E+03  0.60281185557E+03  0.00000000000E+00 0.  1.
        -24    2    1    2    0    0 -0.57935623970E+02 -0.42944894137E+02 -0.35745508810E+03  0.37327462013E+03  0.79743348098E+02 0.  0.
         25    2    1    2    0    0  0.26489733242E+02 -0.34989647433E+02 -0.18502717220E+03  0.22761601237E+03  0.12509201908E+03 0.  0.
         24    2    1    2    0    0  0.31445890728E+02  0.77934541570E+02  0.77857091592E+02  0.14010790993E+03  0.80658929453E+02 0.  0.
        -11    1    5    5    0    0 -0.18165497717E+02  0.49748917620E+02  0.60631849059E+02  0.80505659627E+02  0.00000000000E+00 0.  1.
         12    1    5    5    0    0  0.49611388445E+02  0.28185623950E+02  0.17225242532E+02  0.59602250303E+02  0.00000000000E+00 0. -1.
         11    1    3    3    0    0  0.17551211390E+02  0.48024572260E+01 -0.60663877489E+02  0.63334150730E+02  0.00000000000E+00 0. -1.
        -12    1    3    3    0    0 -0.75486835360E+02 -0.47747351363E+02 -0.29679121061E+03  0.30994046940E+03  0.00000000000E+00 0.  1.
          5    1    4    4  501    0 -0.38644446385E+02  0.18607508919E+02 -0.35273980266E+02  0.55689843853E+02  0.41800000000E+01 0. -1.
         -5    1    4    4    0  501  0.65134179627E+02 -0.53597156352E+02 -0.14975319194E+03  0.17192616852E+03  0.41800000000E+01 0. -1.
</event>
<event>
11    1  0.5813833E-009  0.1548956E+03  0.7561462E-02  0.1091979E+00
         22   -1    0    0    0    0  0.00000000000E+00  0.00000000000E+00  0.86782920485E+02  0.86782920485E+02  0.00000000000E+00 0.  1.
         22   -1    0    0    0    0 -0.00000000000E+00 -0.00000000000E+00 -0.13355121450E+04  0.13355121450E+04  0.00000000000E+00 0.  1.
         24    2    1    2    0    0 -0.61897887418E+01  0.94675454592E+02 -0.11043998812E+04  0.11112597324E+04  0.78723186876E+02 0.  0.
         25    2    1    2    0    0  0.28241337691E+01 -0.65414529364E+02 -0.17270854933E+03  0.22307587477E+03  0.12509023347E+03 0.  0.
        -24    2    1    2    0    0  0.33656549727E+01 -0.29260925228E+02  0.28379206035E+02  0.87959458260E+02  0.77871416988E+02 0.  0.
        -13    1    3    3    0    0 -0.58148164106E+00  0.10718903710E+03 -0.89195115711E+03  0.89836890778E+03  0.00000000000E+00 0.  1.
         14    1    3    3    0    0 -0.56083071007E+01 -0.12513582503E+02 -0.21244872406E+03  0.21289082463E+03  0.00000000000E+00 0. -1.
         11    1    5    5    0    0  0.30446707396E+02 -0.41316925171E+02  0.27671054696E+02  0.58307611551E+02  0.00000000000E+00 0. -1.
        -12    1    5    5    0    0 -0.27081052423E+02  0.12055999943E+02  0.70815133835E+00  0.29651846709E+02  0.00000000000E+00 0.  1.
          5    1    4    4  501    0 -0.55689335676E+02 -0.50154737184E+02 -0.12554783565E+03  0.14627553181E+03  0.41800000000E+01 0. -1.
         -5    1    4    4    0  501  0.58513469445E+02 -0.15259792180E+02 -0.47160713684E+02  0.76800342962E+02  0.41800000000E+01 0. -1.
</event>
<event>
11    1  0.5813833E-009  0.1380319E+03  0.7561462E-02  0.1109776E+00
         22   -1    0    0    0    0  0.00000000000E+00  0.00000000000E+00  0.94498815211E+03  0.94498815211E+03  0.00000000000E+00 0.  1.
         22   -1    0    0    0    0 -0.00000000000E+00 -0.00000000000E+00 -0.12813466095E+03  0.12813466095E+03  0.00000000000E+00 0. -1.
         24    2    1    2    0    0 -0.60952941438E+02 -0.38433763080E+01 -0.82397757640E+02  0.13176931992E+03  0.82726843270E+02 0.  0.
         25    2    1    2    0    0  0.31575751497E+02  0.58870708961E+02  0.28294448927E+03  0.31649599129E+03  0.12509732227E+03 0.  0.
        -24    2    1    2    0    0  0.29377189941E+02 -0.55027332653E+02  0.61630675952E+03  0.62485750185E+03  0.81986884007E+02 0.  0.
        -11    1    3    3    0    0 -0.25851613049E+02  0.23918881405E+02  0.30086418744E+01  0.35347852988E+02  0.00000000000E+00 0.  1.
         12    1    3    3    0    0 -0.35101328388E+02 -0.27762257713E+02 -0.85406399514E+02  0.96421466935E+02  0.00000000000E+00 0. -1.
         13    1    5    5    0    0 -0.18654842324E+02 -0.51107341553E+02  0.35484756087E+03  0.35899408764E+03  0.00000000000E+00 0. -1.
        -14    1    5    5    0    0  0.48032032265E+02 -0.39199911007E+01  0.26145919865E+03  0.26586341421E+03  0.00000000000E+00 0.  1.
          5    1    4    4  501    0  0.15313257781E+02 -0.38902779270E+02  0.97923098343E+02  0.10655668767E+03  0.41800000000E+01 0.  1.
         -5    1    4    4    0  501  0.16262493716E+02  0.97773488231E+02  0.18502139093E+03  0.20993930362E+03  0.41800000000E+01 0.  1.
</event>
<event>
11    1  0.5813833E-009  0.1296945E+03  0.7561462E-02  0.1119645E+00
         22   -1    0    0    0    0  0.00000000000E+00  0.00000000000E+00  0.42570765396E+03  0.42570765396E+03  0.00000000000E+00 0.  1.
         22   -1    0    0    0    0 -0.00000000000E+00 -0.00000000000E+00 -0.38198969996E+03  0.38198969996E+03  0.00000000000E+00 0. -1.
         24    2    1    2    0    0  0.13144470555E+02 -0.17497336126E+02 -0.31980599652E+03  0.33046597996E+03  0.80330284619E+02 0.  0.
         25    2    1    2    0    0 -0.43919632735E+02  0.27927164667E+02  0.37852884483E+02  0.14067585742E+03  0.12509194750E+03 0.  0.
        -24    2    1    2    0    0  0.30775162181E+02 -0.10429828541E+02  0.32567106603E+03  0.33655551655E+03  0.78435199612E+02 0.  0.
        -11    1    3    3    0    0  0.10461721661E+02  0.36746075267E+01 -0.12078790642E+01  0.11153893151E+02  0.00000000000E+00 0.  1.
         12    1    3    3    0    0  0.26827488936E+01 -0.21171943653E+02 -0.31859811745E+03  0.31931208681E+03  0.00000000000E+00 0. -1.
         13    1    5    5    0    0  0.16639930675E+02 -0.29985082984E+02  0.55027022059E+02  0.64837995428E+02  0.00000000000E+00 0. -1.
        -14    1    5    5    0    0  0.14135231506E+02  0.19555254443E+02  0.27064404397E+03  0.27171752112E+03  0.00000000000E+00 0.  1.
          5    1    4    4  501    0  0.27101028459E+02 -0.27957826987E+02  0.31004557077E+02  0.49948581490E+02  0.41800000000E+01 0.  1.
         -5    1    4    4    0  501 -0.71020661194E+02  0.55884991654E+02  0.68483274063E+01  0.90727275925E+02  0.41800000000E+01 0.  1.
</event>
<event>
11    1  0.5813833E-009  0.1334707E+03  0.7561462E-02  0.1115077E+00
         22   -1    0    0    0    0  0.00000000000E+00  0.00000000000E+00  0.20103163537E+03  0.20103163537E+03  0.00000000000E+00 0. -1.
         22   -1    0    0    0    0 -0.00000000000E+00 -0.00000000000E+00 -0.19767763240E+04  0.19767763240E+04  0.00000000000E+00 0.  1.
         24    2    1    2    0    0  0.45027010452E+02 -0.12247488736E+02 -0.19135868777E+04  0.19158755763E+04  0.81160660557E+02 0.  0.
         25    2    1    2    0    0 -0.38583246751E+02 -0.10778461226E+02  0.11516388615E+03  0.17468111897E+03  0.12508369396E+03 0.  0.
        -24    2    1    2    0    0 -0.64437637013E+01  0.23025949962E+02  0.22678302892E+02  0.87251264083E+02  0.80788372925E+02 0.  0.
        -11    1    3    3    0    0  0.57999402280E+02 -0.23942944724E+02 -0.17856306420E+04  0.17867327681E+04  0.00000000000E+00 0.  1.
         12    1    3    3    0    0 -0.12972391827E+02  0.11695455988E+02 -0.12795623576E+03  0.12914280820E+03  0.00000000000E+00 0. -1.
         13    1    5    5    0    0 -0.21896357254E+02  0.27222561481E+02  0.46736969756E+02  0.58351200986E+02  0.00000000000E+00 0. -1.
        -14    1    5    5    0    0  0.15452593553E+02 -0.41966115189E+01 -0.24058666864E+02  0.28900063097E+02  0.00000000000E+00 0.  1.
          5    1    4    4  501    0 -0.76806708150E+02  0.18297529855E+02  0.49725717129E+02  0.93403369102E+02  0.41800000000E+01 0. -1.
         -5    1    4    4    0  501  0.38223461399E+02 -0.29075991081E+02  0.65438169025E+02  0.81277749870E+02  0.41800000000E+01 0. -1.
</event>
<event>
11    1  0.5813833E-009  0.1446894E+03  0.7561462E-02  0.1102432E+00
         22   -1    0    0    0    0  0.00000000000E+00  0.00000000000E+00  0.48134638335E+03  0.48134638335E+03  0.00000000000E+00 0. -1.
         22   -1    0    0    0    0 -0.00000000000E+00 -0.00000000000E+00 -0.17614855130E+04  0.17614855130E+04  0.00000000000E+00 0.  1.
         24    2    1    2    0    0 -0.22746223779E+01 -0.73215751088E+02 -0.15906181542E+04  0.15943386637E+04  0.80522929209E+02 0.  0.
         25    2    1    2    0    0 -0.52513860898E+02  0.63549657851E+02 -0.12897373903E+03  0.19767937448E+03  0.12508655059E+03 0.  0.
        -24    2    1    2    0    0  0.54788483276E+02  0.96660932371E+01  0.43945276357E+03  0.45081385813E+03  0.83780618338E+02 0.  0.
        -11    1    3    3    0    0  0.11211205136E+02  0.78829608022E+01 -0.64722032410E+03  0.64736541468E+03  0.00000000000E+00 0.  1.
         12    1    3    3    0    0 -0.13485827514E+02 -0.81098711890E+02 -0.94339783010E+03  0.94697324907E+03  0.00000000000E+00 0. -1.
         11    1    5    5    0    0  0.30735313295E+02  0.44306467267E+02  0.31029015453E+03  0.31494079209E+03  0.00000000000E+00 0. -1.
        -12    1    5    5    0    0  0.24053169982E+02 -0.34640374030E+02  0.12916260905E+03  0.13587306604E+03  0.00000000000E+00 0.  1.
          5    1    4    4  501    0 -0.45928059172E+01 -0.25667234065E+02  0.77140988717E+01  0.27511461106E+02  0.41800000000E+01 0. -1.
         -5    1    4    4    0  501 -0.47921054981E+02  0.89216891917E+02 -0.13668783790E+03  0.17016791338E+03  0.41800000000E+01 0. -1.
</event>
<event>
11    1  0.5813833E-009  0.1259381E+03  0.7561462E-02  0.1124363E+00
         22   -1    0    0    0    0  0.00000000000E+00  0.00000000000E+00  0.87427596747E+02  0.87427596747E+02  0.00000000000E+00 0. -1.
         22   -1    0    0    0    0 -0.00000000000E+00 -0.00000000000E+00 -0.27889016496E+04  0.27889016496E+04  0.00000000000E+00 0.  1.
        -24    2    1    2    0    0  0.13264539861E+02  0.64448232470E+01 -0.26534013883E+04  0.26547986425E+04  0.84849402334E+02 0.  0.
         25    2    1    2    0    0 -0.22600376589E+01 -0.10772728857E+02 -0.59632799582E+02  0.13901148107E+03  0.12508781566E+03 0.  0.
         24    2    1    2    0    0 -0.11004502202E+02  0.43279056101E+01  0.11560134972E+02  0.82519122824E+02  0.80845154928E+02 0.  0.
        -13    1    5    5    0    0  0.20852809790E+02  0.85237563162E+01 -0.25128919710E+02  0.33748432610E+02  0.00000000000E+00 0.  1.
         14    1    5    5    0    0 -0.31857311991E+02 -0.41958507061E+01  0.36689054682E+02  0.48770690214E+02  0.00000000000E+00 0. -1.
         13    1    3    3    0    0 -0.19187691189E+02 -0.19520152296E+02 -0.36690483237E+03  0.36792439422E+03  0.00000000000E+00 0. -1.
        -14    1    3    3    0    0  0.32452231050E+02  0.25964975543E+02 -0.22864965559E+04  0.22868742482E+04  0.00000000000E+00 0.  1.
          5    1    4    4  501    0  0.49943290226E+02  0.17895024562E+02  0.19318014994E+01  0.53251933295E+02  0.41800000000E+01 0. -1.
         -5    1    4    4    0  501 -0.52203327885E+02 -0.28667753419E+02 -0.61564601081E+02  0.85759547775E+02  0.41800000000E+01 0. -1.
</event>
<event>
11    1  0.5813833E-009  0.2114091E+03  0.7561462E-02  0.1046737E+00
         22   -1    0    0    0    0  0.00000000000E+00  0.00000000000E+00  0.35727040208E+03  0.35727040208E+03  0.00000000000E+00 0. -1.
         22   -1    0    0    0    0 -0.00000000000E+00 -0.00000000000E+00 -0.33716986967E+03  0.33716986967E+03  0.00000000000E+00 0. -1.
         24    2    1    2    0    0 -0.92055507177E+02  0.21889711709E+01 -0.16472472478E+03  0.20523915857E+03  0.80683760837E+02 0.  0.
         25    2    1    2    0    0  0.12765849974E+03 -0.16136144208E+03  0.15657322442E+02  0.24130192813E+03  0.12508901321E+03 0.  0.
        -24    2    1    2    0    0 -0.35602992566E+02  0.15917247091E+03  0.16916793475E+03  0.24789918505E+03  0.78947876652E+02 0.  0.
        -13    1    3    3    0    0 -0.59551112738E+02 -0.44716233524E+01 -0.30659747477E+02  0.67129356909E+02  0.00000000000E+00 0.  1.
         14    1    3    3    0    0 -0.32504394439E+02  0.66605945234E+01 -0.13406497730E+03  0.13810980166E+03  0.00000000000E+00 0. -1.
         13    1    5    5    0    0 -0.60031055297E+02  0.94014044572E+02  0.10068542891E+03  0.15026617640E+03  0.00000000000E+00 0. -1.
        -14    1    5    5    0    0  0.24428062731E+02  0.65158426334E+02  0.68482505843E+02  0.97633008648E+02  0.00000000000E+00 0.  1.
          5    1    4    4  501    0  0.12631599814E+03 -0.13682425597E+03 -0.30595776974E+02  0.18875958884E+03  0.41800000000E+01 0.  1.
         -5    1    4    4    0  501  0.13425016026E+01 -0.24537186103E+02  0.46253099416E+02  0.52542339289E+02  0.41800000000E+01 0.  1.
</event>
<event>
11    1  0.5813833E-009  0.1769016E+03  0.7561462E-02  0.1072177E+00
         22   -1    0    0    0    0  0.00000000000E+00  0.00000000000E+00  0.69145836085E+03  0.69145836085E+03  0.00000000000E+00 0. -1.
         22   -1    0    0    0    0 -0.00000000000E+00 -0.00000000000E+00 -0.47320322784E+03  0.47320322784E+03  0.00000000000E+00 0. -1.
         24    2    1    2    0    0  0.71549259327E+02 -0.11047471024E+03 -0.38571539732E+03  0.41518542429E+03  0.79237684839E+02 0.  0.
         25    2    1    2    0    0 -0.39808624692E+02  0.78647830112E+02  0.14867394876E+02  0.15374875041E+03  0.12508969199E+03 0.  0.
        -24    2    1    2    0    0 -0.31740634635E+02  0.31826880132E+02  0.58910313545E+03  0.59572741399E+03  0.76342841125E+02 0.  0.
        -13    1    3    3    0    0  0.61297124047E+02 -0.36922072948E+02 -0.12430030159E+03  0.14342643363E+03  0.00000000000E+00 0.  1.
         14    1    3    3    0    0  0.10252135280E+02 -0.73552637296E+02 -0.26141509572E+03  0.27175899066E+03  0.00000000000E+00 0. -1.
         11    1    5    5    0    0 -0.96296642793E+01  0.37145234752E+02  0.54266232128E+03  0.54401736538E+03  0.00000000000E+00 0. -1.
        -12    1    5    5    0    0 -0.22110970356E+02 -0.53183546201E+01  0.46440814169E+02  0.51710048604E+02  0.00000000000E+00 0.  1.
          5    1    4    4  501    0  0.40529655775E+02  0.12908565703E+02 -0.15573979385E+02  0.45489617493E+02  0.41800000000E+01 0.  1.
         -5    1    4    4    0  501 -0.80338280467E+02  0.65739264409E+02  0.30441374261E+02  0.10825913292E+03  0.41800000000E+01 0.  1.
</event>
<event>
11    1  0.5813833E-009  0.1556934E+03  0.7561462E-02  0.1091199E+00
         22   -1    0    0    0    0  0.00000000000E+00  0.00000000000E+00  0.71757949657E+03  0.71757949657E+03  0.00000000000E+00 0.  1.
         22   -1    0    0    0    0 -0.00000000000E+00 -0.00000000000E+00 -0.22586152666E+04  0.22586152666E+04  0.00000000000E+00 0.  1.
        -24    2    1    2    0    0 -0.70253544067E+02 -0.70489517100E+02 -0.18437941286E+04  0.18482316399E+04  0.80492694806E+02 0.  0.
         25    2    1    2    0    0  0.44409991382E+01  0.69585967101E+02 -0.39616152661E+03  0.42125166266E+03  0.12508828418E+03 0.  0.
         24    2    1    2    0    0  0.65812544928E+02  0.90354999893E+00  0.69891988518E+03  0.70671146052E+03  0.81363229170E+02 0.  0.
        -11    1    5    5    0    0  0.32178816964E+02  0.29990786068E+02  0.15927232453E+03  0.16523497472E+03  0.00000000000E+00 0.  1.
         12    1    5    5    0    0  0.33633727964E+02 -0.29087236069E+02  0.53964756065E+03  0.54147648580E+03  0.00000000000E+00 0. -1.
         13    1    3    3    0    0 -0.35581399246E+01  0.17347570619E+02 -0.25594772417E+03  0.25655961505E+03  0.00000000000E+00 0. -1.
        -14    1    3    3    0    0 -0.66695404142E+02 -0.87837087718E+02 -0.15878464044E+04  0.15916720249E+04  0.00000000000E+00 0.  1.
          5    1    4    4  501    0  0.49505835945E+01 -0.39668553980E+01  0.76459119403E+01  0.10778524439E+02  0.41800000000E+01 0. -1.
         -5    1    4    4    0  501 -0.50958445630E+00  0.73552822499E+02 -0.40380743855E+03  0.41047313822E+03  0.41800000000E+01 0. -1.
</event>
<event>
11    1  0.5813833E-009  0.2894134E+03  0.7561462E-02  0.1004774E+00
         22   -1    0    0    0    0  0.00000000000E+00  0.00000000000E+00  0.62794848763E+03  0.62794848763E+03  0.00000000000E+00 0. -1.
         22   -1    0    0    0    0 -0.00000000000E+00 -0.00000000000E+00 -0.12015382425E+04  0.12015382425E+04  0.00000000000E+00 0. -1.
        -24    2    1    2    0    0 -0.47152946295E+02 -0.81415685824E+02 -0.10060392648E+04  0.10134842929E+04  0.78635204880E+02 0.  0.
         25    2    1    2    0    0  0.17473381123E+03  0.28727269987E+03  0.56245014243E+02  0.36313805087E+03  0.12509289943E+03 0.  0.
         24    2    1    2    0    0 -0.12758086493E+03 -0.20585701404E+03  0.37620449567E+03  0.45286438635E+03  0.70016730423E+02 0.  0.
        -11    1    5    5    0    0 -0.50313714228E+02 -0.84496731814E+02  0.21723873788E+03  0.23846139470E+03  0.00000000000E+00 0.  1.
         12    1    5    5    0    0 -0.77267150707E+02 -0.12136028223E+03  0.15896575779E+03  0.21440299165E+03  0.00000000000E+00 0. -1.
         11    1    3    3    0    0 -0.63468037701E+02 -0.33430507589E+02 -0.61786957721E+03  0.62201977870E+03  0.00000000000E+00 0. -1.
        -12    1    3    3    0    0  0.16315091406E+02 -0.47985178235E+02 -0.38816968756E+03  0.39146451420E+03  0.00000000000E+00 0.  1.
          5    1    4    4  501    0 -0.30113652059E+00  0.40388039055E+02 -0.27571275459E+02  0.49080872164E+02  0.41800000000E+01 0.  1.
         -5    1    4    4    0  501  0.17503494775E+03  0.24688466081E+03  0.83816289703E+02  0.31405717871E+03  0.41800000000E+01 0.  1.
</event>
<event>
11    1  0.5813833E-009  0.1506284E+03  0.7561462E-02  0.1096238E+00
         22   -1    0    0    0    0  0.00000000000E+00  0.00000000000E+00  0.98840759608E+02  0.98840759608E+02  0.00000000000E+00 0. -1.
         22   -1    0    0    0    0 -0.00000000000E+00 -0.00000000000E+00 -0.19918117751E+04  0.19918117751E+04  0.00000000000E+00 0.  1.
        -24    2    1    2    0    0  0.85893747425E+02  0.43843924543E+01 -0.17872143530E+04  0.17910868042E+04  0.80373115620E+02 0.  0.
         25    2    1    2    0    0 -0.53187833150E+02 -0.23080454109E+02 -0.14786876738E+03  0.20217702821E+03  0.12509486565E+03 0.  0.
         24    2    1    2    0    0 -0.32705914275E+02  0.18696061655E+02  0.42112104892E+02  0.97388702333E+02  0.79321563358E+02 0.  0.
        -13    1    5    5    0    0 -0.39403553293E+02  0.39952562652E+02  0.80581958374E+01  0.56690226624E+02  0.00000000000E+00 0.  1.
         14    1    5    5    0    0  0.66976390180E+01 -0.21256500997E+02  0.34053909055E+02  0.40698475708E+02  0.00000000000E+00 0. -1.
         13    1    3    3    0    0  0.41273373634E+02  0.23949030490E+02 -0.37387020861E+03  0.37690314448E+03  0.00000000000E+00 0. -1.
        -14    1    3    3    0    0  0.44620373792E+02 -0.19564638036E+02 -0.14133441444E+04  0.14141836597E+04  0.00000000000E+00 0.  1.
          5    1    4    4  501    0 -0.25252394618E+02 -0.40366737756E+02 -0.15994002337E+03  0.16692944745E+03  0.41800000000E+01 0. -1.
         -5    1    4    4    0  501 -0.27935438532E+02  0.17286283647E+02  0.12071255990E+02  0.35247580761E+02  0.41800000000E+01 0. -1.
</event>
<event>
11    1  0.5813833E-009  0.1503588E+03  0.7561462E-02  0.1096513E+00
         22   -1    0    0    0    0  0.00000000000E+00  0.00000000000E+00  0.45825705551E+03  0.45825705551E+03  0.00000000000E+00 0.  1.
         22   -1    0    0    0    0 -0.00000000000E+00 -0.00000000000E+00 -0.87818871661E+03  0.87818871661E+03  0.00000000000E+00 0. -1.
         24    2    1    2    0    0 -0.52693418736E+01  0.32066620253E+02 -0.54073935249E+03  0.54711942184E+03  0.76711018302E+02 0.  0.
         25    2    1    2    0    0  0.88573462753E+02 -0.30448813692E+02 -0.30785497661E+03  0.34524519009E+03  0.12508863299E+03 0.  0.
        -24    2    1    2    0    0 -0.83304120879E+02 -0.16178065615E+01  0.42866266800E+03  0.44408116018E+03  0.80710594348E+02 0.  0.
        -13    1    3    3    0    0 -0.10901693750E+01 -0.24238922800E+02 -0.23150439499E+03  0.23277241836E+03  0.00000000000E+00 0.  1.
         14    1    3    3    0    0 -0.41791724986E+01  0.56305543054E+02 -0.30923495750E+03  0.31434700348E+03  0.00000000000E+00 0. -1.
         11    1    5    5    0    0  0.92889101917E+01  0.18758199198E+02  0.89619206800E+02  0.92031277929E+02  0.00000000000E+00 0. -1.
        -12    1    5    5    0    0 -0.92593031071E+02 -0.20376005759E+02  0.33904346120E+03  0.35204988226E+03  0.00000000000E+00 0.  1.
          5    1    4    4  501    0 -0.27347351593E+02  0.15006782996E+01 -0.22947526165E+02  0.35974866666E+02  0.41800000000E+01 0.  1.
         -5    1    4    4    0  501  0.11592081435E+03 -0.31949491991E+02 -0.28490745044E+03  0.30927032343E+03  0.41800000000E+01 0.  1.
</event>
<event>
11    1  0.5813833E-009  0.2009767E+03  0.7561462E-02  0.1053835E+00
         22   -1    0    0    0    0  0.00000000000E+00  0.00000000000E+00  0.38839900090E+03  0.38839900090E+03  0.00000000000E+00 0. -1.
         22   -1    0    0    0    0 -0.00000000000E+00 -0.00000000000E+00 -0.18148762707E+04  0.18148762707E+04  0.00000000000E+00 0.  1.
        -24    2    1    2    0    0  0.60274794952E+01 -0.14536709024E+02 -0.16278665085E+04  0.16299564077E+04  0.80999228327E+02 0.  0.
         25    2    1    2    0    0 -0.16202241817E+03 -0.25059077668E+00 -0.97400718206E+02  0.22668495018E+03  0.12509132642E+03 0.  0.
         24    2    1    2    0    0  0.15599493868E+03  0.14787299801E+02  0.29878995694E+03  0.34663391372E+03  0.79539591705E+02 0.  0.
        -11    1    5    5    0    0  0.24379250856E+02  0.90116338265E+01  0.76816533883E+01  0.27102863600E+02  0.00000000000E+00 0.  1.
         12    1    5    5    0    0  0.13161568782E+03  0.57756659745E+01  0.29110830355E+03  0.31953105012E+03  0.00000000000E+00 0. -1.
         13    1    3    3    0    0  0.64292683094E+01 -0.22312472892E+02 -0.12922292109E+03  0.13129259413E+03  0.00000000000E+00 0. -1.
        -14    1    3    3    0    0 -0.40178881427E+00  0.77757638673E+01 -0.14986435874E+04  0.14986638136E+04  0.00000000000E+00 0.  1.
          5    1    4    4  501    0 -0.15580445695E+03 -0.27758650050E+02 -0.11269875547E+03  0.19432975414E+03  0.41800000000E+01 0.  1.
         -5    1    4    4    0  501 -0.62179612248E+01  0.27508059273E+02  0.15298037268E+02  0.32355196043E+02  0.41800000000E+01 0.  1.
</event>
<event>
11    1  0.5813833E-009  0.1367068E+03  0.7561462E-02  0.1111293E+00
         22   -1    0    0    0    0  0.00000000000E+00  0.00000000000E+00  0.90239015080E+03  0.90239015080E+03  0.00000000000E+00 0.  1.
         22   -1    0    0    0    0 -0.00000000000E+00 -0.00000000000E+00 -0.20273699770E+03  0.20273699770E+03  0.00000000000E+00 0.  1.
        -24    2    1    2    0    0  0.12000928998E+02  0.45857882702E+02 -0.12200961428E+03  0.15417475186E+03  0.81464964452E+02 0.  0.
         25    2    1    2    0    0 -0.15956987451E+02 -0.98656316528E+02  0.42446225724E+02  0.16564136584E+03  0.12509071013E+03 0.  0.
         24    2    1    2    0    0  0.39560584529E+01  0.52798433826E+02  0.77921654165E+03  0.78531103080E+03  0.82046762878E+02 0.  0.
        -11    1    5    5    0    0 -0.21426921118E+02  0.51447786174E+02  0.69772257454E+03  0.69994483974E+03  0.00000000000E+00 0.  1.
         12    1    5    5    0    0  0.25382979571E+02  0.13506476513E+01  0.81493967107E+02  0.85366191058E+02  0.00000000000E+00 0. -1.
         13    1    3    3    0    0  0.11604952673E+02 -0.22251762097E+02 -0.23284628271E+02  0.34234335931E+02  0.00000000000E+00 0. -1.
        -14    1    3    3    0    0  0.39597632486E+00  0.68109644799E+02 -0.98724986006E+02  0.11994041593E+03  0.00000000000E+00 0.  1.
          5    1    4    4  501    0 -0.28768144127E+02  0.17092016453E+02  0.35410419124E+02  0.48899011498E+02  0.41800000000E+01 0. -1.
         -5    1    4    4    0  501  0.12811156677E+02 -0.11574833298E+03  0.70358066006E+01  0.11674235434E+03  0.41800000000E+01 0. -1.
</event>
<event>
11    1  0.5813833E-009  0.1349816E+03  0.7561462E-02  0.1113295E+00
         22   -1    0    0    0    0  0.00000000000E+00  0.00000000000E+00  0.10929889386E+03  0.10929889386E+03  0.00000000000E+00 0.  1.
         22   -1    0    0    0    0 -0.00000000000E+00 -0.00000000000E+00 -0.48167762210E+03  0.48167762210E+03  0.00000000000E+00 0.  1.
        -24    2    1    2    0    0  0.14694859683E+02  0.26573213122E+02 -0.17512463240E+03  0.19502811597E+03  0.80282342948E+02 0.  0.
         25    2    1    2    0    0 -0.43547926308E+02 -0.64831735023E+02 -0.24896300848E+03  0.28936403357E+03  0.12509751629E+03 0.  0.
         24    2    1    2    0    0  0.28853066625E+02  0.38258521901E+02  0.51708912638E+02  0.10658436643E+03  0.79938736345E+02 0.  0.
        -13    1    5    5    0    0  0.10032985802E+01 -0.83915194820E+01  0.51565405864E+02  0.52253375864E+02  0.00000000000E+00 0.  1.
         14    1    5    5    0    0  0.27849768045E+02  0.46650041383E+02  0.14350677333E+00  0.54330990562E+02  0.00000000000E+00 0. -1.
         13    1    3    3    0    0  0.33053613734E+02  0.21628069567E+02 -0.32529829727E+02  0.51171325918E+02  0.00000000000E+00 0. -1.
        -14    1    3    3    0    0 -0.18358754051E+02  0.49451435547E+01 -0.14259480267E+03  0.14385679005E+03  0.00000000000E+00 0.  1.
          5    1    4    4  501    0 -0.38778065636E+02 -0.28401635437E+02 -0.12248107221E+02  0.49778306524E+02  0.41800000000E+01 0.  1.
         -5    1    4    4    0  501 -0.47698606720E+01 -0.36430099587E+02 -0.23671490125E+03  0.23958572704E+03  0.41800000000E+01 0.  1.
</event>
<event>
11    1  0.6034221E-009  0.2220646E+03  0.7561462E-02  0.1039932E+00
         22   -1    0    0    0    0  0.00000000000E+00  0.00000000000E+00  0.28966145413E+03  0.28966145413E+03  0.00000000000E+00 0.  1.
         22   -1    0    0    0    0 -0.00000000000E+00 -0.00000000000E+00 -0.17193686124E+04  0.17193686124E+04  0.00000000000E+00 0.  1.
         24    2    1    2    0    0 -0.47006168505E+02 -0.81481101119E+02 -0.12952134849E+04  0.13012585687E+04  0.82747455007E+02 0.  0.
         25    2    1    2    0    0 -0.83315536649E+02 -0.59787566932E+02 -0.36392236418E+03  0.39824849931E+03  0.12508536385E+03 0.  0.
        -24    2    1    2    0    0  0.13032170515E+03  0.14126866805E+03  0.22942869080E+03  0.30952299857E+03  0.78907408237E+02 0.  0.
        -11    1    3    3    0    0 -0.42245480214E+02 -0.17534057918E+02 -0.87359944544E+03  0.87479604186E+03  0.00000000000E+00 0.  1.
         12    1    3    3    0    0 -0.47606882917E+01 -0.63947043201E+02 -0.42161403948E+03  0.42646252681E+03  0.00000000000E+00 0. -1.
         11    1    5    5    0    0  0.27056983762E+02 -0.70434754161E+00  0.58697061370E+02  0.64636843126E+02  0.00000000000E+00 0. -1.
        -12    1    5    5    0    0  0.10326472139E+03  0.14197301559E+03  0.17073162943E+03  0.24488615544E+03  0.00000000000E+00 0.  1.
          5    1    4    4  501    0 -0.39554356400E+02 -0.41119098962E+02 -0.34009798758E+03  0.34487597910E+03  0.41800000000E+01 0. -1.
         -5    1    4    4    0  501 -0.43761180249E+02 -0.18668467970E+02 -0.23824376602E+02  0.53372520211E+02  0.41800000000E+01 0. -1.
</event>
<event>
11    1  0.5813833E-009  0.1296199E+03  0.7561462E-02  0.1119737E+00
         22   -1    0    0    0    0  0.00000000000E+00  0.00000000000E+00  0.10863215804E+04  0.10863215804E+04  0.00000000000E+00 0. -1.
         22   -1    0    0    0    0 -0.00000000000E+00 -0.00000000000E+00 -0.48117973728E+02  0.48117973728E+02  0.00000000000E+00 0. -1.
        -24    2    1    2    0    0 -0.16873663986E+02 -0.38234093667E+02  0.76410554929E+02  0.11399638679E+03  0.73552952645E+02 0.  0.
         25    2    1    2    0    0 -0.16983606027E+02  0.24347378805E+02  0.12864263186E+03  0.18188141004E+03  0.12510268926E+03 0.  0.
         24    2    1    2    0    0  0.33857270014E+02  0.13886714862E+02  0.83315041986E+03  0.83856175727E+03  0.87789766220E+02 0.  0.
        -13    1    5    5    0    0  0.30426748312E+02  0.21129674590E+02  0.12518282863E+03  0.13054880599E+03  0.00000000000E+00 0.  1.
         14    1    5    5    0    0  0.34305217016E+01 -0.72429597281E+01  0.70796759123E+03  0.70801295128E+03  0.00000000000E+00 0. -1.
         11    1    3    3    0    0  0.85353758119E+01  0.19421095093E+02  0.24088140385E+02  0.32097820519E+02  0.00000000000E+00 0. -1.
        -12    1    3    3    0    0 -0.25409039798E+02 -0.57655188759E+02  0.52322414544E+02  0.81898566276E+02  0.00000000000E+00 0.  1.
          5    1    4    4  501    0 -0.32963062676E+02  0.38412766475E+02  0.14569078365E+03  0.15428992504E+03  0.41800000000E+01 0.  1.
         -5    1    4    4    0  501  0.15979456648E+02 -0.14065387671E+02 -0.17048151791E+02  0.27591485002E+02  0.41800000000E+01 0.  1.
</event>
<event>
11    1  0.5813833E-009  0.1420488E+03  0.7561462E-02  0.1105292E+00
         22   -1    0    0    0    0  0.00000000000E+00  0.00000000000E+00  0.52131095681E+03  0.52131095681E+03  0.00000000000E+00 0. -1.
         22   -1    0    0    0    0 -0.00000000000E+00 -0.00000000000E+00 -0.98443142665E+02  0.98443142665E+02  0.00000000000E+00 0. -1.
         24    2    1    2    0    0 -0.35490537805E+02 -0.56253907036E+02 -0.86433777871E+01  0.10580820365E+03  0.81832680813E+02 0.  0.
         25    2    1    2    0    0  0.64922747586E+02  0.39085464637E+02  0.11670930820E+03  0.18711265408E+03  0.12508975177E+03 0.  0.
        -24    2    1    2    0    0 -0.29432209781E+02  0.17168442399E+02  0.31480188374E+03  0.32683324175E+03  0.80985995828E+02 0.  0.
        -13    1    3    3    0    0  0.59155343096E+01 -0.57863092857E+02  0.12190167624E+02  0.59428370732E+02  0.00000000000E+00 0.  1.
         14    1    3    3    0    0 -0.41406072114E+02  0.16091858203E+01 -0.20833545411E+02  0.46379832916E+02  0.00000000000E+00 0. -1.
         11    1    5    5    0    0 -0.48066067233E+02  0.99085614558E+01  0.29365600190E+03  0.29772869170E+03  0.00000000000E+00 0. -1.
        -12    1    5    5    0    0  0.18633857451E+02  0.72598809433E+01  0.21145881836E+02  0.29104550047E+02  0.00000000000E+00 0.  1.
          5    1    4    4  501    0  0.74673446211E+02  0.53353736322E+02  0.13389631209E+03  0.16238361845E+03  0.41800000000E+01 0. -1.
         -5    1    4    4    0  501 -0.97506986253E+01 -0.14268271685E+02 -0.17187003894E+02  0.24729035634E+02  0.41800000000E+01 0. -1.
</event>
<event>
11    1  0.5813833E-009  0.1398155E+03  0.7561462E-02  0.1107765E+00
         22   -1    0    0    0    0  0.00000000000E+00  0.00000000000E+00  0.34097756417E+03  0.34097756417E+03  0.00000000000E+00 0.  1.
         22   -1    0    0    0    0 -0.00000000000E+00 -0.00000000000E+00 -0.15176744338E+04  0.15176744338E+04  0.00000000000E+00 0.  1.
        -24    2    1    2    0    0 -0.45628418527E+01  0.57085751965E+02 -0.14030911890E+04  0.14063696410E+04  0.77013504990E+02 0.  0.
         25    2    1    2    0    0 -0.58098602972E+02 -0.57003359271E+02 -0.50200041387E+02  0.15745584468E+03  0.12508984064E+03 0.  0.
         24    2    1    2    0    0  0.62661444825E+02 -0.82392694220E-01  0.27659436079E+03  0.29482651224E+03  0.80571511371E+02 0.  0.
        -13    1    5    5    0    0 -0.17044704852E+02 -0.12727883264E+02  0.62994469299E+02  0.66489278370E+02  0.00000000000E+00 0.  1.
         14    1    5    5    0    0  0.79706149677E+02  0.12645490570E+02  0.21359989149E+03  0.22833723387E+03  0.00000000000E+00 0. -1.
         11    1    3    3    0    0 -0.35903815112E+00 -0.18942426879E+02 -0.21089204173E+03  0.21174134625E+03  0.00000000000E+00 0. -1.
        -12    1    3    3    0    0 -0.42038037016E+01  0.76028178844E+02 -0.11921991473E+04  0.11946282948E+04  0.00000000000E+00 0.  1.
          5    1    4    4  501    0 -0.72705870173E+01  0.22963625070E+02  0.26076325952E+02  0.35744044078E+02  0.41800000000E+01 0.  1.
         -5    1    4    4    0  501 -0.50828015955E+02 -0.79966984341E+02 -0.76276367338E+02  0.12171180060E+03  0.41800000000E+01 0.  1.
</event>
<event>
11    1  0.5813833E-009  0.1383656E+03  0.7561462E-02  0.1109397E+00
         22   -1    0    0    0    0  0.00000000000E+00  0.00000000000E+00  0.18223088050E+04  0.18223088050E+04  0.00000000000E+00 0.  1.
         22   -1    0    0    0    0 -0.00000000000E+00 -0.00000000000E+00 -0.46255871269E+03  0.46255871269E+03  0.00000000000E+00 0.  1.
        -24    2    1    2    0    0 -0.24716283321E+02 -0.56744698876E+02 -0.41415113335E+03  0.42629639690E+03  0.79853623807E+02 0.  0.
         25    2    1    2    0    0  0.47997376254E+01  0.14597373976E+02  0.55563204175E+02  0.13773511879E+03  0.12509025734E+03 0.  0.
         24    2    1    2    0    0  0.19916545695E+02  0.42147324900E+02  0.17183380215E+04  0.17208360020E+04  0.80111946006E+02 0.  0.
        -13    1    5    5    0    0  0.10164401895E+02  0.59524510864E+02  0.15705726766E+04  0.15717331246E+04  0.00000000000E+00 0.  1.
         14    1    5    5    0    0  0.97521438007E+01 -0.17377185964E+02  0.14776534491E+03  0.14910287742E+03  0.00000000000E+00 0. -1.
         13    1    3    3    0    0 -0.38247509079E+02 -0.47930202227E+02 -0.15568137616E+03  0.16732264377E+03  0.00000000000E+00 0. -1.
        -14    1    3    3    0    0  0.13531225759E+02 -0.88144966496E+01 -0.25846975719E+03  0.25897375312E+03  0.00000000000E+00 0.  1.
          5    1    4    4  501    0 -0.16961846964E+01 -0.10810028662E+02 -0.38371140655E+02  0.40119204845E+02  0.41800000000E+01 0.  1.
         -5    1    4    4    0  501  0.64959223218E+01  0.25407402638E+02  0.93934344831E+02  0.97615913940E+02  0.41800000000E+01 0.  1.
</event>
<event>
11    1  0.5813833E-009  0.1394327E+03  0.7561462E-02  0.1108194E+00
         22   -1    0    0    0    0  0.00000000000E+00  0.00000000000E+00  0.10868016930E+04  0.10868016930E+04  0.00000000000E+00 0. -1.
         22   -1    0    0    0    0 -0.00000000000E+00 -0.00000000000E+00 -0.71530457250E+02  0.71530457250E+02  0.00000000000E+00 0.  1.
        -24    2    1    2    0    0  0.28697917074E+02 -0.86577431338E+00 -0.18000516655E+02  0.85733808181E+02  0.78752442856E+02 0.  0.
         25    2    1    2    0    0 -0.61580891199E+02  0.47746639009E+02  0.34731583057E+03  0.37729015131E+03  0.12509046494E+03 0.  0.
         24    2    1    2    0    0  0.32882974125E+02 -0.46880864695E+02  0.68595592181E+03  0.69530819073E+03  0.98177634756E+02 0.  0.
        -13    1    5    5    0    0  0.29639760575E+02  0.26237285275E+02  0.28367040454E+03  0.28641893960E+03  0.00000000000E+00 0.  1.
         14    1    5    5    0    0  0.32432135497E+01 -0.73118149971E+02  0.40228551727E+03  0.40888925114E+03  0.00000000000E+00 0. -1.
         13    1    3    3    0    0 -0.13780975241E+02  0.27351667560E+02  0.25909091044E+01  0.30736652500E+02  0.00000000000E+00 0. -1.
        -14    1    3    3    0    0  0.42478892315E+02 -0.28217441873E+02 -0.20591425759E+02  0.54997155681E+02  0.00000000000E+00 0.  1.
          5    1    4    4  501    0 -0.37031531396E+02  0.33341972183E+02  0.29261318363E+02  0.57937195125E+02  0.41800000000E+01 0. -1.
         -5    1    4    4    0  501 -0.24549359804E+02  0.14404666826E+02  0.31805451221E+03  0.31935295619E+03  0.41800000000E+01 0. -1.
</event>
<event>
11    1  0.5813833E-009  0.1562499E+03  0.7561462E-02  0.1090658E+00
         22   -1    0    0    0    0  0.00000000000E+00  0.00000000000E+00  0.76863614784E+03  0.76863614784E+03  0.00000000000E+00 0. -1.
         22   -1    0    0    0    0 -0.00000000000E+00 -0.00000000000E+00 -0.49424998063E+03  0.49424998063E+03  0.00000000000E+00 0.  1.
        -24    2    1    2    0    0 -0.38383425267E+01 -0.93034611774E+02 -0.46134494142E+03  0.47767047628E+03  0.81607334714E+02 0.  0.
         25    2    1    2    0    0 -0.15477175855E+02  0.11873445282E+03  0.36472787462E+03  0.40374603834E+03  0.12508807972E+03 0.  0.
         24    2    1    2    0    0  0.19315518382E+02 -0.25699841044E+02  0.37100323400E+03  0.38146961384E+03  0.82716960574E+02 0.  0.
        -13    1    5    5    0    0  0.21862933243E+02 -0.20809266822E+02  0.38501565292E+02  0.48922223637E+02  0.00000000000E+00 0.  1.
         14    1    5    5    0    0 -0.25474148612E+01 -0.48905742219E+01  0.33250166871E+03  0.33254739021E+03  0.00000000000E+00 0. -1.
         11    1    3    3    0    0 -0.17948982658E+02 -0.52026981436E+02 -0.10364327599E+03  0.11734948416E+03  0.00000000000E+00 0. -1.
        -12    1    3    3    0    0  0.14110640131E+02 -0.41007630338E+02 -0.35770166543E+03  0.36032099212E+03  0.00000000000E+00 0.  1.
          5    1    4    4  501    0  0.50068587808E+02  0.84426574598E+02  0.18830113710E+03  0.21238997297E+03  0.41800000000E+01 0.  1.
         -5    1    4    4    0  501 -0.65545763663E+02  0.34307878220E+02  0.17642673752E+03  0.19135606537E+03  0.41800000000E+01 0.  1.
</event>
<event>
11    1  0.5813833E-009  0.1360140E+03  0.7561462E-02  0.1112093E+00
         22   -1    0    0    0    0  0.00000000000E+00  0.00000000000E+00  0.31530967546E+03  0.31530967546E+03  0.00000000000E+00 0. -1.
         22   -1    0    0    0    0 -0.00000000000E+00 -0.00000000000E+00 -0.12285662089E+04  0.12285662089E+04  0.00000000000E+00 0.  1.
         24    2    1    2    0    0  0.56913939792E+02 -0.45056824265E+01 -0.10821368275E+04  0.10866860654E+04  0.81283415255E+02 0.  0.
         25    2    1    2    0    0 -0.69718912760E+01 -0.14680673539E+02 -0.10651914748E+03  0.16510001327E+03  0.12509019210E+03 0.  0.
        -24    2    1    2    0    0 -0.49942048516E+02  0.19186355966E+02  0.27539944151E+03  0.29208980570E+03  0.81297464564E+02 0.  0.
        -11    1    3    3    0    0  0.42018038428E+02 -0.33652648582E+02 -0.90161085204E+03  0.90321655478E+03  0.00000000000E+00 0.  1.
         12    1    3    3    0    0  0.14895901364E+02  0.29146966156E+02 -0.18052597548E+03  0.18346951064E+03  0.00000000000E+00 0. -1.
         11    1    5    5    0    0 -0.60123091362E+02  0.31817381161E+02  0.13924187356E+03  0.15496912986E+03  0.00000000000E+00 0. -1.
        -12    1    5    5    0    0  0.10181042846E+02 -0.12631025195E+02  0.13615756796E+03  0.13712067584E+03  0.00000000000E+00 0.  1.
          5    1    4    4  501    0 -0.64313645547E+02 -0.10973448008E+01 -0.72163338672E+02  0.96759852301E+02  0.41800000000E+01 0.  1.
         -5    1    4    4    0  501  0.57341754271E+02 -0.13583328739E+02 -0.34355808808E+02  0.68340160969E+02  0.41800000000E+01 0.  1.
</event>
<event>
11    1  0.5813833E-009  0.1476122E+03  0.7561462E-02  0.1099344E+00
         22   -1    0    0    0    0  0.00000000000E+00  0.00000000000E+00  0.10631616336E+04  0.10631616336E+04  0.00000000000E+00 0.  1.
         22   -1    0    0    0    0 -0.00000000000E+00 -0.00000000000E+00 -0.73137697052E+02  0.73137697052E+02  0.00000000000E+00 0.  1.
        -24    2    1    2    0    0  0.24047467496E+02  0.27690483128E+02  0.22257135185E+02  0.96659358704E+02  0.86617596420E+02 0.  0.
         25    2    1    2    0    0 -0.24798647260E+02 -0.10310476648E+03  0.17672639312E+03  0.24109011609E+03  0.12508661109E+03 0.  0.
         24    2    1    2    0    0  0.75117976394E+00  0.75414283350E+02  0.79104040824E+03  0.79854985586E+03  0.79051036756E+02 0.  0.
        -13    1    5    5    0    0 -0.17945546169E+02  0.69199398900E+02  0.74563231763E+03  0.74905150192E+03  0.00000000000E+00 0.  1.
         14    1    5    5    0    0  0.18696725933E+02  0.62148844500E+01  0.45408090617E+02  0.49498353941E+02  0.00000000000E+00 0. -1.
         11    1    3    3    0    0  0.10581761221E+02  0.59671499311E+01  0.54316801356E+02  0.55658741078E+02  0.00000000000E+00 0. -1.
        -12    1    3    3    0    0  0.13465706275E+02  0.21723333197E+02 -0.32059666172E+02  0.41000617626E+02  0.00000000000E+00 0.  1.
          5    1    4    4  501    0 -0.59983328652E+02 -0.80229950855E+02  0.59684271240E+02  0.11668131540E+03  0.41800000000E+01 0.  1.
         -5    1    4    4    0  501  0.35184681393E+02 -0.22874815623E+02  0.11704212188E+03  0.12440880069E+03  0.41800000000E+01 0.  1.
</event>
<event>
11    1  0.5813833E-009  0.1267032E+03  0.7561462E-02  0.1123387E+00
         22   -1    0    0    0    0  0.00000000000E+00  0.00000000000E+00  0.24617619976E+03  0.24617619976E+03  0.00000000000E+00 0.  1.
         22   -1    0    0    0    0 -0.00000000000E+00 -0.00000000000E+00 -0.65071619367E+03  0.65071619367E+03  0.00000000000E+00 0.  1.
         24    2    1    2    0    0  0.19399501492E+02 -0.10099802891E+02 -0.58935653631E+03  0.59941189146E+03  0.10712208951E+03 0.  0.
         25    2    1    2    0    0  0.34018445236E+02  0.23716259262E+02  0.77240564864E+02  0.15274534641E+03  0.12508125527E+03 0.  0.
        -24    2    1    2    0    0 -0.53417946728E+02 -0.13616456371E+02  0.10757597753E+03  0.14473515556E+03  0.79603953390E+02 0.  0.
        -11    1    3    3    0    0  0.43194649774E+02 -0.19104954049E+02 -0.55313539613E+03  0.55514821759E+03  0.00000000000E+00 0.  1.
         12    1    3    3    0    0 -0.23795148282E+02  0.90051511585E+01 -0.36221140177E+02  0.44263673875E+02  0.00000000000E+00 0. -1.
         13    1    5    5    0    0 -0.21224273514E+02  0.33227819894E+02  0.51815732506E+02  0.65110889536E+02  0.00000000000E+00 0. -1.
        -14    1    5    5    0    0 -0.32193673214E+02 -0.46844276265E+02  0.55760245025E+02  0.79624266019E+02  0.00000000000E+00 0.  1.
          5    1    4    4  501    0  0.26375644427E+02  0.65954874643E+02  0.82897602266E+02  0.10924836369E+03  0.41800000000E+01 0. -1.
         -5    1    4    4    0  501  0.76428008092E+01 -0.42238615381E+02 -0.56570374027E+01  0.43496982720E+02  0.41800000000E+01 0. -1.
</event>
<event>
11    1  0.5813833E-009  0.1370359E+03  0.7561462E-02  0.1110914E+00
         22   -1    0    0    0    0  0.00000000000E+00  0.00000000000E+00  0.11726216458E+03  0.11726216458E+03  0.00000000000E+00 0. -1.
         22   -1    0    0    0    0 -0.00000000000E+00 -0.00000000000E+00 -0.58021557153E+03  0.58021557153E+03  0.00000000000E+00 0. -1.
         24    2    1    2    0    0 -0.17795270648E+02 -0.53544998157E+02 -0.43027988905E+03  0.44110001760E+03  0.79023440346E+02 0.  0.
         25    2    1    2    0    0 -0.24618767918E+02  0.61212060175E+02 -0.67630146480E+02  0.15676314746E+03  0.12509135719E+03 0.  0.
        -24    2    1    2    0    0  0.42414038567E+02 -0.76670620178E+01  0.34956628578E+02  0.99614571046E+02  0.82724617712E+02 0.  0.
        -11    1    3    3    0    0 -0.12728649663E+02  0.11598820469E+02 -0.23658131931E+02  0.29261892710E+02  0.00000000000E+00 0.  1.
         12    1    3    3    0    0 -0.50666209855E+01 -0.65143818626E+02 -0.40662175712E+03  0.41183812489E+03  0.00000000000E+00 0. -1.
         11    1    5    5    0    0 -0.50024994539E+00  0.16030748831E+02  0.46553536257E+02  0.49238875862E+02  0.00000000000E+00 0. -1.
        -12    1    5    5    0    0  0.42914288512E+02 -0.23697810848E+02 -0.11596907680E+02  0.50375695184E+02  0.00000000000E+00 0.  1.
          5    1    4    4  501    0 -0.62200284383E+02  0.77186598748E+02 -0.56732418255E+02  0.11429210858E+03  0.41800000000E+01 0.  1.
         -5    1    4    4    0  501  0.37581516465E+02 -0.15974538573E+02 -0.10897728224E+02  0.42471038872E+02  0.41800000000E+01 0.  1.
</event>
<event>
11    1  0.5813833E-009  0.1494968E+03  0.7561462E-02  0.1097394E+00
         22   -1    0    0    0    0  0.00000000000E+00  0.00000000000E+00  0.45648260257E+03  0.45648260257E+03  0.00000000000E+00 0. -1.
         22   -1    0    0    0    0 -0.00000000000E+00 -0.00000000000E+00 -0.49667124787E+03  0.49667124787E+03  0.00000000000E+00 0.  1.
         24    2    1    2    0    0  0.33200522181E+02 -0.47206432455E+02 -0.44243862960E+03  0.45381447134E+03  0.82854761430E+02 0.  0.
         25    2    1    2    0    0 -0.25692343990E+02 -0.45865851211E+02  0.87328957007E+02  0.16136247362E+03  0.12509088022E+03 0.  0.
        -24    2    1    2    0    0 -0.75081781901E+01  0.93072283666E+02  0.31492102729E+03  0.33797690548E+03  0.79588394131E+02 0.  0.
        -11    1    3    3    0    0  0.58716114121E+02 -0.44059839517E+02 -0.36196915017E+03  0.36933794443E+03  0.00000000000E+00 0.  1.
         12    1    3    3    0    0 -0.25515591941E+02 -0.31465929377E+01 -0.80469479430E+02  0.84476526911E+02  0.00000000000E+00 0. -1.
         11    1    5    5    0    0  0.68630498160E+01  0.79248852310E+02  0.30593170484E+03  0.31610392290E+03  0.00000000000E+00 0. -1.
        -12    1    5    5    0    0 -0.14371228006E+02  0.13823431355E+02  0.89893224514E+01  0.21872982581E+02  0.00000000000E+00 0.  1.
          5    1    4    4  501    0 -0.44592842065E+02 -0.42886967391E+02 -0.93574343584E+01  0.62712419131E+02  0.41800000000E+01 0.  1.
         -5    1    4    4    0  501  0.18900498075E+02 -0.29788838204E+01  0.96686391366E+02  0.98650054494E+02  0.41800000000E+01 0.  1.
</event>
<event>
11    1  0.5813833E-009  0.1569111E+03  0.7561462E-02  0.1090019E+00
         22   -1    0    0    0    0  0.00000000000E+00  0.00000000000E+00  0.84138833320E+03  0.84138833320E+03  0.00000000000E+00 0. -1.
         22   -1    0    0    0    0 -0.00000000000E+00 -0.00000000000E+00 -0.13816417894E+04  0.13816417894E+04  0.00000000000E+00 0.  1.
         24    2    1    2    0    0 -0.97550924433E+01  0.87572983474E+02 -0.13284187795E+04  0.13338809904E+04  0.82327718973E+02 0.  0.
         25    2    1    2    0    0  0.91837368020E+02 -0.12250291290E+03  0.17480311711E+03  0.26390292373E+03  0.12509019772E+03 0.  0.
        -24    2    1    2    0    0 -0.82082275577E+02  0.34929929426E+02  0.61336220626E+03  0.62524620849E+03  0.82231534233E+02 0.  0.
        -11    1    3    3    0    0 -0.83004173142E+01  0.74259928484E+02 -0.13030812817E+04  0.13052219200E+04  0.00000000000E+00 0.  1.
         12    1    3    3    0    0 -0.14546751291E+01  0.13313054990E+02 -0.25337497896E+02  0.28659070336E+02  0.00000000000E+00 0. -1.
         13    1    5    5    0    0 -0.56343564329E+02  0.41568136235E+02  0.57071165351E+03  0.57499069440E+03  0.00000000000E+00 0. -1.
        -14    1    5    5    0    0 -0.25738711249E+02 -0.66382068083E+01  0.42650552756E+02  0.50255514093E+02  0.00000000000E+00 0.  1.
          5    1    4    4  501    0  0.11370643251E+03 -0.84279900422E+02  0.88653570716E+02  0.16706041545E+03  0.41800000000E+01 0. -1.
         -5    1    4    4    0  501 -0.21869064491E+02 -0.38223012479E+02  0.86149546397E+02  0.96842508276E+02  0.41800000000E+01 0. -1.
</event>
<event>
11    1  0.5813833E-009  0.1490045E+03  0.7561462E-02  0.1097900E+00
         22   -1    0    0    0    0  0.00000000000E+00  0.00000000000E+00  0.26342698173E+03  0.26342698173E+03  0.00000000000E+00 0. -1.
         22   -1    0    0    0    0 -0.00000000000E+00 -0.00000000000E+00 -0.93805878443E+03  0.93805878443E+03  0.00000000000E+00 0. -1.
        -24    2    1    2    0    0 -0.35469041833E+02 -0.62310558573E+02 -0.78544042163E+03  0.79344750399E+03  0.86611933507E+02 0.  0.
         25    2    1    2    0    0 -0.15871060175E+00 -0.18706830339E+02 -0.10278185854E+03  0.16297904526E+03  0.12509231814E+03 0.  0.
         24    2    1    2    0    0  0.35627752435E+02  0.81017388913E+02  0.21359047746E+03  0.24505921692E+03  0.81240222081E+02 0.  0.
        -11    1    5    5    0    0 -0.21954047466E+02  0.34268032950E+02  0.43872058316E+02  0.59841756185E+02  0.00000000000E+00 0.  1.
         12    1    5    5    0    0  0.57581799901E+02  0.46749355963E+02  0.16971841915E+03  0.18521746073E+03  0.00000000000E+00 0. -1.
         13    1    3    3    0    0 -0.22810276579E+02 -0.33050612933E+02 -0.71501799497E+03  0.71614480719E+03  0.00000000000E+00 0. -1.
        -14    1    3    3    0    0 -0.12658765254E+02 -0.29259945641E+02 -0.70422426658E+02  0.77302696803E+02  0.00000000000E+00 0.  1.
          5    1    4    4  501    0  0.27153385152E+02  0.40251383768E+02 -0.80609918891E+02  0.94196133912E+02  0.41800000000E+01 0.  1.
         -5    1    4    4    0  501 -0.27312095754E+02 -0.58958214107E+02 -0.22171939647E+02  0.68782911344E+02  0.41800000000E+01 0.  1.
</event>
<event>
11    1  0.5813833E-009  0.1678321E+03  0.7561462E-02  0.1079934E+00
         22   -1    0    0    0    0  0.00000000000E+00  0.00000000000E+00  0.69081703125E+03  0.69081703125E+03  0.00000000000E+00 0. -1.
         22   -1    0    0    0    0 -0.00000000000E+00 -0.00000000000E+00 -0.13644029585E+03  0.13644029585E+03  0.00000000000E+00 0. -1.
         24    2    1    2    0    0  0.36707386263E+02  0.10732715294E+03 -0.29380309326E+02  0.14269169692E+03  0.81431982845E+02 0.  0.
         25    2    1    2    0    0 -0.36680169025E+02 -0.10151978111E+03  0.98728959921E+02  0.19247668231E+03  0.12509262548E+03 0.  0.
        -24    2    1    2    0    0 -0.27217237783E-01 -0.58073718280E+01  0.48502808480E+03  0.49208894787E+03  0.82858694568E+02 0.  0.
        -11    1    3    3    0    0  0.28296795765E+02  0.10535267026E+02 -0.33941282340E+02  0.45428087664E+02  0.00000000000E+00 0.  1.
         12    1    3    3    0    0  0.84105904972E+01  0.96791885912E+02  0.45609730138E+01  0.97263609258E+02  0.00000000000E+00 0. -1.
         11    1    5    5    0    0  0.18114469077E+02 -0.20180781850E+02  0.44519033202E+03  0.44601550384E+03  0.00000000000E+00 0. -1.
        -12    1    5    5    0    0 -0.18141686315E+02  0.14373410022E+02  0.39837752780E+02  0.46073444027E+02  0.00000000000E+00 0.  1.
          5    1    4    4  501    0 -0.32545095789E+02 -0.78673309830E+02 -0.56848187301E+01  0.85431039462E+02  0.41800000000E+01 0. -1.
         -5    1    4    4    0  501 -0.41350732361E+01 -0.22846471280E+02  0.10441377865E+03  0.10704564285E+03  0.41800000000E+01 0. -1.
</event>
<event>
11    1  0.5813833E-009  0.1308425E+03  0.7561462E-02  0.1118238E+00
         22   -1    0    0    0    0  0.00000000000E+00  0.00000000000E+00  0.44548107798E+03  0.44548107798E+03  0.00000000000E+00 0. -1.
         22   -1    0    0    0    0 -0.00000000000E+00 -0.00000000000E+00 -0.13630098445E+04  0.13630098445E+04  0.00000000000E+00 0. -1.
        -24    2    1    2    0    0  0.38556188571E+02  0.12777016289E+01 -0.12637348471E+04  0.12668080081E+04  0.79300398531E+02 0.  0.
         25    2    1    2    0    0 -0.32233844237E+02  0.22519454366E+02 -0.46623462955E+02  0.13917049077E+03  0.12509409124E+03 0.  0.
         24    2    1    2    0    0 -0.63223443347E+01 -0.23797155995E+02  0.39282954359E+03  0.40251242365E+03  0.84231373073E+02 0.  0.
        -13    1    5    5    0    0 -0.17150044970E+02 -0.20985503772E+02  0.33869408949E+02  0.43378016017E+02  0.00000000000E+00 0.  1.
         14    1    5    5    0    0  0.10827700636E+02 -0.28116522228E+01  0.35896013464E+03  0.35913440764E+03  0.00000000000E+00 0. -1.
         13    1    3    3    0    0  0.52866668021E+02 -0.63689949735E+01 -0.11949329816E+04  0.11961188399E+04  0.00000000000E+00 0. -1.
        -14    1    3    3    0    0 -0.14310479450E+02  0.76466966024E+01 -0.68801865531E+02  0.70689168134E+02  0.00000000000E+00 0.  1.
          5    1    4    4  501    0  0.45841287847E+02 -0.42491047561E+01 -0.45946927920E+01  0.46454947686E+02  0.41800000000E+01 0.  1.
         -5    1    4    4    0  501 -0.78075132083E+02  0.26768559122E+02 -0.42028770163E+02  0.92715543080E+02  0.41800000000E+01 0.  1.
</event>
<event>
11    1  0.5813833E-009  0.1393718E+03  0.7561462E-02  0.1108262E+00
         22   -1    0    0    0    0  0.00000000000E+00  0.00000000000E+00  0.56897529799E+03  0.56897529799E+03  0.00000000000E+00 0.  1.
         22   -1    0    0    0    0 -0.00000000000E+00 -0.00000000000E+00 -0.34670178194E+03  0.34670178194E+03  0.00000000000E+00 0. -1.
        -24    2    1    2    0    0 -0.10755138646E+02  0.12148817614E+02 -0.26182697402E+03  0.27446286088E+03  0.80704590340E+02 0.  0.
         25    2    1    2    0    0 -0.46985515945E+02  0.11527022390E+02 -0.12154164940E+02  0.13467032194E+03  0.12509141030E+03 0.  0.
         24    2    1    2    0    0  0.57740654591E+02 -0.23675840003E+02  0.49625465501E+03  0.50654389712E+03  0.80146793389E+02 0.  0.
        -11    1    5    5    0    0  0.24119380291E+02  0.23348519279E+02  0.30229283453E+03  0.30415104088E+03  0.00000000000E+00 0.  1.
         12    1    5    5    0    0  0.33621274299E+02 -0.47024359282E+02  0.19396182048E+03  0.20239285624E+03  0.00000000000E+00 0. -1.
         13    1    3    3    0    0 -0.30724889831E+02  0.16766475841E+02 -0.24623356010E+03  0.24870886531E+03  0.00000000000E+00 0. -1.
        -14    1    3    3    0    0  0.19969751186E+02 -0.46176582271E+01 -0.15593413921E+02  0.25753995566E+02  0.00000000000E+00 0.  1.
          5    1    4    4  501    0 -0.20352821851E+02  0.68229445226E+02 -0.73962139218E+01  0.71705445634E+02  0.41800000000E+01 0. -1.
         -5    1    4    4    0  501 -0.26632694095E+02 -0.56702422837E+02 -0.47579510181E+01  0.62964876305E+02  0.41800000000E+01 0. -1.
</event>
<event>
11    1  0.5813833E-009  0.2226341E+03  0.7561462E-02  0.1039580E+00
         22   -1    0    0    0    0  0.00000000000E+00  0.00000000000E+00  0.99295649171E+03  0.99295649171E+03  0.00000000000E+00 0.  1.
         22   -1    0    0    0    0 -0.00000000000E+00 -0.00000000000E+00 -0.36917143635E+03  0.36917143635E+03  0.00000000000E+00 0. -1.
        -24    2    1    2    0    0  0.36793434442E+02  0.63126502382E+02 -0.28086090671E+03  0.30070302466E+03  0.78744828374E+02 0.  0.
         25    2    1    2    0    0 -0.12494159733E+03  0.10559086894E+03  0.96899893597E+02  0.22758977509E+03  0.12509069509E+03 0.  0.
         24    2    1    2    0    0  0.88148162888E+02 -0.16871737132E+03  0.80774606848E+03  0.83383512832E+03  0.81189039063E+02 0.  0.
        -13    1    5    5    0    0  0.78720408542E+02 -0.63084790123E+02  0.38858905829E+03  0.40146986150E+03  0.00000000000E+00 0.  1.
         14    1    5    5    0    0  0.94277543456E+01 -0.10563258120E+03  0.41915701019E+03  0.43236526682E+03  0.00000000000E+00 0. -1.
         13    1    3    3    0    0  0.55905662521E+02  0.35085048274E+02 -0.23205319539E+03  0.24125730912E+03  0.00000000000E+00 0. -1.
        -14    1    3    3    0    0 -0.19112228078E+02  0.28041454108E+02 -0.48807711328E+02  0.59445715537E+02  0.00000000000E+00 0.  1.
          5    1    4    4  501    0 -0.12873252336E+03  0.12309367154E+03  0.62907393913E+02  0.18894159720E+03  0.41800000000E+01 0. -1.
         -5    1    4    4    0  501  0.37909260315E+01 -0.17502802603E+02  0.33992499684E+02  0.38648177886E+02  0.41800000000E+01 0. -1.
</event>
<event>
11    1  0.5813833E-009  0.1891587E+03  0.7561462E-02  0.1062466E+00
         22   -1    0    0    0    0  0.00000000000E+00  0.00000000000E+00  0.23360802589E+03  0.23360802589E+03  0.00000000000E+00 0. -1.
         22   -1    0    0    0    0 -0.00000000000E+00 -0.00000000000E+00 -0.71832543792E+03  0.71832543792E+03  0.00000000000E+00 0.  1.
         24    2    1    2    0    0  0.13503507167E+03 -0.54685784693E+02 -0.58335802777E+03  0.60654021417E+03  0.79746079567E+02 0.  0.
         25    2    1    2    0    0 -0.12475909854E+03  0.46578290890E+01 -0.36149656908E+02  0.18039183363E+03  0.12509151811E+03 0.  0.
        -24    2    1    2    0    0 -0.10275973130E+02  0.50027955604E+02  0.13479027265E+03  0.16500141601E+03  0.80303534910E+02 0.  0.
        -11    1    3    3    0    0  0.72471243080E+02  0.11922484096E+02 -0.29743872290E+03  0.30637235609E+03  0.00000000000E+00 0.  1.
         12    1    3    3    0    0  0.62563828590E+02 -0.66608268789E+02 -0.28591930488E+03  0.30016785807E+03  0.00000000000E+00 0. -1.
         11    1    5    5    0    0  0.33572183461E+02  0.25312720036E+02  0.81449032196E+02  0.91661170315E+02  0.00000000000E+00 0. -1.
        -12    1    5    5    0    0 -0.43848156591E+02  0.24715235568E+02  0.53341240456E+02  0.73340245698E+02  0.00000000000E+00 0.  1.
          5    1    4    4  501    0 -0.11864519168E+03  0.37547547684E+02  0.80818777426E+01  0.12477695698E+03  0.41800000000E+01 0.  1.
         -5    1    4    4    0  501 -0.61139068592E+01 -0.32889718595E+02 -0.44231534651E+02  0.55614876642E+02  0.41800000000E+01 0.  1.
</event>
<event>
11    1  0.6186816E-009  0.1490729E+03  0.7561462E-02  0.1097830E+00
         22   -1    0    0    0    0  0.00000000000E+00  0.00000000000E+00  0.29052862282E+03  0.29052862282E+03  0.00000000000E+00 0.  1.
         22   -1    0    0    0    0 -0.00000000000E+00 -0.00000000000E+00 -0.15348484856E+04  0.15348484856E+04  0.00000000000E+00 0. -1.
        -24    2    1    2    0    0 -0.30162382426E+02 -0.17749023205E+02 -0.12354671902E+04  0.12386501807E+04  0.81549341261E+02 0.  0.
         25    2    1    2    0    0  0.47536277453E+02 -0.61906752282E+02 -0.26649081705E+03  0.30455957224E+03  0.12508810423E+03 0.  0.
         24    2    1    2    0    0 -0.17373895027E+02  0.79655775487E+02  0.25763814444E+03  0.28216735547E+03  0.81204114607E+02 0.  0.
        -11    1    5    5    0    0 -0.17734719971E+02  0.71136180189E+02  0.26236639869E+03  0.27241696641E+03  0.00000000000E+00 0.  1.
         12    1    5    5    0    0  0.36082494361E+00  0.85195952982E+01 -0.47282542531E+01  0.97503890674E+01  0.00000000000E+00 0. -1.
         11    1    3    3    0    0 -0.45778475872E+02  0.18389033113E+02 -0.66857114643E+03  0.67038884480E+03  0.00000000000E+00 0. -1.
        -12    1    3    3    0    0  0.15616093446E+02 -0.36138056318E+02 -0.56689604374E+03  0.56826133591E+03  0.00000000000E+00 0.  1.
          5    1    4    4  501    0  0.68607732585E+02 -0.89261582823E+02 -0.20412544490E+03  0.23315085416E+03  0.41800000000E+01 0.  1.
         -5    1    4    4    0  501 -0.21071455132E+02  0.27354830541E+02 -0.62365372141E+02  0.71408718078E+02  0.41800000000E+01 0.  1.
</event>
<event>
11    1  0.5813833E-009  0.1772481E+03  0.7561462E-02  0.1071891E+00
         22   -1    0    0    0    0  0.00000000000E+00  0.00000000000E+00  0.36762939547E+03  0.36762939547E+03  0.00000000000E+00 0.  1.
         22   -1    0    0    0    0 -0.00000000000E+00 -0.00000000000E+00 -0.64771314437E+03  0.64771314437E+03  0.00000000000E+00 0. -1.
         24    2    1    2    0    0  0.78412366722E+02  0.91570054469E+02 -0.46306390007E+03  0.48519571317E+03  0.80331378675E+02 0.  0.
         25    2    1    2    0    0 -0.90952473866E+02 -0.12212814374E+03 -0.10961510022E+03  0.22548949333E+03  0.12506960226E+03 0.  0.
        -24    2    1    2    0    0  0.12540107144E+02  0.30558089268E+02  0.29259525140E+03  0.30465733334E+03  0.78186050607E+02 0.  0.
        -11    1    3    3    0    0  0.12036767649E+01  0.45219560155E+02 -0.24713630538E+03  0.25124213599E+03  0.00000000000E+00 0.  1.
         12    1    3    3    0    0  0.77208689957E+02  0.46350494314E+02 -0.21592759469E+03  0.23395357718E+03  0.00000000000E+00 0. -1.
         11    1    5    5    0    0 -0.18109180573E+02  0.21927530996E+02  0.34979753857E+02  0.45081506369E+02  0.00000000000E+00 0. -1.
        -12    1    5    5    0    0  0.30649287717E+02  0.86305582713E+01  0.25761549754E+03  0.25957582697E+03  0.00000000000E+00 0.  1.
          5    1    4    4  501    0 -0.21571347763E+02 -0.10753188790E+03 -0.20696796142E+02  0.11168822557E+03  0.41800000000E+01 0. -1.
         -5    1    4    4    0  501 -0.69381126103E+02 -0.14596255837E+02 -0.88918304083E+02  0.11380126776E+03  0.41800000000E+01 0. -1.
</event>
<event>
11    1  0.5813833E-009  0.2315050E+03  0.7561462E-02  0.1034241E+00
         22   -1    0    0    0    0  0.00000000000E+00  0.00000000000E+00  0.26988625054E+03  0.26988625054E+03  0.00000000000E+00 0. -1.
         22   -1    0    0    0    0 -0.00000000000E+00 -0.00000000000E+00 -0.21295678351E+04  0.21295678351E+04  0.00000000000E+00 0.  1.
        -24    2    1    2    0    0  0.11901531921E+03 -0.15505030142E+03 -0.19574518153E+04  0.19688038232E+04  0.79784978514E+02 0.  0.
         25    2    1    2    0    0 -0.11587153953E+03  0.14491866269E+03 -0.78641181065E+02  0.23719359883E+03  0.12509490596E+03 0.  0.
         24    2    1    2    0    0 -0.31437796832E+01  0.10131638729E+02  0.17641141184E+03  0.19345666359E+03  0.78689014530E+02 0.  0.
        -11    1    5    5    0    0  0.17224323035E+01  0.15227687527E+02 -0.15070604195E+01  0.15398716556E+02  0.00000000000E+00 0.  1.
         12    1    5    5    0    0 -0.48662119867E+01 -0.50960487979E+01  0.17791847225E+03  0.17805794703E+03  0.00000000000E+00 0. -1.
         13    1    3    3    0    0  0.74298140298E+02 -0.36030503567E+02 -0.88416663689E+03  0.88801410610E+03  0.00000000000E+00 0. -1.
        -14    1    3    3    0    0  0.44717178912E+02 -0.11901979786E+03 -0.10732851784E+04  0.10807897171E+04  0.00000000000E+00 0.  1.
          5    1    4    4  501    0 -0.10612580403E+01  0.69282670781E+02 -0.71206933930E+02  0.99444027367E+02  0.41800000000E+01 0.  1.
         -5    1    4    4    0  501 -0.11481028149E+03  0.75635991912E+02 -0.74342471348E+01  0.13774957146E+03  0.41800000000E+01 0.  1.
</event>
<event>
11    1  0.5813833E-009  0.1631778E+03  0.7561462E-02  0.1084126E+00
         22   -1    0    0    0    0  0.00000000000E+00  0.00000000000E+00  0.85893592290E+02  0.85893592290E+02  0.00000000000E+00 0. -1.
         22   -1    0    0    0    0 -0.00000000000E+00 -0.00000000000E+00 -0.37770163704E+04  0.37770163704E+04  0.00000000000E+00 0. -1.
        -24    2    1    2    0    0  0.80454217268E+01 -0.11062105334E+03 -0.31916659748E+04  0.31944646800E+04  0.74640140952E+02 0.  0.
         25    2    1    2    0    0 -0.27229033792E+02  0.62588257342E+02 -0.54549075029E+03  0.56379558199E+03  0.12508632770E+03 0.  0.
         24    2    1    2    0    0  0.19183612065E+02  0.48032796001E+02  0.46033946967E+02  0.10464970075E+03  0.78468306527E+02 0.  0.
        -13    1    5    5    0    0  0.47746735667E+02  0.22128651905E+02  0.13834454280E+02  0.54413418632E+02  0.00000000000E+00 0.  1.
         14    1    5    5    0    0 -0.28563123602E+02  0.25904144096E+02  0.32199492686E+02  0.50236282113E+02  0.00000000000E+00 0. -1.
         13    1    3    3    0    0  0.18013505486E+02 -0.11690209835E+03 -0.30559613646E+04  0.30582495727E+04  0.00000000000E+00 0. -1.
        -14    1    3    3    0    0 -0.99680837590E+01  0.62810450084E+01 -0.13570461016E+03  0.13621510723E+03  0.00000000000E+00 0.  1.
          5    1    4    4  501    0 -0.45084927253E+00  0.65065791032E+02 -0.52670694328E+03  0.53072727170E+03  0.41800000000E+01 0. -1.
         -5    1    4    4    0  501 -0.26778184519E+02 -0.24775336900E+01 -0.18783807011E+02  0.33068310286E+02  0.41800000000E+01 0. -1.
</event>
<event>
11    1  0.5813833E-009  0.2515786E+03  0.7561462E-02  0.1023062E+00
         22   -1    0    0    0    0  0.00000000000E+00  0.00000000000E+00  0.72254780725E+03  0.72254780725E+03  0.00000000000E+00 0. -1.
         22   -1    0    0    0    0 -0.00000000000E+00 -0.00000000000E+00 -0.20348596456E+04  0.20348596456E+04  0.00000000000E+00 0.  1.
         24    2    1    2    0    0 -0.18659452032E+03  0.91506896305E+02 -0.16413704167E+04  0.16563903175E+04  0.79630472268E+02 0.  0.
         25    2    1    2    0    0  0.28595424861E+03 -0.22265020773E+03 -0.27349315006E+03  0.47094483505E+03  0.12509031631E+03 0.  0.
        -24    2    1    2    0    0 -0.99359728293E+02  0.13114331142E+03  0.60255172837E+03  0.63007230030E+03  0.82774359005E+02 0.  0.
        -11    1    3    3    0    0 -0.67327219555E+02  0.59300789656E+02 -0.46703184166E+03  0.47557152908E+03  0.00000000000E+00 0.  1.
         12    1    3    3    0    0 -0.11926730076E+03  0.32206106649E+02 -0.11743385750E+04  0.11808187884E+04  0.00000000000E+00 0. -1.
         11    1    5    5    0    0 -0.86467467501E+02  0.12916155774E+03  0.43359072111E+03  0.46060855872E+03  0.00000000000E+00 0. -1.
        -12    1    5    5    0    0 -0.12892260792E+02  0.19817536772E+01  0.16896100726E+03  0.16946374158E+03  0.00000000000E+00 0.  1.
          5    1    4    4  501    0  0.27444873799E+03 -0.23687148158E+03 -0.24788454905E+03  0.43919748477E+03  0.41800000000E+01 0. -1.
         -5    1    4    4    0  501  0.11505510627E+02  0.14221273852E+02 -0.25608601001E+02  0.31747350283E+02  0.41800000000E+01 0. -1.
</event>
<event>
11    1  0.5813833E-009  0.1459499E+03  0.7561462E-02  0.1101091E+00
         22   -1    0    0    0    0  0.00000000000E+00  0.00000000000E+00  0.13694853369E+03  0.13694853369E+03  0.00000000000E+00 0.  1.
         22   -1    0    0    0    0 -0.00000000000E+00 -0.00000000000E+00 -0.76254590528E+03  0.76254590528E+03  0.00000000000E+00 0.  1.
        -24    2    1    2    0    0 -0.38260004808E+02 -0.23615966516E+02 -0.31906565948E+03  0.33205147188E+03  0.80210616975E+02 0.  0.
         25    2    1    2    0    0  0.68667497987E+02  0.89854301183E+02 -0.39293751242E+03  0.42759443478E+03  0.12509233099E+03 0.  0.
         24    2    1    2    0    0 -0.30407493179E+02 -0.66238334666E+02  0.86405800312E+02  0.13984853230E+03  0.82337822652E+02 0.  0.
        -13    1    5    5    0    0 -0.34816919065E+01 -0.76937812585E+02  0.78148377853E+02  0.10972109253E+03  0.00000000000E+00 0.  1.
         14    1    5    5    0    0 -0.26925801273E+02  0.10699477919E+02  0.82574224582E+01  0.30127439778E+02  0.00000000000E+00 0. -1.
         13    1    3    3    0    0  0.17641103069E+02  0.65915322704E+01 -0.25571156462E+02  0.31757532303E+02  0.00000000000E+00 0. -1.
        -14    1    3    3    0    0 -0.55901107877E+02 -0.30207498787E+02 -0.29349450302E+03  0.30029393958E+03  0.00000000000E+00 0.  1.
          5    1    4    4  501    0  0.58751575140E+02  0.11735489149E+03 -0.25833121172E+03  0.28978682767E+03  0.41800000000E+01 0. -1.
         -5    1    4    4    0  501  0.99159228475E+01 -0.27500590309E+02 -0.13460630069E+03  0.13780760712E+03  0.41800000000E+01 0. -1.
</event>
<event>
11    1  0.5813833E-009  0.1292337E+03  0.7561462E-02  0.1120214E+00
         22   -1    0    0    0    0  0.00000000000E+00  0.00000000000E+00  0.73465791249E+03  0.73465791249E+03  0.00000000000E+00 0. -1.
         22   -1    0    0    0    0 -0.00000000000E+00 -0.00000000000E+00 -0.36134491077E+03  0.36134491077E+03  0.00000000000E+00 0.  1.
         24    2    1    2    0    0 -0.84910479686E+01  0.28923472292E+02 -0.27854178146E+03  0.29119359711E+03  0.79369527120E+02 0.  0.
         25    2    1    2    0    0  0.27730836556E+02 -0.49834183864E+02 -0.99230863384E+01  0.13783601243E+03  0.12509138061E+03 0.  0.
        -24    2    1    2    0    0 -0.19239788587E+02  0.20910711572E+02  0.66177786952E+03  0.66697321372E+03  0.78076192959E+02 0.  0.
        -11    1    3    3    0    0 -0.37746686393E+02  0.29703512728E+02 -0.22602946643E+03  0.23107667710E+03  0.00000000000E+00 0.  1.
         12    1    3    3    0    0  0.29255638424E+02 -0.78004043626E+00 -0.52512315026E+02  0.60116920015E+02  0.00000000000E+00 0. -1.
         11    1    5    5    0    0  0.96644243216E+01 -0.85999997349E+01  0.49454571083E+03  0.49471488879E+03  0.00000000000E+00 0. -1.
        -12    1    5    5    0    0 -0.28904212909E+02  0.29510711307E+02  0.16723215869E+03  0.17225832492E+03  0.00000000000E+00 0.  1.
          5    1    4    4  501    0  0.23240083681E+02  0.40235570252E+02 -0.92187141270E+01  0.47554807256E+02  0.41800000000E+01 0.  1.
         -5    1    4    4    0  501  0.44907528745E+01 -0.90069754116E+02 -0.70437221139E+00  0.90281205177E+02  0.41800000000E+01 0.  1.
</event>
<event>
11    1  0.5813833E-009  0.2659266E+03  0.7561462E-02  0.1015741E+00
         22   -1    0    0    0    0  0.00000000000E+00  0.00000000000E+00  0.13348254319E+04  0.13348254319E+04  0.00000000000E+00 0. -1.
         22   -1    0    0    0    0 -0.00000000000E+00 -0.00000000000E+00 -0.45343688168E+03  0.45343688168E+03  0.00000000000E+00 0. -1.
         24    2    1    2    0    0  0.74837195533E+02 -0.22866387658E+03 -0.31099361793E+03  0.40133883818E+03  0.80424239812E+02 0.  0.
         25    2    1    2    0    0 -0.57260114651E+02  0.20601365388E+03  0.64264608620E+02  0.25592619051E+03  0.12509168138E+03 0.  0.
        -24    2    1    2    0    0 -0.17577080881E+02  0.22650222703E+02  0.11281175595E+04  0.11309972849E+04  0.75389946091E+02 0.  0.
        -13    1    3    3    0    0  0.42702859576E+01 -0.10336666384E+03 -0.87078757161E+02  0.13522430434E+03  0.00000000000E+00 0.  1.
         14    1    3    3    0    0  0.70566909575E+02 -0.12529721275E+03 -0.22391486077E+03  0.26611453384E+03  0.00000000000E+00 0. -1.
         11    1    5    5    0    0  0.10782795878E+02  0.47983540388E+01  0.92933143938E+03  0.92940637888E+03  0.00000000000E+00 0. -1.
        -12    1    5    5    0    0 -0.28359876760E+02  0.17851868665E+02  0.19878612015E+03  0.20159090602E+03  0.00000000000E+00 0.  1.
          5    1    4    4  501    0 -0.11144587083E+02  0.17517770934E+03  0.86845946146E+02  0.19588548296E+03  0.41800000000E+01 0.  1.
         -5    1    4    4    0  501 -0.46115527568E+02  0.30835944541E+02 -0.22581337526E+02  0.60040707550E+02  0.41800000000E+01 0.  1.
</event>
<event>
11    1  0.5813833E-009  0.1262570E+03  0.7561462E-02  0.1123955E+00
         22   -1    0    0    0    0  0.00000000000E+00  0.00000000000E+00  0.31164332631E+03  0.31164332631E+03  0.00000000000E+00 0.  1.
         22   -1    0    0    0    0 -0.00000000000E+00 -0.00000000000E+00 -0.19422822017E+03  0.19422822017E+03  0.00000000000E+00 0.  1.
         24    2    1    2    0    0  0.13101861700E+02  0.26644274678E+02 -0.75755982918E+02  0.11274147971E+03  0.78039068078E+02 0.  0.
         25    2    1    2    0    0 -0.14103694312E+02 -0.77202199365E+01 -0.50011593540E+02  0.13567239125E+03  0.12508925722E+03 0.  0.
        -24    2    1    2    0    0  0.10018326119E+01 -0.18924054742E+02  0.24318268260E+03  0.25745767552E+03  0.82386370527E+02 0.  0.
        -13    1    3    3    0    0  0.22086162492E+02  0.51283143397E+02 -0.60806194188E+02  0.82553937652E+02  0.00000000000E+00 0.  1.
         14    1    3    3    0    0 -0.89843007924E+01 -0.24638868719E+02 -0.14949788730E+02  0.30187542059E+02  0.00000000000E+00 0. -1.
         13    1    5    5    0    0 -0.21811964125E+02  0.25645169256E+02  0.11558201023E+03  0.12038537110E+03  0.00000000000E+00 0. -1.
        -14    1    5    5    0    0  0.22813796737E+02 -0.44569223998E+02  0.12760067237E+03  0.13707230442E+03  0.00000000000E+00 0.  1.
          5    1    4    4  501    0  0.14332797292E+02  0.24392875685E+02 -0.78810158143E+02  0.83838862641E+02  0.41800000000E+01 0. -1.
         -5    1    4    4    0  501 -0.28436491603E+02 -0.32113095622E+02  0.28798564603E+02  0.51833528611E+02  0.41800000000E+01 0. -1.
</event>
<event>
11    1  0.5813833E-009  0.1252397E+03  0.7561462E-02  0.1125260E+00
         22   -1    0    0    0    0  0.00000000000E+00  0.00000000000E+00  0.32047791070E+03  0.32047791070E+03  0.00000000000E+00 0.  1.
         22   -1    0    0    0    0 -0.00000000000E+00 -0.00000000000E+00 -0.45508755684E+03  0.45508755684E+03  0.00000000000E+00 0. -1.
         24    2    1    2    0    0  0.16045804517E+01  0.12210067639E+02 -0.26836019928E+03  0.28139228622E+03  0.83742233992E+02 0.  0.
         25    2    1    2    0    0 -0.52528069888E+01  0.16743163753E+02 -0.15118609758E+03  0.19700432857E+03  0.12508214845E+03 0.  0.
        -24    2    1    2    0    0  0.36482265371E+01 -0.28953231392E+02  0.28493665072E+03  0.29716885275E+03  0.79175961997E+02 0.  0.
        -11    1    3    3    0    0 -0.69820532772E+01 -0.33866267303E+02 -0.77546792711E+02  0.84906879514E+02  0.00000000000E+00 0.  1.
         12    1    3    3    0    0  0.85866337289E+01  0.46076334941E+02 -0.19081340657E+03  0.19648540671E+03  0.00000000000E+00 0. -1.
         11    1    5    5    0    0  0.33116748641E+02 -0.36682982659E+02  0.12613011779E+03  0.13546647878E+03  0.00000000000E+00 0. -1.
        -12    1    5    5    0    0 -0.29468522104E+02  0.77297512676E+01  0.15880653293E+03  0.16170237398E+03  0.00000000000E+00 0.  1.
          5    1    4    4  501    0 -0.46764498785E+01 -0.73077657957E+01 -0.16741057570E+03  0.16768734561E+03  0.41800000000E+01 0.  1.
         -5    1    4    4    0  501 -0.57635711033E+00  0.24050929548E+02  0.16224478117E+02  0.29316982959E+02  0.41800000000E+01 0.  1.
</event>
<event>
11    1  0.5813833E-009  0.1592901E+03  0.7561462E-02  0.1087747E+00
         22   -1    0    0    0    0  0.00000000000E+00  0.00000000000E+00  0.75715471723E+03  0.75715471723E+03  0.00000000000E+00 0.  1.
         22   -1    0    0    0    0 -0.00000000000E+00 -0.00000000000E+00 -0.82843843082E+02  0.82843843082E+02  0.00000000000E+00 0.  1.
        -24    2    1    2    0    0  0.69215402524E+02  0.64358748307E+02  0.40661379311E+02  0.13012410404E+03  0.79662502188E+02 0.  0.
         25    2    1    2    0    0 -0.74471185905E+02 -0.78636050064E+02  0.16378821734E+03  0.23281652836E+03  0.12508944734E+03 0.  0.
         24    2    1    2    0    0  0.52557833807E+01  0.14277301756E+02  0.46986127749E+03  0.47705792791E+03  0.81136809724E+02 0.  0.
        -13    1    5    5    0    0  0.27054278668E+02  0.21397624015E+02  0.42748799399E+03  0.42887734530E+03  0.00000000000E+00 0.  1.
         14    1    5    5    0    0 -0.21798495287E+02 -0.71203222583E+01  0.42373283506E+02  0.48180582613E+02  0.00000000000E+00 0. -1.
         13    1    3    3    0    0  0.43712751473E+02  0.44030654559E+02  0.64675321118E+02  0.89623659510E+02  0.00000000000E+00 0. -1.
        -14    1    3    3    0    0  0.25502651051E+02  0.20328093748E+02 -0.24013941808E+02  0.40500444531E+02  0.00000000000E+00 0.  1.
          5    1    4    4  501    0 -0.82774503434E+01  0.24620173790E+02 -0.21852441035E+01  0.26399182438E+02  0.41800000000E+01 0.  1.
         -5    1    4    4    0  501 -0.66193735561E+02 -0.10325622385E+03  0.16597346145E+03  0.20641734592E+03  0.41800000000E+01 0.  1.
</event>
<event>
11    1  0.5813833E-009  0.2073698E+03  0.7561462E-02  0.1049431E+00
         22   -1    0    0    0    0  0.00000000000E+00  0.00000000000E+00  0.18165153553E+04  0.18165153553E+04  0.00000000000E+00 0.  1.
         22   -1    0    0    0    0 -0.00000000000E+00 -0.00000000000E+00 -0.12407414419E+04  0.12407414419E+04  0.00000000000E+00 0.  1.
         24    2    1    2    0    0 -0.15751083951E+03 -0.49793878079E+02 -0.12183497081E+04  0.12320873162E+04  0.79837638821E+02 0.  0.
         25    2    1    2    0    0  0.20384242790E+03  0.31406231674E+02  0.13204618355E+04  0.13423133475E+04  0.12509027569E+03 0.  0.
        -24    2    1    2    0    0 -0.46331588386E+02  0.18387646405E+02  0.47366178601E+03  0.48285613349E+03  0.79434479233E+02 0.  0.
        -11    1    3    3    0    0 -0.15677956594E+03 -0.43486483679E+02 -0.96216686192E+03  0.97582579221E+03  0.00000000000E+00 0.  1.
         12    1    3    3    0    0 -0.73127357449E+00 -0.63073943997E+01 -0.25618284622E+03  0.25626152399E+03  0.00000000000E+00 0. -1.
         13    1    5    5    0    0 -0.29672335335E+02  0.44832029612E+02  0.38728412743E+03  0.39099789478E+03  0.00000000000E+00 0. -1.
        -14    1    5    5    0    0 -0.16659253052E+02 -0.26444383207E+02  0.86377658587E+02  0.91858238707E+02  0.00000000000E+00 0.  1.
          5    1    4    4  501    0  0.12081149427E+03  0.72300800986E+02  0.95290942790E+03  0.96326355332E+03  0.41800000000E+01 0. -1.
         -5    1    4    4    0  501  0.83030933631E+02 -0.40894569312E+02  0.36755240760E+03  0.37904979418E+03  0.41800000000E+01 0. -1.
</event>
<event>
11    1  0.5813833E-009  0.1821754E+03  0.7561462E-02  0.1067897E+00
         22   -1    0    0    0    0  0.00000000000E+00  0.00000000000E+00  0.31602049398E+03  0.31602049398E+03  0.00000000000E+00 0. -1.
         22   -1    0    0    0    0 -0.00000000000E+00 -0.00000000000E+00 -0.28096892442E+03  0.28096892442E+03  0.00000000000E+00 0. -1.
        -24    2    1    2    0    0 -0.61504215034E+02 -0.36041541190E+01 -0.13943920582E+03  0.18187809324E+03  0.99199749435E+02 0.  0.
         25    2    1    2    0    0  0.50563409326E+02  0.13500228307E+03  0.13421927788E+02  0.19134067490E+03  0.12509528740E+03 0.  0.
         24    2    1    2    0    0  0.10940805708E+02 -0.13139812895E+03  0.16106884759E+03  0.22377065025E+03  0.82127709862E+02 0.  0.
        -11    1    5    5    0    0  0.21863148331E+02 -0.63946223556E+02  0.26014952560E+02  0.72414739651E+02  0.00000000000E+00 0.  1.
         12    1    5    5    0    0 -0.10922342623E+02 -0.67451905396E+02  0.13505389503E+03  0.15135591060E+03  0.00000000000E+00 0. -1.
         11    1    3    3    0    0 -0.43291317816E+02 -0.95355264381E+01 -0.15242274631E+03  0.15873801705E+03  0.00000000000E+00 0. -1.
        -12    1    3    3    0    0 -0.18212897217E+02  0.59313723191E+01  0.12983540492E+02  0.23140076196E+02  0.00000000000E+00 0.  1.
          5    1    4    4  501    0 -0.19335778741E+02  0.11218679688E+03 -0.92237505033E+01  0.11429041827E+03  0.41800000000E+01 0.  1.
         -5    1    4    4    0  501  0.69899188067E+02  0.22815486189E+02  0.22645678291E+02  0.77050256636E+02  0.41800000000E+01 0.  1.
</event>
<event>
11    1  0.5813833E-009  0.1551442E+03  0.7561462E-02  0.1091735E+00
         22   -1    0    0    0    0  0.00000000000E+00  0.00000000000E+00  0.75355414240E+03  0.75355414240E+03  0.00000000000E+00 0. -1.
         22   -1    0    0    0    0 -0.00000000000E+00 -0.00000000000E+00 -0.21602452404E+03  0.21602452404E+03  0.00000000000E+00 0.  1.
         24    2    1    2    0    0 -0.76165193408E+02 -0.51838997693E+02 -0.16995005006E+03  0.21007585209E+03  0.82221808238E+02 0.  0.
         25    2    1    2    0    0  0.71077474497E+02  0.49239168113E+02  0.23234582605E+03  0.27770199069E+03  0.12512917202E+03 0.  0.
        -24    2    1    2    0    0  0.50877189110E+01  0.25998295806E+01  0.47513384237E+03  0.48180082366E+03  0.79669451591E+02 0.  0.
        -11    1    3    3    0    0 -0.62765488805E+02 -0.70886273575E+02 -0.10657504051E+03  0.14255739064E+03  0.00000000000E+00 0.  1.
         12    1    3    3    0    0 -0.13399704603E+02  0.19047275882E+02 -0.63375009551E+02  0.67518461457E+02  0.00000000000E+00 0. -1.
         11    1    5    5    0    0  0.38316522251E+02 -0.16262882707E+02  0.24012955689E+03  0.24371056876E+03  0.00000000000E+00 0. -1.
        -12    1    5    5    0    0 -0.33228803340E+02  0.18862712288E+02  0.23500428548E+03  0.23809025490E+03  0.00000000000E+00 0.  1.
          5    1    4    4  501    0  0.98804452756E+02  0.41864405333E+02  0.11719148882E+03  0.15895365919E+03  0.41800000000E+01 0.  1.
         -5    1    4    4    0  501 -0.27726978259E+02  0.73747627794E+01  0.11515433723E+03  0.11874833149E+03  0.41800000000E+01 0.  1.
</event>
<event>
11    1  0.5813833E-009  0.1888143E+03  0.7561462E-02  0.1062728E+00
         22   -1    0    0    0    0  0.00000000000E+00  0.00000000000E+00  0.74119471881E+03  0.74119471881E+03  0.00000000000E+00 0. -1.
         22   -1    0    0    0    0 -0.00000000000E+00 -0.00000000000E+00 -0.74473021888E+03  0.74473021888E+03  0.00000000000E+00 0.  1.
        -24    2    1    2    0    0 -0.13825262422E+03 -0.25821219464E+02 -0.56329896164E+03  0.58680973095E+03  0.85202210522E+02 0.  0.
         25    2    1    2    0    0  0.15923660870E+03 -0.90572329296E+02 -0.85847967088E+02  0.23785879904E+03  0.12508912999E+03 0.  0.
         24    2    1    2    0    0 -0.20983984479E+02  0.11639354876E+03  0.64561142866E+03  0.66125640770E+03  0.80362516829E+02 0.  0.
        -13    1    5    5    0    0  0.26396677243E+02  0.14750810952E+02  0.16363373666E+03  0.16640423903E+03  0.00000000000E+00 0.  1.
         14    1    5    5    0    0 -0.47380661721E+02  0.10164273781E+03  0.48197769200E+03  0.49485216867E+03  0.00000000000E+00 0. -1.
         11    1    3    3    0    0 -0.84665140080E+02  0.14083136216E+02 -0.20348788310E+03  0.22084800031E+03  0.00000000000E+00 0. -1.
        -12    1    3    3    0    0 -0.53587484144E+02 -0.39904355680E+02 -0.35981107853E+03  0.36596173064E+03  0.00000000000E+00 0.  1.
          5    1    4    4  501    0  0.12918397246E+03 -0.12204863408E+03 -0.63595704944E+02  0.18880215547E+03  0.41800000000E+01 0. -1.
         -5    1    4    4    0  501  0.30052636241E+02  0.31476304785E+02 -0.22252262144E+02  0.49056643571E+02  0.41800000000E+01 0. -1.
</event>
<event>
11    1  0.5813833E-009  0.1848522E+03  0.7561462E-02  0.1065784E+00
         22   -1    0    0    0    0  0.00000000000E+00  0.00000000000E+00  0.97670814618E+02  0.97670814618E+02  0.00000000000E+00 0.  1.
         22   -1    0    0    0    0 -0.00000000000E+00 -0.00000000000E+00 -0.13556481888E+04  0.13556481888E+04  0.00000000000E+00 0.  1.
         24    2    1    2    0    0 -0.32339545846E+02  0.16634199687E+02 -0.62289887198E+03  0.62898702869E+03  0.79367088374E+02 0.  0.
         25    2    1    2    0    0  0.13721005602E+03  0.67523299519E+02 -0.63650692130E+03  0.66646448816E+03  0.12509139721E+03 0.  0.
        -24    2    1    2    0    0 -0.10487051018E+03 -0.84157499206E+02  0.14284191416E+01  0.15786748654E+03  0.82703049194E+02 0.  0.
        -11    1    3    3    0    0  0.23143585195E+02  0.60497524135E+01 -0.31813813550E+03  0.31903620217E+03  0.00000000000E+00 0.  1.
         12    1    3    3    0    0 -0.55483131041E+02  0.10584447274E+02 -0.30476073649E+03  0.30995082652E+03  0.00000000000E+00 0. -1.
         13    1    5    5    0    0 -0.23766809172E+02  0.94518286167E+01  0.20205493495E+02  0.32595402280E+02  0.00000000000E+00 0. -1.
        -14    1    5    5    0    0 -0.81103701006E+02 -0.93609327823E+02 -0.18777074353E+02  0.12527208426E+03  0.00000000000E+00 0.  1.
          5    1    4    4  501    0  0.77286140191E+02  0.87721416786E+02 -0.52801169194E+03  0.54081606268E+03  0.41800000000E+01 0. -1.
         -5    1    4    4    0  501  0.59923915833E+02 -0.20198117268E+02 -0.10849522936E+03  0.12564842548E+03  0.41800000000E+01 0. -1.
</event>
<event>
11    1  0.5813833E-009  0.1471606E+03  0.7561462E-02  0.1099816E+00
         22   -1    0    0    0    0  0.00000000000E+00  0.00000000000E+00  0.94577928285E+02  0.94577928285E+02  0.00000000000E+00 0. -1.
         22   -1    0    0    0    0 -0.00000000000E+00 -0.00000000000E+00 -0.96648079067E+03  0.96648079067E+03  0.00000000000E+00 0.  1.
        -24    2    1    2    0    0 -0.29823795254E+02 -0.71086704095E+02 -0.77476869867E+03  0.78154514154E+03  0.67849049861E+02 0.  0.
         25    2    1    2    0    0  0.21113021821E+02  0.79282373913E+02 -0.12377381407E+03  0.19418309898E+03  0.12512259738E+03 0.  0.
         24    2    1    2    0    0  0.87107734333E+01 -0.81956698180E+01  0.26639650361E+02  0.85330478431E+02  0.80178382375E+02 0.  0.
        -11    1    5    5    0    0  0.31849639830E+02  0.19227787422E+02 -0.49419202671E+01  0.37530386920E+02  0.00000000000E+00 0.  1.
         12    1    5    5    0    0 -0.23138866396E+02 -0.27423457240E+02  0.31581570628E+02  0.47800091511E+02  0.00000000000E+00 0. -1.
         13    1    3    3    0    0 -0.17348265061E+02 -0.56614316226E+02 -0.27007464641E+03  0.27648952554E+03  0.00000000000E+00 0. -1.
        -14    1    3    3    0    0 -0.12475530193E+02 -0.14472387869E+02 -0.50469405226E+03  0.50505561600E+03  0.00000000000E+00 0.  1.
          5    1    4    4  501    0  0.24725437378E+02  0.57046430009E+02 -0.14815445981E+03  0.16072603644E+03  0.41800000000E+01 0. -1.
         -5    1    4    4    0  501 -0.36124155571E+01  0.22235943904E+02  0.24380645731E+02  0.33457062539E+02  0.41800000000E+01 0. -1.
</event>
<event>
11    1  0.5813833E-009  0.1467485E+03  0.7561462E-02  0.1100248E+00
         22   -1    0    0    0    0  0.00000000000E+00  0.00000000000E+00  0.20061782051E+04  0.20061782051E+04  0.00000000000E+00 0.  1.
         22   -1    0    0    0    0 -0.00000000000E+00 -0.00000000000E+00 -0.69758386628E+02  0.69758386628E+02  0.00000000000E+00 0. -1.
        -24    2    1    2    0    0  0.15306547068E+02  0.95854447540E+00 -0.33371719667E+02  0.88825666804E+02  0.80877179841E+02 0.  0.
         25    2    1    2    0    0 -0.86445255374E+02 -0.55537177956E+01  0.10303190039E+04  0.10414935187E+04  0.12509146126E+03 0.  0.
         24    2    1    2    0    0  0.71138708305E+02  0.45951733202E+01  0.93947253428E+03  0.94561740629E+03  0.80633770710E+02 0.  0.
        -13    1    5    5    0    0  0.60124791877E+02  0.35839454419E+02  0.49677478344E+03  0.50168181405E+03  0.00000000000E+00 0.  1.
         14    1    5    5    0    0  0.11013916428E+02 -0.31244281099E+02  0.44269775084E+03  0.44393559224E+03  0.00000000000E+00 0. -1.
         13    1    3    3    0    0 -0.21354939884E+02  0.24587272287E+02 -0.31286031015E+02  0.45159530031E+02  0.00000000000E+00 0. -1.
        -14    1    3    3    0    0  0.36661486952E+02 -0.23628727812E+02 -0.20856886525E+01  0.43666136773E+02  0.00000000000E+00 0.  1.
          5    1    4    4  501    0 -0.45538123192E+02 -0.10601919123E+02  0.10236549767E+03  0.11261566883E+03  0.41800000000E+01 0. -1.
         -5    1    4    4    0  501 -0.40907132182E+02  0.50482013273E+01  0.92795350624E+03  0.92887784985E+03  0.41800000000E+01 0. -1.
</event>
<event>
11    1  0.5813833E-009  0.1449906E+03  0.7561462E-02  0.1102110E+00
         22   -1    0    0    0    0  0.00000000000E+00  0.00000000000E+00  0.67317648493E+02  0.67317648493E+02  0.00000000000E+00 0. -1.
         22   -1    0    0    0    0 -0.00000000000E+00 -0.00000000000E+00 -0.25602796423E+04  0.25602796423E+04  0.00000000000E+00 0. -1.
         24    2    1    2    0    0  0.37301611215E+02  0.53801644611E+02 -0.21582035952E+04  0.21607159052E+04  0.81021216514E+02 0.  0.
         25    2    1    2    0    0  0.29312540899E+02 -0.86381196834E+02 -0.32171303856E+03  0.35702567184E+03  0.12508842854E+03 0.  0.
        -24    2    1    2    0    0 -0.66614152114E+02  0.32579552223E+02 -0.13045360083E+02  0.10985571378E+03  0.79995149511E+02 0.  0.
        -13    1    3    3    0    0 -0.22413069188E+02  0.18435767398E+02 -0.35774162987E+03  0.35891683846E+03  0.00000000000E+00 0.  1.
         14    1    3    3    0    0  0.59714680404E+02  0.35365877213E+02 -0.18004619653E+04  0.18017990667E+04  0.00000000000E+00 0. -1.
         13    1    5    5    0    0 -0.56617275318E+02  0.46684362603E+02  0.16877124269E+02  0.75297960794E+02  0.00000000000E+00 0. -1.
        -14    1    5    5    0    0 -0.99968767962E+01 -0.14104810381E+02 -0.29922484352E+02  0.34557752985E+02  0.00000000000E+00 0.  1.
          5    1    4    4  501    0  0.38905583898E+02 -0.52634806059E+02 -0.31411155373E+03  0.32088566166E+03  0.41800000000E+01 0.  1.
         -5    1    4    4    0  501 -0.95930429999E+01 -0.33746390775E+02 -0.76014848214E+01  0.36140010180E+02  0.41800000000E+01 0.  1.
</event>
<event>
11    1  0.5813833E-009  0.1332109E+03  0.7561462E-02  0.1115386E+00
         22   -1    0    0    0    0  0.00000000000E+00  0.00000000000E+00  0.14593585530E+04  0.14593585530E+04  0.00000000000E+00 0. -1.
         22   -1    0    0    0    0 -0.00000000000E+00 -0.00000000000E+00 -0.16883991935E+03  0.16883991935E+03  0.00000000000E+00 0.  1.
         24    2    1    2    0    0 -0.23277120135E+02  0.37097009989E+02 -0.12796640268E+03  0.15634548161E+03  0.78425103981E+02 0.  0.
         25    2    1    2    0    0  0.51689692114E+02 -0.57446443755E+02  0.18994580768E+03  0.24020504055E+03  0.12508850258E+03 0.  0.
        -24    2    1    2    0    0 -0.28412571978E+02  0.20349433766E+02  0.12285392287E+04  0.12316479502E+04  0.80166471624E+02 0.  0.
        -13    1    3    3    0    0 -0.10709289666E+01  0.33657297722E+02 -0.12951503324E+03  0.13382116579E+03  0.00000000000E+00 0.  1.
         14    1    3    3    0    0 -0.22206191169E+02  0.34397122668E+01  0.15486305589E+01  0.22524315824E+02  0.00000000000E+00 0. -1.
         13    1    5    5    0    0  0.55423545070E+01 -0.16342800094E+02  0.80251404727E+03  0.80269957074E+03  0.00000000000E+00 0. -1.
        -14    1    5    5    0    0 -0.33954926485E+02  0.36692233860E+02  0.42602518142E+03  0.42894837948E+03  0.00000000000E+00 0.  1.
          5    1    4    4  501    0 -0.18786152922E+02  0.28546501307E+02  0.31981192356E+02  0.46990332442E+02  0.41800000000E+01 0.  1.
         -5    1    4    4    0  501  0.70475845036E+02 -0.85992945061E+02  0.15796461532E+03  0.19321470810E+03  0.41800000000E+01 0.  1.
</event>
<event>
11    1  0.5813833E-009  0.1544658E+03  0.7561462E-02  0.1092401E+00
         22   -1    0    0    0    0  0.00000000000E+00  0.00000000000E+00  0.22131857082E+04  0.22131857082E+04  0.00000000000E+00 0.  1.
         22   -1    0    0    0    0 -0.00000000000E+00 -0.00000000000E+00 -0.13317023417E+04  0.13317023417E+04  0.00000000000E+00 0. -1.
         24    2    1    2    0    0  0.13165117124E+02  0.91184143665E+02 -0.11747340639E+04  0.11809911970E+04  0.79070968516E+02 0.  0.
         25    2    1    2    0    0 -0.64930899184E+02 -0.61969350454E+02 -0.11388063863E+03  0.19150179429E+03  0.12509162760E+03 0.  0.
        -24    2    1    2    0    0  0.51765782060E+02 -0.29214793212E+02  0.21700980691E+04  0.21723950587E+04  0.80258713996E+02 0.  0.
        -13    1    3    3    0    0 -0.54769625746E+01 -0.11375821514E+02 -0.26572475060E+03  0.26602452803E+03  0.00000000000E+00 0.  1.
         14    1    3    3    0    0  0.18642079698E+02  0.10255996518E+03 -0.90900931335E+03  0.91496666898E+03  0.00000000000E+00 0. -1.
         11    1    5    5    0    0 -0.10914413802E+02 -0.22488416685E+02  0.11949614725E+04  0.11952228972E+04  0.00000000000E+00 0. -1.
        -12    1    5    5    0    0  0.62680195863E+02 -0.67263765271E+01  0.97513659662E+03  0.97717216147E+03  0.00000000000E+00 0.  1.
          5    1    4    4  501    0 -0.68129423534E+02 -0.52806089177E+02 -0.97636158364E+01  0.86849881977E+02  0.41800000000E+01 0. -1.
         -5    1    4    4    0  501  0.31985243500E+01 -0.91632612764E+01 -0.10411702279E+03  0.10465191231E+03  0.41800000000E+01 0. -1.
</event>
<event>
11    1  0.5813833E-009  0.1288797E+03  0.7561462E-02  0.1120653E+00
         22   -1    0    0    0    0  0.00000000000E+00  0.00000000000E+00  0.42842962890E+03  0.42842962890E+03  0.00000000000E+00 0. -1.
         22   -1    0    0    0    0 -0.00000000000E+00 -0.00000000000E+00 -0.14255514847E+03  0.14255514847E+03  0.00000000000E+00 0.  1.
        -24    2    1    2    0    0  0.29475938850E+02 -0.15688889024E+02 -0.69532943562E+02  0.11091023909E+03  0.79694910024E+02 0.  0.
         25    2    1    2    0    0 -0.13408678273E+02  0.19520688950E+02  0.38716094628E+02  0.13306023919E+03  0.12508093907E+03 0.  0.
         24    2    1    2    0    0 -0.16067260577E+02 -0.38317999264E+01  0.31669132936E+03  0.32701429909E+03  0.79825523272E+02 0.  0.
        -11    1    5    5    0    0 -0.42300040556E+02  0.93107171826E+01  0.10948669172E+03  0.11774259445E+03  0.00000000000E+00 0.  1.
         12    1    5    5    0    0  0.26232779980E+02 -0.13142517109E+02  0.20720463765E+03  0.20927170464E+03  0.00000000000E+00 0. -1.
         11    1    3    3    0    0  0.13218751841E+02  0.22837796533E+02  0.36342940792E+01  0.26636599711E+02  0.00000000000E+00 0. -1.
        -12    1    3    3    0    0  0.16257187009E+02 -0.38526685557E+02 -0.73167237642E+02  0.84273639375E+02  0.00000000000E+00 0.  1.
          5    1    4    4  501    0 -0.69186245417E+02  0.93205223866E+01  0.27259470467E+02  0.75061040644E+02  0.41800000000E+01 0. -1.
         -5    1    4    4    0  501  0.55777567144E+02  0.10200166564E+02  0.11456624160E+02  0.57999198542E+02  0.41800000000E+01 0. -1.
</event>
<event>
11    1  0.5813833E-009  0.1569798E+03  0.7561462E-02  0.1089953E+00
         22   -1    0    0    0    0  0.00000000000E+00  0.00000000000E+00  0.94394070170E+03  0.94394070170E+03  0.00000000000E+00 0.  1.
         22   -1    0    0    0    0 -0.00000000000E+00 -0.00000000000E+00 -0.38989492888E+03  0.38989492888E+03  0.00000000000E+00 0.  1.
         24    2    1    2    0    0  0.49462493939E+02  0.78953068715E+02 -0.33850195899E+03  0.36032534354E+03  0.81059555824E+02 0.  0.
         25    2    1    2    0    0 -0.11774681538E+03 -0.82508949022E+02  0.21249547826E+03  0.28543556029E+03  0.12508833517E+03 0.  0.
        -24    2    1    2    0    0  0.68284321442E+02  0.35558803074E+01  0.68005225355E+03  0.68807472674E+03  0.79374864892E+02 0.  0.
        -13    1    3    3    0    0  0.37608849907E+02  0.88305630346E+02 -0.32844935861E+03  0.34218604752E+03  0.00000000000E+00 0.  1.
         14    1    3    3    0    0  0.11853644032E+02 -0.93525616315E+01 -0.10052600382E+02  0.18139296026E+02  0.00000000000E+00 0. -1.
         11    1    5    5    0    0 -0.74594984037E+01 -0.12041339740E+02  0.27284995601E+02  0.30742624548E+02  0.00000000000E+00 0. -1.
        -12    1    5    5    0    0  0.75743819846E+02  0.15597220047E+02  0.65276725795E+03  0.65733210219E+03  0.00000000000E+00 0.  1.
          5    1    4    4  501    0 -0.88343437864E+02 -0.25655429153E+02  0.19986634142E+03  0.22006087996E+03  0.41800000000E+01 0. -1.
         -5    1    4    4    0  501 -0.29403377517E+02 -0.56853519869E+02  0.12629136848E+02  0.65374680331E+02  0.41800000000E+01 0. -1.
</event>
<event>
11    1  0.5813833E-009  0.1408176E+03  0.7561462E-02  0.1106649E+00
         22   -1    0    0    0    0  0.00000000000E+00  0.00000000000E+00  0.29875727572E+03  0.29875727572E+03  0.00000000000E+00 0. -1.
         22   -1    0    0    0    0 -0.00000000000E+00 -0.00000000000E+00 -0.48164459435E+03  0.48164459435E+03  0.00000000000E+00 0.  1.
        -24    2    1    2    0    0 -0.11191863524E+02  0.66976382006E+02 -0.30981729697E+03  0.32684619413E+03  0.78934045616E+02 0.  0.
         25    2    1    2    0    0  0.46397595091E+02 -0.43279486074E+02 -0.12376769954E+03  0.18705022140E+03  0.12507394265E+03 0.  0.
         24    2    1    2    0    0 -0.35205731567E+02 -0.23696895932E+02  0.25069767788E+03  0.26650545454E+03  0.79842627667E+02 0.  0.
        -11    1    5    5    0    0 -0.39468389114E+01  0.72505756880E+01 -0.31791206913E+01  0.88461965595E+01  0.00000000000E+00 0.  1.
         12    1    5    5    0    0 -0.31258892656E+02 -0.30947471620E+02  0.25387679858E+03  0.25765925798E+03  0.00000000000E+00 0. -1.
         13    1    3    3    0    0 -0.25976146209E+02  0.83700869400E+01 -0.19678356359E+03  0.19866703156E+03  0.00000000000E+00 0. -1.
        -14    1    3    3    0    0  0.14784282685E+02  0.58606295066E+02 -0.11303373338E+03  0.12817916257E+03  0.00000000000E+00 0.  1.
          5    1    4    4  501    0 -0.42029665771E+02 -0.24731092134E+02 -0.53527794920E+02  0.72531489382E+02  0.41800000000E+01 0.  1.
         -5    1    4    4    0  501  0.88427260862E+02 -0.18548393940E+02 -0.70239904624E+02  0.11451873202E+03  0.41800000000E+01 0.  1.
</event>
<event>
11    1  0.5813833E-009  0.1414618E+03  0.7561462E-02  0.1105937E+00
         22   -1    0    0    0    0  0.00000000000E+00  0.00000000000E+00  0.11237527905E+04  0.11237527905E+04  0.00000000000E+00 0.  1.
         22   -1    0    0    0    0 -0.00000000000E+00 -0.00000000000E+00 -0.91757920994E+03  0.91757920994E+03  0.00000000000E+00 0. -1.
        -24    2    1    2    0    0 -0.45801177421E+02  0.45680598885E+02 -0.79016875251E+03  0.79689122921E+03  0.80526447649E+02 0.  0.
         25    2    1    2    0    0  0.10091251821E+03 -0.21774875647E+02 -0.67683191681E+02  0.17574224396E+03  0.12508733084E+03 0.  0.
         24    2    1    2    0    0 -0.55111340792E+02 -0.23905723238E+02  0.10640255247E+04  0.10686985273E+04  0.79733815817E+02 0.  0.
        -13    1    5    5    0    0 -0.56870411908E+02 -0.27880133035E+02  0.10620284056E+04  0.10639153537E+04  0.00000000000E+00 0.  1.
         14    1    5    5    0    0  0.17590711160E+01  0.39744097969E+01  0.19971191594E+01  0.47831735659E+01  0.00000000000E+00 0. -1.
         13    1    3    3    0    0 -0.27135607316E+02 -0.18581393325E+02 -0.17241510635E+03  0.17552372563E+03  0.00000000000E+00 0. -1.
        -14    1    3    3    0    0 -0.18665570105E+02  0.64261992210E+02 -0.61775364616E+03  0.62136750357E+03  0.00000000000E+00 0.  1.
          5    1    4    4  501    0  0.59044546207E+01  0.15664538839E+02  0.29843489228E+02  0.34472403610E+02  0.41800000000E+01 0.  1.
         -5    1    4    4    0  501  0.95008063592E+02 -0.37439414486E+02 -0.97526680909E+02  0.14126984035E+03  0.41800000000E+01 0.  1.
</event>
<event>
11    1  0.5813833E-009  0.1661737E+03  0.7561462E-02  0.1081410E+00
         22   -1    0    0    0    0  0.00000000000E+00  0.00000000000E+00  0.18526436513E+04  0.18526436513E+04  0.00000000000E+00 0. -1.
         22   -1    0    0    0    0 -0.00000000000E+00 -0.00000000000E+00 -0.18400616552E+03  0.18400616552E+03  0.00000000000E+00 0. -1.
         24    2    1    2    0    0 -0.73422880459E+01  0.40541969026E+02 -0.14292731991E+03  0.16803765983E+03  0.78172091556E+02 0.  0.
         25    2    1    2    0    0 -0.98149143100E+02 -0.48404400936E+01  0.22145756171E+03  0.27266778757E+03  0.12509031372E+03 0.  0.
        -24    2    1    2    0    0  0.10549143115E+03 -0.35701528932E+02  0.15901072440E+04  0.15959443694E+04  0.78704140519E+02 0.  0.
        -13    1    3    3    0    0 -0.30108674324E+02  0.62559760162E+01 -0.16123931588E+02  0.34722480834E+02  0.00000000000E+00 0.  1.
         14    1    3    3    0    0  0.22766386278E+02  0.34285993010E+02 -0.12680338832E+03  0.13331517899E+03  0.00000000000E+00 0. -1.
         11    1    5    5    0    0  0.10252549536E+03 -0.44863482007E+02  0.15658705794E+04  0.15698646058E+04  0.00000000000E+00 0. -1.
        -12    1    5    5    0    0  0.29659357861E+01  0.91619530750E+01  0.24236664601E+02  0.26079763615E+02  0.00000000000E+00 0.  1.
          5    1    4    4  501    0 -0.12535441255E+03 -0.75399994966E+01  0.14781612628E+03  0.19400427812E+03  0.41800000000E+01 0. -1.
         -5    1    4    4    0  501  0.27205269453E+02  0.26995594030E+01  0.73641435425E+02  0.78663509447E+02  0.41800000000E+01 0. -1.
</event>
<event>
11    1  0.5813833E-009  0.1637659E+03  0.7561462E-02  0.1083588E+00
         22   -1    0    0    0    0  0.00000000000E+00  0.00000000000E+00  0.35668392166E+03  0.35668392166E+03  0.00000000000E+00 0.  1.
         22   -1    0    0    0    0 -0.00000000000E+00 -0.00000000000E+00 -0.11260808441E+04  0.11260808441E+04  0.00000000000E+00 0. -1.
         24    2    1    2    0    0  0.87904462785E+01  0.54352986044E+01 -0.10606754395E+04  0.10638490826E+04  0.81459611708E+02 0.  0.
         25    2    1    2    0    0 -0.10056275389E+03 -0.47778687491E+02  0.16494724083E+03  0.23505535797E+03  0.12509100130E+03 0.  0.
        -24    2    1    2    0    0  0.91772307608E+02  0.42343388887E+02  0.12633127617E+03  0.18386032518E+03  0.87349349229E+02 0.  0.
        -11    1    3    3    0    0  0.40728449106E+02 -0.33876588265E+01 -0.34589448323E+03  0.34830055459E+03  0.00000000000E+00 0.  1.
         12    1    3    3    0    0 -0.31938002828E+02  0.88229574309E+01 -0.71478095624E+03  0.71554852806E+03  0.00000000000E+00 0. -1.
         13    1    5    5    0    0  0.50537714194E+01  0.32624537930E+02  0.35147131256E+01  0.33200215196E+02  0.00000000000E+00 0. -1.
        -14    1    5    5    0    0  0.86718536189E+02  0.97188509562E+01  0.12281656304E+03  0.15066010998E+03  0.00000000000E+00 0.  1.
          5    1    4    4  501    0 -0.73361252793E+02 -0.44055800530E+02  0.18290997892E+03  0.20198098861E+03  0.41800000000E+01 0. -1.
         -5    1    4    4    0  501 -0.27201501093E+02 -0.37228869605E+01 -0.17962738090E+02  0.33074369362E+02  0.41800000000E+01 0. -1.
</event>
<event>
11    1  0.8623622E-009  0.2218226E+03  0.7561462E-02  0.1040082E+00
         22   -1    0    0    0    0  0.00000000000E+00  0.00000000000E+00  0.18611866941E+04  0.18611866941E+04  0.00000000000E+00 0. -1.
         22   -1    0    0    0    0 -0.00000000000E+00 -0.00000000000E+00 -0.39600651438E+03  0.39600651438E+03  0.00000000000E+00 0.  1.
        -24    2    1    2    0    0 -0.72280070743E+01  0.26889088753E+02 -0.22421168224E+03  0.23975053297E+03  0.80213293325E+02 0.  0.
         25    2    1    2    0    0 -0.15872226825E+03 -0.10406445346E+03 -0.76800822418E+02  0.23993530527E+03  0.12509362685E+03 0.  0.
         24    2    1    2    0    0  0.16595027532E+03  0.77175364706E+02  0.17661926844E+04  0.17775073702E+04  0.81242366570E+02 0.  0.
        -13    1    5    5    0    0  0.14498972894E+02  0.42226736733E+02  0.36517396821E+03  0.36789311569E+03  0.00000000000E+00 0.  1.
         14    1    5    5    0    0  0.15145130243E+03  0.34948627973E+02  0.14010187162E+04  0.14096142545E+04  0.00000000000E+00 0. -1.
         13    1    3    3    0    0  0.52560246072E+01  0.54014237861E+02 -0.15955483738E+03  0.16853162854E+03  0.00000000000E+00 0. -1.
        -14    1    3    3    0    0 -0.12484031682E+02 -0.27125149108E+02 -0.64656844861E+02  0.71218904432E+02  0.00000000000E+00 0.  1.
          5    1    4    4  501    0 -0.10541921105E+03 -0.13028989753E+03 -0.53360786521E+02  0.17593610601E+03  0.41800000000E+01 0.  1.
         -5    1    4    4    0  501 -0.53303057195E+02  0.26225444074E+02 -0.23440035897E+02  0.63999199262E+02  0.41800000000E+01 0.  1.
</event>
<event>
11    1  0.5813833E-009  0.1444473E+03  0.7561462E-02  0.1102691E+00
         22   -1    0    0    0    0  0.00000000000E+00  0.00000000000E+00  0.15094584848E+04  0.15094584848E+04  0.00000000000E+00 0. -1.
         22   -1    0    0    0    0 -0.00000000000E+00 -0.00000000000E+00 -0.57777626104E+02  0.57777626104E+02  0.00000000000E+00 0. -1.
        -24    2    1    2    0    0 -0.20961827237E+02  0.13918928579E+02 -0.10400672432E+02  0.82626048612E+02  0.78011250139E+02 0.  0.
         25    2    1    2    0    0  0.42448577432E+02  0.57082052171E+02  0.67739235370E+03  0.69250864729E+03  0.12509030063E+03 0.  0.
         24    2    1    2    0    0 -0.21486750196E+02 -0.71000980750E+02  0.78468917745E+03  0.79210141503E+03  0.78643033878E+02 0.  0.
        -11    1    5    5    0    0  0.19973403095E+02 -0.37934627933E+02  0.17763366652E+03  0.18273393858E+03  0.00000000000E+00 0.  1.
         12    1    5    5    0    0 -0.41460153290E+02 -0.33066352817E+02  0.60705551094E+03  0.60936747645E+03  0.00000000000E+00 0. -1.
         13    1    3    3    0    0 -0.19374966160E+02  0.43016381468E+02 -0.20968597961E+02  0.51628291553E+02  0.00000000000E+00 0. -1.
        -14    1    3    3    0    0 -0.15868610766E+01 -0.29097452888E+02  0.10567925529E+02  0.30997757058E+02  0.00000000000E+00 0.  1.
          5    1    4    4  501    0 -0.22956833497E+02 -0.27097564615E+02  0.13067787457E+03  0.13548237345E+03  0.41800000000E+01 0. -1.
         -5    1    4    4    0  501  0.65405410929E+02  0.84179616786E+02  0.54671447913E+03  0.55702627384E+03  0.41800000000E+01 0. -1.
</event>
<event>
11    1  0.5813833E-009  0.1977550E+03  0.7561462E-02  0.1056123E+00
         22   -1    0    0    0    0  0.00000000000E+00  0.00000000000E+00  0.25264394667E+04  0.25264394667E+04  0.00000000000E+00 0.  1.
         22   -1    0    0    0    0 -0.00000000000E+00 -0.00000000000E+00 -0.35361827978E+03  0.35361827978E+03  0.00000000000E+00 0. -1.
         24    2    1    2    0    0  0.10495648223E+02  0.15141690555E+03 -0.31262868311E+03  0.35660017901E+03  0.79935950916E+02 0.  0.
         25    2    1    2    0    0  0.39773936555E+02 -0.26077673364E+03  0.16432337966E+04  0.16689670573E+04  0.12508899845E+03 0.  0.
        -24    2    1    2    0    0 -0.50269584778E+02  0.10935982808E+03  0.84221607351E+03  0.85449051017E+03  0.79621067124E+02 0.  0.
        -13    1    3    3    0    0 -0.20019469423E+02  0.32701915512E+01 -0.37430456181E+02  0.42573611060E+02  0.00000000000E+00 0.  1.
         14    1    3    3    0    0  0.30515117646E+02  0.14814671400E+03 -0.27519822693E+03  0.31402656795E+03  0.00000000000E+00 0. -1.
         11    1    5    5    0    0 -0.40094684515E+02  0.45595528849E+02  0.62329613980E+03  0.62624644819E+03  0.00000000000E+00 0. -1.
        -12    1    5    5    0    0 -0.10174900263E+02  0.63764299236E+02  0.21891993371E+03  0.22824406198E+03  0.00000000000E+00 0.  1.
          5    1    4    4  501    0  0.19601182915E+02  0.85807066444E+01  0.12453951355E+03  0.12643337270E+03  0.41800000000E+01 0.  1.
         -5    1    4    4    0  501  0.20172753640E+02 -0.26935744028E+03  0.15186942830E+04  0.15425336846E+04  0.41800000000E+01 0.  1.
</event>
<event>
11    1  0.5813833E-009  0.1290323E+03  0.7561462E-02  0.1120464E+00
         22   -1    0    0    0    0  0.00000000000E+00  0.00000000000E+00  0.15664983798E+04  0.15664983798E+04  0.00000000000E+00 0. -1.
         22   -1    0    0    0    0 -0.00000000000E+00 -0.00000000000E+00 -0.27492049746E+02  0.27492049746E+02  0.00000000000E+00 0. -1.
        -24    2    1    2    0    0  0.92937827772E+01 -0.26854969060E+02  0.94364681934E+02  0.12910535556E+03  0.83402253429E+02 0.  0.
         25    2    1    2    0    0  0.53611527972E+01  0.51041016297E+02  0.54674796068E+03  0.56321798940E+03  0.12508894344E+03 0.  0.
         24    2    1    2    0    0 -0.14654935574E+02 -0.24186047237E+02  0.89789368748E+03  0.90166708462E+03  0.77399776859E+02 0.  0.
        -13    1    5    5    0    0 -0.39516556664E+02  0.90024714775E+01  0.39908610238E+03  0.40113877879E+03  0.00000000000E+00 0.  1.
         14    1    5    5    0    0  0.24861621089E+02 -0.33188518715E+02  0.49880758510E+03  0.50052830583E+03  0.00000000000E+00 0. -1.
         11    1    3    3    0    0 -0.21559446156E+02  0.16033922553E+02  0.83058039552E+01  0.28122638040E+02  0.00000000000E+00 0. -1.
        -12    1    3    3    0    0  0.30853228933E+02 -0.42888891613E+02  0.86058877979E+02  0.10098271752E+03  0.00000000000E+00 0.  1.
          5    1    4    4  501    0 -0.31086857062E+02  0.80016958318E+02  0.29942878874E+03  0.31151914585E+03  0.41800000000E+01 0. -1.
         -5    1    4    4    0  501  0.36448009859E+02 -0.28975942021E+02  0.24731917193E+03  0.25169884355E+03  0.41800000000E+01 0. -1.
</event>
<event>
11    1  0.5813833E-009  0.1497789E+03  0.7561462E-02  0.1097105E+00
         22   -1    0    0    0    0  0.00000000000E+00  0.00000000000E+00  0.20019266875E+03  0.20019266875E+03  0.00000000000E+00 0. -1.
         22   -1    0    0    0    0 -0.00000000000E+00 -0.00000000000E+00 -0.17363221580E+04  0.17363221580E+04  0.00000000000E+00 0. -1.
         24    2    1    2    0    0  0.27264540164E+02  0.70575237167E+02 -0.14302060028E+04  0.14344870828E+04  0.80868788850E+02 0.  0.
         25    2    1    2    0    0 -0.10595493887E+03 -0.80454122782E+02 -0.24958036910E+03  0.30925217986E+03  0.12508890906E+03 0.  0.
        -24    2    1    2    0    0  0.78690398705E+02  0.98788856147E+01  0.14365688259E+03  0.19277556415E+03  0.10116989171E+03 0.  0.
        -13    1    3    3    0    0 -0.26778159037E+02  0.10494051694E+02 -0.47438570907E+03  0.47525676839E+03  0.00000000000E+00 0.  1.
         14    1    3    3    0    0  0.54042699201E+02  0.60081185473E+02 -0.95582029371E+03  0.95923031440E+03  0.00000000000E+00 0. -1.
         13    1    5    5    0    0  0.90274544045E+02  0.34866786848E+02  0.12990954419E+03  0.16199282638E+03  0.00000000000E+00 0. -1.
        -14    1    5    5    0    0 -0.11584145340E+02 -0.24987901234E+02  0.13747338402E+02  0.30782737767E+02  0.00000000000E+00 0.  1.
          5    1    4    4  501    0 -0.95149111826E+01  0.32372144634E+02 -0.51073714928E+02  0.61355407582E+02  0.41800000000E+01 0.  1.
         -5    1    4    4    0  501 -0.96440027686E+02 -0.11282626742E+03 -0.19850665417E+03  0.24789677228E+03  0.41800000000E+01 0.  1.
</event>
<event>
11    1  0.5813833E-009  0.1325527E+03  0.7561462E-02  0.1116172E+00
         22   -1    0    0    0    0  0.00000000000E+00  0.00000000000E+00  0.80837712861E+02  0.80837712861E+02  0.00000000000E+00 0. -1.
         22   -1    0    0    0    0 -0.00000000000E+00 -0.00000000000E+00 -0.18616238031E+04  0.18616238031E+04  0.00000000000E+00 0.  1.
         24    2    1    2    0    0  0.12891739638E+02  0.39983267281E+02 -0.16442433064E+04  0.16466080821E+04  0.77571042738E+02 0.  0.
         25    2    1    2    0    0 -0.35427414645E+02 -0.93006934927E+02 -0.14320447043E+03  0.21461670390E+03  0.12508963821E+03 0.  0.
        -24    2    1    2    0    0  0.22535675007E+02  0.53023667646E+02  0.66616866457E+01  0.81236729941E+02  0.56882881818E+02 0.  0.
        -11    1    3    3    0    0 -0.19010822284E+02 -0.14829486680E+02 -0.36696269597E+03  0.36775391945E+03  0.00000000000E+00 0.  1.
         12    1    3    3    0    0  0.31902561922E+02  0.54812753962E+02 -0.12772806105E+04  0.12788541627E+04  0.00000000000E+00 0. -1.
         11    1    5    5    0    0 -0.21788657664E+00  0.56359411919E+02  0.12012199490E+02  0.57625721019E+02  0.00000000000E+00 0. -1.
        -12    1    5    5    0    0  0.22753561584E+02 -0.33357442734E+01 -0.53505128439E+01  0.23611008922E+02  0.00000000000E+00 0.  1.
          5    1    4    4  501    0 -0.65729327161E+01 -0.10452458571E+03 -0.49706567724E+02  0.11600348157E+03  0.41800000000E+01 0. -1.
         -5    1    4    4    0  501 -0.28854481929E+02  0.11517650783E+02 -0.93497902704E+02  0.98613222323E+02  0.41800000000E+01 0. -1.
</event>
<event>
11    1  0.5813833E-009  0.1447751E+03  0.7561462E-02  0.1102340E+00
         22   -1    0    0    0    0  0.00000000000E+00  0.00000000000E+00  0.75958141667E+03  0.75958141667E+03  0.00000000000E+00 0.  1.
         22   -1    0    0    0    0 -0.00000000000E+00 -0.00000000000E+00 -0.24881632297E+03  0.24881632297E+03  0.00000000000E+00 0. -1.
        -24    2    1    2    0    0  0.57086097395E+02  0.44779644191E+02 -0.16519984826E+03  0.19847327944E+03  0.82683817859E+02 0.  0.
         25    2    1    2    0    0 -0.46135486645E+02 -0.61274007984E+02  0.18988966351E+02  0.14795543515E+03  0.12508893942E+03 0.  0.
         24    2    1    2    0    0 -0.10950610751E+02  0.16494363793E+02  0.65697597561E+03  0.66196902505E+03  0.78699286406E+02 0.  0.
        -11    1    5    5    0    0 -0.38535355304E+02  0.30216579994E+02  0.34167454591E+03  0.34516591755E+03  0.00000000000E+00 0.  1.
         12    1    5    5    0    0  0.27584744553E+02 -0.13722216201E+02  0.31530142970E+03  0.31680310749E+03  0.00000000000E+00 0. -1.
         13    1    3    3    0    0  0.37097580615E+02  0.68709885851E+02 -0.10720511784E+03  0.13262811237E+03  0.00000000000E+00 0. -1.
        -14    1    3    3    0    0  0.19988516781E+02 -0.23930241659E+02 -0.57994730424E+02  0.65845167066E+02  0.00000000000E+00 0.  1.
          5    1    4    4  501    0 -0.50553141454E+02 -0.17047829362E+02  0.64766129712E+02  0.84014121163E+02  0.41800000000E+01 0. -1.
         -5    1    4    4    0  501  0.44176548097E+01 -0.44226178622E+02 -0.45777163361E+02  0.63941313992E+02  0.41800000000E+01 0. -1.
</event>
<event>
11    1  0.5813833E-009  0.1591098E+03  0.7561462E-02  0.1087918E+00
         22   -1    0    0    0    0  0.00000000000E+00  0.00000000000E+00  0.52768843642E+03  0.52768843642E+03  0.00000000000E+00 0. -1.
         22   -1    0    0    0    0 -0.00000000000E+00 -0.00000000000E+00 -0.81551675745E+03  0.81551675745E+03  0.00000000000E+00 0. -1.
        -24    2    1    2    0    0  0.64430157597E+02  0.78315250502E+02 -0.74114099198E+03  0.75214646424E+03  0.78420724253E+02 0.  0.
         25    2    1    2    0    0 -0.51189362857E+02 -0.30437024564E+02  0.11464541020E+02  0.13901620828E+03  0.12508919669E+03 0.  0.
         24    2    1    2    0    0 -0.13240794740E+02 -0.47878225938E+02  0.44184812994E+03  0.45204252136E+03  0.81517041286E+02 0.  0.
        -11    1    5    5    0    0  0.33379234714E+02 -0.28893190811E+02  0.17458302827E+03  0.18007838167E+03  0.00000000000E+00 0.  1.
         12    1    5    5    0    0 -0.46620029454E+02 -0.18985035126E+02  0.26726510167E+03  0.27196413969E+03  0.00000000000E+00 0. -1.
         11    1    3    3    0    0 -0.24607984627E+01  0.36214795738E+01 -0.28849132771E+03  0.28852455148E+03  0.00000000000E+00 0. -1.
        -12    1    3    3    0    0  0.66890956059E+02  0.74693770928E+02 -0.45264966427E+03  0.46362191275E+03  0.00000000000E+00 0.  1.
          5    1    4    4  501    0 -0.56629448256E+02  0.84616015766E+01 -0.43005753103E+02  0.71731863987E+02  0.41800000000E+01 0. -1.
         -5    1    4    4    0  501  0.54400853994E+01 -0.38898626141E+02  0.54470294123E+02  0.67284344291E+02  0.41800000000E+01 0. -1.
</event>
<event>
11    1  0.5813833E-009  0.1354313E+03  0.7561462E-02  0.1112770E+00
         22   -1    0    0    0    0  0.00000000000E+00  0.00000000000E+00  0.50734606620E+03  0.50734606620E+03  0.00000000000E+00 0.  1.
         22   -1    0    0    0    0 -0.00000000000E+00 -0.00000000000E+00 -0.49006512248E+03  0.49006512248E+03  0.00000000000E+00 0.  1.
        -24    2    1    2    0    0  0.31688760266E+02  0.42867006271E+02 -0.21933036716E+03  0.23939270349E+03  0.79757750520E+02 0.  0.
         25    2    1    2    0    0  0.60377412136E+01 -0.58090875520E+01 -0.24050204052E+03  0.27121758099E+03  0.12509014721E+03 0.  0.
         24    2    1    2    0    0 -0.37726501480E+02 -0.37057918719E+02  0.47711335141E+03  0.48680090421E+03  0.80878872333E+02 0.  0.
        -13    1    5    5    0    0  0.16958712671E+00 -0.42091876312E+02  0.38170107572E+03  0.38401492942E+03  0.00000000000E+00 0.  1.
         14    1    5    5    0    0 -0.37896088606E+02  0.50339575934E+01  0.95412275685E+02  0.10278597478E+03  0.00000000000E+00 0. -1.
         11    1    3    3    0    0  0.39036702632E+02  0.52569768263E+02 -0.10055139502E+03  0.11999178192E+03  0.00000000000E+00 0. -1.
        -12    1    3    3    0    0 -0.73479423665E+01 -0.97027619925E+01 -0.11877897214E+03  0.11940092157E+03  0.00000000000E+00 0.  1.
          5    1    4    4  501    0 -0.58781850096E+02  0.37288420358E+01 -0.12794938331E+03  0.14091744836E+03  0.41800000000E+01 0. -1.
         -5    1    4    4    0  501  0.64819591309E+02 -0.95379295878E+01 -0.11255265721E+03  0.13030013263E+03  0.41800000000E+01 0. -1.
</event>
<event>
11    1  0.5813833E-009  0.1649407E+03  0.7561462E-02  0.1082520E+00
         22   -1    0    0    0    0  0.00000000000E+00  0.00000000000E+00  0.13705285376E+04  0.13705285376E+04  0.00000000000E+00 0.  1.
         22   -1    0    0    0    0 -0.00000000000E+00 -0.00000000000E+00 -0.10768591482E+03  0.10768591482E+03  0.00000000000E+00 0.  1.
         24    2    1    2    0    0  0.67215832273E+02 -0.51743659110E+02 -0.34882115869E+02  0.12132721498E+03  0.79423905232E+02 0.  0.
         25    2    1    2    0    0 -0.12793490673E+03 -0.36898535583E+02  0.30789218408E+03  0.35801408009E+03  0.12509053614E+03 0.  0.
        -24    2    1    2    0    0  0.60719074460E+02  0.88642194693E+02  0.98983255460E+03  0.99887315738E+03  0.80217539900E+02 0.  0.
        -11    1    3    3    0    0  0.46521050314E+02 -0.20684371771E+02 -0.58195044091E+02  0.77322147633E+02  0.00000000000E+00 0.  1.
         12    1    3    3    0    0  0.20694781959E+02 -0.31059287338E+02  0.23312928223E+02  0.44005067351E+02  0.00000000000E+00 0. -1.
         13    1    5    5    0    0  0.42566363599E+01  0.13047108586E+02  0.18848199956E+02  0.23315244736E+02  0.00000000000E+00 0. -1.
        -14    1    5    5    0    0  0.56462438101E+02  0.75595086107E+02  0.97098435464E+03  0.97555791264E+03  0.00000000000E+00 0.  1.
          5    1    4    4  501    0 -0.60173858885E+02 -0.33458556575E+02  0.36105237005E+02  0.77855178636E+02  0.41800000000E+01 0. -1.
         -5    1    4    4    0  501 -0.67761047848E+02 -0.34399790077E+01  0.27178694708E+03  0.28015890145E+03  0.41800000000E+01 0. -1.
</event>
<event>
11    1  0.5813833E-009  0.1454563E+03  0.7561462E-02  0.1101614E+00
         22   -1    0    0    0    0  0.00000000000E+00  0.00000000000E+00  0.15691416162E+04  0.15691416162E+04  0.00000000000E+00 0.  1.
         22   -1    0    0    0    0 -0.00000000000E+00 -0.00000000000E+00 -0.14084863317E+03  0.14084863317E+03  0.00000000000E+00 0.  1.
        -24    2    1    2    0    0 -0.61103272128E+02  0.45464136849E+02 -0.10374741437E+03  0.15192624398E+03  0.80730787280E+02 0.  0.
         25    2    1    2    0    0  0.54860727636E+01 -0.55904766172E+02  0.43499830050E+03  0.45610020576E+03  0.12509371039E+03 0.  0.
         24    2    1    2    0    0  0.55617199364E+02  0.10440629323E+02  0.10970420969E+04  0.11019637997E+04  0.87295897439E+02 0.  0.
        -13    1    5    5    0    0  0.12854302821E+02  0.21772975458E+02  0.88475255517E+03  0.88511376638E+03  0.00000000000E+00 0.  1.
         14    1    5    5    0    0  0.42762896543E+02 -0.11332346135E+02  0.21228954176E+03  0.21685003327E+03  0.00000000000E+00 0. -1.
         13    1    3    3    0    0 -0.70736052465E+02  0.23173357988E+02 -0.41753374008E+02  0.85345989242E+02  0.00000000000E+00 0. -1.
        -14    1    3    3    0    0  0.96327803370E+01  0.22290778861E+02 -0.61994040367E+02  0.66580254733E+02  0.00000000000E+00 0.  1.
          5    1    4    4  501    0  0.92524764849E+01  0.39672503398E+02  0.14747663965E+03  0.15305668065E+03  0.41800000000E+01 0.  1.
         -5    1    4    4    0  501 -0.37664037213E+01 -0.95577269570E+02  0.28752166085E+03  0.30304352511E+03  0.41800000000E+01 0.  1.
</event>
<event>
11    1  0.5813833E-009  0.2392931E+03  0.7561462E-02  0.1029763E+00
         22   -1    0    0    0    0  0.00000000000E+00  0.00000000000E+00  0.89719916116E+03  0.89719916116E+03  0.00000000000E+00 0. -1.
         22   -1    0    0    0    0 -0.00000000000E+00 -0.00000000000E+00 -0.41320470850E+04  0.41320470850E+04  0.00000000000E+00 0.  1.
         24    2    1    2    0    0 -0.38786497014E+01 -0.40890426044E+02 -0.28170463317E+04  0.28184572885E+04  0.79147845014E+02 0.  0.
         25    2    1    2    0    0 -0.10756161403E+03  0.21135769622E+03 -0.12869123146E+04  0.13145466590E+04  0.12509211305E+03 0.  0.
        -24    2    1    2    0    0  0.11144026373E+03 -0.17046727018E+03  0.86911072234E+03  0.89624229873E+03  0.80117337485E+02 0.  0.
        -11    1    3    3    0    0  0.26380606177E+02 -0.35941701953E+02 -0.23410267420E+04  0.23414512485E+04  0.00000000000E+00 0.  1.
         12    1    3    3    0    0 -0.30259255879E+02 -0.49487240910E+01 -0.47601958966E+03  0.47700603998E+03  0.00000000000E+00 0. -1.
         13    1    5    5    0    0  0.10266363660E+03 -0.15035930234E+03  0.84152890629E+03  0.86099863077E+03  0.00000000000E+00 0. -1.
        -14    1    5    5    0    0  0.87766271247E+01 -0.20107967836E+02  0.27581816058E+02  0.35243667960E+02  0.00000000000E+00 0.  1.
          5    1    4    4  501    0 -0.13558167839E+03  0.16691525860E+03 -0.10064956890E+04  0.10292201608E+04  0.41800000000E+01 0.  1.
         -5    1    4    4    0  501  0.28020064368E+02  0.44442437621E+02 -0.28041662555E+03  0.28532649816E+03  0.41800000000E+01 0.  1.
</event>
<event>
11    1  0.5813833E-009  0.1362281E+03  0.7561462E-02  0.1111845E+00
         22   -1    0    0    0    0  0.00000000000E+00  0.00000000000E+00  0.95270443357E+03  0.95270443357E+03  0.00000000000E+00 0.  1.
         22   -1    0    0    0    0 -0.00000000000E+00 -0.00000000000E+00 -0.19384331670E+04  0.19384331670E+04  0.00000000000E+00 0. -1.
         24    2    1    2    0    0 -0.34605384711E-01  0.54412741625E+02 -0.18942272755E+04  0.18967258662E+04  0.80692579492E+02 0.  0.
         25    2    1    2    0    0  0.32471392566E+02 -0.14831324515E+02  0.64801958178E+02  0.14533143054E+03  0.12509025300E+03 0.  0.
        -24    2    1    2    0    0 -0.32436787182E+02 -0.39581417110E+02  0.84369658396E+03  0.84908030382E+03  0.80589098569E+02 0.  0.
        -11    1    3    3    0    0 -0.54484435023E+01  0.47740596354E+02 -0.46562202684E+03  0.46809477881E+03  0.00000000000E+00 0.  1.
         12    1    3    3    0    0  0.54138381176E+01  0.66721452712E+01 -0.14286052487E+04  0.14286310874E+04  0.00000000000E+00 0. -1.
         11    1    5    5    0    0 -0.38286639865E+02  0.11479492578E+02  0.49571240226E+03  0.49732125563E+03  0.00000000000E+00 0. -1.
        -12    1    5    5    0    0  0.58498526835E+01 -0.51060909687E+02  0.34798418170E+03  0.35175904820E+03  0.00000000000E+00 0.  1.
          5    1    4    4  501    0  0.32582622598E+02 -0.22671901921E+01 -0.33011247165E+02  0.46625982951E+02  0.41800000000E+01 0. -1.
         -5    1    4    4    0  501 -0.11123003155E+00 -0.12564134323E+02  0.97813205343E+02  0.98705447584E+02  0.41800000000E+01 0. -1.
</event>
<event>
11    1  0.5813833E-009  0.1284391E+03  0.7561462E-02  0.1121202E+00
         22   -1    0    0    0    0  0.00000000000E+00  0.00000000000E+00  0.11772424130E+03  0.11772424130E+03  0.00000000000E+00 0.  1.
         22   -1    0    0    0    0 -0.00000000000E+00 -0.00000000000E+00 -0.11282243824E+04  0.11282243824E+04  0.00000000000E+00 0. -1.
        -24    2    1    2    0    0  0.15599959694E+02 -0.24526149646E+02 -0.86273784296E+03  0.86890642607E+03  0.99181151571E+02 0.  0.
         25    2    1    2    0    0 -0.52772320054E+02 -0.47609323142E+01 -0.21555657496E+03  0.25479446194E+03  0.12509195251E+03 0.  0.
         24    2    1    2    0    0  0.37172360361E+02  0.29287081960E+02  0.67794276799E+02  0.12224773573E+03  0.90049582893E+02 0.  0.
        -13    1    5    5    0    0  0.19969129861E+02  0.30203179052E+02  0.88318029130E+02  0.95451937862E+02  0.00000000000E+00 0.  1.
         14    1    5    5    0    0  0.17203230499E+02 -0.91609709197E+00 -0.20523752331E+02  0.26795797865E+02  0.00000000000E+00 0. -1.
         11    1    3    3    0    0 -0.14784852533E+02 -0.40945844986E+02 -0.74334025747E+03  0.74461392174E+03  0.00000000000E+00 0. -1.
        -12    1    3    3    0    0  0.30384812227E+02  0.16419695339E+02 -0.11939758550E+03  0.12429250433E+03  0.00000000000E+00 0.  1.
          5    1    4    4  501    0 -0.39773395597E+02 -0.45187174021E+02 -0.36061488435E+02  0.70297276203E+02  0.41800000000E+01 0. -1.
         -5    1    4    4    0  501 -0.12998924457E+02  0.40426241707E+02 -0.17949508653E+03  0.18449718573E+03  0.41800000000E+01 0. -1.
</event>
<event>
11    1  0.5813833E-009  0.1323784E+03  0.7561462E-02  0.1116381E+00
         22   -1    0    0    0    0  0.00000000000E+00  0.00000000000E+00  0.22584814633E+03  0.22584814633E+03  0.00000000000E+00 0.  1.
         22   -1    0    0    0    0 -0.00000000000E+00 -0.00000000000E+00 -0.13645300763E+04  0.13645300763E+04  0.00000000000E+00 0. -1.
         24    2    1    2    0    0  0.26971295128E+02 -0.34257202931E+02 -0.12511277342E+04  0.12544946381E+04  0.80840477504E+02 0.  0.
         25    2    1    2    0    0 -0.39276598669E+02  0.15167536137E+02 -0.57432180583E+02  0.14393606091E+03  0.12508568627E+03 0.  0.
        -24    2    1    2    0    0  0.12305303540E+02  0.19089666793E+02  0.16987798483E+03  0.19194752369E+03  0.86426189587E+02 0.  0.
        -11    1    3    3    0    0 -0.23178461381E+01 -0.44530406776E+02 -0.34953246842E+03  0.35236525938E+03  0.00000000000E+00 0.  1.
         12    1    3    3    0    0  0.29289141266E+02  0.10273203846E+02 -0.90159526582E+03  0.90212937867E+03  0.00000000000E+00 0. -1.
         13    1    5    5    0    0  0.48929471910E+02  0.77344494861E+01  0.11265691836E+03  0.12306703940E+03  0.00000000000E+00 0. -1.
        -14    1    5    5    0    0 -0.36624168370E+02  0.11355217307E+02  0.57221066467E+02  0.68880484293E+02  0.00000000000E+00 0.  1.
          5    1    4    4  501    0 -0.40018814468E+02 -0.14634530015E+02  0.29463737260E+02  0.51973639410E+02  0.41800000000E+01 0.  1.
         -5    1    4    4    0  501  0.74221579949E+00  0.29802066153E+02 -0.86895917842E+02  0.91962421504E+02  0.41800000000E+01 0.  1.
</event>
<event>
11    1  0.5813833E-009  0.1447000E+03  0.7561462E-02  0.1102421E+00
         22   -1    0    0    0    0  0.00000000000E+00  0.00000000000E+00  0.32754382760E+04  0.32754382760E+04  0.00000000000E+00 0. -1.
         22   -1    0    0    0    0 -0.00000000000E+00 -0.00000000000E+00 -0.13798765411E+03  0.13798765411E+03  0.00000000000E+00 0. -1.
        -24    2    1    2    0    0 -0.68734410831E+02 -0.18776752898E+02 -0.52005695144E+02  0.11915354592E+03  0.80099872010E+02 0.  0.
         25    2    1    2    0    0  0.82065237528E+02 -0.13734392422E+02  0.57183336265E+02  0.16075388385E+03  0.12509412648E+03 0.  0.
         24    2    1    2    0    0 -0.13330826697E+02  0.32511145320E+02  0.31322729808E+04  0.31335185003E+04  0.81052331474E+02 0.  0.
        -13    1    5    5    0    0  0.21582504430E+02 -0.46090381091E+01  0.30960854174E+03  0.31039409925E+03  0.00000000000E+00 0.  1.
         14    1    5    5    0    0 -0.34913331127E+02  0.37120183429E+02  0.28226644390E+04  0.28231244011E+04  0.00000000000E+00 0. -1.
         11    1    3    3    0    0 -0.28646502721E+02  0.12869618813E+02 -0.59745643089E+02  0.67496600468E+02  0.00000000000E+00 0. -1.
        -12    1    3    3    0    0 -0.40087908110E+02 -0.31646371711E+02  0.77399479455E+01  0.51656945451E+02  0.00000000000E+00 0.  1.
          5    1    4    4  501    0  0.86557819744E+02  0.13898010744E+02 -0.95320483186E+01  0.88282179439E+02  0.41800000000E+01 0. -1.
         -5    1    4    4    0  501 -0.44925822157E+01 -0.27632403165E+02  0.66715384584E+02  0.72471704408E+02  0.41800000000E+01 0. -1.
</event>
<event>
11    1  0.5813833E-009  0.3011882E+03  0.7561462E-02  0.9996896E-01
         22   -1    0    0    0    0  0.00000000000E+00  0.00000000000E+00  0.14987458975E+04  0.14987458975E+04  0.00000000000E+00 0. -1.
         22   -1    0    0    0    0 -0.00000000000E+00 -0.00000000000E+00 -0.85622911662E+02  0.85622911662E+02  0.00000000000E+00 0. -1.
         24    2    1    2    0    0  0.72222261111E+02 -0.10014380576E+03  0.30626975057E+02  0.15160862106E+03  0.82476211997E+02 0.  0.
         25    2    1    2    0    0  0.51911912703E+00  0.80341881900E+01  0.16628113772E+03  0.20823461659E+03  0.12508965233E+03 0.  0.
        -24    2    1    2    0    0 -0.72741380238E+02  0.92109617572E+02  0.12162148730E+04  0.12245255715E+04  0.80676934648E+02 0.  0.
        -11    1    3    3    0    0  0.48251691866E+02 -0.77292768688E+02  0.58535770391E+02  0.10829974273E+03  0.00000000000E+00 0.  1.
         12    1    3    3    0    0  0.23970569245E+02 -0.22851037075E+02 -0.27908795334E+02  0.43308878331E+02  0.00000000000E+00 0. -1.
         13    1    5    5    0    0 -0.40216596033E+02  0.99434695180E+02  0.83620355651E+03  0.84305457779E+03  0.00000000000E+00 0. -1.
        -14    1    5    5    0    0 -0.32524784204E+02 -0.73250776073E+01  0.38001131652E+03  0.38147099370E+03  0.00000000000E+00 0.  1.
          5    1    4    4  501    0  0.31150888982E+02  0.19356575790E+02 -0.18028974250E+01  0.36956430426E+02  0.41800000000E+01 0. -1.
         -5    1    4    4    0  501 -0.30631769855E+02 -0.11322387600E+02  0.16808403514E+03  0.17127818616E+03  0.41800000000E+01 0. -1.
</event>
<event>
11    1  0.5813833E-009  0.1662403E+03  0.7561462E-02  0.1081351E+00
         22   -1    0    0    0    0  0.00000000000E+00  0.00000000000E+00  0.35979371799E+03  0.35979371799E+03  0.00000000000E+00 0.  1.
         22   -1    0    0    0    0 -0.00000000000E+00 -0.00000000000E+00 -0.96288521208E+03  0.96288521208E+03  0.00000000000E+00 0. -1.
         24    2    1    2    0    0  0.10800061497E+03  0.21042353924E+02 -0.87771171950E+03  0.88817753330E+03  0.79840807954E+02 0.  0.
         25    2    1    2    0    0 -0.10541045685E+03  0.22037323952E+02  0.23156433122E+02  0.16667639053E+03  0.12509112960E+03 0.  0.
        -24    2    1    2    0    0 -0.25901581175E+01 -0.43079677876E+02  0.25146379229E+03  0.26782500623E+03  0.81447084463E+02 0.  0.
        -11    1    3    3    0    0  0.89308917291E+02 -0.19034755266E+02 -0.62275324908E+03  0.62941243541E+03  0.00000000000E+00 0.  1.
         12    1    3    3    0    0  0.18691697676E+02  0.40077109190E+02 -0.25495847042E+03  0.25876509788E+03  0.00000000000E+00 0. -1.
         11    1    5    5    0    0 -0.14544574988E+02 -0.17669297279E+01  0.21256188519E+01  0.14804896411E+02  0.00000000000E+00 0. -1.
        -12    1    5    5    0    0  0.11954416871E+02 -0.41312748148E+02  0.24933817344E+03  0.25302010982E+03  0.00000000000E+00 0.  1.
          5    1    4    4  501    0 -0.51798312081E+02 -0.45008934950E+02 -0.18459991724E+02  0.71183657213E+02  0.41800000000E+01 0. -1.
         -5    1    4    4    0  501 -0.53612144769E+02  0.67046258902E+02  0.41616424846E+02  0.95492733318E+02  0.41800000000E+01 0. -1.
</event>
<event>
11    1  0.5813833E-009  0.3678527E+03  0.7561462E-02  0.9749682E-01
         22   -1    0    0    0    0  0.00000000000E+00  0.00000000000E+00  0.67837396042E+03  0.67837396042E+03  0.00000000000E+00 0.  1.
         22   -1    0    0    0    0 -0.00000000000E+00 -0.00000000000E+00 -0.50580142931E+03  0.50580142931E+03  0.00000000000E+00 0. -1.
         24    2    1    2    0    0  0.41777192959E+03 -0.70843130980E+02  0.26516875223E+03  0.50565876608E+03  0.76316356039E+02 0.  0.
         25    2    1    2    0    0 -0.32799383321E+03  0.27510615196E+02 -0.28267685718E+03  0.45154096191E+03  0.12508495563E+03 0.  0.
        -24    2    1    2    0    0 -0.89778096375E+02  0.43332515784E+02  0.19008063607E+03  0.22697566174E+03  0.73820656314E+02 0.  0.
        -13    1    3    3    0    0  0.18272376220E+03  0.26321197992E+01  0.13426714026E+03  0.22676544332E+03  0.00000000000E+00 0.  1.
         14    1    3    3    0    0  0.23504816739E+03 -0.73475250779E+02  0.13090161197E+03  0.27889332277E+03  0.00000000000E+00 0. -1.
         11    1    5    5    0    0 -0.44896745344E+02  0.32454158466E+02  0.35866777973E+02  0.65995574900E+02  0.00000000000E+00 0. -1.
        -12    1    5    5    0    0 -0.44881351031E+02  0.10878357317E+02  0.15421385810E+03  0.16098008684E+03  0.00000000000E+00 0.  1.
          5    1    4    4  501    0 -0.16284797892E+03 -0.32768494565E+02 -0.19121362616E+03  0.25332461725E+03  0.41800000000E+01 0.  1.
         -5    1    4    4    0  501 -0.16514585429E+03  0.60279109761E+02 -0.91463231023E+02  0.19821634466E+03  0.41800000000E+01 0.  1.
</event>
<event>
11    1  0.5813833E-009  0.1305647E+03  0.7561462E-02  0.1118577E+00
         22   -1    0    0    0    0  0.00000000000E+00  0.00000000000E+00  0.60694975282E+03  0.60694975282E+03  0.00000000000E+00 0.  1.
         22   -1    0    0    0    0 -0.00000000000E+00 -0.00000000000E+00 -0.29858383534E+03  0.29858383534E+03  0.00000000000E+00 0.  1.
         24    2    1    2    0    0 -0.13491836462E+02  0.21500098534E+02 -0.27015505312E+03  0.28285569466E+03  0.79870566448E+02 0.  0.
         25    2    1    2    0    0  0.36383842148E+02 -0.42018780168E+02  0.27459226245E+03  0.30682274874E+03  0.12509966705E+03 0.  0.
        -24    2    1    2    0    0 -0.22892005686E+02  0.20518681634E+02  0.30392870815E+03  0.31585514476E+03  0.80291672109E+02 0.  0.
        -13    1    3    3    0    0  0.21230191414E+01 -0.28153022073E+02 -0.13720663790E+03  0.14008126694E+03  0.00000000000E+00 0.  1.
         14    1    3    3    0    0 -0.15614855603E+02  0.49653120607E+02 -0.13294841522E+03  0.14277442772E+03  0.00000000000E+00 0. -1.
         11    1    5    5    0    0  0.27003824394E+02  0.39538070886E+01  0.54565598459E+02  0.61010193063E+02  0.00000000000E+00 0. -1.
        -12    1    5    5    0    0 -0.49895830080E+02  0.16564874546E+02  0.24936310969E+03  0.25484495169E+03  0.00000000000E+00 0.  1.
          5    1    4    4  501    0 -0.82209549238E+01 -0.38873376196E+02  0.13916836544E+02  0.42306905064E+02  0.41800000000E+01 0.  1.
         -5    1    4    4    0  501  0.44604797072E+02 -0.31454039723E+01  0.26067542590E+03  0.26451584368E+03  0.41800000000E+01 0.  1.
</event>
<event>
11    1  0.5813833E-009  0.1607317E+03  0.7561462E-02  0.1086391E+00
         22   -1    0    0    0    0  0.00000000000E+00  0.00000000000E+00  0.44108530845E+03  0.44108530845E+03  0.00000000000E+00 0. -1.
         22   -1    0    0    0    0 -0.00000000000E+00 -0.00000000000E+00 -0.48332577052E+03  0.48332577052E+03  0.00000000000E+00 0. -1.
         24    2    1    2    0    0 -0.44328288305E+02 -0.88216103906E+02 -0.39171749517E+03  0.41203147784E+03  0.81118829975E+02 0.  0.
         25    2    1    2    0    0  0.16704219268E+02  0.13058355742E+03  0.36433070789E+02  0.18521901209E+03  0.12509043682E+03 0.  0.
        -24    2    1    2    0    0  0.27624069037E+02 -0.42367453510E+02  0.31304396231E+03  0.32716058904E+03  0.80494958706E+02 0.  0.
        -11    1    3    3    0    0 -0.58829483926E+02 -0.48978779439E+02 -0.17053178082E+03  0.18692489744E+03  0.00000000000E+00 0.  1.
         12    1    3    3    0    0  0.14501195621E+02 -0.39237324467E+02 -0.22118571435E+03  0.22510658040E+03  0.00000000000E+00 0. -1.
         11    1    5    5    0    0  0.47665120949E+02  0.55829879241E+00  0.16067211534E+03  0.16759416488E+03  0.00000000000E+00 0. -1.
        -12    1    5    5    0    0 -0.20041051912E+02 -0.42925752302E+02  0.15237184696E+03  0.15956642416E+03  0.00000000000E+00 0.  1.
          5    1    4    4  501    0  0.18403109250E+02 -0.21803398514E+02  0.18731096319E+01  0.28897120211E+02  0.41800000000E+01 0.  1.
         -5    1    4    4    0  501 -0.16988899816E+01  0.15238695593E+03  0.34559961158E+02  0.15632189188E+03  0.41800000000E+01 0.  1.
</event>
<event>
11    1  0.5813833E-009  0.1466091E+03  0.7561462E-02  0.1100395E+00
         22   -1    0    0    0    0  0.00000000000E+00  0.00000000000E+00  0.15373220109E+04  0.15373220109E+04  0.00000000000E+00 0.  1.
         22   -1    0    0    0    0 -0.00000000000E+00 -0.00000000000E+00 -0.30962735175E+03  0.30962735175E+03  0.00000000000E+00 0.  1.
        -24    2    1    2    0    0 -0.37767050535E+02  0.46096593211E+02 -0.28577011288E+03  0.30269852002E+03  0.80066163851E+02 0.  0.
         25    2    1    2    0    0  0.80994507206E+02  0.20282787929E+02  0.44643732547E+03  0.47108912431E+03  0.12508867170E+03 0.  0.
         24    2    1    2    0    0 -0.43227456671E+02 -0.66379381140E+02  0.10670274465E+04  0.10731617183E+04  0.82786875270E+02 0.  0.
        -13    1    5    5    0    0 -0.60590412692E+02 -0.34415557440E+02  0.87136401729E+03  0.87414579981E+03  0.00000000000E+00 0.  1.
         14    1    5    5    0    0  0.17362956021E+02 -0.31963823700E+02  0.19566342922E+03  0.19901591846E+03  0.00000000000E+00 0. -1.
         13    1    3    3    0    0  0.24589676869E+02  0.49616093680E+01 -0.69152867096E+02  0.73562142462E+02  0.00000000000E+00 0. -1.
        -14    1    3    3    0    0 -0.62356727404E+02  0.41134983843E+02 -0.21661724579E+03  0.22913637756E+03  0.00000000000E+00 0.  1.
          5    1    4    4  501    0 -0.33492066880E+02  0.10049095806E+02  0.11410453764E+03  0.11941532892E+03  0.41800000000E+01 0. -1.
         -5    1    4    4    0  501  0.11448657409E+03  0.10233692123E+02  0.33233278783E+03  0.35167379539E+03  0.41800000000E+01 0. -1.
</event>
<event>
11    1  0.5813833E-009  0.1627264E+03  0.7561462E-02  0.1084541E+00
         22   -1    0    0    0    0  0.00000000000E+00  0.00000000000E+00  0.21708285033E+04  0.21708285033E+04  0.00000000000E+00 0. -1.
         22   -1    0    0    0    0 -0.00000000000E+00 -0.00000000000E+00 -0.29941543291E+03  0.29941543291E+03  0.00000000000E+00 0.  1.
        -24    2    1    2    0    0 -0.45205326634E+02 -0.50925706981E+02 -0.27654984489E+03  0.29621463671E+03  0.81402365471E+02 0.  0.
         25    2    1    2    0    0  0.49365132284E+02  0.14104088323E+03  0.96336863037E+03  0.98288091256E+03  0.12508526399E+03 0.  0.
         24    2    1    2    0    0 -0.41598056498E+01 -0.90115176247E+02  0.11845942849E+04  0.11911483869E+04  0.86213751173E+02 0.  0.
        -13    1    5    5    0    0  0.35958119796E+02 -0.58491882518E+02  0.50648490609E+03  0.51111764478E+03  0.00000000000E+00 0.  1.
         14    1    5    5    0    0 -0.40117925446E+02 -0.31623293729E+02  0.67810937879E+03  0.68003074214E+03  0.00000000000E+00 0. -1.
         11    1    3    3    0    0  0.81889002600E+01 -0.50659217303E+02 -0.15972024739E+03  0.16776165179E+03  0.00000000000E+00 0. -1.
        -12    1    3    3    0    0 -0.53394226894E+02 -0.26648967825E+00 -0.11682959750E+03  0.12845298491E+03  0.00000000000E+00 0.  1.
          5    1    4    4  501    0 -0.29115694075E+02  0.49470430721E+01  0.28448254775E+03  0.28604193618E+03  0.41800000000E+01 0.  1.
         -5    1    4    4    0  501  0.78480826359E+02  0.13609384016E+03  0.67888608262E+03  0.69683897638E+03  0.41800000000E+01 0.  1.
</event>
<event>
11    1  0.5813833E-009  0.1301821E+03  0.7561462E-02  0.1119045E+00
         22   -1    0    0    0    0  0.00000000000E+00  0.00000000000E+00  0.84099834537E+02  0.84099834537E+02  0.00000000000E+00 0. -1.
         22   -1    0    0    0    0 -0.00000000000E+00 -0.00000000000E+00 -0.14314717100E+04  0.14314717100E+04  0.00000000000E+00 0. -1.
        -24    2    1    2    0    0  0.42529615852E+02 -0.25549864521E+02 -0.12580866304E+04  0.12616764873E+04  0.81142005652E+02 0.  0.
         25    2    1    2    0    0 -0.13941801531E+02 -0.12861881856E+02 -0.94285624858E+02  0.15778898779E+03  0.12509110192E+03 0.  0.
         24    2    1    2    0    0 -0.28587814321E+02  0.38411746377E+02  0.50003797915E+01  0.96106069501E+02  0.83178407111E+02 0.  0.
        -13    1    5    5    0    0 -0.21384812976E+02  0.19445046316E+02 -0.38479426850E+02  0.48125734726E+02  0.00000000000E+00 0.  1.
         14    1    5    5    0    0 -0.72030013453E+01  0.18966700061E+02  0.43479806641E+02  0.47980334775E+02  0.00000000000E+00 0. -1.
         11    1    3    3    0    0  0.36212294683E+02 -0.36725163707E+01 -0.11739129047E+04  0.11744770434E+04  0.00000000000E+00 0. -1.
        -12    1    3    3    0    0  0.63173211687E+01 -0.21877348150E+02 -0.84173725776E+02  0.87199443920E+02  0.00000000000E+00 0.  1.
          5    1    4    4  501    0 -0.25140373804E+02  0.18741033611E+02  0.20790727752E+02  0.37854874142E+02  0.41800000000E+01 0.  1.
         -5    1    4    4    0  501  0.11198572273E+02 -0.31602915467E+02 -0.11507635261E+03  0.11993411365E+03  0.41800000000E+01 0.  1.
</event>
<event>
11    1  0.5813833E-009  0.2233346E+03  0.7561462E-02  0.1039148E+00
         22   -1    0    0    0    0  0.00000000000E+00  0.00000000000E+00  0.50220654858E+03  0.50220654858E+03  0.00000000000E+00 0. -1.
         22   -1    0    0    0    0 -0.00000000000E+00 -0.00000000000E+00 -0.45643528140E+03  0.45643528140E+03  0.00000000000E+00 0. -1.
        -24    2    1    2    0    0 -0.32659318496E+01 -0.97284818567E+01 -0.29085527657E+03  0.30229842734E+03  0.81744954523E+02 0.  0.
         25    2    1    2    0    0  0.15243072420E+03 -0.10056540835E+03 -0.43187397904E+02  0.22552464780E+03  0.12509072064E+03 0.  0.
         24    2    1    2    0    0 -0.14916479235E+03  0.11029389020E+03  0.37981394166E+03  0.43081875485E+03  0.83254379820E+02 0.  0.
        -11    1    5    5    0    0 -0.21257959354E+02  0.25385608909E+02  0.17790071310E+02  0.37587452864E+02  0.00000000000E+00 0.  1.
         12    1    5    5    0    0 -0.12790683299E+03  0.84908281294E+02  0.36202387035E+03  0.39323130199E+03  0.00000000000E+00 0. -1.
         11    1    3    3    0    0 -0.19174562564E+00 -0.16386763803E+02 -0.29390090622E+03  0.29435744507E+03  0.00000000000E+00 0. -1.
        -12    1    3    3    0    0 -0.30741862239E+01  0.66582819466E+01  0.30456296431E+01  0.79409822656E+01  0.00000000000E+00 0.  1.
          5    1    4    4  501    0 -0.21389159271E+02 -0.35733846049E+01 -0.16669947311E+01  0.22147606717E+02  0.41800000000E+01 0. -1.
         -5    1    4    4    0  501  0.17381988347E+03 -0.96992023740E+02 -0.41520403173E+02  0.20337704108E+03  0.41800000000E+01 0. -1.
</event>
<event>
11    1  0.5813833E-009  0.2682980E+03  0.7561462E-02  0.1014579E+00
         22   -1    0    0    0    0  0.00000000000E+00  0.00000000000E+00  0.89363061443E+03  0.89363061443E+03  0.00000000000E+00 0. -1.
         22   -1    0    0    0    0 -0.00000000000E+00 -0.00000000000E+00 -0.17257156164E+03  0.17257156164E+03  0.00000000000E+00 0.  1.
        -24    2    1    2    0    0  0.25079370202E+03 -0.50983664005E+02  0.11939297055E+03  0.29321510379E+03  0.78889801016E+02 0.  0.
         25    2    1    2    0    0 -0.21196054905E+03  0.58847430307E+02  0.11451001104E+03  0.27776148182E+03  0.12509437936E+03 0.  0.
         24    2    1    2    0    0 -0.38833152971E+02 -0.78637663021E+01  0.48715607121E+03  0.49522559046E+03  0.79733902064E+02 0.  0.
        -13    1    5    5    0    0 -0.33644775726E+02 -0.40536543031E+02  0.23032821709E+03  0.23627583423E+03  0.00000000000E+00 0.  1.
         14    1    5    5    0    0 -0.51883772450E+01  0.32672776729E+02  0.25682785412E+03  0.25894975622E+03  0.00000000000E+00 0. -1.
         11    1    3    3    0    0  0.11224523929E+03 -0.57072000990E+02  0.34304771565E+02  0.13051062942E+03  0.00000000000E+00 0. -1.
        -12    1    3    3    0    0  0.13854846273E+03  0.60883369844E+01  0.85088198980E+02  0.16270447436E+03  0.00000000000E+00 0.  1.
          5    1    4    4  501    0 -0.22815433436E+03  0.58960737496E+02  0.10169169761E+03  0.25668938937E+03  0.41800000000E+01 0.  1.
         -5    1    4    4    0  501  0.16193785307E+02 -0.11330718900E+00  0.12818313433E+02  0.21072092453E+02  0.41800000000E+01 0.  1.
</event>
<event>
11    1  0.5813833E-009  0.1892399E+03  0.7561462E-02  0.1062405E+00
         22   -1    0    0    0    0  0.00000000000E+00  0.00000000000E+00  0.47049232451E+03  0.47049232451E+03  0.00000000000E+00 0.  1.
         22   -1    0    0    0    0 -0.00000000000E+00 -0.00000000000E+00 -0.76896664987E+03  0.76896664987E+03  0.00000000000E+00 0. -1.
         24    2    1    2    0    0  0.13767725555E+03  0.34410578437E+01 -0.60213575151E+03  0.62279790268E+03  0.79642305120E+02 0.  0.
         25    2    1    2    0    0 -0.17351229804E+03  0.74722018134E+01 -0.75832883018E+02  0.22706947377E+03  0.12509024102E+03 0.  0.
        -24    2    1    2    0    0  0.35835042493E+02 -0.10913259657E+02  0.37949430917E+03  0.38959159793E+03  0.79764860574E+02 0.  0.
        -13    1    3    3    0    0  0.30659010189E+02 -0.25153147058E+02 -0.83156180141E+02  0.92128204196E+02  0.00000000000E+00 0.  1.
         14    1    3    3    0    0  0.10701824536E+03  0.28594204902E+02 -0.51897957137E+03  0.53066969848E+03  0.00000000000E+00 0. -1.
         13    1    5    5    0    0  0.13558866967E+02 -0.21856784403E+02  0.31293353184E+02  0.40507232087E+02  0.00000000000E+00 0. -1.
        -14    1    5    5    0    0  0.22276175526E+02  0.10943524746E+02  0.34820095598E+03  0.34908436584E+03  0.00000000000E+00 0.  1.
          5    1    4    4  501    0 -0.84425473942E+02  0.26699601677E+02  0.23991263102E+02  0.91834538629E+02  0.41800000000E+01 0. -1.
         -5    1    4    4    0  501 -0.89086824100E+02 -0.19227399864E+02 -0.99824146120E+02  0.13523493514E+03  0.41800000000E+01 0. -1.
</event>
<event>
11    1  0.5813833E-009  0.1370693E+03  0.7561462E-02  0.1110876E+00
         22   -1    0    0    0    0  0.00000000000E+00  0.00000000000E+00  0.88439703942E+03  0.88439703942E+03  0.00000000000E+00 0. -1.
         22   -1    0    0    0    0 -0.00000000000E+00 -0.00000000000E+00 -0.44836865949E+03  0.44836865949E+03  0.00000000000E+00 0. -1.
         24    2    1    2    0    0 -0.10293085676E+02 -0.23161711967E+02 -0.39876901555E+03  0.40919128982E+03  0.88195075747E+02 0.  0.
         25    2    1    2    0    0  0.13199356777E+02  0.77407385519E+02  0.91211431559E+02  0.17359114957E+03  0.12509290791E+03 0.  0.
        -24    2    1    2    0    0 -0.29062711005E+01 -0.54245673552E+02  0.74358596392E+03  0.74998325953E+03  0.81263548504E+02 0.  0.
        -13    1    3    3    0    0  0.17187905217E+02  0.22182454822E+02 -0.59278547644E+02  0.65585300171E+02  0.00000000000E+00 0.  1.
         14    1    3    3    0    0 -0.27480990894E+02 -0.45344166789E+02 -0.33949046790E+03  0.34360598964E+03  0.00000000000E+00 0. -1.
         13    1    5    5    0    0 -0.46883889415E+01 -0.58024189013E+02  0.74352981923E+03  0.74580518876E+03  0.00000000000E+00 0. -1.
        -14    1    5    5    0    0  0.17821178410E+01  0.37785154611E+01  0.56144694520E-01  0.41780707648E+01  0.00000000000E+00 0.  1.
          5    1    4    4  501    0  0.11980263614E+02  0.11035651364E+03  0.53409503196E+02  0.12325637610E+03  0.41800000000E+01 0.  1.
         -5    1    4    4    0  501  0.12190931627E+01 -0.32949128120E+02  0.37801928363E+02  0.50334773467E+02  0.41800000000E+01 0.  1.
</event>
<event>
11    1  0.5813833E-009  0.1350502E+03  0.7561462E-02  0.1113215E+00
         22   -1    0    0    0    0  0.00000000000E+00  0.00000000000E+00  0.35092168458E+03  0.35092168458E+03  0.00000000000E+00 0. -1.
         22   -1    0    0    0    0 -0.00000000000E+00 -0.00000000000E+00 -0.85205586418E+03  0.85205586418E+03  0.00000000000E+00 0. -1.
        -24    2    1    2    0    0  0.49136028227E+02  0.29613919908E+02 -0.68326938913E+03  0.69129372833E+03  0.87969467395E+02 0.  0.
         25    2    1    2    0    0 -0.17635058400E+01 -0.16102943153E+02 -0.13198839221E+03  0.18257066320E+03  0.12509475070E+03 0.  0.
         24    2    1    2    0    0 -0.47372522387E+02 -0.13510976755E+02  0.31412360174E+03  0.32911315722E+03  0.84941925540E+02 0.  0.
        -13    1    5    5    0    0 -0.55708874570E+02  0.11415605771E+02  0.11531093189E+03  0.12857062562E+03  0.00000000000E+00 0.  1.
         14    1    5    5    0    0  0.83363521826E+01 -0.24926582526E+02  0.19881266985E+03  0.20054253159E+03  0.00000000000E+00 0. -1.
         11    1    3    3    0    0  0.70587224234E+02  0.20491284285E+02 -0.60983285378E+03  0.61424633373E+03  0.00000000000E+00 0. -1.
        -12    1    3    3    0    0 -0.21451196007E+02  0.91226356229E+01 -0.73436535348E+02  0.77047394601E+02  0.00000000000E+00 0.  1.
          5    1    4    4  501    0 -0.47317878922E+02  0.21171023752E+02 -0.19495469987E+02  0.55540432682E+02  0.41800000000E+01 0. -1.
         -5    1    4    4    0  501  0.45554373082E+02 -0.37273966905E+02 -0.11249292222E+03  0.12703023052E+03  0.41800000000E+01 0. -1.
</event>
<event>
11    1  0.5813833E-009  0.1414918E+03  0.7561462E-02  0.1105904E+00
         22   -1    0    0    0    0  0.00000000000E+00  0.00000000000E+00  0.24546287514E+03  0.24546287514E+03  0.00000000000E+00 0.  1.
         22   -1    0    0    0    0 -0.00000000000E+00 -0.00000000000E+00 -0.31029219058E+04  0.31029219058E+04  0.00000000000E+00 0. -1.
        -24    2    1    2    0    0  0.50796823975E+02  0.11132138936E+02 -0.13978892873E+04  0.14014041071E+04  0.84467567611E+02 0.  0.
         25    2    1    2    0    0 -0.96764825789E+02  0.36165239454E+02 -0.16885289912E+04  0.16963042662E+04  0.12508658375E+03 0.  0.
         24    2    1    2    0    0  0.45968001814E+02 -0.47297378390E+02  0.22895924779E+03  0.25067640766E+03  0.77885974449E+02 0.  0.
        -13    1    5    5    0    0  0.67561299409E+02 -0.36005690963E+02  0.18839518139E+03  0.20335605064E+03  0.00000000000E+00 0.  1.
         14    1    5    5    0    0 -0.21593297595E+02 -0.11291687427E+02  0.40564066399E+02  0.47320357023E+02  0.00000000000E+00 0. -1.
         13    1    3    3    0    0  0.24236730862E+02 -0.91574782548E+01 -0.12271885644E+04  0.12274620365E+04  0.00000000000E+00 0. -1.
        -14    1    3    3    0    0  0.26560093113E+02  0.20289617191E+02 -0.17070072292E+03  0.17394207057E+03  0.00000000000E+00 0.  1.
          5    1    4    4  501    0  0.28253581896E+02  0.21305761972E+02 -0.43789287570E+03  0.43934023646E+03  0.41800000000E+01 0.  1.
         -5    1    4    4    0  501 -0.12501840768E+03  0.14859477481E+02 -0.12506361155E+04  0.12569640298E+04  0.41800000000E+01 0.  1.
</event>
<event>
11    1  0.5813833E-009  0.1831664E+03  0.7561462E-02  0.1067110E+00
         22   -1    0    0    0    0  0.00000000000E+00  0.00000000000E+00  0.72375032061E+02  0.72375032061E+02  0.00000000000E+00 0. -1.
         22   -1    0    0    0    0 -0.00000000000E+00 -0.00000000000E+00 -0.25960932481E+04  0.25960932481E+04  0.00000000000E+00 0. -1.
         24    2    1    2    0    0 -0.10522863503E+03 -0.61100133225E+02 -0.17395746590E+04  0.17456801596E+04  0.80454542276E+02 0.  0.
         25    2    1    2    0    0  0.20518539099E+03  0.74598448801E+02 -0.74747028618E+03  0.78868563037E+03  0.12508885478E+03 0.  0.
        -24    2    1    2    0    0 -0.99956755954E+02 -0.13498315576E+02 -0.36673270829E+02  0.13410249019E+03  0.80405170840E+02 0.  0.
        -11    1    3    3    0    0 -0.70761060371E+02 -0.25380963918E+02 -0.55526505651E+03  0.56033079870E+03  0.00000000000E+00 0.  1.
         12    1    3    3    0    0 -0.34467574663E+02 -0.35719169307E+02 -0.11843096025E+04  0.11853493609E+04  0.00000000000E+00 0. -1.
         13    1    5    5    0    0 -0.76774259181E+02 -0.45425331144E+02 -0.20978884387E+02  0.91639844895E+02  0.00000000000E+00 0. -1.
        -14    1    5    5    0    0 -0.23182496773E+02  0.31927015568E+02 -0.15694386442E+02  0.42462645295E+02  0.00000000000E+00 0.  1.
          5    1    4    4  501    0  0.11700630696E+03  0.18507647677E+02 -0.57410451378E+03  0.58621367608E+03  0.41800000000E+01 0. -1.
         -5    1    4    4    0  501  0.88179084026E+02  0.56090801124E+02 -0.17336577240E+03  0.20247195428E+03  0.41800000000E+01 0. -1.
</event>
<event>
11    1  0.5813833E-009  0.1854541E+03  0.7561462E-02  0.1065315E+00
         22   -1    0    0    0    0  0.00000000000E+00  0.00000000000E+00  0.13511592392E+04  0.13511592392E+04  0.00000000000E+00 0. -1.
         22   -1    0    0    0    0 -0.00000000000E+00 -0.00000000000E+00 -0.19266142384E+03  0.19266142384E+03  0.00000000000E+00 0.  1.
        -24    2    1    2    0    0 -0.81793311959E+02  0.11259991278E+03 -0.54791512037E+02  0.17029088142E+03  0.81412457674E+02 0.  0.
         25    2    1    2    0    0  0.37268433099E+02 -0.13319138981E+03  0.32725869069E+02  0.18933568817E+03  0.12509251730E+03 0.  0.
         24    2    1    2    0    0  0.44524878860E+02  0.20591477033E+02  0.11805634584E+04  0.11841940935E+04  0.78607239196E+02 0.  0.
        -13    1    5    5    0    0  0.69565918140E+01 -0.89923433827E+01  0.86079137681E+03  0.86086645352E+03  0.00000000000E+00 0.  1.
         14    1    5    5    0    0  0.37568287046E+02  0.29583820416E+02  0.31977208155E+03  0.32332763996E+03  0.00000000000E+00 0. -1.
         11    1    3    3    0    0 -0.41650584497E+02  0.95317480724E+02 -0.51442078232E+01  0.10414728126E+03  0.00000000000E+00 0. -1.
        -12    1    3    3    0    0 -0.40142727462E+02  0.17282432052E+02 -0.49647304213E+02  0.66143600155E+02  0.00000000000E+00 0.  1.
          5    1    4    4  501    0  0.17319087768E+02 -0.10243558972E+03 -0.37072677547E+02  0.11038503822E+03  0.41800000000E+01 0. -1.
         -5    1    4    4    0  501  0.19949345331E+02 -0.30755800091E+02  0.69798546616E+02  0.78950649954E+02  0.41800000000E+01 0. -1.
</event>
<event>
11    1  0.5813833E-009  0.1741991E+03  0.7561462E-02  0.1074434E+00
         22   -1    0    0    0    0  0.00000000000E+00  0.00000000000E+00  0.46384359877E+03  0.46384359877E+03  0.00000000000E+00 0. -1.
         22   -1    0    0    0    0 -0.00000000000E+00 -0.00000000000E+00 -0.24904237820E+03  0.24904237820E+03  0.00000000000E+00 0.  1.
         24    2    1    2    0    0  0.36863663619E+02  0.10257633488E+03 -0.11687264632E+03  0.17954620335E+03  0.81833914172E+02 0.  0.
         25    2    1    2    0    0 -0.15185093129E+03 -0.80031774575E+02  0.49972082832E+02  0.21819833214E+03  0.12509801283E+03 0.  0.
        -24    2    1    2    0    0  0.11498726767E+03 -0.22544560301E+02  0.28170178406E+03  0.31514144147E+03  0.78917070820E+02 0.  0.
        -13    1    3    3    0    0 -0.13940117537E+02  0.66459255447E+02 -0.87169279774E+02  0.11049725267E+03  0.00000000000E+00 0.  1.
         14    1    3    3    0    0  0.50803781155E+02  0.36117079429E+02 -0.29703366546E+02  0.69048950682E+02  0.00000000000E+00 0. -1.
         13    1    5    5    0    0  0.11255585390E+03  0.56548396996E+01  0.23266465034E+03  0.25852202416E+03  0.00000000000E+00 0. -1.
        -14    1    5    5    0    0  0.24314137693E+01 -0.28199400001E+02  0.49037133720E+02  0.56619417312E+02  0.00000000000E+00 0.  1.
          5    1    4    4  501    0 -0.52563456986E+02 -0.47584647350E+02 -0.38906780892E+02  0.80984107534E+02  0.41800000000E+01 0. -1.
         -5    1    4    4    0  501 -0.99287474299E+02 -0.32447127225E+02  0.88878863723E+02  0.13721422461E+03  0.41800000000E+01 0. -1.
</event>
<event>
11    1  0.5813833E-009  0.1445850E+03  0.7561462E-02  0.1102544E+00
         22   -1    0    0    0    0  0.00000000000E+00  0.00000000000E+00  0.64378381943E+03  0.64378381943E+03  0.00000000000E+00 0.  1.
         22   -1    0    0    0    0 -0.00000000000E+00 -0.00000000000E+00 -0.21860777347E+03  0.21860777347E+03  0.00000000000E+00 0. -1.
        -24    2    1    2    0    0  0.55578946264E+02 -0.51901453684E+02 -0.16438277883E+03  0.19785970309E+03  0.79649130365E+02 0.  0.
         25    2    1    2    0    0 -0.26371648201E+02  0.37343478039E+02  0.97231016258E+02  0.16489712031E+03  0.12508873084E+03 0.  0.
         24    2    1    2    0    0 -0.29207298063E+02  0.14557975645E+02  0.49232780854E+03  0.49963476951E+03  0.78633522912E+02 0.  0.
        -11    1    5    5    0    0  0.13505861962E+02 -0.19223861570E+02  0.25775857427E+03  0.25882706151E+03  0.00000000000E+00 0.  1.
         12    1    5    5    0    0 -0.42713160025E+02  0.33781837215E+02  0.23456923427E+03  0.24080770800E+03  0.00000000000E+00 0. -1.
         11    1    3    3    0    0  0.65818621289E+02 -0.38979604903E+02 -0.16445200131E+03  0.18137243794E+03  0.00000000000E+00 0. -1.
        -12    1    3    3    0    0 -0.10239675025E+02 -0.12921848781E+02  0.69222480275E-01  0.16487265155E+02  0.00000000000E+00 0.  1.
          5    1    4    4  501    0 -0.54741623938E+02 -0.21124126385E+02  0.76609727207E+02  0.96588802714E+02  0.41800000000E+01 0. -1.
         -5    1    4    4    0  501  0.28369975737E+02  0.58467604424E+02  0.20621289051E+02  0.68308317594E+02  0.41800000000E+01 0. -1.
</event>
<event>
11    1  0.5813833E-009  0.1281516E+03  0.7561462E-02  0.1121561E+00
         22   -1    0    0    0    0  0.00000000000E+00  0.00000000000E+00  0.13514108954E+03  0.13514108954E+03  0.00000000000E+00 0. -1.
         22   -1    0    0    0    0 -0.00000000000E+00 -0.00000000000E+00 -0.19457912544E+04  0.19457912544E+04  0.00000000000E+00 0. -1.
         24    2    1    2    0    0  0.14260312152E+02 -0.22782616814E+02 -0.17719859023E+04  0.17739949296E+04  0.80009801365E+02 0.  0.
         25    2    1    2    0    0 -0.25762623180E+02  0.51464256943E+02 -0.12536644651E+03  0.18621551772E+03  0.12508873105E+03 0.  0.
        -24    2    1    2    0    0  0.11502311028E+02 -0.28681640129E+02  0.86702183948E+02  0.12072189658E+03  0.78112534027E+02 0.  0.
        -13    1    3    3    0    0 -0.34247163973E+01 -0.45243660049E+02 -0.62156206900E+03  0.62321595220E+03  0.00000000000E+00 0.  1.
         14    1    3    3    0    0  0.17685028549E+02  0.22461043235E+02 -0.11504238333E+04  0.11507789774E+04  0.00000000000E+00 0. -1.
         13    1    5    5    0    0  0.44063900465E+02 -0.15426140141E+02  0.62621407366E+02  0.78109114605E+02  0.00000000000E+00 0. -1.
        -14    1    5    5    0    0 -0.32561589437E+02 -0.13255499988E+02  0.24080776582E+02  0.42612781972E+02  0.00000000000E+00 0.  1.
          5    1    4    4  501    0  0.16910112800E+02 -0.18202775175E+02  0.10763242360E+02  0.27397312370E+02  0.41800000000E+01 0. -1.
         -5    1    4    4    0  501 -0.42672735981E+02  0.69667032118E+02 -0.13612968887E+03  0.15881820535E+03  0.41800000000E+01 0. -1.
</event>
<event>
11    1  0.5813833E-009  0.1343027E+03  0.7561462E-02  0.1114093E+00
         22   -1    0    0    0    0  0.00000000000E+00  0.00000000000E+00  0.11864564164E+04  0.11864564164E+04  0.00000000000E+00 0.  1.
         22   -1    0    0    0    0 -0.00000000000E+00 -0.00000000000E+00 -0.51281010140E+03  0.51281010140E+03  0.00000000000E+00 0. -1.
        -24    2    1    2    0    0  0.13822705032E+02 -0.16798552443E+02 -0.36681983385E+03  0.37623322529E+03  0.80755128436E+02 0.  0.
         25    2    1    2    0    0 -0.24528530170E+02  0.64241287496E+02 -0.10290658464E+03  0.17596982640E+03  0.12508806030E+03 0.  0.
         24    2    1    2    0    0  0.10705825138E+02 -0.47442735053E+02  0.11433727335E+04  0.11470634661E+04  0.78025379099E+02 0.  0.
        -13    1    5    5    0    0 -0.33829705779E+02 -0.18336509180E+02  0.52289869590E+03  0.52431261928E+03  0.00000000000E+00 0.  1.
         14    1    5    5    0    0  0.44535530917E+02 -0.29106225873E+02  0.62047403761E+03  0.62275084685E+03  0.00000000000E+00 0. -1.
         11    1    3    3    0    0 -0.32008554489E+01 -0.34939505381E+02 -0.32961609531E+03  0.33147818148E+03  0.00000000000E+00 0. -1.
        -12    1    3    3    0    0  0.17023560481E+02  0.18140952938E+02 -0.37203738541E+02  0.44755043809E+02  0.00000000000E+00 0.  1.
          5    1    4    4  501    0  0.22983255258E+02 -0.26105054750E+01 -0.89779255359E+02  0.92805343887E+02  0.41800000000E+01 0. -1.
         -5    1    4    4    0  501 -0.47511785427E+02  0.66851792971E+02 -0.13127329278E+02  0.83164482515E+02  0.41800000000E+01 0. -1.
</event>
<event>
11    1  0.5813833E-009  0.1351473E+03  0.7561462E-02  0.1113101E+00
         22   -1    0    0    0    0  0.00000000000E+00  0.00000000000E+00  0.15453744479E+04  0.15453744479E+04  0.00000000000E+00 0. -1.
         22   -1    0    0    0    0 -0.00000000000E+00 -0.00000000000E+00 -0.67481753980E+02  0.67481753980E+02  0.00000000000E+00 0. -1.
        -24    2    1    2    0    0 -0.13322398999E+01 -0.49428730610E+02 -0.13962635922E+02  0.95246307569E+02  0.80199311910E+02 0.  0.
         25    2    1    2    0    0 -0.27939284536E+02  0.72256246936E+02  0.49136425248E+03  0.51292237915E+03  0.12509584157E+03 0.  0.
         24    2    1    2    0    0  0.29271524436E+02 -0.22827516327E+02  0.10004910774E+04  0.10046875152E+04  0.83884978347E+02 0.  0.
        -13    1    5    5    0    0 -0.21114787624E+01 -0.25406757060E+02  0.87116172660E+02  0.90769979541E+02  0.00000000000E+00 0.  1.
         14    1    5    5    0    0  0.31383003199E+02  0.25792407333E+01  0.91337490471E+03  0.91391753562E+03  0.00000000000E+00 0. -1.
         11    1    3    3    0    0 -0.14897046071E+02 -0.67503639237E+01  0.28932174956E+02  0.33234923536E+02  0.00000000000E+00 0. -1.
        -12    1    3    3    0    0  0.13564806171E+02 -0.42678366686E+02 -0.42894810878E+02  0.62011384033E+02  0.00000000000E+00 0.  1.
          5    1    4    4  501    0 -0.22156458103E+02 -0.12052174383E+02  0.16161831612E+02  0.30246334391E+02  0.41800000000E+01 0.  1.
         -5    1    4    4    0  501 -0.57828264336E+01  0.84308421319E+02  0.47520242087E+03  0.48267604476E+03  0.41800000000E+01 0.  1.
</event>
<event>
11    1  0.5813833E-009  0.2237921E+03  0.7561462E-02  0.1038868E+00
         22   -1    0    0    0    0  0.00000000000E+00  0.00000000000E+00  0.14742126108E+03  0.14742126108E+03  0.00000000000E+00 0.  1.
         22   -1    0    0    0    0 -0.00000000000E+00 -0.00000000000E+00 -0.18107875402E+04  0.18107875402E+04  0.00000000000E+00 0. -1.
        -24    2    1    2    0    0 -0.68098606787E+02 -0.16351591699E+03 -0.12922979215E+04  0.13068583484E+04  0.80435996523E+02 0.  0.
         25    2    1    2    0    0  0.19307800563E+03  0.17294324900E+03 -0.40761411846E+03  0.49898450556E+03  0.12509110115E+03 0.  0.
         24    2    1    2    0    0 -0.12497939884E+03 -0.94273320026E+01  0.36545760800E+02  0.15236594735E+03  0.78556123610E+02 0.  0.
        -11    1    5    5    0    0 -0.13192159166E+03  0.38977962227E+01  0.27454417326E+02  0.13480446651E+03  0.00000000000E+00 0.  1.
         12    1    5    5    0    0  0.69421928120E+01 -0.13325128225E+02  0.90913434743E+01  0.17561480844E+02  0.00000000000E+00 0. -1.
         13    1    3    3    0    0 -0.62902266076E+02 -0.13306168773E+03 -0.12106017627E+04  0.12195157792E+04  0.00000000000E+00 0. -1.
        -14    1    3    3    0    0 -0.51963407106E+01 -0.30454229260E+02 -0.81696158797E+02  0.87342569225E+02  0.00000000000E+00 0.  1.
          5    1    4    4  501    0  0.14086729455E+02  0.87988579058E+02 -0.13941733808E+03  0.16551462941E+03  0.41800000000E+01 0.  1.
         -5    1    4    4    0  501  0.17899127618E+03  0.84954669938E+02 -0.26819678038E+03  0.33346987614E+03  0.41800000000E+01 0.  1.
</event>
<event>
11    1  0.5813833E-009  0.1506060E+03  0.7561462E-02  0.1096261E+00
         22   -1    0    0    0    0  0.00000000000E+00  0.00000000000E+00  0.37971698319E+03  0.37971698319E+03  0.00000000000E+00 0. -1.
         22   -1    0    0    0    0 -0.00000000000E+00 -0.00000000000E+00 -0.64379042445E+03  0.64379042445E+03  0.00000000000E+00 0. -1.
        -24    2    1    2    0    0  0.12899035530E+02 -0.26156632511E+02 -0.37651988688E+03  0.38631150116E+03  0.81355984240E+02 0.  0.
         25    2    1    2    0    0  0.49337730781E+02  0.81964623602E+02 -0.22860098187E+03  0.27759233829E+03  0.12508671460E+03 0.  0.
         24    2    1    2    0    0 -0.62236766310E+02 -0.55807991091E+02  0.34104742748E+03  0.35960356819E+03  0.77546318498E+02 0.  0.
        -13    1    5    5    0    0 -0.27178617947E+02  0.12305535780E+01  0.26392170252E+02  0.37904329386E+02  0.00000000000E+00 0.  1.
         14    1    5    5    0    0 -0.35058148364E+02 -0.57038544669E+02  0.31465525723E+03  0.32169923880E+03  0.00000000000E+00 0. -1.
         13    1    3    3    0    0  0.88531769880E+01 -0.37452030123E+02 -0.37119536114E+03  0.37318498018E+03  0.00000000000E+00 0. -1.
        -14    1    3    3    0    0  0.40458585417E+01  0.11295397612E+02 -0.53245257361E+01  0.13126520974E+02  0.00000000000E+00 0.  1.
          5    1    4    4  501    0  0.67002179741E+02  0.35649359792E+01 -0.57310721772E+02  0.88340206524E+02  0.41800000000E+01 0. -1.
         -5    1    4    4    0  501 -0.17664448961E+02  0.78399687623E+02 -0.17129026009E+03  0.18925213177E+03  0.41800000000E+01 0. -1.
</event>
<event>
11    1  0.5813833E-009  0.1381532E+03  0.7561462E-02  0.1109638E+00
         22   -1    0    0    0    0  0.00000000000E+00  0.00000000000E+00  0.59451564358E+03  0.59451564358E+03  0.00000000000E+00 0. -1.
         22   -1    0    0    0    0 -0.00000000000E+00 -0.00000000000E+00 -0.77070265990E+03  0.77070265990E+03  0.00000000000E+00 0. -1.
         24    2    1    2    0    0 -0.15942265616E+02 -0.87006904443E+01 -0.70182388848E+03  0.70670573219E+03  0.80909601515E+02 0.  0.
         25    2    1    2    0    0  0.72472864871E+02  0.18519461425E+02  0.24767490977E+02  0.14783593873E+03  0.12508696805E+03 0.  0.
        -24    2    1    2    0    0 -0.56530599254E+02 -0.98187709812E+01  0.50086938118E+03  0.51067663256E+03  0.81414796715E+02 0.  0.
        -11    1    3    3    0    0  0.31546540088E+02  0.68459442419E+01 -0.32057206826E+03  0.32219326823E+03  0.00000000000E+00 0.  1.
         12    1    3    3    0    0 -0.47488805704E+02 -0.15546634686E+02 -0.38125182023E+03  0.38451246397E+03  0.00000000000E+00 0. -1.
         11    1    5    5    0    0 -0.75101384084E+02 -0.19624992469E+02  0.42076578018E+03  0.42786586682E+03  0.00000000000E+00 0. -1.
        -12    1    5    5    0    0  0.18570784830E+02  0.98062214878E+01  0.80103601003E+02  0.82810765742E+02  0.00000000000E+00 0.  1.
          5    1    4    4  501    0  0.16966142316E+02  0.19713349009E+02 -0.48870911680E+02  0.55518506128E+02  0.41800000000E+01 0. -1.
         -5    1    4    4    0  501  0.55506722555E+02 -0.11938875834E+01  0.73638402657E+02  0.92317432602E+02  0.41800000000E+01 0. -1.
</event>
<event>
11    1  0.5813833E-009  0.1320639E+03  0.7561462E-02  0.1116759E+00
         22   -1    0    0    0    0  0.00000000000E+00  0.00000000000E+00  0.19874754341E+04  0.19874754341E+04  0.00000000000E+00 0. -1.
         22   -1    0    0    0    0 -0.00000000000E+00 -0.00000000000E+00 -0.18059787677E+02  0.18059787677E+02  0.00000000000E+00 0. -1.
         24    2    1    2    0    0  0.28340031103E+02 -0.52868327138E+01  0.23129097542E+03  0.24637687827E+03  0.79843239352E+02 0.  0.
         25    2    1    2    0    0  0.88443460905E+01  0.31166744430E+02  0.45900249754E+03  0.47684428339E+03  0.12509032512E+03 0.  0.
        -24    2    1    2    0    0 -0.37184377194E+02 -0.25879911716E+02  0.12791221735E+04  0.12823140601E+04  0.78251941814E+02 0.  0.
        -13    1    3    3    0    0  0.19261979638E+02 -0.28954819249E+02  0.21116534737E+03  0.21400983470E+03  0.00000000000E+00 0.  1.
         14    1    3    3    0    0  0.90780514652E+01  0.23667986535E+02  0.20125628053E+02  0.32367043571E+02  0.00000000000E+00 0. -1.
         13    1    5    5    0    0 -0.25587903882E+02 -0.23231020137E+02  0.12544307406E+04  0.12549067313E+04  0.00000000000E+00 0. -1.
        -14    1    5    5    0    0 -0.11596473311E+02 -0.26488915790E+01  0.24691432821E+02  0.27407328849E+02  0.00000000000E+00 0.  1.
          5    1    4    4  501    0  0.43274556119E+02  0.13664832773E+02  0.57045132737E+02  0.73013933129E+02  0.41800000000E+01 0. -1.
         -5    1    4    4    0  501 -0.34430210028E+02  0.17501911657E+02  0.40195736480E+03  0.40383035026E+03  0.41800000000E+01 0. -1.
</event>
<event>
11    1  0.5813833E-009  0.2126910E+03  0.7561462E-02  0.1045895E+00
         22   -1    0    0    0    0  0.00000000000E+00  0.00000000000E+00  0.46759794325E+03  0.46759794325E+03  0.00000000000E+00 0.  1.
         22   -1    0    0    0    0 -0.00000000000E+00 -0.00000000000E+00 -0.41208100393E+03  0.41208100393E+03  0.00000000000E+00 0. -1.
         24    2    1    2    0    0 -0.42679361281E+02  0.70815732786E+02 -0.29921669745E+03  0.32065653430E+03  0.80334208573E+02 0.  0.
         25    2    1    2    0    0  0.18995915103E+03  0.12697078102E+02  0.11635379475E+03  0.25579429328E+03  0.12508724983E+03 0.  0.
        -24    2    1    2    0    0 -0.14727978975E+03 -0.83512810888E+02  0.23837984203E+03  0.30322811961E+03  0.80353079491E+02 0.  0.
        -13    1    3    3    0    0 -0.31519267199E+02 -0.14721921658E+01 -0.38001400977E+02  0.49393704363E+02  0.00000000000E+00 0.  1.
         14    1    3    3    0    0 -0.11160094083E+02  0.72287924952E+02 -0.26121529648E+03  0.27126282994E+03  0.00000000000E+00 0. -1.
         11    1    5    5    0    0 -0.20570186006E+02 -0.18928512664E+02  0.10354275295E+03  0.10724981507E+03  0.00000000000E+00 0. -1.
        -12    1    5    5    0    0 -0.12670960374E+03 -0.64584298224E+02  0.13483708907E+03  0.19597830453E+03  0.00000000000E+00 0.  1.
          5    1    4    4  501    0  0.19674826389E+03  0.38663840024E+02  0.10465878598E+03  0.22622048040E+03  0.41800000000E+01 0.  1.
         -5    1    4    4    0  501 -0.67891128601E+01 -0.25966761923E+02  0.11695008766E+02  0.29573812879E+02  0.41800000000E+01 0.  1.
</event>
<event>
11    1  0.5813833E-009  0.2825484E+03  0.7561462E-02  0.1007860E+00
         22   -1    0    0    0    0  0.00000000000E+00  0.00000000000E+00  0.20172394520E+03  0.20172394520E+03  0.00000000000E+00 0. -1.
         22   -1    0    0    0    0 -0.00000000000E+00 -0.00000000000E+00 -0.30408666942E+03  0.30408666942E+03  0.00000000000E+00 0. -1.
         24    2    1    2    0    0 -0.10860065867E+03 -0.47176694791E+02 -0.98293775429E+02  0.17515097531E+03  0.83644810182E+02 0.  0.
         25    2    1    2    0    0 -0.14373730443E+01 -0.54245138371E+02 -0.63129771977E+02  0.15025823711E+03  0.12509024195E+03 0.  0.
        -24    2    1    2    0    0  0.11003803171E+03  0.10142183316E+03  0.59060823180E+02  0.18040140220E+03  0.81619412003E+02 0.  0.
        -11    1    3    3    0    0 -0.82039127755E+01 -0.37303103947E+02 -0.51046374788E+02  0.63753887159E+02  0.00000000000E+00 0.  1.
         12    1    3    3    0    0 -0.10039674589E+03 -0.98735908449E+01 -0.47247400642E+02  0.11139708815E+03  0.00000000000E+00 0. -1.
         11    1    5    5    0    0  0.12345253624E+03  0.89136443033E+02  0.52902856251E+02  0.16119722820E+03  0.00000000000E+00 0. -1.
        -12    1    5    5    0    0 -0.13414504525E+02  0.12285390129E+02  0.61579669297E+01  0.19204173999E+02  0.00000000000E+00 0.  1.
          5    1    4    4  501    0 -0.20261333055E+02 -0.52526033070E+02 -0.96430122062E+02  0.11173963759E+03  0.41800000000E+01 0.  1.
         -5    1    4    4    0  501  0.18823960011E+02 -0.17191053008E+01  0.33300350085E+02  0.38518599524E+02  0.41800000000E+01 0.  1.
</event>
<event>
11    1  0.5813833E-009  0.1336144E+03  0.7561462E-02  0.1114906E+00
         22   -1    0    0    0    0  0.00000000000E+00  0.00000000000E+00  0.19013981776E+03  0.19013981776E+03  0.00000000000E+00 0. -1.
         22   -1    0    0    0    0 -0.00000000000E+00 -0.00000000000E+00 -0.20914023599E+04  0.20914023599E+04  0.00000000000E+00 0. -1.
        -24    2    1    2    0    0 -0.45300262437E+02 -0.95271306534E+01 -0.19158728396E+04  0.19181806569E+04  0.81886598766E+02 0.  0.
         25    2    1    2    0    0  0.62740067720E+02  0.16419756169E+02 -0.13300675404E+03  0.19376156693E+03  0.12508726437E+03 0.  0.
         24    2    1    2    0    0 -0.17439805283E+02 -0.68926255154E+01  0.14761705152E+03  0.16959995380E+03  0.81373800050E+02 0.  0.
        -13    1    5    5    0    0 -0.19582423489E+02  0.18756287169E+02  0.89354554624E+01  0.28550166066E+02  0.00000000000E+00 0.  1.
         14    1    5    5    0    0  0.21426182060E+01 -0.25648912684E+02  0.13868159606E+03  0.14104978773E+03  0.00000000000E+00 0. -1.
         11    1    3    3    0    0 -0.38855409850E+02 -0.15087153490E+02 -0.18972167698E+04  0.18976745866E+04  0.00000000000E+00 0. -1.
        -12    1    3    3    0    0 -0.64448525870E+01  0.55600228370E+01 -0.18656069796E+02  0.20506070298E+02  0.00000000000E+00 0.  1.
          5    1    4    4  501    0 -0.62165071276E+01 -0.33801765940E+02 -0.93410885212E+02  0.99620631486E+02  0.41800000000E+01 0.  1.
         -5    1    4    4    0  501  0.68956574847E+02  0.50221522109E+02 -0.39595868829E+02  0.94140935442E+02  0.41800000000E+01 0.  1.
</event>
<event>
11    1  0.5813833E-009  0.1364634E+03  0.7561462E-02  0.1111573E+00
         22   -1    0    0    0    0  0.00000000000E+00  0.00000000000E+00  0.24346709128E+04  0.24346709128E+04  0.00000000000E+00 0.  1.
         22   -1    0    0    0    0 -0.00000000000E+00 -0.00000000000E+00 -0.75479318814E+03  0.75479318814E+03  0.00000000000E+00 0.  1.
        -24    2    1    2    0    0  0.41962406620E+02 -0.34713482194E+02 -0.74433430764E+03  0.75058093807E+03  0.79826772699E+02 0.  0.
         25    2    1    2    0    0 -0.74558835367E+02  0.33152452382E+02  0.91325133008E+03  0.92538293994E+03  0.12508992210E+03 0.  0.
         24    2    1    2    0    0  0.32596428747E+02  0.15610298116E+01  0.15109607022E+04  0.15135002229E+04  0.81337058949E+02 0.  0.
        -11    1    5    5    0    0  0.24906674797E+02 -0.18002938039E+02  0.14118676491E+04  0.14122020772E+04  0.00000000000E+00 0.  1.
         12    1    5    5    0    0  0.76897539501E+01  0.19563967851E+02  0.99093053123E+02  0.10129814574E+03  0.00000000000E+00 0. -1.
         11    1    3    3    0    0  0.28926334466E+02 -0.57553871434E+02 -0.39110102456E+03  0.39637001949E+03  0.00000000000E+00 0. -1.
        -12    1    3    3    0    0  0.13036072154E+02  0.22840389240E+02 -0.35323328309E+03  0.35421091858E+03  0.00000000000E+00 0.  1.
          5    1    4    4  501    0 -0.37506450509E+02  0.36840618362E+02  0.85164773036E+03  0.85327914191E+03  0.41800000000E+01 0.  1.
         -5    1    4    4    0  501 -0.37052384858E+02 -0.36881659798E+01  0.61603599719E+02  0.72103798030E+02  0.41800000000E+01 0.  1.
</event>
<event>
11    1  0.5813833E-009  0.2093780E+03  0.7561462E-02  0.1048083E+00
         22   -1    0    0    0    0  0.00000000000E+00  0.00000000000E+00  0.36972134039E+03  0.36972134039E+03  0.00000000000E+00 0.  1.
         22   -1    0    0    0    0 -0.00000000000E+00 -0.00000000000E+00 -0.30518945106E+03  0.30518945106E+03  0.00000000000E+00 0. -1.
         24    2    1    2    0    0  0.17426908875E+03  0.99155275492E+02  0.29196899707E+02  0.21825673522E+03  0.81129893165E+02 0.  0.
         25    2    1    2    0    0 -0.67542723303E+02 -0.14984371224E+03 -0.12576909047E+03  0.24182844860E+03  0.12509187370E+03 0.  0.
        -24    2    1    2    0    0 -0.10672636545E+03  0.50688436744E+02  0.16110408009E+03  0.21482560762E+03  0.78966336919E+02 0.  0.
        -13    1    3    3    0    0  0.13630196316E+03  0.43127974466E+02 -0.36894278228E+01  0.14300999692E+03  0.00000000000E+00 0.  1.
         14    1    3    3    0    0  0.37967125593E+02  0.56027301027E+02  0.32886327530E+02  0.75246738299E+02  0.00000000000E+00 0. -1.
         13    1    5    5    0    0 -0.15805596181E+01 -0.16340649720E+02  0.27849456583E+02  0.32328118317E+02  0.00000000000E+00 0. -1.
        -14    1    5    5    0    0 -0.10514580583E+03  0.67029086464E+02  0.13325462351E+03  0.18249748930E+03  0.00000000000E+00 0.  1.
          5    1    4    4  501    0 -0.67999152410E+02 -0.28397786271E+02 -0.87399402178E+02  0.11439600909E+03  0.41800000000E+01 0.  1.
         -5    1    4    4    0  501  0.45642910674E+00 -0.12144592596E+03 -0.38369688289E+02  0.12743243951E+03  0.41800000000E+01 0.  1.
</event>
<event>
11    1  0.5813833E-009  0.1392443E+03  0.7561462E-02  0.1108405E+00
         22   -1    0    0    0    0  0.00000000000E+00  0.00000000000E+00  0.10850439394E+04  0.10850439394E+04  0.00000000000E+00 0.  1.
         22   -1    0    0    0    0 -0.00000000000E+00 -0.00000000000E+00 -0.15038348826E+03  0.15038348826E+03  0.00000000000E+00 0. -1.
        -24    2    1    2    0    0  0.28552409997E+02 -0.45171490127E+01 -0.86261390134E+02  0.12293888051E+03  0.82687944477E+02 0.  0.
         25    2    1    2    0    0  0.72554930337E+01  0.55020380893E+02  0.65654392513E+02  0.15178263264E+03  0.12509030267E+03 0.  0.
         24    2    1    2    0    0 -0.35807903031E+02 -0.50503231881E+02  0.95526744875E+03  0.96070591448E+03  0.81161401759E+02 0.  0.
        -13    1    5    5    0    0 -0.53279474147E+02 -0.13476738252E+02  0.70227408678E+03  0.70442119346E+03  0.00000000000E+00 0.  1.
         14    1    5    5    0    0  0.17471571116E+02 -0.37026493629E+02  0.25299336197E+03  0.25628472102E+03  0.00000000000E+00 0. -1.
         11    1    3    3    0    0  0.28264435396E+02 -0.26698489227E+02 -0.92125241537E+02  0.99993738622E+02  0.00000000000E+00 0. -1.
        -12    1    3    3    0    0  0.28797460156E+00  0.22181340214E+02  0.58638514035E+01  0.22945141890E+02  0.00000000000E+00 0.  1.
          5    1    4    4  501    0 -0.80763754520E+01  0.62245115026E+01 -0.36140651532E+02  0.37783481537E+02  0.41800000000E+01 0.  1.
         -5    1    4    4    0  501  0.15331868486E+02  0.48795869391E+02  0.10179504405E+03  0.11399915111E+03  0.41800000000E+01 0.  1.
</event>
<event>
11    1  0.5813833E-009  0.1932273E+03  0.7561462E-02  0.1059419E+00
         22   -1    0    0    0    0  0.00000000000E+00  0.00000000000E+00  0.14483596175E+04  0.14483596175E+04  0.00000000000E+00 0. -1.
         22   -1    0    0    0    0 -0.00000000000E+00 -0.00000000000E+00 -0.94331439911E+03  0.94331439911E+03  0.00000000000E+00 0. -1.
         24    2    1    2    0    0 -0.35783474850E+02 -0.33098961355E+02 -0.84936336877E+03  0.85455177556E+03  0.80402777288E+02 0.  0.
         25    2    1    2    0    0  0.37899680025E+02 -0.11601985789E+03  0.25744214904E+01  0.17478652444E+03  0.12508680310E+03 0.  0.
        -24    2    1    2    0    0 -0.21162051752E+01  0.14911881924E+03  0.13518341657E+04  0.13623357167E+04  0.79133385466E+02 0.  0.
        -13    1    3    3    0    0 -0.12174541188E+02 -0.10043313078E+02 -0.25241242513E+02  0.29769244437E+02  0.00000000000E+00 0.  1.
         14    1    3    3    0    0 -0.23608933662E+02 -0.23055648276E+02 -0.82412212626E+03  0.82478253113E+03  0.00000000000E+00 0. -1.
         11    1    5    5    0    0 -0.33087663245E+02  0.42536655224E+02  0.59045592768E+03  0.59291008006E+03  0.00000000000E+00 0. -1.
        -12    1    5    5    0    0  0.30971458070E+02  0.10658216402E+03  0.76137823803E+03  0.76942563659E+03  0.00000000000E+00 0.  1.
          5    1    4    4  501    0  0.81663730635E+02 -0.67820996574E+02 -0.14833279930E+02  0.10726672863E+03  0.41800000000E+01 0.  1.
         -5    1    4    4    0  501 -0.43764050610E+02 -0.48198861316E+02  0.17407701420E+02  0.67519795814E+02  0.41800000000E+01 0.  1.
</event>
<event>
11    1  0.5813833E-009  0.1369531E+03  0.7561462E-02  0.1111009E+00
         22   -1    0    0    0    0  0.00000000000E+00  0.00000000000E+00  0.12205766410E+04  0.12205766410E+04  0.00000000000E+00 0. -1.
         22   -1    0    0    0    0 -0.00000000000E+00 -0.00000000000E+00 -0.42466175700E+03  0.42466175700E+03  0.00000000000E+00 0.  1.
        -24    2    1    2    0    0 -0.25888667062E+02  0.38952329446E+02 -0.36051426452E+03  0.37273609943E+03  0.82305272303E+02 0.  0.
         25    2    1    2    0    0 -0.26911487827E+02 -0.58042348266E+02  0.32571440026E+02  0.14422950635E+03  0.12509240355E+03 0.  0.
         24    2    1    2    0    0  0.52800154888E+02  0.19090018820E+02  0.11238577085E+04  0.11282727922E+04  0.82407885239E+02 0.  0.
        -13    1    5    5    0    0  0.66161112895E+02  0.24159817210E+02  0.58489449077E+03  0.58912015325E+03  0.00000000000E+00 0.  1.
         14    1    5    5    0    0 -0.13360958006E+02 -0.50697983908E+01  0.53896321770E+03  0.53915263895E+03  0.00000000000E+00 0. -1.
         11    1    3    3    0    0 -0.55851318132E+02  0.28490444435E+02 -0.22676746021E+03  0.23527548995E+03  0.00000000000E+00 0. -1.
        -12    1    3    3    0    0  0.29962651070E+02  0.10461885012E+02 -0.13374680431E+03  0.13746060948E+03  0.00000000000E+00 0.  1.
          5    1    4    4  501    0 -0.29654215665E+02 -0.85626930422E+02 -0.12073309936E+02  0.91512736453E+02  0.41800000000E+01 0.  1.
         -5    1    4    4    0  501  0.27427278381E+01  0.27584582156E+02  0.44644749963E+02  0.52716769893E+02  0.41800000000E+01 0.  1.
</event>
<event>
11    1  0.5813833E-009  0.1452329E+03  0.7561462E-02  0.1101852E+00
         22   -1    0    0    0    0  0.00000000000E+00  0.00000000000E+00  0.29395430436E+03  0.29395430436E+03  0.00000000000E+00 0.  1.
         22   -1    0    0    0    0 -0.00000000000E+00 -0.00000000000E+00 -0.24026567731E+03  0.24026567731E+03  0.00000000000E+00 0.  1.
        -24    2    1    2    0    0  0.23747686651E+02 -0.28037157796E+02 -0.16527225640E+03  0.18792376247E+03  0.81549904514E+02 0.  0.
         25    2    1    2    0    0  0.12654012140E+02  0.87602419983E+02  0.83452518105E+02  0.17449724471E+03  0.12510258839E+03 0.  0.
         24    2    1    2    0    0 -0.36401698791E+02 -0.59565262187E+02  0.13550836535E+03  0.17179897449E+03  0.79241822444E+02 0.  0.
        -11    1    5    5    0    0  0.10522389310E+02 -0.57193850997E+02  0.66864034049E+02  0.88615214935E+02  0.00000000000E+00 0.  1.
         12    1    5    5    0    0 -0.46924088101E+02 -0.23714111896E+01  0.68644331298E+02  0.83183759559E+02  0.00000000000E+00 0. -1.
         11    1    3    3    0    0 -0.18625325255E+02 -0.27109129222E+02 -0.24788647103E+02  0.41185976415E+02  0.00000000000E+00 0. -1.
        -12    1    3    3    0    0  0.42373011906E+02 -0.92802857431E+00 -0.14048360930E+03  0.14673778605E+03  0.00000000000E+00 0.  1.
          5    1    4    4  501    0 -0.51007304775E+02  0.62717909581E+02  0.64329750632E+02  0.10339763314E+03  0.41800000000E+01 0. -1.
         -5    1    4    4    0  501  0.63661316915E+02  0.24884510402E+02  0.19122767474E+02  0.71099611569E+02  0.41800000000E+01 0. -1.
</event>
<event>
11    1  0.5813833E-009  0.1461614E+03  0.7561462E-02  0.1100867E+00
         22   -1    0    0    0    0  0.00000000000E+00  0.00000000000E+00  0.86382037818E+03  0.86382037818E+03  0.00000000000E+00 0. -1.
         22   -1    0    0    0    0 -0.00000000000E+00 -0.00000000000E+00 -0.13097724846E+03  0.13097724846E+03  0.00000000000E+00 0. -1.
        -24    2    1    2    0    0  0.15506109689E+02 -0.13760412094E+02 -0.86926785020E+02  0.12044411927E+03  0.80751046642E+02 0.  0.
         25    2    1    2    0    0 -0.86070490665E+02  0.28727015346E+02  0.24831117981E+03  0.29247120165E+03  0.12509033137E+03 0.  0.
         24    2    1    2    0    0  0.70564380976E+02 -0.14966603252E+02  0.57145873494E+03  0.58188230572E+03  0.82574820036E+02 0.  0.
        -11    1    5    5    0    0  0.17151819001E+02 -0.32119492364E+02  0.88816686647E+02  0.95990887649E+02  0.00000000000E+00 0.  1.
         12    1    5    5    0    0  0.53412561975E+02  0.17152889112E+02  0.48264204829E+03  0.48589141807E+03  0.00000000000E+00 0. -1.
         11    1    3    3    0    0  0.92966703814E+01 -0.22660770585E+02 -0.10028520967E+03  0.10323304647E+03  0.00000000000E+00 0. -1.
        -12    1    3    3    0    0  0.62094393075E+01  0.89003584909E+01  0.13358424653E+02  0.17211072802E+02  0.00000000000E+00 0.  1.
          5    1    4    4  501    0 -0.60378537969E+02 -0.17484751410E+02  0.22654326520E+03  0.23513954960E+03  0.41800000000E+01 0. -1.
         -5    1    4    4    0  501 -0.25691952696E+02  0.46211766756E+02  0.21767914606E+02  0.57331652046E+02  0.41800000000E+01 0. -1.
</event>
<event>
11    1  0.5813833E-009  0.1388993E+03  0.7561462E-02  0.1108794E+00
         22   -1    0    0    0    0  0.00000000000E+00  0.00000000000E+00  0.27907111955E+03  0.27907111955E+03  0.00000000000E+00 0. -1.
         22   -1    0    0    0    0 -0.00000000000E+00 -0.00000000000E+00 -0.37635691878E+03  0.37635691878E+03  0.00000000000E+00 0. -1.
         24    2    1    2    0    0  0.11469536903E+02 -0.13132043068E+02 -0.31750661100E+03  0.32607274189E+03  0.72173292426E+02 0.  0.
         25    2    1    2    0    0  0.29379204746E+02 -0.42970367608E+02  0.14894557961E+03  0.20135086485E+03  0.12509114648E+03 0.  0.
        -24    2    1    2    0    0 -0.40848741649E+02  0.56102410676E+02  0.71275232159E+02  0.12800443160E+03  0.80553557407E+02 0.  0.
        -13    1    3    3    0    0 -0.20022061951E+02  0.13611829382E+02 -0.51867009992E+02  0.57239423385E+02  0.00000000000E+00 0.  1.
         14    1    3    3    0    0  0.31491598854E+02 -0.26743872450E+02 -0.26563960101E+03  0.26883331850E+03  0.00000000000E+00 0. -1.
         11    1    5    5    0    0 -0.82395091820E+01  0.64195873201E+02  0.68578995607E+02  0.94297816973E+02  0.00000000000E+00 0. -1.
        -12    1    5    5    0    0 -0.32609232467E+02 -0.80934625251E+01  0.26962365525E+01  0.33706614622E+02  0.00000000000E+00 0.  1.
          5    1    4    4  501    0  0.23305787770E+02  0.29645337458E+02  0.11453805788E+03  0.12065838089E+03  0.41800000000E+01 0. -1.
         -5    1    4    4    0  501  0.60734169761E+01 -0.72615705066E+02  0.34407521732E+02  0.80692483961E+02  0.41800000000E+01 0. -1.
</event>
<event>
11    1  0.5813833E-009  0.1698377E+03  0.7561462E-02  0.1078173E+00
         22   -1    0    0    0    0  0.00000000000E+00  0.00000000000E+00  0.24377940945E+03  0.24377940945E+03  0.00000000000E+00 0. -1.
         22   -1    0    0    0    0 -0.00000000000E+00 -0.00000000000E+00 -0.89571197872E+03  0.89571197872E+03  0.00000000000E+00 0. -1.
        -24    2    1    2    0    0 -0.18925855841E+02 -0.96251047446E+02 -0.65782236928E+03  0.66998499176E+03  0.80790887566E+02 0.  0.
         25    2    1    2    0    0  0.37043999519E+02  0.19893177997E+03 -0.13828440594E+03  0.27516579807E+03  0.12509008162E+03 0.  0.
         24    2    1    2    0    0 -0.18118143678E+02 -0.10268073253E+03  0.14417420595E+03  0.19434059833E+03  0.78169473169E+02 0.  0.
        -13    1    5    5    0    0 -0.12409866596E+02  0.93828103561E+00  0.58381873130E+02  0.59693620014E+02  0.00000000000E+00 0.  1.
         14    1    5    5    0    0 -0.57082770816E+01 -0.10361901356E+03  0.85792332820E+02  0.13464697832E+03  0.00000000000E+00 0. -1.
         11    1    3    3    0    0 -0.44827772918E+02 -0.80131654578E+02 -0.56116987993E+03  0.56863190680E+03  0.00000000000E+00 0. -1.
        -12    1    3    3    0    0  0.25901917077E+02 -0.16119392868E+02 -0.96652489343E+02  0.10135308496E+03  0.00000000000E+00 0.  1.
          5    1    4    4  501    0  0.18509297667E+02  0.19753523760E+03 -0.80202154773E+02  0.21403883345E+03  0.41800000000E+01 0. -1.
         -5    1    4    4    0  501  0.18534701852E+02  0.13965423738E+01 -0.58082251169E+02  0.61126964625E+02  0.41800000000E+01 0. -1.
</event>
<event>
11    1  0.5813833E-009  0.1365257E+03  0.7561462E-02  0.1111501E+00
         22   -1    0    0    0    0  0.00000000000E+00  0.00000000000E+00  0.21277367049E+04  0.21277367049E+04  0.00000000000E+00 0.  1.
         22   -1    0    0    0    0 -0.00000000000E+00 -0.00000000000E+00 -0.32348419965E+03  0.32348419965E+03  0.00000000000E+00 0.  1.
        -24    2    1    2    0    0  0.11243920149E+02  0.41976459547E+02 -0.27979421566E+03  0.29367205684E+03  0.77910364856E+02 0.  0.
         25    2    1    2    0    0  0.43626803583E+02 -0.45012289004E+02  0.10187903675E+03  0.17308032747E+03  0.12509219590E+03 0.  0.
         24    2    1    2    0    0 -0.54870723732E+02  0.30358294566E+01  0.19821676842E+04  0.19844685202E+04  0.78144526942E+02 0.  0.
        -13    1    5    5    0    0 -0.60553694507E+02  0.24157462356E+02  0.17646472405E+04  0.17658511308E+04  0.00000000000E+00 0.  1.
         14    1    5    5    0    0  0.56829707748E+01 -0.21121632900E+02  0.21752044370E+03  0.21861738943E+03  0.00000000000E+00 0. -1.
         13    1    3    3    0    0  0.10257668666E+02  0.31921199218E+02 -0.34283488028E+02  0.47953522054E+02  0.00000000000E+00 0. -1.
        -14    1    3    3    0    0  0.98625148257E+00  0.10055260329E+02 -0.24551072763E+03  0.24571853478E+03  0.00000000000E+00 0.  1.
          5    1    4    4  501    0  0.45603522065E+01 -0.76613217408E+02  0.24405348889E+02  0.80644127798E+02  0.41800000000E+01 0. -1.
         -5    1    4    4    0  501  0.39066451377E+02  0.31600928405E+02  0.77473687862E+02  0.92436199674E+02  0.41800000000E+01 0. -1.
</event>
<event>
11    1  0.5813833E-009  0.1635079E+03  0.7561462E-02  0.1083824E+00
         22   -1    0    0    0    0  0.00000000000E+00  0.00000000000E+00  0.37611994721E+03  0.37611994721E+03  0.00000000000E+00 0. -1.
         22   -1    0    0    0    0 -0.00000000000E+00 -0.00000000000E+00 -0.11327857512E+03  0.11327857512E+03  0.00000000000E+00 0. -1.
         24    2    1    2    0    0 -0.12009395571E+02 -0.19100576096E+01 -0.15313121626E+02  0.83168872577E+02  0.80837465137E+02 0.  0.
         25    2    1    2    0    0  0.11170161599E+03 -0.32298929890E+00  0.17131941603E+03  0.23974071571E+03  0.12509161891E+03 0.  0.
        -24    2    1    2    0    0 -0.99692220423E+02  0.22330469085E+01  0.10683507769E+03  0.16648893405E+03  0.79757796007E+02 0.  0.
        -13    1    3    3    0    0  0.14174943586E+02 -0.33768613250E+01  0.28555728748E+02  0.32058725215E+02  0.00000000000E+00 0.  1.
         14    1    3    3    0    0 -0.26184339157E+02  0.14668037153E+01 -0.43868850374E+02  0.51110147362E+02  0.00000000000E+00 0. -1.
         13    1    5    5    0    0 -0.42450780000E+02  0.88587696777E+01  0.99323725651E+02  0.10837780677E+03  0.00000000000E+00 0. -1.
        -14    1    5    5    0    0 -0.57241440423E+02 -0.66257227692E+01  0.75113520347E+01  0.58111127276E+02  0.00000000000E+00 0.  1.
          5    1    4    4  501    0  0.12197891029E+03  0.14322110808E+01  0.76052005323E+02  0.14381337107E+03  0.41800000000E+01 0. -1.
         -5    1    4    4    0  501 -0.10277294298E+02 -0.17552003797E+01  0.95267410710E+02  0.95927344641E+02  0.41800000000E+01 0. -1.
</event>
<event>
11    1  0.5813833E-009  0.3383640E+03  0.7561462E-02  0.9851465E-01
         22   -1    0    0    0    0  0.00000000000E+00  0.00000000000E+00  0.98073754019E+03  0.98073754019E+03  0.00000000000E+00 0. -1.
         22   -1    0    0    0    0 -0.00000000000E+00 -0.00000000000E+00 -0.51460947875E+03  0.51460947875E+03  0.00000000000E+00 0.  1.
         24    2    1    2    0    0  0.53796540359E+02  0.19781386897E+02 -0.20026377741E+03  0.22341516873E+03  0.80767481414E+02 0.  0.
         25    2    1    2    0    0 -0.14367851129E+03  0.28181120065E+03 -0.16602431518E+03  0.37851407965E+03  0.12509103821E+03 0.  0.
        -24    2    1    2    0    0  0.89881970936E+02 -0.30159258755E+03  0.83241615404E+03  0.89341777056E+03  0.79005073797E+02 0.  0.
        -13    1    3    3    0    0  0.72552135192E+02  0.28926016480E+02 -0.16132008130E+03  0.17923363351E+03  0.00000000000E+00 0.  1.
         14    1    3    3    0    0 -0.18755594833E+02 -0.91446295827E+01 -0.38943696113E+02  0.44181535224E+02  0.00000000000E+00 0. -1.
         13    1    5    5    0    0  0.77134797273E+02 -0.26975749199E+03  0.79300893854E+03  0.84117896909E+03  0.00000000000E+00 0. -1.
        -14    1    5    5    0    0  0.12747173663E+02 -0.31835095564E+02  0.39407215500E+02  0.52238801473E+02  0.00000000000E+00 0.  1.
          5    1    4    4  501    0 -0.18772453267E+02  0.27474139909E+02  0.20451159348E+02  0.39280474590E+02  0.41800000000E+01 0.  1.
         -5    1    4    4    0  501 -0.12490605803E+03  0.25433706075E+03 -0.18647547453E+03  0.33923360506E+03  0.41800000000E+01 0.  1.
</event>
<event>
11    1  0.5813833E-009  0.1510864E+03  0.7561462E-02  0.1095774E+00
         22   -1    0    0    0    0  0.00000000000E+00  0.00000000000E+00  0.62565006007E+03  0.62565006007E+03  0.00000000000E+00 0. -1.
         22   -1    0    0    0    0 -0.00000000000E+00 -0.00000000000E+00 -0.18933311224E+04  0.18933311224E+04  0.00000000000E+00 0.  1.
        -24    2    1    2    0    0 -0.82995809629E+02 -0.89612701092E+01 -0.17467218648E+04  0.17505292766E+04  0.79667223398E+02 0.  0.
         25    2    1    2    0    0  0.11898630958E+03  0.12456832457E+02 -0.88372629595E+02  0.19434551898E+03  0.12509014567E+03 0.  0.
         24    2    1    2    0    0 -0.35990499955E+02 -0.34955623473E+01  0.56741343204E+03  0.57410638691E+03  0.79577670160E+02 0.  0.
        -13    1    5    5    0    0  0.15524996753E+02  0.24029079708E+02  0.16188345841E+03  0.16439183770E+03  0.00000000000E+00 0.  1.
         14    1    5    5    0    0 -0.51515496708E+02 -0.27524642055E+02  0.40552997363E+03  0.40971454921E+03  0.00000000000E+00 0. -1.
         11    1    3    3    0    0 -0.15021337384E+02  0.10905455055E+02 -0.73444808862E+02  0.75754270345E+02  0.00000000000E+00 0. -1.
        -12    1    3    3    0    0 -0.67974472245E+02 -0.19866725165E+02 -0.16732770560E+04  0.16747750063E+04  0.00000000000E+00 0.  1.
          5    1    4    4  501    0  0.26433095193E+02 -0.42592154137E+02 -0.68138535328E+02  0.84694347581E+02  0.41800000000E+01 0.  1.
         -5    1    4    4    0  501  0.92553214391E+02  0.55048986594E+02 -0.20234094267E+02  0.10965117140E+03  0.41800000000E+01 0.  1.
</event>
<event>
11    1  0.5813833E-009  0.1361290E+03  0.7561462E-02  0.1111960E+00
         22   -1    0    0    0    0  0.00000000000E+00  0.00000000000E+00  0.21348458569E+03  0.21348458569E+03  0.00000000000E+00 0.  1.
         22   -1    0    0    0    0 -0.00000000000E+00 -0.00000000000E+00 -0.15527626449E+04  0.15527626449E+04  0.00000000000E+00 0. -1.
        -24    2    1    2    0    0 -0.22824319075E+02 -0.36212199594E+02 -0.13991961118E+04  0.14022501623E+04  0.81996862583E+02 0.  0.
         25    2    1    2    0    0  0.48330229580E+02 -0.13105210032E+02 -0.10580760012E+03  0.17131881005E+03  0.12508928337E+03 0.  0.
         24    2    1    2    0    0 -0.25505910505E+02  0.49317409627E+02  0.16572565269E+03  0.19267825825E+03  0.81099697151E+02 0.  0.
        -13    1    5    5    0    0  0.20226800354E+02  0.41933616022E+02  0.11454960617E+03  0.12364935859E+03  0.00000000000E+00 0.  1.
         14    1    5    5    0    0 -0.45732710860E+02  0.73837936047E+01  0.51176046517E+02  0.69028899656E+02  0.00000000000E+00 0. -1.
         11    1    3    3    0    0 -0.46750235334E+02 -0.46924488979E+02 -0.10218046528E+04  0.10239493350E+04  0.00000000000E+00 0. -1.
        -12    1    3    3    0    0  0.23925916259E+02  0.10712289385E+02 -0.37739145903E+03  0.37830082734E+03  0.00000000000E+00 0.  1.
          5    1    4    4  501    0  0.67731813199E+02 -0.11815686563E+02 -0.55470384052E+01  0.69104638073E+02  0.41800000000E+01 0. -1.
         -5    1    4    4    0  501 -0.19401583619E+02 -0.12895234697E+01 -0.10026056172E+03  0.10221417198E+03  0.41800000000E+01 0. -1.
</event>
<event>
11    1  0.5813833E-009  0.1391116E+03  0.7561462E-02  0.1108555E+00
         22   -1    0    0    0    0  0.00000000000E+00  0.00000000000E+00  0.19308293860E+03  0.19308293860E+03  0.00000000000E+00 0.  1.
         22   -1    0    0    0    0 -0.00000000000E+00 -0.00000000000E+00 -0.10549263591E+04  0.10549263591E+04  0.00000000000E+00 0. -1.
        -24    2    1    2    0    0 -0.44249278144E+02  0.39437044146E+02 -0.92668649385E+03  0.93201777653E+03  0.79974988705E+02 0.  0.
         25    2    1    2    0    0  0.74432907187E+02 -0.57585222323E+02 -0.55889471633E+02  0.16621357441E+03  0.12508798414E+03 0.  0.
         24    2    1    2    0    0 -0.30183629044E+02  0.18148178177E+02  0.12073254498E+03  0.14977794676E+03  0.81342965795E+02 0.  0.
        -11    1    5    5    0    0 -0.53590884267E+02  0.21278302503E+02  0.10921888299E+03  0.12350511502E+03  0.00000000000E+00 0.  1.
         12    1    5    5    0    0  0.23407255223E+02 -0.31301243255E+01  0.11513661996E+02  0.26272831745E+02  0.00000000000E+00 0. -1.
         13    1    3    3    0    0 -0.42892011907E+02  0.30779826627E+02 -0.91853099074E+03  0.92004690280E+03  0.00000000000E+00 0. -1.
        -14    1    3    3    0    0 -0.13572662366E+01  0.86572175196E+01 -0.81555031168E+01  0.11970873732E+02  0.00000000000E+00 0.  1.
          5    1    4    4  501    0  0.23775915291E+02  0.27740963666E+02  0.19405574758E+02  0.41580090726E+02  0.41800000000E+01 0.  1.
         -5    1    4    4    0  501  0.50656991896E+02 -0.85326185990E+02 -0.75295046391E+02  0.12463348368E+03  0.41800000000E+01 0.  1.
</event>
<event>
11    1  0.9098122E-009  0.3613146E+03  0.7561462E-02  0.9771345E-01
         22   -1    0    0    0    0  0.00000000000E+00  0.00000000000E+00  0.13657277715E+04  0.13657277715E+04  0.00000000000E+00 0. -1.
         22   -1    0    0    0    0 -0.00000000000E+00 -0.00000000000E+00 -0.85804641970E+03  0.85804641970E+03  0.00000000000E+00 0. -1.
        -24    2    1    2    0    0 -0.13279432265E+03 -0.85611853121E+02 -0.69253864617E+03  0.71516607991E+03  0.83000143874E+02 0.  0.
         25    2    1    2    0    0  0.13046290698E+02  0.16734870598E+02 -0.12247475189E+03  0.17634671581E+03  0.12509131757E+03 0.  0.
         24    2    1    2    0    0  0.11974803195E+03  0.68876982523E+02  0.13226947499E+04  0.13322613955E+04  0.79469457712E+02 0.  0.
        -13    1    5    5    0    0 -0.12325916295E+01  0.15654215381E+02  0.43329908097E+02  0.46087467678E+02  0.00000000000E+00 0.  1.
         14    1    5    5    0    0  0.12098062358E+03  0.53222767142E+02  0.12793648418E+04  0.12861739278E+04  0.00000000000E+00 0. -1.
         13    1    3    3    0    0 -0.69040980103E+02 -0.53976842821E+02 -0.53717694081E+03  0.54427862555E+03  0.00000000000E+00 0. -1.
        -14    1    3    3    0    0 -0.63753342549E+02 -0.31635010300E+02 -0.15536170537E+03  0.17088745436E+03  0.00000000000E+00 0.  1.
          5    1    4    4  501    0  0.63291644638E+02  0.35838492605E+02 -0.73958711289E+02  0.10381518776E+03  0.41800000000E+01 0. -1.
         -5    1    4    4    0  501 -0.50245353940E+02 -0.19103622006E+02 -0.48516040596E+02  0.72531528052E+02  0.41800000000E+01 0. -1.
</event>
<event>
11    1  0.5813833E-009  0.1679035E+03  0.7561462E-02  0.1079871E+00
         22   -1    0    0    0    0  0.00000000000E+00  0.00000000000E+00  0.61615639651E+03  0.61615639651E+03  0.00000000000E+00 0. -1.
         22   -1    0    0    0    0 -0.00000000000E+00 -0.00000000000E+00 -0.45889002536E+03  0.45889002536E+03  0.00000000000E+00 0.  1.
        -24    2    1    2    0    0 -0.86106126791E+02 -0.70815465775E+02 -0.38964227294E+03  0.41268340696E+03  0.77829289166E+02 0.  0.
         25    2    1    2    0    0  0.80209570594E+02  0.88349964272E+02  0.84710229793E+02  0.19251736575E+03  0.12509125342E+03 0.  0.
         24    2    1    2    0    0  0.58965561969E+01 -0.17534498497E+02  0.46219841429E+03  0.46984564915E+03  0.82373125724E+02 0.  0.
        -11    1    5    5    0    0 -0.30591732720E+02 -0.32715273107E+02  0.25771837131E+03  0.26158154009E+03  0.00000000000E+00 0.  1.
         12    1    5    5    0    0  0.36488288917E+02  0.15180774609E+02  0.20448004299E+03  0.20826410907E+03  0.00000000000E+00 0. -1.
         13    1    3    3    0    0 -0.10201298829E+02 -0.17523766505E+02 -0.11452223287E+02  0.23287385181E+02  0.00000000000E+00 0. -1.
        -14    1    3    3    0    0 -0.75904827962E+02 -0.53291699270E+02 -0.37819004966E+03  0.38939602178E+03  0.00000000000E+00 0.  1.
          5    1    4    4  501    0  0.93610421381E+02  0.47478501837E+02  0.91133091028E+01  0.10544023867E+03  0.41800000000E+01 0.  1.
         -5    1    4    4    0  501 -0.13400850787E+02  0.40871462436E+02  0.75596920690E+02  0.87077127085E+02  0.41800000000E+01 0.  1.
</event>
<event>
11    1  0.5813833E-009  0.1354958E+03  0.7561462E-02  0.1112695E+00
         22   -1    0    0    0    0  0.00000000000E+00  0.00000000000E+00  0.17295167878E+04  0.17295167878E+04  0.00000000000E+00 0.  1.
         22   -1    0    0    0    0 -0.00000000000E+00 -0.00000000000E+00 -0.12945635040E+04  0.12945635040E+04  0.00000000000E+00 0.  1.
         24    2    1    2    0    0  0.12785980058E+02  0.29006449591E+01 -0.12692298687E+04  0.12719181490E+04  0.81605288247E+02 0.  0.
         25    2    1    2    0    0 -0.26691016608E+02  0.47254865998E+02  0.18366094175E+03  0.22874095177E+03  0.12508256779E+03 0.  0.
        -24    2    1    2    0    0  0.13905036550E+02 -0.50155510957E+02  0.15205222108E+04  0.15234211910E+04  0.78201062748E+02 0.  0.
        -11    1    3    3    0    0  0.22347602088E+02 -0.25226658886E+02 -0.10655790988E+04  0.10661119151E+04  0.00000000000E+00 0.  1.
         12    1    3    3    0    0 -0.95616220304E+01  0.28127303845E+02 -0.20365076991E+03  0.20580623392E+03  0.00000000000E+00 0. -1.
         13    1    5    5    0    0  0.29537770613E+02  0.96803813936E+01  0.61924153688E+03  0.62002118567E+03  0.00000000000E+00 0. -1.
        -14    1    5    5    0    0 -0.15632734063E+02 -0.59835892351E+02  0.90128067393E+03  0.90340000531E+03  0.00000000000E+00 0.  1.
          5    1    4    4  501    0  0.44849542968E+02  0.41238769280E+02  0.59538246838E+02  0.85290051194E+02  0.41800000000E+01 0.  1.
         -5    1    4    4    0  501 -0.71540559575E+02  0.60160967178E+01  0.12412269491E+03  0.14345090058E+03  0.41800000000E+01 0.  1.
</event>
<event>
11    1  0.5813833E-009  0.1293457E+03  0.7561462E-02  0.1120076E+00
         22   -1    0    0    0    0  0.00000000000E+00  0.00000000000E+00  0.78775600916E+03  0.78775600916E+03  0.00000000000E+00 0.  1.
         22   -1    0    0    0    0 -0.00000000000E+00 -0.00000000000E+00 -0.19637926396E+03  0.19637926396E+03  0.00000000000E+00 0.  1.
        -24    2    1    2    0    0 -0.21078982469E+00 -0.38985645480E+02 -0.15048973900E+03  0.17516826989E+03  0.80726923926E+02 0.  0.
         25    2    1    2    0    0 -0.23696762286E+02  0.12306102914E+02  0.10602172029E+03  0.16613741035E+03  0.12509219493E+03 0.  0.
         24    2    1    2    0    0  0.23907552111E+02  0.26679542566E+02  0.63584476390E+03  0.64282959288E+03  0.87452573786E+02 0.  0.
        -11    1    5    5    0    0  0.51461594637E+02  0.29647407138E+02  0.53361908147E+03  0.53691394896E+03  0.00000000000E+00 0.  1.
         12    1    5    5    0    0 -0.27554042526E+02 -0.29678645721E+01  0.10222568243E+03  0.10591564393E+03  0.00000000000E+00 0. -1.
         13    1    3    3    0    0  0.28065518417E+02 -0.28182052367E+02 -0.27120096784E+02  0.48139391866E+02  0.00000000000E+00 0. -1.
        -14    1    3    3    0    0 -0.28276308241E+02 -0.10803593112E+02 -0.12336964221E+03  0.12702887802E+03  0.00000000000E+00 0.  1.
          5    1    4    4  501    0 -0.83160390182E+01 -0.45999607458E+02  0.34220301586E+01  0.47056381944E+02  0.41800000000E+01 0. -1.
         -5    1    4    4    0  501 -0.15380723268E+02  0.58305710372E+02  0.10259969013E+03  0.11908102840E+03  0.41800000000E+01 0. -1.
</event>
<event>
11    1  0.5813833E-009  0.1317830E+03  0.7561462E-02  0.1117097E+00
         22   -1    0    0    0    0  0.00000000000E+00  0.00000000000E+00  0.87321177658E+03  0.87321177658E+03  0.00000000000E+00 0. -1.
         22   -1    0    0    0    0 -0.00000000000E+00 -0.00000000000E+00 -0.23796540665E+03  0.23796540665E+03  0.00000000000E+00 0. -1.
        -24    2    1    2    0    0  0.10657263719E+02  0.33724019039E+02 -0.20670460322E+03  0.22477497387E+03  0.80908028997E+02 0.  0.
         25    2    1    2    0    0 -0.52048690155E+01  0.12669420889E+02  0.19107013978E+03  0.22878615057E+03  0.12509076501E+03 0.  0.
         24    2    1    2    0    0 -0.54523947034E+01 -0.46393439928E+02  0.65088083338E+03  0.65761605878E+03  0.81430593981E+02 0.  0.
        -11    1    5    5    0    0 -0.34173960938E+02  0.54261628508E+01  0.23218782289E+03  0.23475197112E+03  0.00000000000E+00 0.  1.
         12    1    5    5    0    0  0.28721566235E+02 -0.51819602779E+02  0.41869301049E+03  0.42286408766E+03  0.00000000000E+00 0. -1.
         11    1    3    3    0    0 -0.28730409804E+02  0.39069979252E+02 -0.11754541510E+03  0.12715669207E+03  0.00000000000E+00 0. -1.
        -12    1    3    3    0    0  0.39387673523E+02 -0.53459602132E+01 -0.89159188119E+02  0.97618281803E+02  0.00000000000E+00 0.  1.
          5    1    4    4  501    0 -0.25047497673E+02  0.12067776784E+02 -0.75667996423E+01  0.29115927479E+02  0.41800000000E+01 0.  1.
         -5    1    4    4    0  501  0.19842628657E+02  0.60164410510E+00  0.19863693942E+03  0.19967022309E+03  0.41800000000E+01 0.  1.
</event>
<event>
11    1  0.5813833E-009  0.2167519E+03  0.7561462E-02  0.1043271E+00
         22   -1    0    0    0    0  0.00000000000E+00  0.00000000000E+00  0.22105590986E+04  0.22105590986E+04  0.00000000000E+00 0.  1.
         22   -1    0    0    0    0 -0.00000000000E+00 -0.00000000000E+00 -0.49090604473E+03  0.49090604473E+03  0.00000000000E+00 0. -1.
        -24    2    1    2    0    0  0.18403249526E+02 -0.31475602766E+02 -0.46034681663E+03  0.46876972324E+03  0.80600674177E+02 0.  0.
         25    2    1    2    0    0  0.14481698120E+03  0.10195823071E+03  0.54659198496E+03  0.58802879921E+03  0.12509049456E+03 0.  0.
         24    2    1    2    0    0 -0.16322023072E+03 -0.70482627944E+02  0.16334078856E+04  0.16446666209E+04  0.72789619476E+02 0.  0.
        -13    1    5    5    0    0 -0.13878221564E+03 -0.48361599115E+02  0.15025681534E+04  0.15097385215E+04  0.00000000000E+00 0.  1.
         14    1    5    5    0    0 -0.24438015078E+02 -0.22121028829E+02  0.13083973220E+03  0.13492809944E+03  0.00000000000E+00 0. -1.
         13    1    3    3    0    0  0.13390836819E+01 -0.21143570513E+02 -0.43915578982E+03  0.43966652300E+03  0.00000000000E+00 0. -1.
        -14    1    3    3    0    0  0.17064165844E+02 -0.10332032253E+02 -0.21191026817E+02  0.29103200236E+02  0.00000000000E+00 0.  1.
          5    1    4    4  501    0  0.56631815571E+02  0.11038828261E+03  0.26165662376E+03  0.28961076746E+03  0.41800000000E+01 0. -1.
         -5    1    4    4    0  501  0.88185165625E+02 -0.84300519018E+01  0.28493536120E+03  0.29841803175E+03  0.41800000000E+01 0. -1.
</event>
<event>
11    1  0.5813833E-009  0.1768311E+03  0.7561462E-02  0.1072235E+00
         22   -1    0    0    0    0  0.00000000000E+00  0.00000000000E+00  0.11177139119E+04  0.11177139119E+04  0.00000000000E+00 0.  1.
         22   -1    0    0    0    0 -0.00000000000E+00 -0.00000000000E+00 -0.39371870958E+03  0.39371870958E+03  0.00000000000E+00 0. -1.
        -24    2    1    2    0    0 -0.64820534503E+02 -0.78722610784E+02 -0.35396560473E+03  0.37712766861E+03  0.80837354951E+02 0.  0.
         25    2    1    2    0    0  0.22454692000E+02 -0.73476211457E+02  0.28264317254E+03  0.31849335152E+03  0.12509150703E+03 0.  0.
         24    2    1    2    0    0  0.42365842503E+02  0.15219882224E+03  0.79531763455E+03  0.81581160139E+03  0.89772395730E+02 0.  0.
        -13    1    5    5    0    0  0.58795101002E+02  0.13943424013E+03  0.75916697656E+03  0.77410158863E+03  0.00000000000E+00 0.  1.
         14    1    5    5    0    0 -0.16429258499E+02  0.12764582112E+02  0.36150657993E+02  0.41710012762E+02  0.00000000000E+00 0. -1.
         13    1    3    3    0    0 -0.75108783703E+02 -0.87966810883E+02 -0.32634123615E+03  0.34623415721E+03  0.00000000000E+00 0. -1.
        -14    1    3    3    0    0  0.10288249200E+02  0.92442000999E+01 -0.27624368578E+02  0.30893511397E+02  0.00000000000E+00 0.  1.
          5    1    4    4  501    0 -0.44901879381E+02 -0.15120643910E+02  0.15941112242E+03  0.16635561606E+03  0.41800000000E+01 0.  1.
         -5    1    4    4    0  501  0.67356571381E+02 -0.58355567546E+02  0.12323205013E+03  0.15213773546E+03  0.41800000000E+01 0.  1.
</event>
<event>
11    1  0.5813833E-009  0.1435422E+03  0.7561462E-02  0.1103666E+00
         22   -1    0    0    0    0  0.00000000000E+00  0.00000000000E+00  0.36215097727E+03  0.36215097727E+03  0.00000000000E+00 0.  1.
         22   -1    0    0    0    0 -0.00000000000E+00 -0.00000000000E+00 -0.58592826180E+03  0.58592826180E+03  0.00000000000E+00 0. -1.
        -24    2    1    2    0    0  0.37510546044E+02 -0.48754678611E+02 -0.40050447013E+03  0.41339657016E+03  0.81907471465E+02 0.  0.
         25    2    1    2    0    0 -0.61834408524E+02 -0.19044947961E+02 -0.14073502486E+03  0.19910065449E+03  0.12509404173E+03 0.  0.
         24    2    1    2    0    0  0.24323862480E+02  0.67799626572E+02  0.31746221045E+03  0.33558201441E+03  0.81514377168E+02 0.  0.
        -13    1    5    5    0    0  0.10068769959E+02  0.62684426247E+02  0.31358669689E+03  0.31994895513E+03  0.00000000000E+00 0.  1.
         14    1    5    5    0    0  0.14255092520E+02  0.51152003245E+01  0.38755135560E+01  0.15633059280E+02  0.00000000000E+00 0. -1.
         11    1    3    3    0    0  0.34073627254E+02 -0.39089709106E+02 -0.39976266882E+03  0.40311190607E+03  0.00000000000E+00 0. -1.
        -12    1    3    3    0    0  0.34369187909E+01 -0.96649695045E+01 -0.74180130154E+00  0.10284664091E+02  0.00000000000E+00 0.  1.
          5    1    4    4  501    0 -0.37349354318E+01 -0.35843027436E+02  0.91542183476E+01  0.37415831837E+02  0.41800000000E+01 0.  1.
         -5    1    4    4    0  501 -0.58099473093E+02  0.16798079475E+02 -0.14988924321E+03  0.16168482265E+03  0.41800000000E+01 0.  1.
</event>
<event>
11    1  0.5813833E-009  0.1397228E+03  0.7561462E-02  0.1107868E+00
         22   -1    0    0    0    0  0.00000000000E+00  0.00000000000E+00  0.10025869914E+04  0.10025869914E+04  0.00000000000E+00 0. -1.
         22   -1    0    0    0    0 -0.00000000000E+00 -0.00000000000E+00 -0.16070650612E+04  0.16070650612E+04  0.00000000000E+00 0. -1.
        -24    2    1    2    0    0 -0.36599187776E+02 -0.49984150440E+02 -0.15660294564E+04  0.15697811535E+04  0.89031991866E+02 0.  0.
         25    2    1    2    0    0  0.46859511257E+02  0.72515441038E+02  0.11899490791E+03  0.19303591459E+03  0.12509505677E+03 0.  0.
         24    2    1    2    0    0 -0.10260323481E+02 -0.22531290597E+02  0.84255647877E+03  0.84683498454E+03  0.81333497552E+02 0.  0.
        -11    1    5    5    0    0  0.27480355911E+02  0.14535641735E+02  0.25096706646E+03  0.25288519785E+03  0.00000000000E+00 0.  1.
         12    1    5    5    0    0 -0.37740679393E+02 -0.37066932333E+02  0.59158941231E+03  0.59394978669E+03  0.00000000000E+00 0. -1.
         11    1    3    3    0    0 -0.30067091377E+02 -0.71149376190E+02 -0.14181517760E+04  0.14202537532E+04  0.00000000000E+00 0. -1.
        -12    1    3    3    0    0 -0.65320963990E+01  0.21165225750E+02 -0.14787768045E+03  0.14952740030E+03  0.00000000000E+00 0.  1.
          5    1    4    4  501    0 -0.20441399125E+02  0.53949666090E+02  0.10761606357E+03  0.12217653951E+03  0.41800000000E+01 0.  1.
         -5    1    4    4    0  501  0.67300910382E+02  0.18565774948E+02  0.11378844339E+02  0.70859375076E+02  0.41800000000E+01 0.  1.
</event>
<event>
11    1  0.5813833E-009  0.1606733E+03  0.7561462E-02  0.1086446E+00
         22   -1    0    0    0    0  0.00000000000E+00  0.00000000000E+00  0.60908088427E+03  0.60908088427E+03  0.00000000000E+00 0. -1.
         22   -1    0    0    0    0 -0.00000000000E+00 -0.00000000000E+00 -0.25825408458E+04  0.25825408458E+04  0.00000000000E+00 0.  1.
        -24    2    1    2    0    0 -0.88693937715E+02  0.48482860066E+02 -0.23574941334E+04  0.23611060487E+04  0.82619500137E+02 0.  0.
         25    2    1    2    0    0  0.10231287503E+03 -0.13939980557E+02 -0.18948654106E+03  0.24942877598E+03  0.12508923850E+03 0.  0.
         24    2    1    2    0    0 -0.13618937314E+02 -0.34542879508E+02  0.57352071288E+03  0.58108690546E+03  0.85774691024E+02 0.  0.
        -11    1    5    5    0    0 -0.36251040028E+02 -0.23426987488E+02  0.13264423367E+03  0.13948997947E+03  0.00000000000E+00 0.  1.
         12    1    5    5    0    0  0.22632102714E+02 -0.11115892021E+02  0.44087647921E+03  0.44159692600E+03  0.00000000000E+00 0. -1.
         11    1    3    3    0    0  0.16036492256E+02  0.97179751736E+01 -0.37664651229E+03  0.37711298485E+03  0.00000000000E+00 0. -1.
        -12    1    3    3    0    0 -0.10473042997E+03  0.38764884892E+02 -0.19808476211E+04  0.19839930638E+04  0.00000000000E+00 0.  1.
          5    1    4    4  501    0 -0.92560116418E+01  0.37801980088E+02 -0.46618261936E+02  0.60871982028E+02  0.41800000000E+01 0.  1.
         -5    1    4    4    0  501  0.11156888667E+03 -0.51741960645E+02 -0.14286827912E+03  0.18855679395E+03  0.41800000000E+01 0.  1.
</event>
<event>
11    1  0.5813833E-009  0.1822098E+03  0.7561462E-02  0.1067869E+00
         22   -1    0    0    0    0  0.00000000000E+00  0.00000000000E+00  0.10553325529E+03  0.10553325529E+03  0.00000000000E+00 0. -1.
         22   -1    0    0    0    0 -0.00000000000E+00 -0.00000000000E+00 -0.12773904128E+04  0.12773904128E+04  0.00000000000E+00 0. -1.
        -24    2    1    2    0    0 -0.14029981395E+03  0.10231210415E+02 -0.10955898247E+04  0.11074640854E+04  0.79818048935E+02 0.  0.
         25    2    1    2    0    0  0.73965312136E+02  0.15992699196E+02 -0.79886109170E+02  0.16659219266E+03  0.12507811315E+03 0.  0.
         24    2    1    2    0    0  0.66334501810E+02 -0.26223909611E+02  0.36187764179E+01  0.10886739000E+03  0.82164794756E+02 0.  0.
        -13    1    5    5    0    0  0.27931592510E+02 -0.60017820989E+01 -0.38797163766E+02  0.48181066455E+02  0.00000000000E+00 0.  1.
         14    1    5    5    0    0  0.38402909301E+02 -0.20222127512E+02  0.42415940184E+02  0.60686323546E+02  0.00000000000E+00 0. -1.
         11    1    3    3    0    0 -0.29003540687E+02 -0.88520151970E+01 -0.52110856338E+03  0.52199013244E+03  0.00000000000E+00 0. -1.
        -12    1    3    3    0    0 -0.11129627326E+03  0.19083225612E+02 -0.57448126137E+03  0.58547395297E+03  0.00000000000E+00 0.  1.
          5    1    4    4  501    0 -0.29876522393E+02 -0.19996916296E+02 -0.20791873602E+02  0.41740360079E+02  0.41800000000E+01 0. -1.
         -5    1    4    4    0  501  0.10384183453E+03  0.35989615493E+02 -0.59094235568E+02  0.12485183258E+03  0.41800000000E+01 0. -1.
</event>
<event>
11    1  0.5813833E-009  0.1865589E+03  0.7561462E-02  0.1064458E+00
         22   -1    0    0    0    0  0.00000000000E+00  0.00000000000E+00  0.28076243507E+03  0.28076243507E+03  0.00000000000E+00 0.  1.
         22   -1    0    0    0    0 -0.00000000000E+00 -0.00000000000E+00 -0.14841118011E+04  0.14841118011E+04  0.00000000000E+00 0.  1.
        -24    2    1    2    0    0 -0.55044690773E+02  0.17908878228E+02 -0.12485746385E+04  0.12524485910E+04  0.79612808766E+02 0.  0.
         25    2    1    2    0    0  0.10614517023E+03 -0.14164524103E+03 -0.14901041777E+03  0.26302525320E+03  0.12509199714E+03 0.  0.
         24    2    1    2    0    0 -0.51100479456E+02  0.12373636280E+03  0.19423569019E+03  0.24940039202E+03  0.80938901132E+02 0.  0.
        -11    1    5    5    0    0 -0.20054358187E+02  0.12376913011E+03  0.15675834190E+03  0.20073403450E+03  0.00000000000E+00 0.  1.
         12    1    5    5    0    0 -0.31046121270E+02 -0.32767309757E-01  0.37477348284E+02  0.48666357517E+02  0.00000000000E+00 0. -1.
         11    1    3    3    0    0  0.14874419817E+02  0.23794003951E+02 -0.39429738991E+03  0.39529461756E+03  0.00000000000E+00 0. -1.
        -12    1    3    3    0    0 -0.69919110590E+02 -0.58851257232E+01 -0.85427724856E+03  0.85715397341E+03  0.00000000000E+00 0.  1.
          5    1    4    4  501    0 -0.13484402972E+02 -0.12946113135E+02  0.13669588789E+02  0.23532127538E+02  0.41800000000E+01 0. -1.
         -5    1    4    4    0  501  0.11962957320E+03 -0.12869912790E+03 -0.16268000656E+03  0.23949312566E+03  0.41800000000E+01 0. -1.
</event>
<event>
11    1  0.5813833E-009  0.1636440E+03  0.7561462E-02  0.1083699E+00
         22   -1    0    0    0    0  0.00000000000E+00  0.00000000000E+00  0.11315142086E+04  0.11315142086E+04  0.00000000000E+00 0. -1.
         22   -1    0    0    0    0 -0.00000000000E+00 -0.00000000000E+00 -0.79988693979E+02  0.79988693979E+02  0.00000000000E+00 0.  1.
         24    2    1    2    0    0 -0.54087333109E+02 -0.48365484435E+02  0.29799058605E+02  0.11275619532E+03  0.81001950605E+02 0.  0.
         25    2    1    2    0    0  0.10477832442E+03  0.12957882809E+03  0.29450367938E+03  0.36076174392E+03  0.12508976278E+03 0.  0.
        -24    2    1    2    0    0 -0.50690991312E+02 -0.81213343651E+02  0.72722277666E+03  0.73798496337E+03  0.81262878781E+02 0.  0.
        -11    1    3    3    0    0 -0.39421539633E+02  0.12673767442E+02 -0.37486916808E+01  0.41578057404E+02  0.00000000000E+00 0.  1.
         12    1    3    3    0    0 -0.14665793476E+02 -0.61039251876E+02  0.33547750286E+02  0.71178137916E+02  0.00000000000E+00 0. -1.
         11    1    5    5    0    0 -0.19517799420E+02  0.14854185003E+02  0.15035587162E+03  0.15234329469E+03  0.00000000000E+00 0. -1.
        -12    1    5    5    0    0 -0.31173191892E+02 -0.96067528654E+02  0.57686690505E+03  0.58564166868E+03  0.00000000000E+00 0.  1.
          5    1    4    4  501    0 -0.53862474928E+01  0.78271823637E+02  0.69013765910E+02  0.10457467343E+03  0.41800000000E+01 0. -1.
         -5    1    4    4    0  501  0.11016457191E+03  0.51307004449E+02  0.22548991347E+03  0.25618707049E+03  0.41800000000E+01 0. -1.
</event>
<event>
11    1  0.5813833E-009  0.1592507E+03  0.7561462E-02  0.1087784E+00
         22   -1    0    0    0    0  0.00000000000E+00  0.00000000000E+00  0.13874768031E+03  0.13874768031E+03  0.00000000000E+00 0.  1.
         22   -1    0    0    0    0 -0.00000000000E+00 -0.00000000000E+00 -0.12485841078E+04  0.12485841078E+04  0.00000000000E+00 0. -1.
        -24    2    1    2    0    0 -0.47504813939E+02 -0.73472097046E+02 -0.77694692558E+03  0.78568279531E+03  0.77434316020E+02 0.  0.
         25    2    1    2    0    0  0.75673804424E+02  0.13682107126E+03 -0.41899322495E+03  0.46437918506E+03  0.12508467034E+03 0.  0.
         24    2    1    2    0    0 -0.28168990485E+02 -0.63348974211E+02  0.86103722991E+02  0.13726980777E+03  0.81379140160E+02 0.  0.
        -13    1    5    5    0    0 -0.49825042579E+02 -0.29887930280E+02  0.22699908204E+02  0.62378755013E+02  0.00000000000E+00 0.  1.
         14    1    5    5    0    0  0.21656052094E+02 -0.33461043931E+02  0.63403814788E+02  0.74891052756E+02  0.00000000000E+00 0. -1.
         13    1    3    3    0    0 -0.68142779430E+02 -0.58911872558E+02 -0.65346499895E+03  0.65964426168E+03  0.00000000000E+00 0. -1.
        -14    1    3    3    0    0  0.20637965491E+02 -0.14560224488E+02 -0.12348192663E+03  0.12603853363E+03  0.00000000000E+00 0.  1.
          5    1    4    4  501    0 -0.54341428491E+00  0.11993249231E+03 -0.28520133698E+03  0.30942102873E+03  0.41800000000E+01 0. -1.
         -5    1    4    4    0  501  0.76217218709E+02  0.16888578950E+02 -0.13379188797E+03  0.15495815633E+03  0.41800000000E+01 0. -1.
</event>
<event>
11    1  0.5813833E-009  0.1553594E+03  0.7561462E-02  0.1091525E+00
         22   -1    0    0    0    0  0.00000000000E+00  0.00000000000E+00  0.17115277132E+03  0.17115277132E+03  0.00000000000E+00 0.  1.
         22   -1    0    0    0    0 -0.00000000000E+00 -0.00000000000E+00 -0.60021654509E+03  0.60021654509E+03  0.00000000000E+00 0. -1.
        -24    2    1    2    0    0  0.59015111080E+01 -0.36209362067E+02 -0.28352362534E+03  0.29692887746E+03  0.80219488975E+02 0.  0.
         25    2    1    2    0    0  0.14975150706E+02  0.12303604860E+03 -0.25676281537E+03  0.31134581530E+03  0.12508776500E+03 0.  0.
         24    2    1    2    0    0 -0.20876661815E+02 -0.86826686537E+02  0.11122266694E+03  0.16309462365E+03  0.79086447122E+02 0.  0.
        -11    1    5    5    0    0  0.62381622602E+00 -0.91943816602E+02  0.67364579549E+02  0.11398263524E+03  0.00000000000E+00 0.  1.
         12    1    5    5    0    0 -0.21500478041E+02  0.51171300656E+01  0.43858087387E+02  0.49111988408E+02  0.00000000000E+00 0. -1.
         13    1    3    3    0    0 -0.16390457000E+02 -0.47917067955E+01 -0.23184002219E+03  0.23246806968E+03  0.00000000000E+00 0. -1.
        -14    1    3    3    0    0  0.22291968108E+02 -0.31417655272E+02 -0.51683603155E+02  0.64460807782E+02  0.00000000000E+00 0.  1.
          5    1    4    4  501    0  0.47879780613E+02  0.76297729384E+02 -0.23200900142E+03  0.24891658450E+03  0.41800000000E+01 0.  1.
         -5    1    4    4    0  501 -0.32904629907E+02  0.46738319220E+02 -0.24753813953E+02  0.62429230798E+02  0.41800000000E+01 0.  1.
</event>
<event>
11    1  0.5813833E-009  0.1347893E+03  0.7561462E-02  0.1113521E+00
         22   -1    0    0    0    0  0.00000000000E+00  0.00000000000E+00  0.19388926514E+02  0.19388926514E+02  0.00000000000E+00 0.  1.
         22   -1    0    0    0    0 -0.00000000000E+00 -0.00000000000E+00 -0.28107819625E+04  0.28107819625E+04  0.00000000000E+00 0.  1.
         24    2    1    2    0    0  0.27225832505E+02 -0.41157061155E+02 -0.16097015958E+04  0.16124366187E+04  0.79859077542E+02 0.  0.
         25    2    1    2    0    0 -0.11764885338E+02  0.54542314415E+02 -0.10670909320E+04  0.10758456116E+04  0.12508975271E+03 0.  0.
        -24    2    1    2    0    0 -0.15460947166E+02 -0.13385253260E+02 -0.11460050819E+03  0.14188865870E+03  0.81122802574E+02 0.  0.
        -13    1    3    3    0    0 -0.33652450372E+01 -0.27608406000E+02 -0.13829853708E+04  0.13832650089E+04  0.00000000000E+00 0.  1.
         14    1    3    3    0    0  0.30591077542E+02 -0.13548655155E+02 -0.22671622499E+03  0.22917160984E+03  0.00000000000E+00 0. -1.
         13    1    5    5    0    0 -0.74206499604E+01  0.22451985634E+02 -0.99341279788E+02  0.10211683296E+03  0.00000000000E+00 0. -1.
        -14    1    5    5    0    0 -0.80402972058E+01 -0.35837238894E+02 -0.15259228403E+02  0.39771825733E+02  0.00000000000E+00 0.  1.
          5    1    4    4  501    0 -0.59598491776E+02  0.24369768929E+02 -0.81042465232E+03  0.81298920986E+03  0.41800000000E+01 0.  1.
         -5    1    4    4    0  501  0.47833606438E+02  0.30172545486E+02 -0.25666627967E+03  0.26285640172E+03  0.41800000000E+01 0.  1.
</event>
<event>
11    1  0.5813833E-009  0.2593473E+03  0.7561462E-02  0.1019034E+00
         22   -1    0    0    0    0  0.00000000000E+00  0.00000000000E+00  0.21816404606E+03  0.21816404606E+03  0.00000000000E+00 0.  1.
         22   -1    0    0    0    0 -0.00000000000E+00 -0.00000000000E+00 -0.21238749562E+04  0.21238749562E+04  0.00000000000E+00 0. -1.
        -24    2    1    2    0    0  0.90613391124E+02 -0.13903927629E+03 -0.12938735125E+04  0.13069513454E+04  0.80439081463E+02 0.  0.
         25    2    1    2    0    0  0.13564529392E+03  0.19161406229E+03 -0.71802935906E+03  0.76572147469E+03  0.12509045408E+03 0.  0.
         24    2    1    2    0    0 -0.22625868505E+03 -0.52574785999E+02  0.10619196143E+03  0.26936618219E+03  0.85582163745E+02 0.  0.
        -13    1    5    5    0    0 -0.21178739315E+03 -0.22439978114E+02  0.10034821353E+03  0.23542985467E+03  0.00000000000E+00 0.  1.
         14    1    5    5    0    0 -0.14471291901E+02 -0.30134807885E+02  0.58437479048E+01  0.33936327514E+02  0.00000000000E+00 0. -1.
         13    1    3    3    0    0  0.94425061934E+01 -0.11491949680E+02 -0.40789409733E+03  0.40816518773E+03  0.00000000000E+00 0. -1.
        -14    1    3    3    0    0  0.81170884931E+02 -0.12754732661E+03 -0.88597941517E+03  0.89878615765E+03  0.00000000000E+00 0.  1.
          5    1    4    4  501    0  0.10542823441E+03  0.16523381439E+03 -0.40337628299E+03  0.44849439697E+03  0.41800000000E+01 0. -1.
         -5    1    4    4    0  501  0.30217059508E+02  0.26380247901E+02 -0.31465307607E+03  0.31722707773E+03  0.41800000000E+01 0. -1.
</event>
<event>
11    1  0.5813833E-009  0.1376941E+03  0.7561462E-02  0.1110161E+00
         22   -1    0    0    0    0  0.00000000000E+00  0.00000000000E+00  0.49198527644E+03  0.49198527644E+03  0.00000000000E+00 0.  1.
         22   -1    0    0    0    0 -0.00000000000E+00 -0.00000000000E+00 -0.68539689393E+03  0.68539689393E+03  0.00000000000E+00 0. -1.
         24    2    1    2    0    0  0.37723886948E+02  0.17296392553E+02 -0.61398498772E+03  0.62044315291E+03  0.79056207880E+02 0.  0.
         25    2    1    2    0    0  0.19466697139E+02  0.44668114578E+01  0.23224516003E+01  0.12669609546E+03  0.12509037581E+03 0.  0.
        -24    2    1    2    0    0 -0.57190584087E+02 -0.21763204011E+02  0.41825091862E+03  0.43024292200E+03  0.80191901388E+02 0.  0.
        -11    1    3    3    0    0 -0.40285607190E+01  0.49459393924E+01 -0.16860394540E+01  0.65980563032E+01  0.00000000000E+00 0.  1.
         12    1    3    3    0    0  0.41752447667E+02  0.12350453160E+02 -0.61229894826E+03  0.61384509660E+03  0.00000000000E+00 0. -1.
         11    1    5    5    0    0  0.20269446444E+02 -0.94720988674E+01  0.86362045050E+02  0.89213081671E+02  0.00000000000E+00 0. -1.
        -12    1    5    5    0    0 -0.77460030531E+02 -0.12291105143E+02  0.33188887357E+03  0.34102984033E+03  0.00000000000E+00 0.  1.
          5    1    4    4  501    0 -0.34568032997E+02  0.43023167764E+02 -0.16169288292E+02  0.57661600339E+02  0.41800000000E+01 0.  1.
         -5    1    4    4    0  501  0.54034730136E+02 -0.38556356306E+02  0.18491739892E+02  0.69034495122E+02  0.41800000000E+01 0.  1.
</event>
<event>
11    1  0.5813833E-009  0.1348503E+03  0.7561462E-02  0.1113449E+00
         22   -1    0    0    0    0  0.00000000000E+00  0.00000000000E+00  0.63441183820E+03  0.63441183820E+03  0.00000000000E+00 0. -1.
         22   -1    0    0    0    0 -0.00000000000E+00 -0.00000000000E+00 -0.79546745732E+02  0.79546745732E+02  0.00000000000E+00 0. -1.
         24    2    1    2    0    0  0.48387925556E+02  0.21186873963E+02  0.24973323482E+01  0.99116633992E+02  0.83830755079E+02 0.  0.
         25    2    1    2    0    0 -0.48879373993E+02  0.12365632490E+02  0.14436532739E+03  0.19756894659E+03  0.12510011525E+03 0.  0.
        -24    2    1    2    0    0  0.49144843744E+00 -0.33552506453E+02  0.40800243273E+03  0.41727300335E+03  0.80775998909E+02 0.  0.
        -13    1    3    3    0    0  0.41051725793E+02  0.20270943433E+02  0.40058661069E+02  0.60834625542E+02  0.00000000000E+00 0.  1.
         14    1    3    3    0    0  0.73361997630E+01  0.91593053055E+00 -0.37561328721E+02  0.38282008450E+02  0.00000000000E+00 0. -1.
         11    1    5    5    0    0  0.50837894985E+01 -0.60145822059E+02  0.29188995224E+03  0.29806561198E+03  0.00000000000E+00 0. -1.
        -12    1    5    5    0    0 -0.45923410610E+01  0.26593315606E+02  0.11611248049E+03  0.11920739137E+03  0.00000000000E+00 0.  1.
          5    1    4    4  501    0 -0.58094648777E+02  0.62838936478E+01  0.16428271044E+03  0.17441547203E+03  0.41800000000E+01 0.  1.
         -5    1    4    4    0  501  0.92152747832E+01  0.60817388423E+01 -0.19917383047E+02  0.23153474558E+02  0.41800000000E+01 0.  1.
</event>
<event>
11    1  0.5813833E-009  0.1527524E+03  0.7561462E-02  0.1094099E+00
         22   -1    0    0    0    0  0.00000000000E+00  0.00000000000E+00  0.48500347330E+03  0.48500347330E+03  0.00000000000E+00 0. -1.
         22   -1    0    0    0    0 -0.00000000000E+00 -0.00000000000E+00 -0.53919709382E+03  0.53919709382E+03  0.00000000000E+00 0.  1.
         24    2    1    2    0    0  0.89658365190E+02 -0.12799463235E+02 -0.42591938189E+03  0.44306506473E+03  0.81834485422E+02 0.  0.
         25    2    1    2    0    0 -0.58959354060E+02  0.58314752417E+02 -0.42107771649E+02  0.15587617102E+03  0.12508996953E+03 0.  0.
        -24    2    1    2    0    0 -0.30699011130E+02 -0.45515289182E+02  0.41383353301E+03  0.42525933137E+03  0.81075489791E+02 0.  0.
        -11    1    3    3    0    0  0.18888767053E+02 -0.23344483363E+02 -0.26818460937E+03  0.26986058461E+03  0.00000000000E+00 0.  1.
         12    1    3    3    0    0  0.70769598137E+02  0.10545020128E+02 -0.15773477252E+03  0.17320448012E+03  0.00000000000E+00 0. -1.
         13    1    5    5    0    0 -0.39820830971E+02  0.70789076085E+00  0.29077500037E+03  0.29348986443E+03  0.00000000000E+00 0. -1.
        -14    1    5    5    0    0  0.91218198405E+01 -0.46223179943E+02  0.12305853264E+03  0.13176946694E+03  0.00000000000E+00 0.  1.
          5    1    4    4  501    0  0.28136679203E+02  0.37341333452E+02 -0.46515287320E+02  0.66084735416E+02  0.41800000000E+01 0. -1.
         -5    1    4    4    0  501 -0.87096033263E+02  0.20973418965E+02  0.44075156712E+01  0.89791435602E+02  0.41800000000E+01 0. -1.
</event>
<event>
11    1  0.5813833E-009  0.1327857E+03  0.7561462E-02  0.1115893E+00
         22   -1    0    0    0    0  0.00000000000E+00  0.00000000000E+00  0.95040186337E+03  0.95040186337E+03  0.00000000000E+00 0.  1.
         22   -1    0    0    0    0 -0.00000000000E+00 -0.00000000000E+00 -0.13089545098E+03  0.13089545098E+03  0.00000000000E+00 0. -1.
         24    2    1    2    0    0 -0.36115992591E+02 -0.24887577850E+02 -0.94843290984E+02  0.13189811273E+03  0.80486681167E+02 0.  0.
         25    2    1    2    0    0  0.52831562643E+02  0.22201105303E+02  0.30439980293E+03  0.33405364611E+03  0.12509410606E+03 0.  0.
        -24    2    1    2    0    0 -0.16715570052E+02  0.26864725468E+01  0.60994990045E+03  0.61534555551E+03  0.79527631714E+02 0.  0.
        -13    1    3    3    0    0  0.15754192040E+02  0.40084942525E+01  0.38635482867E+01  0.16708967603E+02  0.00000000000E+00 0.  1.
         14    1    3    3    0    0 -0.51870184631E+02 -0.28896072102E+02 -0.98706839271E+02  0.11518914513E+03  0.00000000000E+00 0. -1.
         13    1    5    5    0    0 -0.98484469730E+01 -0.38070327315E+02  0.25854568677E+03  0.26151905070E+03  0.00000000000E+00 0. -1.
        -14    1    5    5    0    0 -0.68671230792E+01  0.40756799862E+02  0.35140421368E+03  0.35382650481E+03  0.00000000000E+00 0.  1.
          5    1    4    4  501    0  0.14256225089E+02  0.69029532529E+02  0.21188300580E+03  0.22333874913E+03  0.41800000000E+01 0.  1.
         -5    1    4    4    0  501  0.38575337554E+02 -0.46828427226E+02  0.92516797124E+02  0.11071489698E+03  0.41800000000E+01 0.  1.
</event>
<event>
11    1  0.5813833E-009  0.1936606E+03  0.7561462E-02  0.1059099E+00
         22   -1    0    0    0    0  0.00000000000E+00  0.00000000000E+00  0.14561351280E+04  0.14561351280E+04  0.00000000000E+00 0.  1.
         22   -1    0    0    0    0 -0.00000000000E+00 -0.00000000000E+00 -0.50031865056E+02  0.50031865056E+02  0.00000000000E+00 0. -1.
         24    2    1    2    0    0  0.14204490352E+03  0.54500828428E+02  0.18198688401E+03  0.25014622574E+03  0.79415448008E+02 0.  0.
         25    2    1    2    0    0 -0.10902275897E+03 -0.82955693686E+02  0.75274774403E+03  0.77527165659E+03  0.12509742718E+03 0.  0.
        -24    2    1    2    0    0 -0.33022144551E+02  0.28454865258E+02  0.47136863489E+03  0.48074911072E+03  0.83852108538E+02 0.  0.
        -11    1    3    3    0    0 -0.92673269560E+01 -0.29815654323E+01  0.11300539822E+02  0.14915605305E+02  0.00000000000E+00 0.  1.
         12    1    3    3    0    0  0.15131223048E+03  0.57482393860E+02  0.17068634419E+03  0.23523062043E+03  0.00000000000E+00 0. -1.
         13    1    5    5    0    0 -0.48108052095E+02  0.44775738643E+02  0.41474636535E+03  0.41992118191E+03  0.00000000000E+00 0. -1.
        -14    1    5    5    0    0  0.15085907544E+02 -0.16320873385E+02  0.56622269546E+02  0.60827928808E+02  0.00000000000E+00 0.  1.
          5    1    4    4  501    0 -0.26041192397E+02  0.33283233497E+02  0.15884965577E+03  0.16442810852E+03  0.41800000000E+01 0. -1.
         -5    1    4    4    0  501 -0.82981566574E+02 -0.11623892718E+03  0.59389808826E+03  0.61084354807E+03  0.41800000000E+01 0. -1.
</event>
<event>
11    1  0.5813833E-009  0.2457766E+03  0.7561462E-02  0.1026173E+00
         22   -1    0    0    0    0  0.00000000000E+00  0.00000000000E+00  0.70980031595E+03  0.70980031595E+03  0.00000000000E+00 0.  1.
         22   -1    0    0    0    0 -0.00000000000E+00 -0.00000000000E+00 -0.33906383250E+03  0.33906383250E+03  0.00000000000E+00 0.  1.
         24    2    1    2    0    0 -0.20406148654E+03 -0.59189350244E+01 -0.22098185005E+03  0.31149792096E+03  0.80757988036E+02 0.  0.
         25    2    1    2    0    0  0.26653692561E+03 -0.27091658827E+01  0.26924329403E+03  0.39897993990E+03  0.12507505252E+03 0.  0.
        -24    2    1    2    0    0 -0.62475439075E+02  0.86281009071E+01  0.32247503947E+03  0.33838628759E+03  0.80854832490E+02 0.  0.
        -13    1    3    3    0    0 -0.18408872624E+03 -0.96604552786E+00 -0.22481025649E+03  0.29056710721E+03  0.00000000000E+00 0.  1.
         14    1    3    3    0    0 -0.19972760295E+02 -0.49528894965E+01  0.38284064382E+01  0.20930813745E+02  0.00000000000E+00 0. -1.
         11    1    5    5    0    0 -0.25476741433E+02 -0.14967481428E+02  0.28159249379E+02  0.40817069713E+02  0.00000000000E+00 0. -1.
        -12    1    5    5    0    0 -0.36998697642E+02  0.23595582336E+02  0.29431579009E+03  0.29756921788E+03  0.00000000000E+00 0.  1.
          5    1    4    4  501    0  0.27816274241E+02 -0.29998553317E+02  0.90745362157E+02  0.99628567523E+02  0.41800000000E+01 0.  1.
         -5    1    4    4    0  501  0.23872065137E+03  0.27289387434E+02  0.17849793187E+03  0.29935137237E+03  0.41800000000E+01 0.  1.
</event>
<event>
11    1  0.5813833E-009  0.1917105E+03  0.7561462E-02  0.1060545E+00
         22   -1    0    0    0    0  0.00000000000E+00  0.00000000000E+00  0.22672779680E+03  0.22672779680E+03  0.00000000000E+00 0. -1.
         22   -1    0    0    0    0 -0.00000000000E+00 -0.00000000000E+00 -0.24220212821E+04  0.24220212821E+04  0.00000000000E+00 0. -1.
         24    2    1    2    0    0 -0.10396246908E+03  0.10128743719E+03 -0.22906084992E+04  0.22965893667E+04  0.79800266511E+02 0.  0.
         25    2    1    2    0    0  0.11389953968E+03 -0.96365804366E+02 -0.34790301651E+02  0.19778123407E+03  0.12509027968E+03 0.  0.
        -24    2    1    2    0    0 -0.99370706027E+01 -0.49216328221E+01  0.13010531557E+03  0.15437847814E+03  0.82355045580E+02 0.  0.
        -13    1    3    3    0    0 -0.13445828041E+02 -0.88418011026E+01 -0.94618554385E+02  0.95977281542E+02  0.00000000000E+00 0.  1.
         14    1    3    3    0    0 -0.90516641038E+02  0.11012923829E+03 -0.21959899449E+04  0.22006120852E+04  0.00000000000E+00 0. -1.
         11    1    5    5    0    0 -0.40952036931E+02  0.52283203880E+01  0.10615180311E+03  0.11389736594E+03  0.00000000000E+00 0. -1.
        -12    1    5    5    0    0  0.31014966329E+02 -0.10149953210E+02  0.23953512457E+02  0.40481112208E+02  0.00000000000E+00 0.  1.
          5    1    4    4  501    0 -0.11635309224E+01 -0.75842185744E+02 -0.26799198782E+02  0.80554704382E+02  0.41800000000E+01 0. -1.
         -5    1    4    4    0  501  0.11506307060E+03 -0.20523618622E+02 -0.79911028691E+01  0.11722652969E+03  0.41800000000E+01 0. -1.
</event>
<event>
11    1  0.5813833E-009  0.1450103E+03  0.7561462E-02  0.1102089E+00
         22   -1    0    0    0    0  0.00000000000E+00  0.00000000000E+00  0.11434768108E+04  0.11434768108E+04  0.00000000000E+00 0.  1.
         22   -1    0    0    0    0 -0.00000000000E+00 -0.00000000000E+00 -0.21250934494E+03  0.21250934494E+03  0.00000000000E+00 0. -1.
         24    2    1    2    0    0 -0.67641118591E+02  0.32685806044E+02 -0.17908321791E+03  0.21014769548E+03  0.80296775389E+02 0.  0.
         25    2    1    2    0    0  0.25812930122E+02 -0.39006682377E+02  0.27275259508E+03  0.30369335736E+03  0.12509136081E+03 0.  0.
        -24    2    1    2    0    0  0.41828188469E+02  0.63208763324E+01  0.83729808871E+03  0.84214510293E+03  0.79691493936E+02 0.  0.
        -13    1    3    3    0    0 -0.47992635380E+02  0.39997981956E+02 -0.51820145399E+02  0.81169323518E+02  0.00000000000E+00 0.  1.
         14    1    3    3    0    0 -0.19648483211E+02 -0.73121759120E+01 -0.12726307251E+03  0.12897837196E+03  0.00000000000E+00 0. -1.
         13    1    5    5    0    0 -0.54080422077E+01 -0.22713018735E+02  0.96872221176E+02  0.99646150835E+02  0.00000000000E+00 0. -1.
        -14    1    5    5    0    0  0.47236230677E+02  0.29033895068E+02  0.74042586753E+03  0.74249895209E+03  0.00000000000E+00 0.  1.
          5    1    4    4  501    0 -0.50511384771E+02 -0.16671879191E+02  0.96037011578E+02  0.10986324017E+03  0.41800000000E+01 0. -1.
         -5    1    4    4    0  501  0.76324314893E+02 -0.22334803186E+02  0.17671558351E+03  0.19383011719E+03  0.41800000000E+01 0. -1.
</event>
<event>
11    1  0.5813833E-009  0.1648518E+03  0.7561462E-02  0.1082601E+00
         22   -1    0    0    0    0  0.00000000000E+00  0.00000000000E+00  0.16300943049E+04  0.16300943049E+04  0.00000000000E+00 0. -1.
         22   -1    0    0    0    0 -0.00000000000E+00 -0.00000000000E+00 -0.11822208099E+03  0.11822208099E+03  0.00000000000E+00 0.  1.
         24    2    1    2    0    0 -0.53541073108E+02  0.31253174017E+02 -0.54623049466E+02  0.11534513304E+03  0.80482388053E+02 0.  0.
         25    2    1    2    0    0  0.15330217176E+03 -0.64772090832E+01  0.29802975100E+03  0.35778922622E+03  0.12509151775E+03 0.  0.
        -24    2    1    2    0    0 -0.99761098652E+02 -0.24775964934E+02  0.12684655224E+04  0.12751820267E+04  0.80735954583E+02 0.  0.
        -13    1    3    3    0    0 -0.19703071060E+02 -0.88878766739E+01 -0.58831067067E+02  0.62676150274E+02  0.00000000000E+00 0.  1.
         14    1    3    3    0    0 -0.33838002048E+02  0.40141050691E+02  0.42080176009E+01  0.52668982763E+02  0.00000000000E+00 0. -1.
         11    1    5    5    0    0 -0.97395503035E+02 -0.32127509798E+02  0.78696053102E+03  0.79361510714E+03  0.00000000000E+00 0. -1.
        -12    1    5    5    0    0 -0.23655956169E+01  0.73515448645E+01  0.48150499138E+03  0.48156691952E+03  0.00000000000E+00 0.  1.
          5    1    4    4  501    0  0.56237347094E+02  0.49652397255E+02  0.17941749277E+03  0.19451506078E+03  0.41800000000E+01 0. -1.
         -5    1    4    4    0  501  0.97064824665E+02 -0.56129606339E+02  0.11861225824E+03  0.16327416544E+03  0.41800000000E+01 0. -1.
</event>
<event>
11    1  0.5813833E-009  0.1926648E+03  0.7561462E-02  0.1059835E+00
         22   -1    0    0    0    0  0.00000000000E+00  0.00000000000E+00  0.22268267150E+04  0.22268267150E+04  0.00000000000E+00 0.  1.
         22   -1    0    0    0    0 -0.00000000000E+00 -0.00000000000E+00 -0.49902488892E+02  0.49902488892E+02  0.00000000000E+00 0.  1.
        -24    2    1    2    0    0  0.12365788104E+03 -0.66264144539E+02  0.18447707722E+03  0.25340617619E+03  0.10247287309E+03 0.  0.
         25    2    1    2    0    0 -0.12101303220E+03  0.13766400904E+03  0.96074934896E+03  0.98604401337E+03  0.12509177209E+03 0.  0.
         24    2    1    2    0    0 -0.26448488447E+01 -0.71399864497E+02  0.10316978000E+04  0.10372790144E+04  0.80264981786E+02 0.  0.
        -13    1    5    5    0    0 -0.17230049902E+02 -0.80564654308E+02  0.96050835038E+03  0.96403518053E+03  0.00000000000E+00 0.  1.
         14    1    5    5    0    0  0.14585201058E+02  0.91647898116E+01  0.71189449575E+02  0.73243833823E+02  0.00000000000E+00 0. -1.
         13    1    3    3    0    0  0.11491523067E+02 -0.43940530907E+02  0.12914915861E+02  0.47218856514E+02  0.00000000000E+00 0. -1.
        -14    1    3    3    0    0  0.11216635797E+03 -0.22323613632E+02  0.17156216136E+03  0.20618731968E+03  0.00000000000E+00 0.  1.
          5    1    4    4  501    0 -0.91787511567E+02  0.23548831557E+02  0.29299304583E+03  0.30796410838E+03  0.41800000000E+01 0. -1.
         -5    1    4    4    0  501 -0.29225520628E+02  0.11411517748E+03  0.66775630313E+03  0.67807990499E+03  0.41800000000E+01 0. -1.
</event>
<event>
11    1  0.5813833E-009  0.1313449E+03  0.7561462E-02  0.1117628E+00
         22   -1    0    0    0    0  0.00000000000E+00  0.00000000000E+00  0.25774871444E+03  0.25774871444E+03  0.00000000000E+00 0. -1.
         22   -1    0    0    0    0 -0.00000000000E+00 -0.00000000000E+00 -0.12645236849E+04  0.12645236849E+04  0.00000000000E+00 0.  1.
        -24    2    1    2    0    0  0.95730900874E+01 -0.22374628217E+02 -0.11690392628E+04  0.11720552120E+04  0.80426078563E+02 0.  0.
         25    2    1    2    0    0  0.11366500062E+02  0.54696193926E+02 -0.27685194338E+02  0.13976617357E+03  0.12508893770E+03 0.  0.
         24    2    1    2    0    0 -0.20939590149E+02 -0.32321565708E+02  0.18994948669E+03  0.21045101369E+03  0.82010192206E+02 0.  0.
        -13    1    5    5    0    0 -0.46962124514E+02 -0.33732038831E+02  0.88551224945E+02  0.10575732136E+03  0.00000000000E+00 0.  1.
         14    1    5    5    0    0  0.26022534364E+02  0.14104731226E+01  0.10139826174E+03  0.10469369233E+03  0.00000000000E+00 0. -1.
         13    1    3    3    0    0 -0.26942463009E+02  0.43251254555E+01 -0.18761501589E+03  0.18958902186E+03  0.00000000000E+00 0. -1.
        -14    1    3    3    0    0  0.36515553096E+02 -0.26699753673E+02 -0.98142424687E+03  0.98246619016E+03  0.00000000000E+00 0.  1.
          5    1    4    4  501    0 -0.36648060405E+02  0.12604969109E+02 -0.57263929208E+02  0.69271895932E+02  0.41800000000E+01 0. -1.
         -5    1    4    4    0  501  0.48014560467E+02  0.42091224817E+02  0.29578734870E+02  0.70494277640E+02  0.41800000000E+01 0. -1.
</event>
<event>
11    1  0.5813833E-009  0.1591699E+03  0.7561462E-02  0.1087861E+00
         22   -1    0    0    0    0  0.00000000000E+00  0.00000000000E+00  0.16007976548E+04  0.16007976548E+04  0.00000000000E+00 0.  1.
         22   -1    0    0    0    0 -0.00000000000E+00 -0.00000000000E+00 -0.45910208365E+03  0.45910208365E+03  0.00000000000E+00 0.  1.
        -24    2    1    2    0    0 -0.32808919246E+02 -0.51184749620E+02 -0.38554307490E+03  0.40179695733E+03  0.95399310972E+02 0.  0.
         25    2    1    2    0    0  0.48905169288E+02  0.14589193176E+03  0.94161123849E+02  0.21952319199E+03  0.12509173930E+03 0.  0.
         24    2    1    2    0    0 -0.16096250042E+02 -0.94707182141E+02  0.14330775222E+04  0.14385795891E+04  0.81064850494E+02 0.  0.
        -11    1    5    5    0    0  0.33181256759E+01 -0.92797354063E+02  0.13521246872E+04  0.13553093848E+04  0.00000000000E+00 0.  1.
         12    1    5    5    0    0 -0.19414375718E+02 -0.19098280772E+01  0.80952835032E+02  0.83270204320E+02  0.00000000000E+00 0. -1.
         11    1    3    3    0    0  0.28569743833E+02 -0.18450377457E+02 -0.60595284740E+02  0.69486942829E+02  0.00000000000E+00 0. -1.
        -12    1    3    3    0    0 -0.61378663079E+02 -0.32734372162E+02 -0.32494779016E+03  0.33231001450E+03  0.00000000000E+00 0.  1.
          5    1    4    4  501    0  0.66099332855E+02  0.15102878889E+03  0.51040475419E+02  0.17263087617E+03  0.41800000000E+01 0. -1.
         -5    1    4    4    0  501 -0.17194163567E+02 -0.51368571287E+01  0.43120648430E+02  0.46892315820E+02  0.41800000000E+01 0. -1.
</event>
<event>
11    1  0.5813833E-009  0.1620578E+03  0.7561462E-02  0.1085158E+00
         22   -1    0    0    0    0  0.00000000000E+00  0.00000000000E+00  0.13520278794E+04  0.13520278794E+04  0.00000000000E+00 0. -1.
         22   -1    0    0    0    0 -0.00000000000E+00 -0.00000000000E+00 -0.28114256463E+03  0.28114256463E+03  0.00000000000E+00 0.  1.
         24    2    1    2    0    0  0.66120049233E+01  0.32551768053E+02 -0.25368456745E+03  0.27179977546E+03  0.91738334240E+02 0.  0.
         25    2    1    2    0    0  0.63504872503E+01 -0.12585314091E+03  0.58203562006E+03  0.60851644969E+03  0.12508982676E+03 0.  0.
        -24    2    1    2    0    0 -0.12962492174E+02  0.93301372862E+02  0.74253426221E+03  0.75285421892E+03  0.80988715295E+02 0.  0.
        -11    1    3    3    0    0  0.17696573890E+02  0.55300519896E+02 -0.22973176561E+03  0.23695569282E+03  0.00000000000E+00 0.  1.
         12    1    3    3    0    0 -0.11084568967E+02 -0.22748751844E+02 -0.23952801835E+02  0.34844082645E+02  0.00000000000E+00 0. -1.
         13    1    5    5    0    0  0.15614349959E+02  0.39178301606E+02  0.53020807760E+03  0.53188283747E+03  0.00000000000E+00 0. -1.
        -14    1    5    5    0    0 -0.28576842132E+02  0.54123071256E+02  0.21232618461E+03  0.22097138145E+03  0.00000000000E+00 0.  1.
          5    1    4    4  501    0 -0.49542367378E+02 -0.26549685325E+02  0.28124194279E+03  0.28683415895E+03  0.41800000000E+01 0.  1.
         -5    1    4    4    0  501  0.55892854629E+02 -0.99303455590E+02  0.30079367727E+03  0.32168229074E+03  0.41800000000E+01 0.  1.
</event>
<event>
11    1  0.5813833E-009  0.1318568E+03  0.7561462E-02  0.1117008E+00
         22   -1    0    0    0    0  0.00000000000E+00  0.00000000000E+00  0.45158232779E+03  0.45158232779E+03  0.00000000000E+00 0.  1.
         22   -1    0    0    0    0 -0.00000000000E+00 -0.00000000000E+00 -0.25759510140E+03  0.25759510140E+03  0.00000000000E+00 0.  1.
        -24    2    1    2    0    0 -0.29165262380E+02  0.29643579481E+02 -0.21992272589E+03  0.23804936270E+03  0.81068732462E+02 0.  0.
         25    2    1    2    0    0  0.17716352722E+02 -0.45258847857E+02  0.19144440272E+03  0.23379237729E+03  0.12508270816E+03 0.  0.
         24    2    1    2    0    0  0.11448909658E+02  0.15615268375E+02  0.22246554956E+03  0.23733568920E+03  0.80389019697E+02 0.  0.
        -13    1    5    5    0    0 -0.33705606203E+01  0.46395611226E+02  0.15315194994E+03  0.16006071720E+03  0.00000000000E+00 0.  1.
         14    1    5    5    0    0  0.14819470278E+02 -0.30780342851E+02  0.69313599623E+02  0.77274972003E+02  0.00000000000E+00 0. -1.
         11    1    3    3    0    0 -0.22180060376E+02 -0.24788356445E+02 -0.55436821753E+02  0.64650281512E+02  0.00000000000E+00 0. -1.
        -12    1    3    3    0    0 -0.69852020031E+01  0.54431935926E+02 -0.16448590414E+03  0.17339908118E+03  0.00000000000E+00 0.  1.
          5    1    4    4  501    0 -0.15939367604E+02 -0.64590174885E+02  0.40759310520E+02  0.78132886324E+02  0.41800000000E+01 0. -1.
         -5    1    4    4    0  501  0.33655720326E+02  0.19331327028E+02  0.15068509220E+03  0.15565949097E+03  0.41800000000E+01 0. -1.
</event>
<event>
11    1  0.5813833E-009  0.1914530E+03  0.7561462E-02  0.1060738E+00
         22   -1    0    0    0    0  0.00000000000E+00  0.00000000000E+00  0.16146616250E+04  0.16146616250E+04  0.00000000000E+00 0. -1.
         22   -1    0    0    0    0 -0.00000000000E+00 -0.00000000000E+00 -0.93938856416E+02  0.93938856416E+02  0.00000000000E+00 0.  1.
        -24    2    1    2    0    0 -0.29909055274E+02 -0.44076390336E+02 -0.12017149276E+02  0.96901253924E+02  0.80050992267E+02 0.  0.
         25    2    1    2    0    0 -0.81723227490E+02  0.13523096350E+03  0.26330307520E+03  0.33157529941E+03  0.12509024889E+03 0.  0.
         24    2    1    2    0    0  0.11163228276E+03 -0.91154573160E+02  0.12694368426E+04  0.12801239280E+04  0.80476400190E+02 0.  0.
        -13    1    5    5    0    0  0.12597053907E+02  0.15200003880E+02  0.15000469156E+03  0.15129816052E+03  0.00000000000E+00 0.  1.
         14    1    5    5    0    0  0.99035228857E+02 -0.10635457704E+03  0.11194321511E+04  0.11288257675E+04  0.00000000000E+00 0. -1.
         13    1    3    3    0    0 -0.52030018722E+02 -0.80456095547E+01 -0.14313611127E+02  0.54559455136E+02  0.00000000000E+00 0. -1.
        -14    1    3    3    0    0  0.22120963448E+02 -0.36030780781E+02  0.22964618514E+01  0.42341798788E+02  0.00000000000E+00 0.  1.
          5    1    4    4  501    0 -0.41282289818E+02  0.10421421041E+03  0.71379899162E+02  0.13295635189E+03  0.41800000000E+01 0.  1.
         -5    1    4    4    0  501 -0.40440937672E+02  0.31016753086E+02  0.19192317604E+03  0.19861894752E+03  0.41800000000E+01 0.  1.
</event>
<event>
11    1  0.5813833E-009  0.1536067E+03  0.7561462E-02  0.1093249E+00
         22   -1    0    0    0    0  0.00000000000E+00  0.00000000000E+00  0.12315729183E+04  0.12315729183E+04  0.00000000000E+00 0.  1.
         22   -1    0    0    0    0 -0.00000000000E+00 -0.00000000000E+00 -0.39244828211E+04  0.39244828211E+04  0.00000000000E+00 0. -1.
        -24    2    1    2    0    0  0.60293454405E+02 -0.62726363193E+02 -0.33237204512E+04  0.33257920269E+04  0.78772272195E+02 0.  0.
         25    2    1    2    0    0 -0.11251951259E+03  0.51491856436E+02 -0.58487524637E+03  0.61076872415E+03  0.12508928252E+03 0.  0.
         24    2    1    2    0    0  0.52226058184E+02  0.11234506758E+02  0.12156857949E+04  0.12194949884E+04  0.80139250659E+02 0.  0.
        -11    1    5    5    0    0  0.55101286718E+02  0.62207887672E+01  0.12103790875E+04  0.12116486229E+04  0.00000000000E+00 0.  1.
         12    1    5    5    0    0 -0.28752285339E+01  0.50137179907E+01  0.53067073615E+01  0.78463654155E+01  0.00000000000E+00 0. -1.
         13    1    3    3    0    0  0.14557389380E+02 -0.15101586132E+02 -0.22195128052E+04  0.22196119183E+04  0.00000000000E+00 0. -1.
        -14    1    3    3    0    0  0.45736065025E+02 -0.47624777062E+02 -0.11042076460E+04  0.11061801086E+04  0.00000000000E+00 0.  1.
          5    1    4    4  501    0 -0.11764461741E+03  0.76840296153E+01 -0.51256302637E+03  0.52596352413E+03  0.41800000000E+01 0.  1.
         -5    1    4    4    0  501  0.51251048181E+01  0.43807826820E+02 -0.72312219996E+02  0.84805200023E+02  0.41800000000E+01 0.  1.
</event>
<event>
11    1  0.5813833E-009  0.1543247E+03  0.7561462E-02  0.1092540E+00
         22   -1    0    0    0    0  0.00000000000E+00  0.00000000000E+00  0.27505219923E+04  0.27505219923E+04  0.00000000000E+00 0.  1.
         22   -1    0    0    0    0 -0.00000000000E+00 -0.00000000000E+00 -0.10909632058E+03  0.10909632058E+03  0.00000000000E+00 0. -1.
        -24    2    1    2    0    0  0.29190664790E+02 -0.14655542095E+02 -0.82408705659E+02  0.12000704513E+03  0.80892621954E+02 0.  0.
         25    2    1    2    0    0 -0.11071955729E+03 -0.63563218883E+00  0.12216805102E+04  0.12330489807E+04  0.12508915000E+03 0.  0.
         24    2    1    2    0    0  0.81528892503E+02  0.15291174284E+02  0.15021538672E+04  0.15065622870E+04  0.79893076955E+02 0.  0.
        -11    1    5    5    0    0  0.76361123966E+02  0.42553623001E+02  0.11358973597E+04  0.11392561801E+04  0.00000000000E+00 0.  1.
         12    1    5    5    0    0  0.51677685370E+01 -0.27262448718E+02  0.36625650746E+03  0.36730610694E+03  0.00000000000E+00 0. -1.
         13    1    3    3    0    0 -0.15486030644E+02 -0.30079840463E+02 -0.57158702915E+02  0.66420864691E+02  0.00000000000E+00 0. -1.
        -14    1    3    3    0    0  0.44676695434E+02  0.15424298368E+02 -0.25250002744E+02  0.53586180435E+02  0.00000000000E+00 0.  1.
          5    1    4    4  501    0 -0.12873784770E+03 -0.29272884421E+02  0.91639530945E+03  0.92586617325E+03  0.41800000000E+01 0. -1.
         -5    1    4    4    0  501  0.18018290402E+02  0.28637252232E+02  0.30528520072E+03  0.30718280743E+03  0.41800000000E+01 0. -1.
</event>
<event>
11    1  0.5813833E-009  0.1303435E+03  0.7561462E-02  0.1118848E+00
         22   -1    0    0    0    0  0.00000000000E+00  0.00000000000E+00  0.36873031432E+03  0.36873031432E+03  0.00000000000E+00 0. -1.
         22   -1    0    0    0    0 -0.00000000000E+00 -0.00000000000E+00 -0.61311242226E+03  0.61311242226E+03  0.00000000000E+00 0. -1.
        -24    2    1    2    0    0  0.26397583979E+01 -0.24131345029E+02 -0.32890346758E+03  0.33944619948E+03  0.80355094537E+02 0.  0.
         25    2    1    2    0    0 -0.10713142619E+02 -0.12046637850E+02 -0.25924038833E+03  0.28829195438E+03  0.12508708613E+03 0.  0.
         24    2    1    2    0    0  0.80733842207E+01  0.36177982879E+02  0.34376174795E+03  0.35410458272E+03  0.76445341048E+02 0.  0.
        -13    1    5    5    0    0 -0.24039269757E+02  0.34941490789E+02  0.10582730910E+03  0.11400970844E+03  0.00000000000E+00 0.  1.
         14    1    5    5    0    0  0.32112653978E+02  0.12364920893E+01  0.23793443886E+03  0.24009487428E+03  0.00000000000E+00 0. -1.
         11    1    3    3    0    0  0.33754722603E+02 -0.23562196218E+02 -0.95734560201E+02  0.10420971358E+03  0.00000000000E+00 0. -1.
        -12    1    3    3    0    0 -0.31114964205E+02 -0.56914881124E+00 -0.23316890738E+03  0.23523648589E+03  0.00000000000E+00 0.  1.
          5    1    4    4  501    0 -0.10661143128E+02 -0.34834590250E+02 -0.26236407550E+03  0.26491411659E+03  0.41800000000E+01 0. -1.
         -5    1    4    4    0  501 -0.51999490736E-01  0.22787952401E+02  0.31236871794E+01  0.23377837799E+02  0.41800000000E+01 0. -1.
</event>
<event>
11    1  0.5813833E-009  0.1425808E+03  0.7561462E-02  0.1104710E+00
         22   -1    0    0    0    0  0.00000000000E+00  0.00000000000E+00  0.56576226089E+03  0.56576226089E+03  0.00000000000E+00 0.  1.
         22   -1    0    0    0    0 -0.00000000000E+00 -0.00000000000E+00 -0.76005861091E+03  0.76005861091E+03  0.00000000000E+00 0.  1.
         24    2    1    2    0    0  0.42577979180E+02  0.50176206832E+02 -0.66232815037E+03  0.67043935989E+03  0.80497332119E+02 0.  0.
         25    2    1    2    0    0 -0.97292491042E+02 -0.84381134067E+02  0.36103616218E+01  0.17957502927E+03  0.12509257303E+03 0.  0.
        -24    2    1    2    0    0  0.54714511862E+02  0.34204927234E+02  0.46442143874E+03  0.47580648263E+03  0.80875715150E+02 0.  0.
        -11    1    3    3    0    0  0.38920054566E+02 -0.12485505225E+02 -0.28776853085E+03  0.29065681798E+03  0.00000000000E+00 0.  1.
         12    1    3    3    0    0  0.36579246146E+01  0.62661712057E+02 -0.37455961952E+03  0.37978254192E+03  0.00000000000E+00 0. -1.
         13    1    5    5    0    0 -0.13928153693E+02 -0.45780377786E+01  0.18191640753E+03  0.18250624983E+03  0.00000000000E+00 0. -1.
        -14    1    5    5    0    0  0.68642665555E+02  0.38782965013E+02  0.28250503120E+03  0.29330023281E+03  0.00000000000E+00 0.  1.
          5    1    4    4  501    0 -0.71184560056E+02  0.18198602747E+02  0.40132685214E+00  0.73593914120E+02  0.41800000000E+01 0.  1.
         -5    1    4    4    0  501 -0.26107930986E+02 -0.10257973681E+03  0.32090347697E+01  0.10598111515E+03  0.41800000000E+01 0.  1.
</event>
<event>
11    1  0.5813833E-009  0.1555827E+03  0.7561462E-02  0.1091307E+00
         22   -1    0    0    0    0  0.00000000000E+00  0.00000000000E+00  0.13387737951E+04  0.13387737951E+04  0.00000000000E+00 0. -1.
         22   -1    0    0    0    0 -0.00000000000E+00 -0.00000000000E+00 -0.48678455009E+03  0.48678455009E+03  0.00000000000E+00 0.  1.
         24    2    1    2    0    0 -0.69465281029E+02 -0.55622581945E+02 -0.37487358288E+03  0.39363183418E+03  0.80600997799E+02 0.  0.
         25    2    1    2    0    0  0.64610302894E+02  0.11433987953E+03 -0.18661822540E+02  0.18232948440E+03  0.12509067900E+03 0.  0.
        -24    2    1    2    0    0  0.48549781347E+01 -0.58717297582E+02  0.12455246505E+04  0.12495970266E+04  0.81791088720E+02 0.  0.
        -11    1    3    3    0    0 -0.27314376879E+02 -0.69104810696E+02 -0.26383215037E+03  0.27409661365E+03  0.00000000000E+00 0.  1.
         12    1    3    3    0    0 -0.42150904150E+02  0.13482228751E+02 -0.11104143251E+03  0.11953522053E+03  0.00000000000E+00 0. -1.
         13    1    5    5    0    0  0.17723878391E+02 -0.58387616854E+02  0.12141744690E+04  0.12157067454E+04  0.00000000000E+00 0. -1.
        -14    1    5    5    0    0 -0.12868900256E+02 -0.32968072803E+00  0.31350181489E+02  0.33890281241E+02  0.00000000000E+00 0.  1.
          5    1    4    4  501    0  0.62131421219E+02  0.81383692075E+02 -0.67865318628E+02  0.12290969332E+03  0.41800000000E+01 0. -1.
         -5    1    4    4    0  501  0.24788816750E+01  0.32956187451E+02  0.49203496088E+02  0.59419791088E+02  0.41800000000E+01 0. -1.
</event>
<event>
11    1  0.5813833E-009  0.1446751E+03  0.7561462E-02  0.1102447E+00
         22   -1    0    0    0    0  0.00000000000E+00  0.00000000000E+00  0.11332646377E+04  0.11332646377E+04  0.00000000000E+00 0.  1.
         22   -1    0    0    0    0 -0.00000000000E+00 -0.00000000000E+00 -0.28417622726E+03  0.28417622726E+03  0.00000000000E+00 0. -1.
        -24    2    1    2    0    0  0.12706326396E+02 -0.25063818354E+02 -0.15938900354E+03  0.18368782158E+03  0.86871834473E+02 0.  0.
         25    2    1    2    0    0  0.19176280714E+02  0.89908265716E+02 -0.55078067581E+02  0.16472601292E+03  0.12509931981E+03 0.  0.
         24    2    1    2    0    0 -0.31882607110E+02 -0.64844447362E+02  0.10635554815E+04  0.10690270304E+04  0.80294623214E+02 0.  0.
        -11    1    5    5    0    0 -0.32457966417E+02  0.54201564257E+01  0.50465323222E+03  0.50572500677E+03  0.00000000000E+00 0.  1.
         12    1    5    5    0    0  0.57535930745E+00 -0.70264603788E+02  0.55890224931E+03  0.56330202367E+03  0.00000000000E+00 0. -1.
         11    1    3    3    0    0  0.24211100561E+02 -0.42933541510E+02 -0.15409413321E+03  0.16178525356E+03  0.00000000000E+00 0. -1.
        -12    1    3    3    0    0 -0.11504774165E+02  0.17869723155E+02 -0.52948703305E+01  0.21902568024E+02  0.00000000000E+00 0.  1.
          5    1    4    4  501    0 -0.29612494195E+02  0.72313040442E+02 -0.75586573710E+02  0.10879741796E+03  0.41800000000E+01 0. -1.
         -5    1    4    4    0  501  0.48788774909E+02  0.17595225274E+02  0.20508506130E+02  0.55928594951E+02  0.41800000000E+01 0. -1.
</event>
<event>
11    1  0.5813833E-009  0.1342674E+03  0.7561462E-02  0.1114134E+00
         22   -1    0    0    0    0  0.00000000000E+00  0.00000000000E+00  0.86970061867E+03  0.86970061867E+03  0.00000000000E+00 0.  1.
         22   -1    0    0    0    0 -0.00000000000E+00 -0.00000000000E+00 -0.54909758899E+03  0.54909758899E+03  0.00000000000E+00 0. -1.
        -24    2    1    2    0    0  0.55095516884E+01  0.81006989894E+01 -0.52035728465E+03  0.52657706351E+03  0.80098212466E+02 0.  0.
         25    2    1    2    0    0  0.42372247500E+02  0.58113139955E+01  0.17745424137E+03  0.22128671980E+03  0.12509446770E+03 0.  0.
         24    2    1    2    0    0 -0.47881799188E+02 -0.13912012985E+02  0.66350607296E+03  0.67093442435E+03  0.86177039432E+02 0.  0.
        -13    1    5    5    0    0 -0.78782841362E+00 -0.31588743335E+02  0.46784060509E+03  0.46890649511E+03  0.00000000000E+00 0.  1.
         14    1    5    5    0    0 -0.47093970774E+02  0.17676730350E+02  0.19566546787E+03  0.20202792925E+03  0.00000000000E+00 0. -1.
         13    1    3    3    0    0 -0.25713661100E+01  0.33113575775E+02 -0.45385014219E+03  0.45506381134E+03  0.00000000000E+00 0. -1.
        -14    1    3    3    0    0  0.80809177984E+01 -0.25012876786E+02 -0.66507142457E+02  0.71513252166E+02  0.00000000000E+00 0.  1.
          5    1    4    4  501    0  0.47929988845E+02  0.94331315237E+01  0.19553031712E+03  0.20158334533E+03  0.41800000000E+01 0.  1.
         -5    1    4    4    0  501 -0.55577413454E+01 -0.36218175282E+01 -0.18076075748E+02  0.19703374471E+02  0.41800000000E+01 0.  1.
</event>
<event>
11    1  0.5813833E-009  0.1721161E+03  0.7561462E-02  0.1076205E+00
         22   -1    0    0    0    0  0.00000000000E+00  0.00000000000E+00  0.67311898472E+03  0.67311898472E+03  0.00000000000E+00 0. -1.
         22   -1    0    0    0    0 -0.00000000000E+00 -0.00000000000E+00 -0.10966172548E+03  0.10966172548E+03  0.00000000000E+00 0. -1.
         24    2    1    2    0    0  0.27942550794E+02  0.36186641159E+02 -0.45868760726E+01  0.91190408162E+02  0.78767962812E+02 0.  0.
         25    2    1    2    0    0  0.32360929556E+02  0.75187032423E+02  0.61053082485E+02  0.16148283009E+03  0.12509558715E+03 0.  0.
        -24    2    1    2    0    0 -0.60303480350E+02 -0.11137367358E+03  0.50699105283E+03  0.53010747196E+03  0.89069631586E+02 0.  0.
        -11    1    3    3    0    0  0.68480492479E+01  0.51257549496E+02  0.20014073112E+02  0.55450836615E+02  0.00000000000E+00 0.  1.
         12    1    3    3    0    0  0.21094501546E+02 -0.15070908337E+02 -0.24600949185E+02  0.35739571547E+02  0.00000000000E+00 0. -1.
         11    1    5    5    0    0 -0.64703221763E+02 -0.82648977088E+02  0.47674712737E+03  0.48816511937E+03  0.00000000000E+00 0. -1.
        -12    1    5    5    0    0  0.43997414135E+01 -0.28724696495E+02  0.30243925461E+02  0.41942352586E+02  0.00000000000E+00 0.  1.
          5    1    4    4  501    0  0.61284081111E+02  0.50038386898E+02 -0.10779114694E+02  0.79957741805E+02  0.41800000000E+01 0. -1.
         -5    1    4    4    0  501 -0.28923151555E+02  0.25148645525E+02  0.71832197179E+02  0.81525088280E+02  0.41800000000E+01 0. -1.
</event>
<event>
11    1  0.5813833E-009  0.1858702E+03  0.7561462E-02  0.1064991E+00
         22   -1    0    0    0    0  0.00000000000E+00  0.00000000000E+00  0.13299741331E+04  0.13299741331E+04  0.00000000000E+00 0. -1.
         22   -1    0    0    0    0 -0.00000000000E+00 -0.00000000000E+00 -0.75563424750E+02  0.75563424750E+02  0.00000000000E+00 0. -1.
        -24    2    1    2    0    0  0.59573820594E+02 -0.26881900902E+02  0.57116724503E+01  0.10353558748E+03  0.80095680132E+02 0.  0.
         25    2    1    2    0    0  0.91826653734E+02  0.53352809826E+02  0.34710895928E+03  0.38394489800E+03  0.12510155247E+03 0.  0.
         24    2    1    2    0    0 -0.15140047433E+03 -0.26470908924E+02  0.90159007660E+03  0.91805707236E+03  0.79632337918E+02 0.  0.
        -13    1    5    5    0    0 -0.52441215366E+02  0.27514609116E+02  0.26207031358E+03  0.26867821654E+03  0.00000000000E+00 0.  1.
         14    1    5    5    0    0 -0.98959258961E+02 -0.53985518040E+02  0.63951976302E+03  0.64937885582E+03  0.00000000000E+00 0. -1.
         11    1    3    3    0    0  0.65966107643E+02 -0.23851021356E+02 -0.23113112134E+02  0.73855362228E+02  0.00000000000E+00 0. -1.
        -12    1    3    3    0    0 -0.63922870486E+01 -0.30308795459E+01  0.28824784584E+02  0.29680225249E+02  0.00000000000E+00 0.  1.
          5    1    4    4  501    0  0.11170287616E+03  0.14193370030E+02  0.29431145524E+03  0.31514391853E+03  0.41800000000E+01 0.  1.
         -5    1    4    4    0  501 -0.19876222431E+02  0.39159439795E+02  0.52797504039E+02  0.68800979470E+02  0.41800000000E+01 0.  1.
</event>
<event>
11    1  0.5813833E-009  0.1450979E+03  0.7561462E-02  0.1101996E+00
         22   -1    0    0    0    0  0.00000000000E+00  0.00000000000E+00  0.10903509398E+04  0.10903509398E+04  0.00000000000E+00 0.  1.
         22   -1    0    0    0    0 -0.00000000000E+00 -0.00000000000E+00 -0.83470573136E+03  0.83470573136E+03  0.00000000000E+00 0.  1.
         24    2    1    2    0    0 -0.26570807125E+02 -0.55175595432E+02 -0.42886341812E+03  0.44171077540E+03  0.86221943752E+02 0.  0.
         25    2    1    2    0    0  0.52539739378E+02  0.92099820793E+02 -0.38053285780E+03  0.41436135918E+03  0.12508908391E+03 0.  0.
        -24    2    1    2    0    0 -0.25968932253E+02 -0.36924225361E+02  0.10650414844E+04  0.10689845366E+04  0.79854819402E+02 0.  0.
        -13    1    3    3    0    0 -0.38659740378E+02 -0.61629514780E+02 -0.41783253766E+03  0.42411885380E+03  0.00000000000E+00 0.  1.
         14    1    3    3    0    0  0.12088933253E+02  0.64539193476E+01 -0.11030880460E+02  0.17591921609E+02  0.00000000000E+00 0. -1.
         13    1    5    5    0    0  0.15579104607E+02  0.10715848528E+02  0.93727051633E+02  0.95615365490E+02  0.00000000000E+00 0. -1.
        -14    1    5    5    0    0 -0.41548036860E+02 -0.47640073889E+02  0.97131443274E+03  0.97336917111E+03  0.00000000000E+00 0.  1.
          5    1    4    4  501    0  0.67723430841E+01  0.69501172702E+02 -0.67651735263E+02  0.97316531596E+02  0.41800000000E+01 0. -1.
         -5    1    4    4    0  501  0.45767396294E+02  0.22598648092E+02 -0.31288112254E+03  0.31704482758E+03  0.41800000000E+01 0. -1.
</event>
<event>
11    1  0.5813833E-009  0.1772478E+03  0.7561462E-02  0.1071891E+00
         22   -1    0    0    0    0  0.00000000000E+00  0.00000000000E+00  0.19326178317E+04  0.19326178317E+04  0.00000000000E+00 0. -1.
         22   -1    0    0    0    0 -0.00000000000E+00 -0.00000000000E+00 -0.11701310458E+04  0.11701310458E+04  0.00000000000E+00 0. -1.
         24    2    1    2    0    0  0.10124192377E+03 -0.73133223336E+02 -0.11276348567E+04  0.11374489065E+04  0.81432484089E+02 0.  0.
         25    2    1    2    0    0 -0.10468810388E+03  0.15194905319E+03  0.31296380419E+03  0.38424201327E+03  0.12508984042E+03 0.  0.
        -24    2    1    2    0    0  0.34461801098E+01 -0.78815829851E+02  0.15771578385E+04  0.15810579577E+04  0.78061558416E+02 0.  0.
        -13    1    3    3    0    0  0.37322584513E+02 -0.85687362743E+01 -0.12570529534E+03  0.13140859878E+03  0.00000000000E+00 0.  1.
         14    1    3    3    0    0  0.63919339260E+02 -0.64564487062E+02 -0.10019295614E+04  0.10060403078E+04  0.00000000000E+00 0. -1.
         11    1    5    5    0    0 -0.23980829565E+02 -0.51273185807E+02  0.12948721772E+04  0.12961087821E+04  0.00000000000E+00 0. -1.
        -12    1    5    5    0    0  0.27427009675E+02 -0.27542644044E+02  0.28228566127E+03  0.28494917557E+03  0.00000000000E+00 0.  1.
          5    1    4    4  501    0 -0.13434151059E+02 -0.13183075840E+02  0.90434552279E+02  0.92467024118E+02  0.41800000000E+01 0.  1.
         -5    1    4    4    0  501 -0.91253952824E+02  0.16513212903E+03  0.22252925191E+03  0.29177498916E+03  0.41800000000E+01 0.  1.
</event>
<event>
11    1  0.5813833E-009  0.1721166E+03  0.7561462E-02  0.1076204E+00
         22   -1    0    0    0    0  0.00000000000E+00  0.00000000000E+00  0.75281934516E+03  0.75281934516E+03  0.00000000000E+00 0. -1.
         22   -1    0    0    0    0 -0.00000000000E+00 -0.00000000000E+00 -0.21945692117E+03  0.21945692117E+03  0.00000000000E+00 0. -1.
         24    2    1    2    0    0  0.11928904449E+03  0.22401791458E+01 -0.11159618022E+03  0.18285330575E+03  0.82138477257E+02 0.  0.
         25    2    1    2    0    0 -0.11491407212E+03  0.19102013094E+02  0.36111431414E+02  0.17470243110E+03  0.12508706199E+03 0.  0.
        -24    2    1    2    0    0 -0.43749723641E+01 -0.21342192240E+02  0.60884717280E+03  0.61472052949E+03  0.81925697986E+02 0.  0.
        -11    1    3    3    0    0  0.79466029041E+02 -0.24891846800E+02 -0.30815913302E+02  0.88792310035E+02  0.00000000000E+00 0.  1.
         12    1    3    3    0    0  0.39823015444E+02  0.27132025946E+02 -0.80780266920E+02  0.94060995714E+02  0.00000000000E+00 0. -1.
         13    1    5    5    0    0  0.16108391575E+02 -0.33664822612E+02  0.54912948171E+03  0.55039621023E+03  0.00000000000E+00 0. -1.
        -14    1    5    5    0    0 -0.20483363939E+02  0.12322630372E+02  0.59717691095E+02  0.64324319252E+02  0.00000000000E+00 0.  1.
          5    1    4    4  501    0 -0.88388901004E+02  0.64779836338E+02  0.49088104074E+02  0.12015048638E+03  0.41800000000E+01 0.  1.
         -5    1    4    4    0  501 -0.26525171116E+02 -0.45677823244E+02 -0.12976672660E+02  0.54551944716E+02  0.41800000000E+01 0.  1.
</event>
<event>
11    1  0.5813833E-009  0.1310409E+03  0.7561462E-02  0.1117997E+00
         22   -1    0    0    0    0  0.00000000000E+00  0.00000000000E+00  0.44339335921E+03  0.44339335921E+03  0.00000000000E+00 0.  1.
         22   -1    0    0    0    0 -0.00000000000E+00 -0.00000000000E+00 -0.18077653279E+03  0.18077653279E+03  0.00000000000E+00 0. -1.
         24    2    1    2    0    0 -0.61247304911E+01 -0.38299500662E+02 -0.12958262573E+03  0.15801595389E+03  0.81688559287E+02 0.  0.
         25    2    1    2    0    0  0.46087421990E+02  0.33006526403E+02  0.13071991403E+03  0.18960713529E+03  0.12509871533E+03 0.  0.
        -24    2    1    2    0    0 -0.39962691499E+02  0.52929742592E+01  0.26147953812E+03  0.27654680281E+03  0.80508092781E+02 0.  0.
        -11    1    3    3    0    0 -0.27096486364E+01 -0.16964472657E+02  0.78551307723E+01  0.18890172253E+02  0.00000000000E+00 0.  1.
         12    1    3    3    0    0 -0.34150818547E+01 -0.21335028004E+02 -0.13743775650E+03  0.13912578164E+03  0.00000000000E+00 0. -1.
         13    1    5    5    0    0 -0.25938050032E+02 -0.12272700638E+02  0.22373253959E+02  0.36386317663E+02  0.00000000000E+00 0. -1.
        -14    1    5    5    0    0 -0.14024641467E+02  0.17565674897E+02  0.23910628416E+03  0.24016048515E+03  0.00000000000E+00 0.  1.
          5    1    4    4  501    0 -0.19364577463E+02  0.12230155420E+02 -0.15528423174E+02  0.27985136915E+02  0.41800000000E+01 0. -1.
         -5    1    4    4    0  501  0.65451999452E+02  0.20776370982E+02  0.14624833721E+03  0.16162199838E+03  0.41800000000E+01 0. -1.
</event>
<event>
11    1  0.5813833E-009  0.1631331E+03  0.7561462E-02  0.1084167E+00
         22   -1    0    0    0    0  0.00000000000E+00  0.00000000000E+00  0.12637971365E+04  0.12637971365E+04  0.00000000000E+00 0.  1.
         22   -1    0    0    0    0 -0.00000000000E+00 -0.00000000000E+00 -0.13653328409E+04  0.13653328409E+04  0.00000000000E+00 0.  1.
         24    2    1    2    0    0  0.10552240283E+01 -0.13109086119E+01 -0.12105588102E+04  0.12132422589E+04  0.80630723780E+02 0.  0.
         25    2    1    2    0    0 -0.96933036770E+02  0.43326801252E+02 -0.10487489514E+03  0.19472822591E+03  0.12508842077E+03 0.  0.
        -24    2    1    2    0    0  0.95877812741E+02 -0.42015892640E+02  0.12138980009E+04  0.12211594927E+04  0.82001583178E+02 0.  0.
        -11    1    3    3    0    0 -0.88632171349E+01 -0.21047676255E+02 -0.11121678067E+04  0.11124022616E+04  0.00000000000E+00 0.  1.
         12    1    3    3    0    0  0.99184411632E+01  0.19736767643E+02 -0.98391003557E+02  0.10083999729E+03  0.00000000000E+00 0. -1.
         13    1    5    5    0    0  0.28940601122E+02  0.87884406406E+01  0.11045203216E+03  0.11451832382E+03  0.00000000000E+00 0. -1.
        -14    1    5    5    0    0  0.66937211620E+02 -0.50804333281E+02  0.11034459688E+04  0.11066411688E+04  0.00000000000E+00 0.  1.
          5    1    4    4  501    0 -0.66714530016E+02  0.27352216773E+02  0.11706368549E+02  0.73167504688E+02  0.41800000000E+01 0.  1.
         -5    1    4    4    0  501 -0.30218506754E+02  0.15974584479E+02 -0.11658126369E+03  0.12156072122E+03  0.41800000000E+01 0.  1.
</event>
<event>
11    1  0.5813833E-009  0.1399747E+03  0.7561462E-02  0.1107587E+00
         22   -1    0    0    0    0  0.00000000000E+00  0.00000000000E+00  0.92112357324E+03  0.92112357324E+03  0.00000000000E+00 0. -1.
         22   -1    0    0    0    0 -0.00000000000E+00 -0.00000000000E+00 -0.78352663415E+03  0.78352663415E+03  0.00000000000E+00 0.  1.
        -24    2    1    2    0    0  0.55804413263E+01 -0.51382941813E+01 -0.73263971479E+03  0.73722784441E+03  0.81770407209E+02 0.  0.
         25    2    1    2    0    0 -0.90379183993E+01 -0.57921567008E+02  0.60517839813E+02  0.15081874695E+03  0.12508914262E+03 0.  0.
         24    2    1    2    0    0  0.34574770730E+01  0.63059861189E+02  0.80971881407E+03  0.81660361604E+03  0.84902341738E+02 0.  0.
        -13    1    5    5    0    0 -0.36491226872E+02  0.45631927340E+02  0.35221569192E+03  0.35702909695E+03  0.00000000000E+00 0.  1.
         14    1    5    5    0    0  0.39948703945E+02  0.17427933849E+02  0.45750312214E+03  0.45957451909E+03  0.00000000000E+00 0. -1.
         13    1    3    3    0    0 -0.98069847286E+01  0.13907488660E+02 -0.32727272052E+02  0.36887254252E+02  0.00000000000E+00 0. -1.
        -14    1    3    3    0    0  0.15387426055E+02 -0.19045782842E+02 -0.69991244274E+03  0.70034059016E+03  0.00000000000E+00 0.  1.
          5    1    4    4  501    0  0.24755889844E+02 -0.82648978653E+01 -0.31332802959E+02  0.40992432960E+02  0.41800000000E+01 0. -1.
         -5    1    4    4    0  501 -0.33793808244E+02 -0.49656669143E+02  0.91850642772E+02  0.10982631399E+03  0.41800000000E+01 0. -1.
</event>
<event>
11    1  0.5813833E-009  0.1578865E+03  0.7561462E-02  0.1089082E+00
         22   -1    0    0    0    0  0.00000000000E+00  0.00000000000E+00  0.18062385640E+03  0.18062385640E+03  0.00000000000E+00 0.  1.
         22   -1    0    0    0    0 -0.00000000000E+00 -0.00000000000E+00 -0.14359477676E+04  0.14359477676E+04  0.00000000000E+00 0. -1.
         24    2    1    2    0    0 -0.99642417768E+00  0.60862190753E+01 -0.12878849345E+04  0.12905611468E+04  0.82839809988E+02 0.  0.
         25    2    1    2    0    0  0.71026299836E+02 -0.70734402672E+02 -0.60606595119E+02  0.17137705458E+03  0.12509534154E+03 0.  0.
        -24    2    1    2    0    0 -0.70029875659E+02  0.64648183596E+02  0.93167618468E+02  0.15463342259E+03  0.78407392028E+02 0.  0.
        -11    1    3    3    0    0 -0.14779102081E+02  0.41245870231E+02 -0.56861705705E+03  0.57030255237E+03  0.00000000000E+00 0.  1.
         12    1    3    3    0    0  0.13782677903E+02 -0.35159651156E+02 -0.71926787749E+03  0.72025859444E+03  0.00000000000E+00 0. -1.
         11    1    5    5    0    0 -0.35184895340E+02  0.85320695980E+01 -0.47541577316E+01  0.36515408904E+02  0.00000000000E+00 0. -1.
        -12    1    5    5    0    0 -0.34844980319E+02  0.56116113998E+02  0.97921776199E+02  0.11811801369E+03  0.00000000000E+00 0.  1.
          5    1    4    4  501    0  0.64525153925E+02 -0.26951749129E+02 -0.92954043937E+02  0.11639509850E+03  0.41800000000E+01 0.  1.
         -5    1    4    4    0  501  0.65011459114E+01 -0.43782653542E+02  0.32347448818E+02  0.54981956080E+02  0.41800000000E+01 0.  1.
</event>
<event>
11    1  0.5813833E-009  0.1382202E+03  0.7561462E-02  0.1109562E+00
         22   -1    0    0    0    0  0.00000000000E+00  0.00000000000E+00  0.41720268823E+03  0.41720268823E+03  0.00000000000E+00 0.  1.
         22   -1    0    0    0    0 -0.00000000000E+00 -0.00000000000E+00 -0.55585263339E+03  0.55585263339E+03  0.00000000000E+00 0.  1.
         24    2    1    2    0    0 -0.33735846635E+02  0.64082174966E+01 -0.19417638040E+03  0.21268996178E+03  0.79708095810E+02 0.  0.
         25    2    1    2    0    0  0.26498979731E+02  0.52137939191E+02 -0.33188816676E+03  0.35946957129E+03  0.12509219329E+03 0.  0.
        -24    2    1    2    0    0  0.72368669041E+01 -0.58546156688E+02  0.38741460200E+03  0.40089578854E+03  0.84541911036E+02 0.  0.
        -13    1    3    3    0    0 -0.56926607757E+02 -0.87913351774E+01 -0.14818653128E+03  0.15898796904E+03  0.00000000000E+00 0.  1.
         14    1    3    3    0    0  0.23190761122E+02  0.15199552674E+02 -0.45989849121E+02  0.53701992748E+02  0.00000000000E+00 0. -1.
         11    1    5    5    0    0  0.31857042105E+02  0.58995118929E+01  0.92177457814E+02  0.97705471194E+02  0.00000000000E+00 0. -1.
        -12    1    5    5    0    0 -0.24620175201E+02 -0.64445668581E+02  0.29523714418E+03  0.30319031734E+03  0.00000000000E+00 0.  1.
          5    1    4    4  501    0  0.46918958358E+02  0.48994211898E+02 -0.33149094170E+03  0.33838666978E+03  0.41800000000E+01 0.  1.
         -5    1    4    4    0  501 -0.20419978627E+02  0.31437272926E+01 -0.39722505077E+00  0.21082901512E+02  0.41800000000E+01 0.  1.
</event>
<event>
11    1  0.5813833E-009  0.1508549E+03  0.7561462E-02  0.1096008E+00
         22   -1    0    0    0    0  0.00000000000E+00  0.00000000000E+00  0.24595308220E+04  0.24595308220E+04  0.00000000000E+00 0. -1.
         22   -1    0    0    0    0 -0.00000000000E+00 -0.00000000000E+00 -0.18387366625E+03  0.18387366625E+03  0.00000000000E+00 0. -1.
        -24    2    1    2    0    0  0.14532170225E+02  0.80650565406E+02 -0.13574478097E+03  0.17403879474E+03  0.71743702458E+02 0.  0.
         25    2    1    2    0    0  0.21970355565E+02 -0.12469307686E+03  0.25671806234E+03  0.31238233574E+03  0.12508996847E+03 0.  0.
         24    2    1    2    0    0 -0.36502525790E+02  0.44042511459E+02  0.21546838744E+04  0.21569833578E+04  0.81501104093E+02 0.  0.
        -11    1    5    5    0    0 -0.32697585453E+02  0.69011191266E+01  0.28896089659E+03  0.29088684621E+03  0.00000000000E+00 0.  1.
         12    1    5    5    0    0 -0.38049403372E+01  0.37141392332E+02  0.18657229778E+04  0.18660965116E+04  0.00000000000E+00 0. -1.
         11    1    3    3    0    0  0.34865814551E+02  0.47911566772E+02 -0.11707275433E+03  0.13121422583E+03  0.00000000000E+00 0. -1.
        -12    1    3    3    0    0 -0.20333644326E+02  0.32738998634E+02 -0.18672026640E+02  0.42824568906E+02  0.00000000000E+00 0.  1.
          5    1    4    4  501    0  0.49571508160E+02 -0.13754488787E+03  0.22371632513E+03  0.26728710618E+03  0.41800000000E+01 0.  1.
         -5    1    4    4    0  501 -0.27601152595E+02  0.12851811002E+02  0.33001737209E+02  0.45095229563E+02  0.41800000000E+01 0.  1.
</event>
<event>
11    1  0.5813833E-009  0.1873590E+03  0.7561462E-02  0.1063841E+00
         22   -1    0    0    0    0  0.00000000000E+00  0.00000000000E+00  0.11264787450E+04  0.11264787450E+04  0.00000000000E+00 0. -1.
         22   -1    0    0    0    0 -0.00000000000E+00 -0.00000000000E+00 -0.82216967969E+03  0.82216967969E+03  0.00000000000E+00 0.  1.
        -24    2    1    2    0    0  0.26264323628E+01  0.41483217514E+02 -0.74734252311E+03  0.75297274915E+03  0.81971694082E+02 0.  0.
         25    2    1    2    0    0  0.44210749141E+02  0.93799560842E+02  0.35535480654E+02  0.16632338815E+03  0.12509097133E+03 0.  0.
         24    2    1    2    0    0 -0.46837181503E+02 -0.13528277836E+03  0.10161161078E+04  0.10293522874E+04  0.81111253207E+02 0.  0.
        -11    1    5    5    0    0  0.14298980377E+02 -0.74054009316E+02  0.38347016261E+03  0.39081686600E+03  0.00000000000E+00 0.  1.
         12    1    5    5    0    0 -0.61136161880E+02 -0.61228769040E+02  0.63264594516E+03  0.63853542140E+03  0.00000000000E+00 0. -1.
         11    1    3    3    0    0 -0.25483565772E+02 -0.26192077387E+01 -0.90630542969E+02  0.94181567690E+02  0.00000000000E+00 0. -1.
        -12    1    3    3    0    0  0.28109998135E+02  0.44102425252E+02 -0.65671198014E+03  0.65879118146E+03  0.00000000000E+00 0.  1.
          5    1    4    4  501    0  0.21783236582E+02  0.22083466069E+02  0.75055631481E+02  0.81320410025E+02  0.41800000000E+01 0.  1.
         -5    1    4    4    0  501  0.22427512559E+02  0.71716094773E+02 -0.39520150828E+02  0.85002978127E+02  0.41800000000E+01 0.  1.
</event>
<event>
11    1  0.5813833E-009  0.1761297E+03  0.7561462E-02  0.1072817E+00
         22   -1    0    0    0    0  0.00000000000E+00  0.00000000000E+00  0.51355767899E+03  0.51355767899E+03  0.00000000000E+00 0. -1.
         22   -1    0    0    0    0 -0.00000000000E+00 -0.00000000000E+00 -0.27388310619E+03  0.27388310619E+03  0.00000000000E+00 0. -1.
         24    2    1    2    0    0 -0.94397967777E+01 -0.29442641789E+02 -0.17551584306E+03  0.19496404033E+03  0.79051799080E+02 0.  0.
         25    2    1    2    0    0  0.49734415614E+02 -0.91803530689E+02  0.13221927675E+02  0.16347494514E+03  0.12509131854E+03 0.  0.
        -24    2    1    2    0    0 -0.40294618836E+02  0.12124617248E+03  0.40196848819E+03  0.42900179971E+03  0.78355523153E+02 0.  0.
        -13    1    3    3    0    0  0.82215098144E+01 -0.56963812917E+01  0.55886413373E+01  0.11457525712E+02  0.00000000000E+00 0.  1.
         14    1    3    3    0    0 -0.17661306592E+02 -0.23746260497E+02 -0.18110448440E+03  0.18350651462E+03  0.00000000000E+00 0. -1.
         11    1    5    5    0    0 -0.34379655072E+02  0.75632527108E+02  0.34944634985E+03  0.35918656888E+03  0.00000000000E+00 0. -1.
        -12    1    5    5    0    0 -0.59149637640E+01  0.45613645370E+02  0.52522138345E+02  0.69815230836E+02  0.00000000000E+00 0.  1.
          5    1    4    4  501    0  0.75458973188E+02 -0.89746490714E+01  0.58383258507E+01  0.76329282777E+02  0.41800000000E+01 0. -1.
         -5    1    4    4    0  501 -0.25724557574E+02 -0.82828881618E+02  0.73836018240E+01  0.87145662361E+02  0.41800000000E+01 0. -1.
</event>
<event>
11    1  0.5813833E-009  0.1527814E+03  0.7561462E-02  0.1094070E+00
         22   -1    0    0    0    0  0.00000000000E+00  0.00000000000E+00  0.23333208555E+03  0.23333208555E+03  0.00000000000E+00 0. -1.
         22   -1    0    0    0    0 -0.00000000000E+00 -0.00000000000E+00 -0.10036951869E+04  0.10036951869E+04  0.00000000000E+00 0. -1.
         24    2    1    2    0    0  0.49280937055E+02  0.71929900376E+02 -0.86523244898E+03  0.87294361314E+03  0.76163243250E+02 0.  0.
         25    2    1    2    0    0 -0.12374873250E+01 -0.11514145560E+03 -0.59359391959E+02  0.18005070897E+03  0.12504252963E+03 0.  0.
        -24    2    1    2    0    0 -0.48043449730E+02  0.43211555223E+02  0.15422873958E+03  0.18403295034E+03  0.76851877868E+02 0.  0.
        -13    1    3    3    0    0  0.16595542512E+02 -0.13411455581E+02 -0.98522347911E+02  0.10080640957E+03  0.00000000000E+00 0.  1.
         14    1    3    3    0    0  0.32685394543E+02  0.85341355957E+02 -0.76671010107E+03  0.77213720357E+03  0.00000000000E+00 0. -1.
         13    1    5    5    0    0 -0.43802088565E+02  0.64867870887E+02  0.11744881693E+03  0.14114066825E+03  0.00000000000E+00 0. -1.
        -14    1    5    5    0    0 -0.42413611649E+01 -0.21656315664E+02  0.36779922656E+02  0.42892282094E+02  0.00000000000E+00 0.  1.
          5    1    4    4  501    0 -0.31199567570E+02 -0.92179164215E+02  0.13059041046E+02  0.98277272474E+02  0.41800000000E+01 0.  1.
         -5    1    4    4    0  501  0.29962080245E+02 -0.22962291384E+02 -0.72418433005E+02  0.81773436501E+02  0.41800000000E+01 0.  1.
</event>
<event>
11    1  0.5813833E-009  0.1338853E+03  0.7561462E-02  0.1114585E+00
         22   -1    0    0    0    0  0.00000000000E+00  0.00000000000E+00  0.19709614489E+03  0.19709614489E+03  0.00000000000E+00 0. -1.
         22   -1    0    0    0    0 -0.00000000000E+00 -0.00000000000E+00 -0.11488135897E+04  0.11488135897E+04  0.00000000000E+00 0. -1.
         24    2    1    2    0    0 -0.51464611690E+02  0.10027722114E+02 -0.96375605281E+03  0.96898982000E+03  0.85827620657E+02 0.  0.
         25    2    1    2    0    0  0.68609759740E+01  0.57202534401E+01 -0.14508122266E+03  0.19177155210E+03  0.12509185719E+03 0.  0.
        -24    2    1    2    0    0  0.44603635716E+02 -0.15747975554E+02  0.15711983068E+03  0.18514836246E+03  0.85765913251E+02 0.  0.
        -13    1    3    3    0    0  0.15663442857E+02  0.12929498589E+02 -0.75122512012E+02  0.77819709502E+02  0.00000000000E+00 0.  1.
         14    1    3    3    0    0 -0.67128054547E+02 -0.29017764756E+01 -0.88863354079E+03  0.89117011050E+03  0.00000000000E+00 0. -1.
         13    1    5    5    0    0  0.35088797397E+02 -0.50713031902E+02  0.96396705562E+02  0.11443496035E+03  0.00000000000E+00 0. -1.
        -14    1    5    5    0    0  0.95148383190E+01  0.34965056349E+02  0.60723125118E+02  0.70713402109E+02  0.00000000000E+00 0.  1.
          5    1    4    4  501    0  0.35970050616E+02  0.64351126390E+01  0.65112408413E+01  0.37351357047E+02  0.41800000000E+01 0. -1.
         -5    1    4    4    0  501 -0.29109074642E+02 -0.71485919885E+00 -0.15159246350E+03  0.15442019505E+03  0.41800000000E+01 0. -1.
</event>
<event>
11    1  0.5813833E-009  0.1416548E+03  0.7561462E-02  0.1105724E+00
         22   -1    0    0    0    0  0.00000000000E+00  0.00000000000E+00  0.95523694446E+03  0.95523694446E+03  0.00000000000E+00 0.  1.
         22   -1    0    0    0    0 -0.00000000000E+00 -0.00000000000E+00 -0.12730559124E+04  0.12730559124E+04  0.00000000000E+00 0. -1.
        -24    2    1    2    0    0  0.16645734293E+02  0.96713982288E+01 -0.10060289139E+04  0.10095501044E+04  0.82015980958E+02 0.  0.
         25    2    1    2    0    0 -0.81606402069E+02  0.36966835989E+01 -0.24113434298E+03  0.28366514335E+03  0.12508745686E+03 0.  0.
         24    2    1    2    0    0  0.64960667775E+02 -0.13368081828E+02  0.92934428896E+03  0.93507760915E+03  0.79314145842E+02 0.  0.
        -13    1    5    5    0    0  0.83592030533E+02 -0.86700342138E+01  0.73709624624E+03  0.74187173641E+03  0.00000000000E+00 0.  1.
         14    1    5    5    0    0 -0.18631362757E+02 -0.46980476139E+01  0.19224804273E+03  0.19320587274E+03  0.00000000000E+00 0. -1.
         11    1    3    3    0    0  0.11859480309E+01 -0.11620333051E+01 -0.95716471139E+03  0.95716615147E+03  0.00000000000E+00 0. -1.
        -12    1    3    3    0    0  0.15459786262E+02  0.10833431534E+02 -0.48864202541E+02  0.52383952887E+02  0.00000000000E+00 0.  1.
          5    1    4    4  501    0  0.29487744256E+02  0.94071093259E+01 -0.23066422129E+02  0.38827219795E+02  0.41800000000E+01 0. -1.
         -5    1    4    4    0  501 -0.11109414632E+03 -0.57104257270E+01 -0.21806792085E+03  0.24483792356E+03  0.41800000000E+01 0. -1.
</event>
<event>
11    1  0.5813833E-009  0.1523466E+03  0.7561462E-02  0.1094505E+00
         22   -1    0    0    0    0  0.00000000000E+00  0.00000000000E+00  0.44000986324E+03  0.44000986324E+03  0.00000000000E+00 0.  1.
         22   -1    0    0    0    0 -0.00000000000E+00 -0.00000000000E+00 -0.26896950028E+04  0.26896950028E+04  0.00000000000E+00 0. -1.
        -24    2    1    2    0    0  0.82941890852E+02  0.22784296301E+02 -0.25598170502E+04  0.25624648792E+04  0.78513982084E+02 0.  0.
         25    2    1    2    0    0 -0.12741213723E+03 -0.95186668763E+02 -0.32972981332E+02  0.20500996180E+03  0.12509001684E+03 0.  0.
         24    2    1    2    0    0  0.44470246377E+02  0.72402372463E+02  0.34310489198E+03  0.36223002501E+03  0.79182812285E+02 0.  0.
        -11    1    5    5    0    0  0.48536278076E+02  0.53070426353E+02  0.33172572784E+03  0.33943217136E+03  0.00000000000E+00 0.  1.
         12    1    5    5    0    0 -0.40660316984E+01  0.19331946110E+02  0.11379164139E+02  0.22797853642E+02  0.00000000000E+00 0. -1.
         11    1    3    3    0    0  0.46875923596E+02 -0.17674578528E+02 -0.18092273579E+04  0.18099208202E+04  0.00000000000E+00 0. -1.
        -12    1    3    3    0    0  0.36065967256E+02  0.40458874829E+02 -0.75058969234E+03  0.75254405903E+03  0.00000000000E+00 0.  1.
          5    1    4    4  501    0 -0.45437912603E+02 -0.46154842780E+02 -0.76189610207E+02  0.10008597563E+03  0.41800000000E+01 0.  1.
         -5    1    4    4    0  501 -0.81974224627E+02 -0.49031825983E+02  0.43216628875E+02  0.10492398617E+03  0.41800000000E+01 0.  1.
</event>
<event>
11    1  0.5813833E-009  0.1779785E+03  0.7561462E-02  0.1071290E+00
         22   -1    0    0    0    0  0.00000000000E+00  0.00000000000E+00  0.59544705410E+03  0.59544705410E+03  0.00000000000E+00 0. -1.
         22   -1    0    0    0    0 -0.00000000000E+00 -0.00000000000E+00 -0.51037067047E+03  0.51037067047E+03  0.00000000000E+00 0. -1.
         24    2    1    2    0    0  0.18402680940E+01  0.41614508805E+02 -0.43154523964E+03  0.44087931358E+03  0.80050742384E+02 0.  0.
         25    2    1    2    0    0  0.79311901376E+02 -0.13215003687E+03  0.97321639181E+02  0.22107317006E+03  0.12509130713E+03 0.  0.
        -24    2    1    2    0    0 -0.81152169470E+02  0.90535528069E+02  0.41929998409E+03  0.44386524094E+03  0.80134380895E+02 0.  0.
        -13    1    3    3    0    0 -0.23598999757E+02  0.47857528564E+02 -0.17380739562E+03  0.18181382401E+03  0.00000000000E+00 0.  1.
         14    1    3    3    0    0  0.25439267851E+02 -0.62430197582E+01 -0.25773784402E+03  0.25906548956E+03  0.00000000000E+00 0. -1.
         11    1    5    5    0    0 -0.63212539781E+02  0.12466057247E+02  0.16041113246E+03  0.17286688285E+03  0.00000000000E+00 0. -1.
        -12    1    5    5    0    0 -0.17939629689E+02  0.78069470822E+02  0.25888885163E+03  0.27099835809E+03  0.00000000000E+00 0.  1.
          5    1    4    4  501    0 -0.33344017132E+02 -0.43668185061E+02  0.29974798391E+02  0.62727145668E+02  0.41800000000E+01 0.  1.
         -5    1    4    4    0  501  0.11265591851E+03 -0.88481851813E+02  0.67346840790E+02  0.15834602439E+03  0.41800000000E+01 0.  1.
</event>
<event>
11    1  0.5813833E-009  0.1367780E+03  0.7561462E-02  0.1111211E+00
         22   -1    0    0    0    0  0.00000000000E+00  0.00000000000E+00  0.18577580858E+04  0.18577580858E+04  0.00000000000E+00 0. -1.
         22   -1    0    0    0    0 -0.00000000000E+00 -0.00000000000E+00 -0.10377067522E+04  0.10377067522E+04  0.00000000000E+00 0. -1.
        -24    2    1    2    0    0 -0.46554760898E+02  0.29516638616E+02 -0.10133883084E+04  0.10181587602E+04  0.81564818573E+02 0.  0.
         25    2    1    2    0    0  0.55558743296E+02 -0.55716761564E+02  0.24176876964E+03  0.28335733893E+03  0.12509241416E+03 0.  0.
         24    2    1    2    0    0 -0.90039823975E+01  0.26200122948E+02  0.15916708724E+04  0.15939487389E+04  0.80553696288E+02 0.  0.
        -13    1    5    5    0    0  0.11263233648E+01  0.34450706593E+02  0.26728272725E+03  0.26949615224E+03  0.00000000000E+00 0.  1.
         14    1    5    5    0    0 -0.10130305762E+02 -0.82505836452E+01  0.13243881452E+04  0.13244525866E+04  0.00000000000E+00 0. -1.
         11    1    3    3    0    0 -0.58180183335E+02  0.87800919807E+01 -0.91686374735E+03  0.91874977820E+03  0.00000000000E+00 0. -1.
        -12    1    3    3    0    0  0.11625422436E+02  0.20736546635E+02 -0.96524561096E+02  0.99408982028E+02  0.00000000000E+00 0.  1.
          5    1    4    4  501    0  0.87079959370E+02 -0.48088350748E+02  0.22619686088E+03  0.24713943650E+03  0.41800000000E+01 0.  1.
         -5    1    4    4    0  501 -0.31521216074E+02 -0.76284108156E+01  0.15571908758E+02  0.36217902434E+02  0.41800000000E+01 0.  1.
</event>
<event>
11    1  0.5813833E-009  0.1430003E+03  0.7561462E-02  0.1104254E+00
         22   -1    0    0    0    0  0.00000000000E+00  0.00000000000E+00  0.86044314007E+02  0.86044314007E+02  0.00000000000E+00 0. -1.
         22   -1    0    0    0    0 -0.00000000000E+00 -0.00000000000E+00 -0.12965833056E+04  0.12965833056E+04  0.00000000000E+00 0. -1.
        -24    2    1    2    0    0 -0.17003716697E+02 -0.87563732426E+01 -0.86202764186E+03  0.86613435851E+03  0.82044324696E+02 0.  0.
         25    2    1    2    0    0 -0.46261320649E+02 -0.23555972675E+02 -0.38141839282E+03  0.40474949150E+03  0.12508863600E+03 0.  0.
         24    2    1    2    0    0  0.63265037347E+02  0.32312345918E+02  0.32907043085E+02  0.11174376959E+03  0.79732326616E+02 0.  0.
        -13    1    5    5    0    0  0.72317298361E+02 -0.26785979430E+00  0.28118645070E+02  0.77592020154E+02  0.00000000000E+00 0.  1.
         14    1    5    5    0    0 -0.90522610141E+01  0.32580205712E+02  0.47883980153E+01  0.34151749432E+02  0.00000000000E+00 0. -1.
         13    1    3    3    0    0  0.19067689243E+02  0.26372321645E+02 -0.26589006761E+03  0.26787423202E+03  0.00000000000E+00 0. -1.
        -14    1    3    3    0    0 -0.36071405940E+02 -0.35128694888E+02 -0.59613757425E+03  0.59826012650E+03  0.00000000000E+00 0.  1.
          5    1    4    4  501    0  0.12740840990E+02 -0.28490078955E+01 -0.30764655561E+03  0.30795181677E+03  0.41800000000E+01 0.  1.
         -5    1    4    4    0  501 -0.59002161639E+02 -0.20706964780E+02 -0.73771837207E+02  0.96797674731E+02  0.41800000000E+01 0.  1.
</event>
<event>
11    1  0.5813833E-009  0.1424489E+03  0.7561462E-02  0.1104854E+00
         22   -1    0    0    0    0  0.00000000000E+00  0.00000000000E+00  0.50842522258E+03  0.50842522258E+03  0.00000000000E+00 0. -1.
         22   -1    0    0    0    0 -0.00000000000E+00 -0.00000000000E+00 -0.93159193999E+03  0.93159193999E+03  0.00000000000E+00 0.  1.
         24    2    1    2    0    0 -0.17333723454E+02 -0.34922649635E+02 -0.80183146267E+03  0.80678483062E+03  0.80299557694E+02 0.  0.
         25    2    1    2    0    0 -0.37946337756E+02 -0.76590405706E+01 -0.86031224039E+02  0.15667526055E+03  0.12508868977E+03 0.  0.
        -24    2    1    2    0    0  0.55280061209E+02  0.42581690205E+02  0.46469596930E+03  0.47655707140E+03  0.79342377791E+02 0.  0.
        -13    1    3    3    0    0 -0.41800030257E+02 -0.41445988902E+02 -0.66729471642E+03  0.66988599857E+03  0.00000000000E+00 0.  1.
         14    1    3    3    0    0  0.24466306803E+02  0.65233392674E+01 -0.13453674625E+03  0.13689883204E+03  0.00000000000E+00 0. -1.
         11    1    5    5    0    0  0.21252405763E+02  0.42684915692E+02  0.40537233837E+03  0.40816712202E+03  0.00000000000E+00 0. -1.
        -12    1    5    5    0    0  0.34027655447E+02 -0.10322548702E+00  0.59323630929E+02  0.68389949388E+02  0.00000000000E+00 0.  1.
          5    1    4    4  501    0 -0.55532762658E+02  0.28215210044E+02 -0.96709219175E+02  0.11510921457E+03  0.41800000000E+01 0. -1.
         -5    1    4    4    0  501  0.17586424902E+02 -0.35874250615E+02  0.10677995136E+02  0.41566045977E+02  0.41800000000E+01 0. -1.
</event>
<event>
11    1  0.5813833E-009  0.1755735E+03  0.7561462E-02  0.1073281E+00
         22   -1    0    0    0    0  0.00000000000E+00  0.00000000000E+00  0.71875366496E+03  0.71875366496E+03  0.00000000000E+00 0. -1.
         22   -1    0    0    0    0 -0.00000000000E+00 -0.00000000000E+00 -0.10654843165E+04  0.10654843165E+04  0.00000000000E+00 0.  1.
        -24    2    1    2    0    0  0.12130727612E+03 -0.19184423974E+02 -0.10095505994E+04  0.10202743100E+04  0.81754250923E+02 0.  0.
         25    2    1    2    0    0 -0.13710653927E+03  0.41246361141E+01  0.13429849144E+03  0.22912911628E+03  0.12509536919E+03 0.  0.
         24    2    1    2    0    0  0.15799263153E+02  0.15059787860E+02  0.52852145643E+03  0.53483455516E+03  0.78972511365E+02 0.  0.
        -11    1    5    5    0    0 -0.96564144316E+01  0.33119541686E+02  0.11315469606E+03  0.11829681155E+03  0.00000000000E+00 0.  1.
         12    1    5    5    0    0  0.25455677585E+02 -0.18059753826E+02  0.41536676037E+03  0.41653774361E+03  0.00000000000E+00 0. -1.
         11    1    3    3    0    0 -0.15843378726E+01  0.39429602051E+01 -0.15139544632E+01  0.45109998659E+01  0.00000000000E+00 0. -1.
        -12    1    3    3    0    0  0.12289161399E+03 -0.23127384179E+02 -0.10080366450E+04  0.10157633102E+04  0.00000000000E+00 0.  1.
          5    1    4    4  501    0 -0.19278188124E+02 -0.42656963429E+02  0.38137325672E+01  0.47151691617E+02  0.41800000000E+01 0.  1.
         -5    1    4    4    0  501 -0.11782835115E+03  0.46781599543E+02  0.13048475887E+03  0.18197742466E+03  0.41800000000E+01 0.  1.
</event>
<event>
11    1  0.5813833E-009  0.1606122E+03  0.7561462E-02  0.1086503E+00
         22   -1    0    0    0    0  0.00000000000E+00  0.00000000000E+00  0.32489469101E+03  0.32489469101E+03  0.00000000000E+00 0.  1.
         22   -1    0    0    0    0 -0.00000000000E+00 -0.00000000000E+00 -0.80393746262E+03  0.80393746262E+03  0.00000000000E+00 0. -1.
        -24    2    1    2    0    0  0.69014719825E+02  0.73878431548E+02 -0.73102498399E+03  0.74270071786E+03  0.83580948137E+02 0.  0.
         25    2    1    2    0    0 -0.52832383692E+02 -0.79749954818E+02  0.45721414772E+02  0.16397629828E+03  0.12508582081E+03 0.  0.
         24    2    1    2    0    0 -0.16182336133E+02  0.58715232706E+01  0.20626079761E+03  0.22215513748E+03  0.80703442871E+02 0.  0.
        -13    1    5    5    0    0 -0.33340569115E+02  0.19377116872E+02  0.19254561679E+03  0.19636924594E+03  0.00000000000E+00 0.  1.
         14    1    5    5    0    0  0.17158232983E+02 -0.13505593601E+02  0.13715180821E+02  0.25785891541E+02  0.00000000000E+00 0. -1.
         11    1    3    3    0    0  0.29398550393E+02  0.84110096591E+02 -0.45277904115E+03  0.46146250467E+03  0.00000000000E+00 0. -1.
        -12    1    3    3    0    0  0.39616169432E+02 -0.10231665043E+02 -0.27824594284E+03  0.28123821319E+03  0.00000000000E+00 0.  1.
          5    1    4    4  501    0 -0.55225158120E+02 -0.58599399759E+01  0.66816532253E+02  0.86983207392E+02  0.41800000000E+01 0.  1.
         -5    1    4    4    0  501  0.23927744281E+01 -0.73890014842E+02 -0.21095117480E+02  0.76993090887E+02  0.41800000000E+01 0.  1.
</event>
<event>
11    1  0.5813833E-009  0.1605403E+03  0.7561462E-02  0.1086570E+00
         22   -1    0    0    0    0  0.00000000000E+00  0.00000000000E+00  0.16876334398E+03  0.16876334398E+03  0.00000000000E+00 0. -1.
         22   -1    0    0    0    0 -0.00000000000E+00 -0.00000000000E+00 -0.42252497955E+03  0.42252497955E+03  0.00000000000E+00 0. -1.
        -24    2    1    2    0    0 -0.19458496822E+02  0.24472707752E+00 -0.27270573217E+03  0.28573026658E+03  0.83034185074E+02 0.  0.
         25    2    1    2    0    0 -0.37470157407E+02 -0.86870060673E+02 -0.38958332217E+02  0.16160098720E+03  0.12508679897E+03 0.  0.
         24    2    1    2    0    0  0.56928654229E+02  0.86625333596E+02  0.57902428822E+02  0.14395706975E+03  0.81401023184E+02 0.  0.
        -13    1    5    5    0    0  0.62737910531E+02  0.22200601697E+02  0.22715469481E+02  0.70320016263E+02  0.00000000000E+00 0.  1.
         14    1    5    5    0    0 -0.58092563021E+01  0.64424731899E+02  0.35186959341E+02  0.73637053490E+02  0.00000000000E+00 0. -1.
         11    1    3    3    0    0  0.22775058687E+02 -0.16071338823E+02 -0.40586910826E+02  0.49237064902E+02  0.00000000000E+00 0. -1.
        -12    1    3    3    0    0 -0.42233555508E+02  0.16316065901E+02 -0.23211882135E+03  0.23649320168E+03  0.00000000000E+00 0.  1.
          5    1    4    4  501    0 -0.27166376676E+02  0.29008452001E+02 -0.46021596515E+01  0.40226292181E+02  0.41800000000E+01 0. -1.
         -5    1    4    4    0  501 -0.10303780731E+02 -0.11587851267E+03 -0.34356172566E+02  0.12137469502E+03  0.41800000000E+01 0. -1.
</event>
<event>
11    1  0.5813833E-009  0.1407259E+03  0.7561462E-02  0.1106751E+00
         22   -1    0    0    0    0  0.00000000000E+00  0.00000000000E+00  0.16275053459E+03  0.16275053459E+03  0.00000000000E+00 0. -1.
         22   -1    0    0    0    0 -0.00000000000E+00 -0.00000000000E+00 -0.14448296607E+04  0.14448296607E+04  0.00000000000E+00 0.  1.
         24    2    1    2    0    0  0.47269999196E+02  0.46184010573E+02 -0.13377219479E+04  0.13418065636E+04  0.81101346630E+02 0.  0.
         25    2    1    2    0    0 -0.34964892303E+02 -0.44173996588E+00 -0.36430907925E+02  0.13489763355E+03  0.12508965447E+03 0.  0.
        -24    2    1    2    0    0 -0.12305106893E+02 -0.45742270607E+02  0.92073729778E+02  0.13087599814E+03  0.80044888647E+02 0.  0.
        -13    1    3    3    0    0  0.60332385809E+02  0.60239127432E+02 -0.11204574287E+04  0.11236963997E+04  0.00000000000E+00 0.  1.
         14    1    3    3    0    0 -0.13062386613E+02 -0.14055116859E+02 -0.21726451924E+03  0.21811016385E+03  0.00000000000E+00 0. -1.
         11    1    5    5    0    0 -0.48312449060E+01 -0.61101837075E+02  0.95478177559E+02  0.11345861717E+03  0.00000000000E+00 0. -1.
        -12    1    5    5    0    0 -0.74738619869E+01  0.15359566467E+02 -0.34044477811E+01  0.17417380967E+02  0.00000000000E+00 0.  1.
          5    1    4    4  501    0  0.25641321852E+02 -0.39597422245E+02 -0.40771653479E+02  0.62491866368E+02  0.41800000000E+01 0. -1.
         -5    1    4    4    0  501 -0.60606214155E+02  0.39155682279E+02  0.43407455543E+01  0.72405767180E+02  0.41800000000E+01 0. -1.
</event>
<event>
11    1  0.5813833E-009  0.1336009E+03  0.7561462E-02  0.1114922E+00
         22   -1    0    0    0    0  0.00000000000E+00  0.00000000000E+00  0.33799535862E+02  0.33799535862E+02  0.00000000000E+00 0. -1.
         22   -1    0    0    0    0 -0.00000000000E+00 -0.00000000000E+00 -0.27435980540E+04  0.27435980540E+04  0.00000000000E+00 0.  1.
        -24    2    1    2    0    0  0.26552449184E+02 -0.14739184102E+02 -0.22537192530E+04  0.22554594591E+04  0.83214326911E+02 0.  0.
         25    2    1    2    0    0 -0.45045376125E+02 -0.28633986001E+02 -0.37272478638E+03  0.39676192745E+03  0.12508904680E+03 0.  0.
         24    2    1    2    0    0  0.18492926942E+02  0.43373170103E+02 -0.83354478660E+02  0.12517620321E+03  0.80609506299E+02 0.  0.
        -13    1    5    5    0    0 -0.24796379130E+02  0.39553060775E+02 -0.26717587256E+02  0.53787865764E+02  0.00000000000E+00 0.  1.
         14    1    5    5    0    0  0.43289306072E+02  0.38201093281E+01 -0.56636891404E+02  0.71388337447E+02  0.00000000000E+00 0. -1.
         11    1    3    3    0    0  0.67877568898E+01  0.33787101069E+02 -0.11199451053E+04  0.11204752031E+04  0.00000000000E+00 0. -1.
        -12    1    3    3    0    0  0.19764692294E+02 -0.48526285171E+02 -0.11337741478E+04  0.11349842561E+04  0.00000000000E+00 0.  1.
          5    1    4    4  501    0 -0.61742633163E+02  0.13352462344E+02 -0.32420867480E+03  0.33033192128E+03  0.41800000000E+01 0.  1.
         -5    1    4    4    0  501  0.16697257038E+02 -0.41986448345E+02 -0.48516111583E+02  0.66430006174E+02  0.41800000000E+01 0.  1.
</event>
<event>
11    1  0.5813833E-009  0.3637603E+03  0.7561462E-02  0.9763185E-01
         22   -1    0    0    0    0  0.00000000000E+00  0.00000000000E+00  0.74172643927E+03  0.74172643927E+03  0.00000000000E+00 0. -1.
         22   -1    0    0    0    0 -0.00000000000E+00 -0.00000000000E+00 -0.28467813032E+04  0.28467813032E+04  0.00000000000E+00 0. -1.
         24    2    1    2    0    0 -0.19504156103E+00  0.10945165372E+02 -0.25997319203E+04  0.26010387899E+04  0.81712267261E+02 0.  0.
         25    2    1    2    0    0 -0.29674102808E+02  0.33172384764E+03 -0.27911186985E+02  0.35685949728E+03  0.12509357686E+03 0.  0.
        -24    2    1    2    0    0  0.29869144369E+02 -0.34266901301E+03  0.52258824334E+03  0.63060945526E+03  0.79092317734E+02 0.  0.
        -13    1    3    3    0    0 -0.29510198014E+02 -0.17736601147E+02 -0.68215519673E+03  0.68302353637E+03  0.00000000000E+00 0.  1.
         14    1    3    3    0    0  0.29315156453E+02  0.28681766520E+02 -0.19175767235E+04  0.19180152535E+04  0.00000000000E+00 0. -1.
         11    1    5    5    0    0  0.39408795357E+02 -0.30426783757E+03  0.41591348023E+03  0.51683265490E+03  0.00000000000E+00 0. -1.
        -12    1    5    5    0    0 -0.95396509880E+01 -0.38401175439E+02  0.10667476312E+03  0.11377680037E+03  0.00000000000E+00 0.  1.
          5    1    4    4  501    0 -0.60957799160E+02  0.75324720169E+02  0.28580471916E+00  0.96990828594E+02  0.41800000000E+01 0. -1.
         -5    1    4    4    0  501  0.31283696353E+02  0.25639912747E+03 -0.28196991704E+02  0.25986866869E+03  0.41800000000E+01 0. -1.
</event>
<event>
11    1  0.5813833E-009  0.1451721E+03  0.7561462E-02  0.1101917E+00
         22   -1    0    0    0    0  0.00000000000E+00  0.00000000000E+00  0.11212415253E+03  0.11212415253E+03  0.00000000000E+00 0. -1.
         22   -1    0    0    0    0 -0.00000000000E+00 -0.00000000000E+00 -0.75842171013E+03  0.75842171013E+03  0.00000000000E+00 0.  1.
         24    2    1    2    0    0  0.65235695521E+02 -0.23500527771E+02 -0.55949974769E+03  0.56933328872E+03  0.79324997331E+02 0.  0.
         25    2    1    2    0    0  0.21250377007E+02 -0.15425584104E-01 -0.12221048636E+03  0.17616618152E+03  0.12509013460E+03 0.  0.
        -24    2    1    2    0    0 -0.86486072528E+02  0.23515953355E+02  0.35412676453E+02  0.12504639242E+03  0.79685016160E+02 0.  0.
        -13    1    3    3    0    0  0.71209304325E+02 -0.43276551449E+02 -0.40718203667E+03  0.41562102439E+03  0.00000000000E+00 0.  1.
         14    1    3    3    0    0 -0.59736088040E+01  0.19776023678E+02 -0.15231771102E+03  0.15371226432E+03  0.00000000000E+00 0. -1.
         11    1    5    5    0    0 -0.51352425581E+02  0.13447207796E+02  0.60674090146E+02  0.80617890233E+02  0.00000000000E+00 0. -1.
        -12    1    5    5    0    0 -0.35133646947E+02  0.10068745559E+02 -0.25261413693E+02  0.44428502188E+02  0.00000000000E+00 0.  1.
          5    1    4    4  501    0  0.42873856866E+02 -0.12646062421E+02 -0.13877196997E+03  0.14585342830E+03  0.41800000000E+01 0. -1.
         -5    1    4    4    0  501 -0.21623479858E+02  0.12630636837E+02  0.16561483615E+02  0.30312753217E+02  0.41800000000E+01 0. -1.
</event>
<event>
11    1  0.5813833E-009  0.2192028E+03  0.7561462E-02  0.1041718E+00
         22   -1    0    0    0    0  0.00000000000E+00  0.00000000000E+00  0.29424835984E+03  0.29424835984E+03  0.00000000000E+00 0.  1.
         22   -1    0    0    0    0 -0.00000000000E+00 -0.00000000000E+00 -0.81290871281E+03  0.81290871281E+03  0.00000000000E+00 0.  1.
        -24    2    1    2    0    0 -0.58902327384E+02 -0.44099799663E+02 -0.29875777964E+03  0.31825837823E+03  0.81350524964E+02 0.  0.
         25    2    1    2    0    0  0.25227175629E+02  0.21839914435E+03 -0.43221581826E+03  0.50079253361E+03  0.12509217211E+03 0.  0.
         24    2    1    2    0    0  0.33675151755E+02 -0.17429934469E+03  0.21231324493E+03  0.28810616081E+03  0.80087255635E+02 0.  0.
        -13    1    5    5    0    0  0.52497563425E+02 -0.16146870257E+03  0.19950004264E+03  0.26197023321E+03  0.00000000000E+00 0.  1.
         14    1    5    5    0    0 -0.18822411670E+02 -0.12830642119E+02  0.12813202297E+02  0.26135927597E+02  0.00000000000E+00 0. -1.
         13    1    3    3    0    0 -0.33012989695E+02  0.16031835543E+02 -0.16877889378E+03  0.17272287696E+03  0.00000000000E+00 0. -1.
        -14    1    3    3    0    0 -0.25889337689E+02 -0.60131635206E+02 -0.12997888586E+03  0.14553550126E+03  0.00000000000E+00 0.  1.
          5    1    4    4  501    0 -0.34263376276E+02  0.54889992387E+02 -0.20225023502E+03  0.21239001903E+03  0.41800000000E+01 0. -1.
         -5    1    4    4    0  501  0.59490551904E+02  0.16350915197E+03 -0.22996558325E+03  0.28840251459E+03  0.41800000000E+01 0. -1.
</event>
<event>
11    1  0.5813833E-009  0.1417614E+03  0.7561462E-02  0.1105607E+00
         22   -1    0    0    0    0  0.00000000000E+00  0.00000000000E+00  0.79917323146E+02  0.79917323146E+02  0.00000000000E+00 0. -1.
         22   -1    0    0    0    0 -0.00000000000E+00 -0.00000000000E+00 -0.98593820954E+03  0.98593820954E+03  0.00000000000E+00 0. -1.
        -24    2    1    2    0    0 -0.39439961074E+02 -0.12452118906E+02 -0.71301671561E+03  0.71794190112E+03  0.73055943277E+02 0.  0.
         25    2    1    2    0    0  0.61410787657E+02 -0.49754003600E+02 -0.19434912746E+03  0.24426698379E+03  0.12509208732E+03 0.  0.
         24    2    1    2    0    0 -0.21970826583E+02  0.62206122506E+02  0.13449566827E+01  0.10364664777E+03  0.79928091354E+02 0.  0.
        -11    1    5    5    0    0 -0.33184665428E+02  0.46638863007E+02 -0.31703202163E+02  0.65433161237E+02  0.00000000000E+00 0.  1.
         12    1    5    5    0    0  0.11213838844E+02  0.15567259500E+02  0.33048158845E+02  0.38213486533E+02  0.00000000000E+00 0. -1.
         11    1    3    3    0    0 -0.17427662188E+02 -0.61442350397E+01 -0.65916610731E+03  0.65942507691E+03  0.00000000000E+00 0. -1.
        -12    1    3    3    0    0 -0.22012298886E+02 -0.63078838664E+01 -0.53850608309E+02  0.58516824216E+02  0.00000000000E+00 0.  1.
          5    1    4    4  501    0  0.46468887862E+02 -0.80429050546E+02 -0.18739485417E+03  0.20919486964E+03  0.41800000000E+01 0. -1.
         -5    1    4    4    0  501  0.14941899796E+02  0.30675046946E+02 -0.69542732902E+01  0.35072114160E+02  0.41800000000E+01 0. -1.
</event>
<event>
11    1  0.5813833E-009  0.1592968E+03  0.7561462E-02  0.1087741E+00
         22   -1    0    0    0    0  0.00000000000E+00  0.00000000000E+00  0.25440666252E+03  0.25440666252E+03  0.00000000000E+00 0.  1.
         22   -1    0    0    0    0 -0.00000000000E+00 -0.00000000000E+00 -0.13214450825E+04  0.13214450825E+04  0.00000000000E+00 0. -1.
         24    2    1    2    0    0 -0.74842800590E+02 -0.57546836270E+02 -0.10286896161E+04  0.10357147215E+04  0.74763459236E+02 0.  0.
         25    2    1    2    0    0  0.14432989406E+03  0.39833810292E+02 -0.24071670442E+03  0.30985427375E+03  0.12508912188E+03 0.  0.
        -24    2    1    2    0    0 -0.69487093471E+02  0.17713025978E+02  0.20236790059E+03  0.23028274974E+03  0.83277669214E+02 0.  0.
        -13    1    3    3    0    0 -0.23791916410E+02 -0.59109021507E+02 -0.72150141586E+03  0.72430948137E+03  0.00000000000E+00 0.  1.
         14    1    3    3    0    0 -0.51050884181E+02  0.15621852370E+01 -0.30718820027E+03  0.31140524014E+03  0.00000000000E+00 0. -1.
         13    1    5    5    0    0 -0.24825812179E+02 -0.30201433195E+02  0.43752050518E+02  0.58674436017E+02  0.00000000000E+00 0. -1.
        -14    1    5    5    0    0 -0.44661281292E+02  0.47914459173E+02  0.15861585007E+03  0.17160831372E+03  0.00000000000E+00 0.  1.
          5    1    4    4  501    0  0.16253499877E+03  0.15425736111E+02 -0.21347843191E+03  0.26878633234E+03  0.41800000000E+01 0.  1.
         -5    1    4    4    0  501 -0.18205104709E+02  0.24408074180E+02 -0.27238272508E+02  0.41067941413E+02  0.41800000000E+01 0.  1.
</event>
<event>
11    1  0.5813833E-009  0.1339510E+03  0.7561462E-02  0.1114508E+00
         22   -1    0    0    0    0  0.00000000000E+00  0.00000000000E+00  0.77574962485E+03  0.77574962485E+03  0.00000000000E+00 0.  1.
         22   -1    0    0    0    0 -0.00000000000E+00 -0.00000000000E+00 -0.21895441049E+03  0.21895441049E+03  0.00000000000E+00 0.  1.
         24    2    1    2    0    0  0.31038618027E+02  0.66969278587E+01 -0.10850846759E+03  0.13826034172E+03  0.79583854535E+02 0.  0.
         25    2    1    2    0    0 -0.77008404599E+02 -0.15891132791E+02 -0.33456570727E+02  0.15149191278E+03  0.12509050737E+03 0.  0.
        -24    2    1    2    0    0  0.45969786572E+02  0.91942049319E+01  0.69876025268E+03  0.70495178083E+03  0.80581436352E+02 0.  0.
        -13    1    3    3    0    0  0.36328561634E+02  0.15613127204E+02 -0.11784906220E+03  0.12430581480E+03  0.00000000000E+00 0.  1.
         14    1    3    3    0    0 -0.52899436065E+01 -0.89161993457E+01  0.93405946063E+01  0.13954526926E+02  0.00000000000E+00 0. -1.
         13    1    5    5    0    0  0.10476520415E+02  0.19476933750E+02  0.44929484700E+02  0.50077610004E+02  0.00000000000E+00 0. -1.
        -14    1    5    5    0    0  0.35493266157E+02 -0.10282728818E+02  0.65383076798E+03  0.65487417082E+03  0.00000000000E+00 0.  1.
          5    1    4    4  501    0 -0.11469978259E+02  0.34855097390E+02  0.29544452580E+02  0.47294664536E+02  0.41800000000E+01 0.  1.
         -5    1    4    4    0  501 -0.65538426340E+02 -0.50746230180E+02 -0.63001023308E+02  0.10419724825E+03  0.41800000000E+01 0.  1.
</event>
<event>
11    1  0.5813833E-009  0.1512809E+03  0.7561462E-02  0.1095577E+00
         22   -1    0    0    0    0  0.00000000000E+00  0.00000000000E+00  0.43553105825E+03  0.43553105825E+03  0.00000000000E+00 0.  1.
         22   -1    0    0    0    0 -0.00000000000E+00 -0.00000000000E+00 -0.21838173956E+03  0.21838173956E+03  0.00000000000E+00 0. -1.
         24    2    1    2    0    0 -0.85404154047E+02 -0.21147355249E+02 -0.14962901496E+03  0.19120122152E+03  0.80174714414E+02 0.  0.
         25    2    1    2    0    0  0.48402166631E+02  0.65061190557E+02  0.10913283526E+03  0.18475109875E+03  0.12508902632E+03 0.  0.
        -24    2    1    2    0    0  0.37001987416E+02 -0.43913835307E+02  0.25764549838E+03  0.27796047753E+03  0.87081870861E+02 0.  0.
        -11    1    3    3    0    0 -0.83388375646E+01  0.81612314344E+01  0.74180300480E+01  0.13826390717E+02  0.00000000000E+00 0.  1.
         12    1    3    3    0    0 -0.77065316482E+02 -0.29308586684E+02 -0.15704704500E+03  0.17737483080E+03  0.00000000000E+00 0. -1.
         13    1    5    5    0    0  0.61781419895E+02 -0.26441269427E+02  0.12527164172E+03  0.14215860436E+03  0.00000000000E+00 0. -1.
        -14    1    5    5    0    0 -0.24779432479E+02 -0.17472565880E+02  0.13237385666E+03  0.13580187318E+03  0.00000000000E+00 0.  1.
          5    1    4    4  501    0 -0.37042660566E+02 -0.37208349116E+01  0.15768000676E+02  0.40646101407E+02  0.41800000000E+01 0.  1.
         -5    1    4    4    0  501  0.85444827197E+02  0.68782025469E+02  0.93364834588E+02  0.14410499735E+03  0.41800000000E+01 0.  1.
</event>
<event>
11    1  0.5813833E-009  0.1424488E+03  0.7561462E-02  0.1104854E+00
         22   -1    0    0    0    0  0.00000000000E+00  0.00000000000E+00  0.26547019890E+04  0.26547019890E+04  0.00000000000E+00 0. -1.
         22   -1    0    0    0    0 -0.00000000000E+00 -0.00000000000E+00 -0.89891443042E+03  0.89891443042E+03  0.00000000000E+00 0. -1.
        -24    2    1    2    0    0  0.37200913136E+02  0.23862786430E+02 -0.79826466338E+03  0.80352428164E+03  0.80445371972E+02 0.  0.
         25    2    1    2    0    0  0.29907401366E+02 -0.37569131793E+02 -0.50652384623E+02  0.14324458035E+03  0.12508978140E+03 0.  0.
         24    2    1    2    0    0 -0.67108314501E+02  0.13706345363E+02  0.26047046065E+04  0.26068475574E+04  0.80478011724E+02 0.  0.
        -11    1    5    5    0    0 -0.96440058473E+01  0.79074843590E+01  0.51455342862E+02  0.52945136384E+02  0.00000000000E+00 0.  1.
         12    1    5    5    0    0 -0.57464308654E+02  0.57988610036E+01  0.25532492637E+04  0.25539024210E+04  0.00000000000E+00 0. -1.
         11    1    3    3    0    0  0.39856474968E+02  0.48354865732E+02 -0.44347737641E+03  0.44788270231E+03  0.00000000000E+00 0. -1.
        -12    1    3    3    0    0 -0.26555618319E+01 -0.24492079301E+02 -0.35478728697E+03  0.35564157933E+03  0.00000000000E+00 0.  1.
          5    1    4    4  501    0  0.46359562945E+02  0.12362135142E+02  0.22423900025E+02  0.53125654387E+02  0.41800000000E+01 0. -1.
         -5    1    4    4    0  501 -0.16452161580E+02 -0.49931266935E+02 -0.73076284648E+02  0.90118925961E+02  0.41800000000E+01 0. -1.
</event>
<event>
11    1  0.5813833E-009  0.1305070E+03  0.7561462E-02  0.1118648E+00
         22   -1    0    0    0    0  0.00000000000E+00  0.00000000000E+00  0.13559479794E+03  0.13559479794E+03  0.00000000000E+00 0. -1.
         22   -1    0    0    0    0 -0.00000000000E+00 -0.00000000000E+00 -0.35939926361E+04  0.35939926361E+04  0.00000000000E+00 0. -1.
         24    2    1    2    0    0 -0.34224269258E+02 -0.14747366425E+02 -0.34203230663E+04  0.34213014535E+04  0.72835241637E+02 0.  0.
         25    2    1    2    0    0  0.31949130068E+02  0.84449662836E+01 -0.13250823033E+03  0.18520260139E+03  0.12509799393E+03 0.  0.
        -24    2    1    2    0    0  0.22751391903E+01  0.63024001413E+01  0.94433458483E+02  0.12308337914E+03  0.78657127044E+02 0.  0.
        -13    1    3    3    0    0  0.20207355940E+02  0.62572910878E+01 -0.13149148021E+04  0.13150849507E+04  0.00000000000E+00 0.  1.
         14    1    3    3    0    0 -0.54431625198E+02 -0.21004657513E+02 -0.21054082642E+04  0.21062165027E+04  0.00000000000E+00 0. -1.
         13    1    5    5    0    0 -0.23303024303E+01 -0.54921301697E+01  0.10585999320E+03  0.10602797726E+03  0.00000000000E+00 0. -1.
        -14    1    5    5    0    0  0.46054416207E+01  0.11794530311E+02 -0.11426534713E+02  0.17055401881E+02  0.00000000000E+00 0.  1.
          5    1    4    4  501    0  0.13551036763E+02  0.57191472985E+02 -0.11647063221E+03  0.13052729886E+03  0.41800000000E+01 0.  1.
         -5    1    4    4    0  501  0.18398093305E+02 -0.48746506702E+02 -0.16037598121E+02  0.54675302526E+02  0.41800000000E+01 0.  1.
</event>
<event>
11    1  0.5813833E-009  0.1473183E+03  0.7561462E-02  0.1099651E+00
         22   -1    0    0    0    0  0.00000000000E+00  0.00000000000E+00  0.46578112318E+03  0.46578112318E+03  0.00000000000E+00 0. -1.
         22   -1    0    0    0    0 -0.00000000000E+00 -0.00000000000E+00 -0.35947840358E+03  0.35947840358E+03  0.00000000000E+00 0.  1.
         24    2    1    2    0    0 -0.53298065504E+02 -0.20813858286E+02 -0.30009715683E+03  0.31649860706E+03  0.82699239710E+02 0.  0.
         25    2    1    2    0    0  0.77854624789E+02  0.86020731648E+02  0.13689958633E+03  0.21874654406E+03  0.12509054692E+03 0.  0.
        -24    2    1    2    0    0 -0.24556559285E+02 -0.65206873362E+02  0.26950029011E+03  0.29001437564E+03  0.81381636582E+02 0.  0.
        -13    1    3    3    0    0 -0.48863018695E+02 -0.33803334869E+02 -0.29638203698E+03  0.30227896369E+03  0.00000000000E+00 0.  1.
         14    1    3    3    0    0 -0.44350468091E+01  0.12989476583E+02 -0.37151198528E+01  0.14219643372E+02  0.00000000000E+00 0. -1.
         11    1    5    5    0    0  0.38373410453E+01 -0.60025158482E+02  0.24462606884E+03  0.25191200526E+03  0.00000000000E+00 0. -1.
        -12    1    5    5    0    0 -0.28393900330E+02 -0.51817148803E+01  0.24874221265E+02  0.38102370380E+02  0.00000000000E+00 0.  1.
          5    1    4    4  501    0 -0.22882787643E+02  0.37778496779E+02  0.84202636079E+02  0.95175590946E+02  0.41800000000E+01 0.  1.
         -5    1    4    4    0  501  0.10073741243E+03  0.48242234869E+02  0.52696950247E+02  0.12357095312E+03  0.41800000000E+01 0.  1.
</event>
<event>
11    1  0.5813833E-009  0.2215173E+03  0.7561462E-02  0.1040271E+00
         22   -1    0    0    0    0  0.00000000000E+00  0.00000000000E+00  0.10166909266E+04  0.10166909266E+04  0.00000000000E+00 0.  1.
         22   -1    0    0    0    0 -0.00000000000E+00 -0.00000000000E+00 -0.62005010815E+03  0.62005010815E+03  0.00000000000E+00 0. -1.
         24    2    1    2    0    0  0.50729922137E+02  0.34325621228E+02 -0.51001680408E+03  0.51990264472E+03  0.80186322183E+02 0.  0.
         25    2    1    2    0    0  0.13510144012E+03 -0.60831617500E+02  0.67672981226E+01  0.19402560398E+03  0.12508898379E+03 0.  0.
        -24    2    1    2    0    0 -0.18583136226E+03  0.26505996271E+02  0.89989032443E+03  0.92281278607E+03  0.80901045030E+02 0.  0.
        -13    1    3    3    0    0 -0.17132435869E+02 -0.69473063839E+01 -0.55505561432E+02  0.58503442417E+02  0.00000000000E+00 0.  1.
         14    1    3    3    0    0  0.67862358006E+02  0.41272927612E+02 -0.45451124265E+03  0.46139920230E+03  0.00000000000E+00 0. -1.
         11    1    5    5    0    0 -0.96019738657E+02 -0.23189824077E+02  0.36308764877E+03  0.37628473107E+03  0.00000000000E+00 0. -1.
        -12    1    5    5    0    0 -0.89811623601E+02  0.49695820348E+02  0.53680267567E+03  0.54652805500E+03  0.00000000000E+00 0.  1.
          5    1    4    4  501    0  0.42691559545E+02 -0.20078739680E+02  0.62638686501E+02  0.78528991399E+02  0.41800000000E+01 0.  1.
         -5    1    4    4    0  501  0.92409880575E+02 -0.40752877820E+02 -0.55871388378E+02  0.11549661258E+03  0.41800000000E+01 0.  1.
</event>
<event>
11    1  0.5813833E-009  0.1409026E+03  0.7561462E-02  0.1106555E+00
         22   -1    0    0    0    0  0.00000000000E+00  0.00000000000E+00  0.17519032029E+03  0.17519032029E+03  0.00000000000E+00 0.  1.
         22   -1    0    0    0    0 -0.00000000000E+00 -0.00000000000E+00 -0.12020833942E+04  0.12020833942E+04  0.00000000000E+00 0. -1.
         24    2    1    2    0    0  0.63850279003E+02 -0.22155232545E+02 -0.90477978818E+03  0.91078856857E+03  0.79634408875E+02 0.  0.
         25    2    1    2    0    0 -0.22516906007E+02  0.69609771951E+02 -0.25809908264E+03  0.29599649411E+03  0.12508499775E+03 0.  0.
        -24    2    1    2    0    0 -0.41333372996E+02 -0.47454539406E+02  0.13598579695E+03  0.17048865176E+03  0.81325656314E+02 0.  0.
        -11    1    3    3    0    0  0.31115693391E+02 -0.55226686089E+01 -0.93847603250E+02  0.99025546601E+02  0.00000000000E+00 0.  1.
         12    1    3    3    0    0  0.32734585612E+02 -0.16632563936E+02 -0.81093218493E+03  0.81176302197E+03  0.00000000000E+00 0. -1.
         13    1    5    5    0    0  0.51305391010E+01 -0.45936148894E+02  0.30956114021E+02  0.55630326280E+02  0.00000000000E+00 0. -1.
        -14    1    5    5    0    0 -0.46463912097E+02 -0.15183905121E+01  0.10502968293E+03  0.11485832548E+03  0.00000000000E+00 0.  1.
          5    1    4    4  501    0 -0.46157194720E+01  0.92209369125E+02 -0.10384165697E+03  0.13901235464E+03  0.41800000000E+01 0. -1.
         -5    1    4    4    0  501 -0.17901186535E+02 -0.22599597174E+02 -0.15425742567E+03  0.15698413947E+03  0.41800000000E+01 0. -1.
</event>
<event>
11    1  0.5813833E-009  0.1827993E+03  0.7561462E-02  0.1067401E+00
         22   -1    0    0    0    0  0.00000000000E+00  0.00000000000E+00  0.21981483075E+03  0.21981483075E+03  0.00000000000E+00 0.  1.
         22   -1    0    0    0    0 -0.00000000000E+00 -0.00000000000E+00 -0.95669946715E+03  0.95669946715E+03  0.00000000000E+00 0.  1.
        -24    2    1    2    0    0 -0.23145446195E+02  0.12611874030E+03 -0.71344222319E+03  0.72946399968E+03  0.81708461365E+02 0.  0.
         25    2    1    2    0    0  0.67803736512E+02 -0.15424905871E+03 -0.17033972260E+03  0.27029751684E+03  0.12511997330E+03 0.  0.
         24    2    1    2    0    0 -0.44658290317E+02  0.28130318412E+02  0.14689730939E+03  0.17675278138E+03  0.82927971812E+02 0.  0.
        -13    1    5    5    0    0 -0.63697151868E+02  0.21770731064E+02  0.14031791166E+03  0.15562907254E+03  0.00000000000E+00 0.  1.
         14    1    5    5    0    0  0.19038861551E+02  0.63595873485E+01  0.65793977328E+01  0.21123708834E+02  0.00000000000E+00 0. -1.
         13    1    3    3    0    0  0.30090413442E+02  0.36458844962E+02 -0.19603091590E+03  0.20165019302E+03  0.00000000000E+00 0. -1.
        -14    1    3    3    0    0 -0.53235859638E+02  0.89659895334E+02 -0.51741130730E+03  0.52781380666E+03  0.00000000000E+00 0.  1.
          5    1    4    4  501    0  0.93497783573E+01 -0.15028880415E+03 -0.13071787868E+03  0.19944618125E+03  0.41800000000E+01 0.  1.
         -5    1    4    4    0  501  0.58453958155E+02 -0.39602545617E+01 -0.39621843914E+02  0.70851335593E+02  0.41800000000E+01 0.  1.
</event>
<event>
11    1  0.5813833E-009  0.1564485E+03  0.7561462E-02  0.1090466E+00
         22   -1    0    0    0    0  0.00000000000E+00  0.00000000000E+00  0.23757970171E+03  0.23757970171E+03  0.00000000000E+00 0. -1.
         22   -1    0    0    0    0 -0.00000000000E+00 -0.00000000000E+00 -0.64493380373E+03  0.64493380373E+03  0.00000000000E+00 0. -1.
        -24    2    1    2    0    0 -0.13327289634E+02  0.21521242261E+02 -0.54115367054E+03  0.54758110645E+03  0.79730749893E+02 0.  0.
         25    2    1    2    0    0 -0.15260551434E+02 -0.10627987480E+03  0.19270668543E+02  0.16597125530E+03  0.12508718042E+03 0.  0.
         24    2    1    2    0    0  0.28587841069E+02  0.84758632534E+02  0.11452889998E+03  0.16896114369E+03  0.86195758012E+02 0.  0.
        -13    1    5    5    0    0  0.47602421499E+02  0.19985769959E+02  0.26510853610E+02  0.58036599595E+02  0.00000000000E+00 0.  1.
         14    1    5    5    0    0 -0.19014580430E+02  0.64772862575E+02  0.88018046372E+02  0.11092454409E+03  0.00000000000E+00 0. -1.
         13    1    3    3    0    0  0.35417589925E+01  0.49687589497E+02 -0.36632757447E+03  0.36969892132E+03  0.00000000000E+00 0. -1.
        -14    1    3    3    0    0 -0.16869048627E+02 -0.28166347236E+02 -0.17482609607E+03  0.17788218513E+03  0.00000000000E+00 0.  1.
          5    1    4    4  501    0 -0.30094353586E+02 -0.84850053740E+02  0.66405902248E+02  0.11194828266E+03  0.41800000000E+01 0.  1.
         -5    1    4    4    0  501  0.14833802152E+02 -0.21429821055E+02 -0.47135233706E+02  0.54022972643E+02  0.41800000000E+01 0.  1.
</event>
<event>
11    1  0.5813833E-009  0.1539818E+03  0.7561462E-02  0.1092878E+00
         22   -1    0    0    0    0  0.00000000000E+00  0.00000000000E+00  0.66419927983E+03  0.66419927983E+03  0.00000000000E+00 0. -1.
         22   -1    0    0    0    0 -0.00000000000E+00 -0.00000000000E+00 -0.10676509258E+03  0.10676509258E+03  0.00000000000E+00 0.  1.
         24    2    1    2    0    0  0.38591351387E+02  0.35845974697E+02 -0.31343550182E+02  0.10055950875E+03  0.79721831121E+02 0.  0.
         25    2    1    2    0    0 -0.29006064680E+02 -0.11817477898E+03  0.20318584715E+03  0.26783989135E+03  0.12508832376E+03 0.  0.
        -24    2    1    2    0    0 -0.95852867076E+01  0.82328804283E+02  0.38559189027E+03  0.40256497232E+03  0.80669333426E+02 0.  0.
        -11    1    3    3    0    0  0.38459915268E+02  0.11195573519E+02 -0.53894399678E+02  0.67149923793E+02  0.00000000000E+00 0.  1.
         12    1    3    3    0    0  0.13143611989E+00  0.24650401178E+02  0.22550849496E+02  0.33409584952E+02  0.00000000000E+00 0. -1.
         13    1    5    5    0    0  0.23707165054E+02  0.73334674545E+02  0.31067018689E+03  0.32008743991E+03  0.00000000000E+00 0. -1.
        -14    1    5    5    0    0 -0.33292451761E+02  0.89941297377E+01  0.74921703380E+02  0.82477532404E+02  0.00000000000E+00 0.  1.
          5    1    4    4  501    0  0.12478276041E+02 -0.21271313833E+02 -0.12332593215E+02  0.27888015716E+02  0.41800000000E+01 0.  1.
         -5    1    4    4    0  501 -0.41484340721E+02 -0.96903465146E+02  0.21551844037E+03  0.23995187563E+03  0.41800000000E+01 0.  1.
</event>
<event>
11    1  0.5813833E-009  0.1429459E+03  0.7561462E-02  0.1104313E+00
         22   -1    0    0    0    0  0.00000000000E+00  0.00000000000E+00  0.12460508378E+04  0.12460508378E+04  0.00000000000E+00 0.  1.
         22   -1    0    0    0    0 -0.00000000000E+00 -0.00000000000E+00 -0.40029002772E+03  0.40029002772E+03  0.00000000000E+00 0. -1.
         24    2    1    2    0    0 -0.13588021226E+02 -0.77330394578E+01 -0.35899614394E+03  0.36681456135E+03  0.73690276366E+02 0.  0.
         25    2    1    2    0    0  0.34217413647E+02 -0.58549926612E+02  0.11151031574E+03  0.18077844686E+03  0.12508945212E+03 0.  0.
        -24    2    1    2    0    0 -0.20629392421E+02  0.66282966070E+02  0.10932466383E+04  0.10987478573E+04  0.85086064853E+02 0.  0.
        -11    1    3    3    0    0 -0.40547957441E+02  0.95784492254E+01 -0.16433232264E+03  0.16953169558E+03  0.00000000000E+00 0.  1.
         12    1    3    3    0    0  0.26959936215E+02 -0.17311488683E+02 -0.19466382130E+03  0.19728286577E+03  0.00000000000E+00 0. -1.
         11    1    5    5    0    0 -0.26936861350E+02  0.15033932344E+02  0.11278958004E+03  0.11693204431E+03  0.00000000000E+00 0. -1.
        -12    1    5    5    0    0  0.63074689290E+01  0.51249033725E+02  0.98045705822E+03  0.98181581299E+03  0.00000000000E+00 0.  1.
          5    1    4    4  501    0  0.18247092029E+02  0.38013856841E+02  0.20537203073E+02  0.47087777496E+02  0.41800000000E+01 0. -1.
         -5    1    4    4    0  501  0.15970321617E+02 -0.96563783453E+02  0.90973112668E+02  0.13369066937E+03  0.41800000000E+01 0. -1.
</event>
<event>
11    1  0.5813833E-009  0.1538304E+03  0.7561462E-02  0.1093028E+00
         22   -1    0    0    0    0  0.00000000000E+00  0.00000000000E+00  0.25127834343E+04  0.25127834343E+04  0.00000000000E+00 0. -1.
         22   -1    0    0    0    0 -0.00000000000E+00 -0.00000000000E+00 -0.12551873692E+03  0.12551873692E+03  0.00000000000E+00 0. -1.
         24    2    1    2    0    0 -0.10841828003E+02 -0.92832133102E+01 -0.64894974077E+02  0.10494090729E+03  0.81225076656E+02 0.  0.
         25    2    1    2    0    0  0.70841673327E+02 -0.57145498187E+02  0.11408706740E+03  0.19221916090E+03  0.12509275050E+03 0.  0.
        -24    2    1    2    0    0 -0.59999845324E+02  0.66428711497E+02  0.23380726041E+04  0.23411421031E+04  0.79687449483E+02 0.  0.
        -13    1    3    3    0    0 -0.12566431531E+02 -0.46438364793E+01  0.17699627337E+02  0.22198135654E+02  0.00000000000E+00 0.  1.
         14    1    3    3    0    0  0.17246035275E+01 -0.46393768309E+01 -0.82594601414E+02  0.82742771632E+02  0.00000000000E+00 0. -1.
         13    1    5    5    0    0  0.16795738099E+02  0.17755559068E+00  0.21871222470E+03  0.21935625265E+03  0.00000000000E+00 0. -1.
        -14    1    5    5    0    0 -0.76795583422E+02  0.66251155907E+02  0.21193603794E+04  0.21217858504E+04  0.00000000000E+00 0.  1.
          5    1    4    4  501    0 -0.13011314521E+02 -0.29082905804E+01  0.87749664515E+02  0.88855098234E+02  0.41800000000E+01 0.  1.
         -5    1    4    4    0  501  0.83852987848E+02 -0.54237207607E+02  0.26337402883E+02  0.10336406267E+03  0.41800000000E+01 0.  1.
</event>
<event>
11    1  0.5813833E-009  0.1560188E+03  0.7561462E-02  0.1090883E+00
         22   -1    0    0    0    0  0.00000000000E+00  0.00000000000E+00  0.18043074593E+04  0.18043074593E+04  0.00000000000E+00 0.  1.
         22   -1    0    0    0    0 -0.00000000000E+00 -0.00000000000E+00 -0.99615674114E+02  0.99615674114E+02  0.00000000000E+00 0.  1.
        -24    2    1    2    0    0  0.82840894983E+02 -0.51757475863E+01 -0.34113076026E+01  0.11693229212E+03  0.82292901740E+02 0.  0.
         25    2    1    2    0    0 -0.13351903532E+03  0.41976944271E+01  0.18565033522E+03  0.26068632450E+03  0.12508540836E+03 0.  0.
         24    2    1    2    0    0  0.50678140341E+02  0.97805315916E+00  0.15224527576E+04  0.15263045168E+04  0.95780209013E+02 0.  0.
        -11    1    5    5    0    0  0.41101092655E+02  0.43828705284E+02  0.10824669394E+04  0.10841332622E+04  0.00000000000E+00 0.  1.
         12    1    5    5    0    0  0.95770476854E+01 -0.42850652124E+02  0.43998581813E+03  0.44217125459E+03  0.00000000000E+00 0. -1.
         11    1    3    3    0    0  0.66364741448E+02 -0.61056586483E+01  0.34891224520E+02  0.75226029561E+02  0.00000000000E+00 0. -1.
        -12    1    3    3    0    0  0.16476153535E+02  0.92991106206E+00 -0.38302532122E+02  0.41706262562E+02  0.00000000000E+00 0.  1.
          5    1    4    4  501    0 -0.13568398332E+03 -0.25269072241E+01  0.86040451374E+02  0.16073879513E+03  0.41800000000E+01 0.  1.
         -5    1    4    4    0  501  0.21649479927E+01  0.67246016512E+01  0.99609883845E+02  0.99947529368E+02  0.41800000000E+01 0.  1.
</event>
<event>
11    1  0.5813833E-009  0.1776568E+03  0.7561462E-02  0.1071554E+00
         22   -1    0    0    0    0  0.00000000000E+00  0.00000000000E+00  0.41704413120E+03  0.41704413120E+03  0.00000000000E+00 0.  1.
         22   -1    0    0    0    0 -0.00000000000E+00 -0.00000000000E+00 -0.73107168767E+03  0.73107168767E+03  0.00000000000E+00 0.  1.
         24    2    1    2    0    0 -0.24259205143E+02  0.12070419283E+03 -0.53273811206E+03  0.55377455586E+03  0.87740250020E+02 0.  0.
         25    2    1    2    0    0  0.82672923751E+02 -0.12546722683E+03 -0.12802501943E+03  0.23369869827E+03  0.12509132120E+03 0.  0.
        -24    2    1    2    0    0 -0.58413718609E+02  0.47630340051E+01  0.34673557503E+03  0.36064256473E+03  0.80016570119E+02 0.  0.
        -11    1    3    3    0    0 -0.50460723508E+02  0.99296497550E+02 -0.46371869377E+03  0.47690785902E+03  0.00000000000E+00 0.  1.
         12    1    3    3    0    0  0.26201518365E+02  0.21407695280E+02 -0.69019418293E+02  0.76866696841E+02  0.00000000000E+00 0. -1.
         11    1    5    5    0    0 -0.50679189863E+02 -0.30997308249E+02  0.16782700332E+03  0.17803122324E+03  0.00000000000E+00 0. -1.
        -12    1    5    5    0    0 -0.77345287462E+01  0.35760342254E+02  0.17890857170E+03  0.18261134149E+03  0.00000000000E+00 0.  1.
          5    1    4    4  501    0  0.26245557644E+02 -0.89174374808E+01  0.21883338230E+02  0.35562661309E+02  0.41800000000E+01 0. -1.
         -5    1    4    4    0  501  0.56427366107E+02 -0.11654978935E+03 -0.14990835766E+03  0.19813603696E+03  0.41800000000E+01 0. -1.
</event>
<event>
11    1  0.5813833E-009  0.1399606E+03  0.7561462E-02  0.1107602E+00
         22   -1    0    0    0    0  0.00000000000E+00  0.00000000000E+00  0.58793422486E+03  0.58793422486E+03  0.00000000000E+00 0.  1.
         22   -1    0    0    0    0 -0.00000000000E+00 -0.00000000000E+00 -0.37218106875E+03  0.37218106875E+03  0.00000000000E+00 0.  1.
         24    2    1    2    0    0 -0.10281063336E+02 -0.92751073119E+02 -0.20174402666E+03  0.23628496667E+03  0.80134083599E+02 0.  0.
         25    2    1    2    0    0  0.28596038390E+02  0.75687315918E+01 -0.11847597248E+03  0.17480925548E+03  0.12508677242E+03 0.  0.
        -24    2    1    2    0    0 -0.18314975054E+02  0.85182341527E+02  0.53597315526E+03  0.54902107146E+03  0.81027428269E+02 0.  0.
        -13    1    3    3    0    0  0.16715369506E+01  0.14701998003E+02 -0.21435879511E+02  0.26046875273E+02  0.00000000000E+00 0.  1.
         14    1    3    3    0    0 -0.11952600287E+02 -0.10745307112E+03 -0.18030814715E+03  0.21023809140E+03  0.00000000000E+00 0. -1.
         13    1    5    5    0    0  0.29984319184E+02  0.29599043556E+02  0.13783857731E+03  0.14413409094E+03  0.00000000000E+00 0. -1.
        -14    1    5    5    0    0 -0.48299294238E+02  0.55583297971E+02  0.39813457795E+03  0.40488698053E+03  0.00000000000E+00 0.  1.
          5    1    4    4  501    0  0.51033297848E+02  0.43958250664E+02 -0.25054206372E+02  0.71985491231E+02  0.41800000000E+01 0.  1.
         -5    1    4    4    0  501 -0.22437259459E+02 -0.36389519073E+02 -0.93421766111E+02  0.10282376425E+03  0.41800000000E+01 0.  1.
</event>
<event>
11    1  0.5813833E-009  0.2090375E+03  0.7561462E-02  0.1048311E+00
         22   -1    0    0    0    0  0.00000000000E+00  0.00000000000E+00  0.11371958719E+04  0.11371958719E+04  0.00000000000E+00 0.  1.
         22   -1    0    0    0    0 -0.00000000000E+00 -0.00000000000E+00 -0.14482272209E+03  0.14482272209E+03  0.00000000000E+00 0.  1.
         24    2    1    2    0    0  0.91251575125E+02 -0.64453935900E+02 -0.45545960151E+02  0.14549001200E+03  0.81312663766E+02 0.  0.
         25    2    1    2    0    0  0.98561201869E+02  0.50059859538E+02  0.14989254306E+03  0.22435801143E+03  0.12509373597E+03 0.  0.
        -24    2    1    2    0    0 -0.18981277699E+03  0.14394076363E+02  0.88802656694E+03  0.91217057059E+03  0.85016977788E+02 0.  0.
        -13    1    3    3    0    0  0.51134697155E+02 -0.59222344722E+02 -0.63941762909E+02  0.10104747603E+03  0.00000000000E+00 0.  1.
         14    1    3    3    0    0  0.40116877969E+02 -0.52315911777E+01  0.18395802757E+02  0.44442535969E+02  0.00000000000E+00 0. -1.
         11    1    5    5    0    0 -0.84793839303E+01 -0.47690706704E+01  0.20477616218E+03  0.20500712325E+03  0.00000000000E+00 0. -1.
        -12    1    5    5    0    0 -0.18133339306E+03  0.19163147033E+02  0.68325040476E+03  0.70716344734E+03  0.00000000000E+00 0.  1.
          5    1    4    4  501    0  0.43320912472E+02 -0.15950805925E+02  0.12699721391E+03  0.13519206488E+03  0.41800000000E+01 0. -1.
         -5    1    4    4    0  501  0.55240289397E+02  0.66010665463E+02  0.22895329150E+02  0.89165946552E+02  0.41800000000E+01 0. -1.
</event>
<event>
11    1  0.5813833E-009  0.2217283E+03  0.7561462E-02  0.1040140E+00
         22   -1    0    0    0    0  0.00000000000E+00  0.00000000000E+00  0.19770730549E+03  0.19770730549E+03  0.00000000000E+00 0. -1.
         22   -1    0    0    0    0 -0.00000000000E+00 -0.00000000000E+00 -0.19640748106E+04  0.19640748106E+04  0.00000000000E+00 0. -1.
         24    2    1    2    0    0  0.18897661858E+03 -0.41740437866E+01 -0.17234945734E+04  0.17352271930E+04  0.69643965595E+02 0.  0.
         25    2    1    2    0    0 -0.14160351216E+03 -0.29316422024E+02 -0.18054987012E+03  0.26297666421E+03  0.12508981997E+03 0.  0.
        -24    2    1    2    0    0 -0.47373106415E+02  0.33490465811E+02  0.13767693839E+03  0.16357825886E+03  0.66611447197E+02 0.  0.
        -11    1    3    3    0    0  0.17234375142E+01 -0.35213303805E+01 -0.41248969725E+01  0.56907626507E+01  0.00000000000E+00 0.  1.
         12    1    3    3    0    0  0.18725318106E+03 -0.65271340612E+00 -0.17193696764E+04  0.17295364304E+04  0.00000000000E+00 0. -1.
         13    1    5    5    0    0 -0.35042236707E+02 -0.11680888695E+01  0.11531627532E+03  0.12052869425E+03  0.00000000000E+00 0. -1.
        -14    1    5    5    0    0 -0.12330869708E+02  0.34658554680E+02  0.22360663068E+02  0.43049564610E+02  0.00000000000E+00 0.  1.
          5    1    4    4  501    0 -0.35581738209E+02 -0.43397783922E+02 -0.13573608103E+03  0.14693938831E+03  0.41800000000E+01 0. -1.
         -5    1    4    4    0  501 -0.10602177395E+03  0.14081361898E+02 -0.44813789091E+02  0.11603727590E+03  0.41800000000E+01 0. -1.
</event>
<event>
11    1  0.5813833E-009  0.2149674E+03  0.7561462E-02  0.1044417E+00
         22   -1    0    0    0    0  0.00000000000E+00  0.00000000000E+00  0.17431420823E+04  0.17431420823E+04  0.00000000000E+00 0. -1.
         22   -1    0    0    0    0 -0.00000000000E+00 -0.00000000000E+00 -0.80160853782E+03  0.80160853782E+03  0.00000000000E+00 0.  1.
         24    2    1    2    0    0 -0.36004303822E+00  0.37986959368E+02 -0.60758588852E+03  0.61577755767E+03  0.92618841960E+02 0.  0.
         25    2    1    2    0    0 -0.17267713502E+03 -0.11850421085E+02 -0.12257363722E+03  0.24622817369E+03  0.12508473744E+03 0.  0.
        -24    2    1    2    0    0  0.17303717806E+03 -0.26136538283E+02  0.16716930702E+04  0.16827448888E+04  0.80297297273E+02 0.  0.
        -13    1    3    3    0    0 -0.28975435391E+02  0.54176767451E+02 -0.28654567975E+03  0.29305822727E+03  0.00000000000E+00 0.  1.
         14    1    3    3    0    0  0.28615392353E+02 -0.16189808083E+02 -0.32104020877E+03  0.32271933040E+03  0.00000000000E+00 0. -1.
         13    1    5    5    0    0  0.66469297782E+02  0.24404297805E+02  0.47419384351E+03  0.47945128900E+03  0.00000000000E+00 0. -1.
        -14    1    5    5    0    0  0.10656788027E+03 -0.50540836088E+02  0.11974992267E+04  0.12032935998E+04  0.00000000000E+00 0.  1.
          5    1    4    4  501    0 -0.13497272854E+03 -0.58512039532E+02 -0.11252401675E+03  0.18525772040E+03  0.41800000000E+01 0.  1.
         -5    1    4    4    0  501 -0.37704406473E+02  0.46661618446E+02 -0.10049620469E+02  0.60970453296E+02  0.41800000000E+01 0.  1.
</event>
<event>
11    1  0.5813833E-009  0.1634899E+03  0.7561462E-02  0.1083840E+00
         22   -1    0    0    0    0  0.00000000000E+00  0.00000000000E+00  0.18476962832E+03  0.18476962832E+03  0.00000000000E+00 0. -1.
         22   -1    0    0    0    0 -0.00000000000E+00 -0.00000000000E+00 -0.31297873917E+03  0.31297873917E+03  0.00000000000E+00 0. -1.
         24    2    1    2    0    0  0.50416004645E+02  0.10040424239E+03 -0.18637395348E+03  0.23161304263E+03  0.79287865187E+02 0.  0.
         25    2    1    2    0    0 -0.80255362082E+02 -0.43661186370E+02  0.20112107210E+02  0.15620120563E+03  0.12508835856E+03 0.  0.
        -24    2    1    2    0    0  0.29839357438E+02 -0.56743056018E+02  0.38052735424E+02  0.10993411923E+03  0.80791944153E+02 0.  0.
        -11    1    3    3    0    0  0.63566321219E+02  0.10392744806E+03 -0.15305902895E+03  0.19562376644E+03  0.00000000000E+00 0.  1.
         12    1    3    3    0    0 -0.13150316574E+02 -0.35232056689E+01 -0.33314924526E+02  0.35989276185E+02  0.00000000000E+00 0. -1.
         13    1    5    5    0    0 -0.13721203655E+02 -0.49085544938E+02  0.41280974622E+02  0.65587963967E+02  0.00000000000E+00 0. -1.
        -14    1    5    5    0    0  0.43560561093E+02 -0.76575110795E+01 -0.32282391978E+01  0.44346155267E+02  0.00000000000E+00 0.  1.
          5    1    4    4  501    0 -0.70137302856E+02 -0.80123496532E+02 -0.10866506061E+02  0.10711941609E+03  0.41800000000E+01 0. -1.
         -5    1    4    4    0  501 -0.10118059226E+02  0.36462310163E+02  0.30978613271E+02  0.49081789546E+02  0.41800000000E+01 0. -1.
</event>
<event>
11    1  0.5813833E-009  0.1335358E+03  0.7561462E-02  0.1114999E+00
         22   -1    0    0    0    0  0.00000000000E+00  0.00000000000E+00  0.49163171306E+03  0.49163171306E+03  0.00000000000E+00 0.  1.
         22   -1    0    0    0    0 -0.00000000000E+00 -0.00000000000E+00 -0.29877197212E+03  0.29877197212E+03  0.00000000000E+00 0.  1.
         24    2    1    2    0    0 -0.24824078292E+01 -0.16690739578E+02 -0.22536353355E+03  0.24146426676E+03  0.85038383881E+02 0.  0.
         25    2    1    2    0    0 -0.25684222374E+02  0.52897632668E+02  0.19282177299E+02  0.13953412793E+03  0.12506051205E+03 0.  0.
        -24    2    1    2    0    0  0.28166630204E+02 -0.36206893090E+02  0.39894109720E+03  0.40940529049E+03  0.79714457188E+02 0.  0.
        -11    1    3    3    0    0 -0.16611676627E+00 -0.22168124399E+02 -0.23170930481E+03  0.23276738447E+03  0.00000000000E+00 0.  1.
         12    1    3    3    0    0 -0.23162910629E+01  0.54773848216E+01  0.63457712631E+01  0.86968822974E+01  0.00000000000E+00 0. -1.
         11    1    5    5    0    0  0.25834783509E+02  0.21793041117E+02  0.15725884846E+03  0.16084998632E+03  0.00000000000E+00 0. -1.
        -12    1    5    5    0    0  0.23318466944E+01 -0.57999934207E+02  0.24168224874E+03  0.24855530417E+03  0.00000000000E+00 0.  1.
          5    1    4    4  501    0  0.49848814811E+02  0.26938568158E+02 -0.17263558817E+01  0.56842268578E+02  0.41800000000E+01 0. -1.
         -5    1    4    4    0  501 -0.75533037185E+02  0.25959064509E+02  0.21008533181E+02  0.82691859351E+02  0.41800000000E+01 0. -1.
</event>
<event>
11    1  0.5813833E-009  0.1655778E+03  0.7561462E-02  0.1081945E+00
         22   -1    0    0    0    0  0.00000000000E+00  0.00000000000E+00  0.21169555346E+03  0.21169555346E+03  0.00000000000E+00 0.  1.
         22   -1    0    0    0    0 -0.00000000000E+00 -0.00000000000E+00 -0.50718806742E+03  0.50718806742E+03  0.00000000000E+00 0.  1.
         24    2    1    2    0    0 -0.84648957361E+02  0.31124827549E+02 -0.29569586444E+03  0.31915777946E+03  0.79318617428E+02 0.  0.
         25    2    1    2    0    0 -0.91348941628E+01  0.45934288542E+02 -0.14292893189E+03  0.19562721095E+03  0.12509165015E+03 0.  0.
        -24    2    1    2    0    0  0.93783851524E+02 -0.77059116091E+02  0.14313228237E+03  0.20409863046E+03  0.80223952296E+02 0.  0.
        -11    1    3    3    0    0 -0.55344330750E+02  0.25789851140E+02 -0.76175971730E+02  0.97626277390E+02  0.00000000000E+00 0.  1.
         12    1    3    3    0    0 -0.29304626611E+02  0.53349764084E+01 -0.21951989271E+03  0.22153150207E+03  0.00000000000E+00 0. -1.
         13    1    5    5    0    0  0.27568777674E+02 -0.73980678319E+02  0.71709068895E+02  0.10665537412E+03  0.00000000000E+00 0. -1.
        -14    1    5    5    0    0  0.66215073850E+02 -0.30784377721E+01  0.71423213473E+02  0.97443256344E+02  0.00000000000E+00 0.  1.
          5    1    4    4  501    0 -0.66702362260E+02  0.26919662464E+02 -0.87780127533E+02  0.11356362335E+03  0.41800000000E+01 0.  1.
         -5    1    4    4    0  501  0.57567468097E+02  0.19014626078E+02 -0.55148804358E+02  0.82063587603E+02  0.41800000000E+01 0.  1.
</event>
<event>
11    1  0.5813833E-009  0.1281473E+03  0.7561462E-02  0.1121567E+00
         22   -1    0    0    0    0  0.00000000000E+00  0.00000000000E+00  0.14756266371E+03  0.14756266371E+03  0.00000000000E+00 0.  1.
         22   -1    0    0    0    0 -0.00000000000E+00 -0.00000000000E+00 -0.73939446220E+03  0.73939446220E+03  0.00000000000E+00 0. -1.
        -24    2    1    2    0    0 -0.18597701732E+02 -0.19357609948E+02 -0.53459617305E+03  0.54078292993E+03  0.77022837462E+02 0.  0.
         25    2    1    2    0    0  0.23412174074E+02  0.44979583357E+02 -0.16168210356E+03  0.21061780593E+03  0.12508982672E+03 0.  0.
         24    2    1    2    0    0 -0.48144723420E+01 -0.25621973409E+02  0.10444647812E+03  0.13555639005E+03  0.82382057675E+02 0.  0.
        -13    1    5    5    0    0  0.14280124759E+02 -0.47138428861E+02  0.91702158336E+02  0.10409245545E+03  0.00000000000E+00 0.  1.
         14    1    5    5    0    0 -0.19094597101E+02  0.21516455452E+02  0.12744319782E+02  0.31463934597E+02  0.00000000000E+00 0. -1.
         13    1    3    3    0    0 -0.74714020246E+01  0.21343024054E+02 -0.37570221257E+03  0.37638211840E+03  0.00000000000E+00 0. -1.
        -14    1    3    3    0    0 -0.11126299708E+02 -0.40700634002E+02 -0.15889396048E+03  0.16440081153E+03  0.00000000000E+00 0.  1.
          5    1    4    4  501    0 -0.10021378469E+02 -0.35112764050E+02 -0.14117813115E+02  0.39371554106E+02  0.41800000000E+01 0.  1.
         -5    1    4    4    0  501  0.33433552543E+02  0.80092347406E+02 -0.14756429045E+03  0.17124625182E+03  0.41800000000E+01 0.  1.
</event>
<event>
11    1  0.5813833E-009  0.1501977E+03  0.7561462E-02  0.1096677E+00
         22   -1    0    0    0    0  0.00000000000E+00  0.00000000000E+00  0.68961898862E+03  0.68961898862E+03  0.00000000000E+00 0.  1.
         22   -1    0    0    0    0 -0.00000000000E+00 -0.00000000000E+00 -0.12052394708E+04  0.12052394708E+04  0.00000000000E+00 0.  1.
         24    2    1    2    0    0  0.71911542224E+02 -0.45803600687E+02 -0.11315904526E+04  0.11375300531E+04  0.78793588126E+02 0.  0.
         25    2    1    2    0    0 -0.52632840031E+02 -0.25616631655E+02  0.58016196888E+01  0.13824079110E+03  0.12510167811E+03 0.  0.
        -24    2    1    2    0    0 -0.19278702192E+02  0.71420232342E+02  0.61016835068E+03  0.61908761530E+03  0.74104934371E+02 0.  0.
        -13    1    3    3    0    0  0.48278765333E+02 -0.42857516590E+02 -0.10623230694E+04  0.10642828147E+04  0.00000000000E+00 0.  1.
         14    1    3    3    0    0  0.23632776891E+02 -0.29460840972E+01 -0.69267383218E+02  0.73247238398E+02  0.00000000000E+00 0. -1.
         13    1    5    5    0    0 -0.35967815971E+02  0.25000099639E+02  0.14947788213E+03  0.15576368644E+03  0.00000000000E+00 0. -1.
        -14    1    5    5    0    0  0.16689113779E+02  0.46420132704E+02  0.46069046854E+03  0.46332392885E+03  0.00000000000E+00 0.  1.
          5    1    4    4  501    0 -0.47547416439E+02 -0.71827954457E+02 -0.14300377149E+02  0.87418447928E+02  0.41800000000E+01 0. -1.
         -5    1    4    4    0  501 -0.50854235923E+01  0.46211322802E+02  0.20101996838E+02  0.50822343168E+02  0.41800000000E+01 0. -1.
</event>
<event>
11    1  0.5813833E-009  0.1622915E+03  0.7561462E-02  0.1084942E+00
         22   -1    0    0    0    0  0.00000000000E+00  0.00000000000E+00  0.10200320460E+03  0.10200320460E+03  0.00000000000E+00 0. -1.
         22   -1    0    0    0    0 -0.00000000000E+00 -0.00000000000E+00 -0.12454910709E+04  0.12454910709E+04  0.00000000000E+00 0.  1.
         24    2    1    2    0    0  0.41482645696E+02  0.16934382313E+02 -0.72753768581E+03  0.73364911322E+03  0.83200684216E+02 0.  0.
         25    2    1    2    0    0 -0.64450778189E+02 -0.11505173982E+03 -0.44600874806E+03  0.48162236945E+03  0.12508196419E+03 0.  0.
        -24    2    1    2    0    0  0.22968132493E+02  0.98117357506E+02  0.30058567553E+02  0.13222279285E+03  0.80154840850E+02 0.  0.
        -11    1    3    3    0    0  0.21897552812E+02 -0.13808880800E+02 -0.61089725127E+03  0.61144553283E+03  0.00000000000E+00 0.  1.
         12    1    3    3    0    0  0.19585092885E+02  0.30743263113E+02 -0.11664043454E+03  0.12220358039E+03  0.00000000000E+00 0. -1.
         13    1    5    5    0    0  0.44612797203E+02  0.97331828621E+02  0.23878821597E+02  0.10969951986E+03  0.00000000000E+00 0. -1.
        -14    1    5    5    0    0 -0.21644664710E+02  0.78552888508E+00  0.61797459565E+01  0.22523272989E+02  0.00000000000E+00 0.  1.
          5    1    4    4  501    0 -0.87993026580E+02 -0.12298728448E+03 -0.33168887937E+03  0.36455950128E+03  0.41800000000E+01 0. -1.
         -5    1    4    4    0  501  0.23542248391E+02  0.79355446649E+01 -0.11431986869E+03  0.11706286817E+03  0.41800000000E+01 0. -1.
</event>
<event>
11    1  0.5813833E-009  0.1295770E+03  0.7561462E-02  0.1119790E+00
         22   -1    0    0    0    0  0.00000000000E+00  0.00000000000E+00  0.16085060201E+03  0.16085060201E+03  0.00000000000E+00 0.  1.
         22   -1    0    0    0    0 -0.00000000000E+00 -0.00000000000E+00 -0.18999317645E+04  0.18999317645E+04  0.00000000000E+00 0. -1.
        -24    2    1    2    0    0 -0.23654587144E+01 -0.13394709706E+02 -0.17453021059E+04  0.17471940379E+04  0.80140823466E+02 0.  0.
         25    2    1    2    0    0 -0.38796683588E+01  0.45332716297E+02 -0.10646807241E+03  0.17044958009E+03  0.12508997529E+03 0.  0.
         24    2    1    2    0    0  0.62451270732E+01 -0.31938006591E+02  0.11268901581E+03  0.14313874853E+03  0.82041752590E+02 0.  0.
        -11    1    5    5    0    0  0.12681818596E+02 -0.59029929084E+02  0.75165155617E+02  0.96411418771E+02  0.00000000000E+00 0.  1.
         12    1    5    5    0    0 -0.64366915223E+01  0.27091922494E+02  0.37523860197E+02  0.46727329757E+02  0.00000000000E+00 0. -1.
         13    1    3    3    0    0  0.71739534983E+01  0.14433692333E+01 -0.16632985619E+04  0.16633146590E+04  0.00000000000E+00 0. -1.
        -14    1    3    3    0    0 -0.95394122128E+01 -0.14838078939E+02 -0.82003544035E+02  0.83879378910E+02  0.00000000000E+00 0.  1.
          5    1    4    4  501    0 -0.54386670770E+02 -0.10292790898E+02 -0.29719563972E+02  0.62964882153E+02  0.41800000000E+01 0.  1.
         -5    1    4    4    0  501  0.50507002411E+02  0.55625507194E+02 -0.76748508439E+02  0.10748469794E+03  0.41800000000E+01 0.  1.
</event>
<event>
11    1  0.5813833E-009  0.1482679E+03  0.7561462E-02  0.1098662E+00
         22   -1    0    0    0    0  0.00000000000E+00  0.00000000000E+00  0.45314918582E+03  0.45314918582E+03  0.00000000000E+00 0. -1.
         22   -1    0    0    0    0 -0.00000000000E+00 -0.00000000000E+00 -0.38728526523E+03  0.38728526523E+03  0.00000000000E+00 0.  1.
        -24    2    1    2    0    0  0.62439127075E+01  0.54816080492E+02 -0.24557226440E+03  0.26438907612E+03  0.80944779954E+02 0.  0.
         25    2    1    2    0    0 -0.85438354741E+02 -0.53321924650E+02 -0.72190478041E+02  0.17607154726E+03  0.12508710775E+03 0.  0.
         24    2    1    2    0    0  0.79194442033E+02 -0.14941558429E+01  0.38362666303E+03  0.39997382767E+03  0.80843392325E+02 0.  0.
        -11    1    5    5    0    0  0.26475801373E+02  0.32791527023E+02  0.85950302924E+02  0.95727252523E+02  0.00000000000E+00 0.  1.
         12    1    5    5    0    0  0.52718640660E+02 -0.34285682866E+02  0.29767636010E+03  0.30424657514E+03  0.00000000000E+00 0. -1.
         13    1    3    3    0    0  0.23102917320E+02  0.49853198640E+01 -0.15231333512E+02  0.28117462962E+02  0.00000000000E+00 0. -1.
        -14    1    3    3    0    0 -0.16859004613E+02  0.49830760628E+02 -0.23034093089E+03  0.23627161316E+03  0.00000000000E+00 0.  1.
          5    1    4    4  501    0  0.21404139947E+01  0.83386004705E+01 -0.68136894339E+02  0.68805685812E+02  0.41800000000E+01 0.  1.
         -5    1    4    4    0  501 -0.87578768736E+02 -0.61660525120E+02 -0.40535837021E+01  0.10726586145E+03  0.41800000000E+01 0.  1.
</event>
<event>
11    1  0.5813833E-009  0.3015015E+03  0.7561462E-02  0.9995577E-01
         22   -1    0    0    0    0  0.00000000000E+00  0.00000000000E+00  0.15474730215E+04  0.15474730215E+04  0.00000000000E+00 0.  1.
         22   -1    0    0    0    0 -0.00000000000E+00 -0.00000000000E+00 -0.89791175307E+03  0.89791175307E+03  0.00000000000E+00 0. -1.
         24    2    1    2    0    0  0.37967776299E+02 -0.62217135190E+00 -0.77369727610E+03  0.77868579546E+03  0.79386106293E+02 0.  0.
         25    2    1    2    0    0 -0.91737961284E+02 -0.26747820000E+03  0.11743258468E+03  0.33075527161E+03  0.12509275252E+03 0.  0.
        -24    2    1    2    0    0  0.53770184985E+02  0.26810037136E+03  0.13058259598E+04  0.13359437075E+04  0.69246735001E+02 0.  0.
        -11    1    3    3    0    0 -0.16579397261E+02 -0.21319035459E+02 -0.16461054013E+03  0.16681129340E+03  0.00000000000E+00 0.  1.
         12    1    3    3    0    0  0.54547173560E+02  0.20696864107E+02 -0.60908673597E+03  0.61187450205E+03  0.00000000000E+00 0. -1.
         13    1    5    5    0    0 -0.11323304978E+02  0.19607048788E+02  0.65684385697E+02  0.69477277741E+02  0.00000000000E+00 0. -1.
        -14    1    5    5    0    0  0.65093489963E+02  0.24849332257E+03  0.12401415741E+04  0.12664664297E+04  0.00000000000E+00 0.  1.
          5    1    4    4  501    0 -0.12155632120E+03 -0.18799420046E+03  0.78545892053E+02  0.23728608933E+03  0.41800000000E+01 0. -1.
         -5    1    4    4    0  501  0.29818359919E+02 -0.79483999541E+02  0.38886692629E+02  0.93469182274E+02  0.41800000000E+01 0. -1.
</event>
<event>
11    1  0.5813833E-009  0.1560475E+03  0.7561462E-02  0.1090855E+00
         22   -1    0    0    0    0  0.00000000000E+00  0.00000000000E+00  0.27070936479E+03  0.27070936479E+03  0.00000000000E+00 0.  1.
         22   -1    0    0    0    0 -0.00000000000E+00 -0.00000000000E+00 -0.24272960892E+04  0.24272960892E+04  0.00000000000E+00 0.  1.
         24    2    1    2    0    0 -0.51388005382E+02 -0.34924889324E+02 -0.18803678072E+04  0.18831535372E+04  0.81385990663E+02 0.  0.
         25    2    1    2    0    0 -0.42063357374E+02  0.17603830813E+02 -0.52050053103E+03  0.53725623210E+03  0.12507691725E+03 0.  0.
        -24    2    1    2    0    0  0.93451362755E+02  0.17321058511E+02  0.24428161377E+03  0.27759568470E+03  0.91393003411E+02 0.  0.
        -13    1    3    3    0    0 -0.52689005545E+02 -0.23377575671E+02 -0.18455071776E+04  0.18464071558E+04  0.00000000000E+00 0.  1.
         14    1    3    3    0    0  0.13010001631E+01 -0.11547313653E+02 -0.34860629554E+02  0.36746381413E+02  0.00000000000E+00 0. -1.
         11    1    5    5    0    0  0.60477595635E+02  0.30680549975E+02  0.62033701904E+02  0.91907648716E+02  0.00000000000E+00 0. -1.
        -12    1    5    5    0    0  0.32973767120E+02 -0.13359491464E+02  0.18224791186E+03  0.18568803599E+03  0.00000000000E+00 0.  1.
          5    1    4    4  501    0 -0.10824097596E+02  0.36187621103E+02 -0.39307268141E+02  0.54673931069E+02  0.41800000000E+01 0.  1.
         -5    1    4    4    0  501 -0.31239259777E+02 -0.18583790290E+02 -0.48119326289E+03  0.48258230103E+03  0.41800000000E+01 0.  1.
</event>
<event>
11    1  0.5813833E-009  0.1525572E+03  0.7561462E-02  0.1094294E+00
         22   -1    0    0    0    0  0.00000000000E+00  0.00000000000E+00  0.26753401776E+03  0.26753401776E+03  0.00000000000E+00 0.  1.
         22   -1    0    0    0    0 -0.00000000000E+00 -0.00000000000E+00 -0.49367531792E+03  0.49367531792E+03  0.00000000000E+00 0.  1.
        -24    2    1    2    0    0 -0.40285962316E+02 -0.13437604220E+02 -0.35806888379E+03  0.36618426313E+03  0.63828371866E+02 0.  0.
         25    2    1    2    0    0 -0.39923899762E+02 -0.32791908113E+02 -0.75089824523E+02  0.15477442762E+03  0.12508962662E+03 0.  0.
         24    2    1    2    0    0  0.80209862078E+02  0.46229512333E+02  0.20701740816E+03  0.24025064492E+03  0.79330796793E+02 0.  0.
        -11    1    5    5    0    0  0.93273078062E+02  0.24290852182E+02  0.16323932401E+03  0.18957053962E+03  0.00000000000E+00 0.  1.
         12    1    5    5    0    0 -0.13063215985E+02  0.21938660150E+02  0.43778084147E+02  0.50680105295E+02  0.00000000000E+00 0. -1.
         13    1    3    3    0    0 -0.98518908825E+01 -0.21980309586E+02 -0.41063575689E+02  0.47606837868E+02  0.00000000000E+00 0. -1.
        -14    1    3    3    0    0 -0.30434071433E+02  0.85427053663E+01 -0.31700530810E+03  0.31857742526E+03  0.00000000000E+00 0.  1.
          5    1    4    4  501    0  0.99236566881E+01 -0.11797646887E+01  0.31252704547E+02  0.33076800756E+02  0.41800000000E+01 0. -1.
         -5    1    4    4    0  501 -0.49847556450E+02 -0.31612143424E+02 -0.10634252907E+03  0.12169762687E+03  0.41800000000E+01 0. -1.
</event>
<event>
11    1  0.5813833E-009  0.1622912E+03  0.7561462E-02  0.1084942E+00
         22   -1    0    0    0    0  0.00000000000E+00  0.00000000000E+00  0.13212154312E+04  0.13212154312E+04  0.00000000000E+00 0.  1.
         22   -1    0    0    0    0 -0.00000000000E+00 -0.00000000000E+00 -0.24215435815E+03  0.24215435815E+03  0.00000000000E+00 0.  1.
        -24    2    1    2    0    0  0.49913502620E+02 -0.64698712299E+02 -0.20058522367E+03  0.23239695169E+03  0.84241498569E+02 0.  0.
         25    2    1    2    0    0  0.45043368258E+02  0.11054562424E+03  0.33616438895E+03  0.37802440953E+03  0.12508684078E+03 0.  0.
         24    2    1    2    0    0 -0.94956870878E+02 -0.45846911944E+02  0.94348190781E+03  0.95294842816E+03  0.82667101726E+02 0.  0.
        -11    1    5    5    0    0 -0.10672902974E+03 -0.24340496862E+02  0.77171571504E+03  0.77944126810E+03  0.00000000000E+00 0.  1.
         12    1    5    5    0    0  0.11772158862E+02 -0.21506415082E+02  0.17176619276E+03  0.17350716006E+03  0.00000000000E+00 0. -1.
         11    1    3    3    0    0 -0.13323217435E+02 -0.37860107238E+01 -0.46057170335E+00  0.13858359438E+02  0.00000000000E+00 0. -1.
        -12    1    3    3    0    0  0.63236720055E+02 -0.60912701575E+02 -0.20012465197E+03  0.21853859225E+03  0.00000000000E+00 0.  1.
          5    1    4    4  501    0 -0.12860029143E+02  0.99631115499E+02  0.27584550370E+03  0.29359828650E+03  0.41800000000E+01 0. -1.
         -5    1    4    4    0  501  0.57903397401E+02  0.10914508743E+02  0.60318885258E+02  0.84426123033E+02  0.41800000000E+01 0. -1.
</event>
<event>
11    1  0.5813833E-009  0.1357935E+03  0.7561462E-02  0.1112349E+00
         22   -1    0    0    0    0  0.00000000000E+00  0.00000000000E+00  0.15681501917E+04  0.15681501917E+04  0.00000000000E+00 0. -1.
         22   -1    0    0    0    0 -0.00000000000E+00 -0.00000000000E+00 -0.13716328154E+04  0.13716328154E+04  0.00000000000E+00 0.  1.
        -24    2    1    2    0    0  0.13555593806E+01  0.53940918259E+02 -0.13445526164E+04  0.13480374169E+04  0.80446746777E+02 0.  0.
         25    2    1    2    0    0  0.29292002330E+02 -0.71056270580E+01  0.15190312732E+03  0.19907590465E+03  0.12509254329E+03 0.  0.
         24    2    1    2    0    0 -0.30647561711E+02 -0.46835291201E+02  0.13891668654E+04  0.13926696855E+04  0.81310856627E+02 0.  0.
        -13    1    5    5    0    0 -0.54744060784E+01 -0.36806836309E+02  0.21543955345E+03  0.21862962634E+03  0.00000000000E+00 0.  1.
         14    1    5    5    0    0 -0.25173155632E+02 -0.10028454893E+02  0.11737273119E+04  0.11740400591E+04  0.00000000000E+00 0. -1.
         11    1    3    3    0    0  0.20930899723E+02  0.18483442443E+02 -0.13756676752E+03  0.14037220427E+03  0.00000000000E+00 0. -1.
        -12    1    3    3    0    0 -0.19575340342E+02  0.35457475816E+02 -0.12069858488E+04  0.12076652127E+04  0.00000000000E+00 0.  1.
          5    1    4    4  501    0  0.42550716495E+02  0.10572077256E+02  0.16652516488E+03  0.17225108194E+03  0.41800000000E+01 0. -1.
         -5    1    4    4    0  501 -0.13258714165E+02 -0.17677704314E+02 -0.14622037559E+02  0.26824822711E+02  0.41800000000E+01 0. -1.
</event>
<event>
11    1  0.5813833E-009  0.1458040E+03  0.7561462E-02  0.1101245E+00
         22   -1    0    0    0    0  0.00000000000E+00  0.00000000000E+00  0.92005549853E+03  0.92005549853E+03  0.00000000000E+00 0.  1.
         22   -1    0    0    0    0 -0.00000000000E+00 -0.00000000000E+00 -0.65907267500E+03  0.65907267500E+03  0.00000000000E+00 0. -1.
        -24    2    1    2    0    0  0.79361360904E+02 -0.66420515514E+01 -0.53030265651E+03  0.54276738819E+03  0.83864102730E+02 0.  0.
         25    2    1    2    0    0 -0.47365660806E+02 -0.18337892893E+02 -0.82372736082E+02  0.15815443644E+03  0.12509106273E+03 0.  0.
         24    2    1    2    0    0 -0.31995700099E+02  0.24979944444E+02  0.87365821612E+03  0.87820634890E+03  0.79498366064E+02 0.  0.
        -11    1    5    5    0    0 -0.10590743651E+02 -0.35960542607E+01  0.73306945816E+03  0.73315477626E+03  0.00000000000E+00 0.  1.
         12    1    5    5    0    0 -0.21404956448E+02  0.28575998705E+02  0.14058875795E+03  0.14505157264E+03  0.00000000000E+00 0. -1.
         11    1    3    3    0    0  0.88770894850E+02 -0.17778003528E+02 -0.50877764072E+03  0.51676979098E+03  0.00000000000E+00 0. -1.
        -12    1    3    3    0    0 -0.94095339458E+01  0.11135951976E+02 -0.21525015798E+02  0.25997597208E+02  0.00000000000E+00 0.  1.
          5    1    4    4  501    0  0.26587384791E+02  0.34587422440E+02 -0.30266626602E+02  0.53260866562E+02  0.41800000000E+01 0. -1.
         -5    1    4    4    0  501 -0.73953045596E+02 -0.52925315333E+02 -0.52106109479E+02  0.10489356988E+03  0.41800000000E+01 0. -1.
</event>
<event>
11    1  0.5813833E-009  0.1339102E+03  0.7561462E-02  0.1114556E+00
         22   -1    0    0    0    0  0.00000000000E+00  0.00000000000E+00  0.44664093926E+03  0.44664093926E+03  0.00000000000E+00 0. -1.
         22   -1    0    0    0    0 -0.00000000000E+00 -0.00000000000E+00 -0.15336675799E+03  0.15336675799E+03  0.00000000000E+00 0.  1.
         24    2    1    2    0    0  0.83887874869E+01 -0.48184709554E-01 -0.11078124060E+03  0.13567040119E+03  0.77869123625E+02 0.  0.
         25    2    1    2    0    0 -0.52200576020E+02 -0.77175163861E+01  0.23579161094E+03  0.27208633578E+03  0.12509528422E+03 0.  0.
        -24    2    1    2    0    0  0.43811788533E+02  0.77657010957E+01  0.16826381094E+03  0.19225096028E+03  0.81657471974E+02 0.  0.
        -13    1    3    3    0    0  0.47773276790E+01 -0.34188447025E+00 -0.12291444106E+03  0.12300772157E+03  0.00000000000E+00 0.  1.
         14    1    3    3    0    0  0.36114598079E+01  0.29369976069E+00  0.12133200468E+02  0.12662679617E+02  0.00000000000E+00 0. -1.
         13    1    5    5    0    0  0.23531394633E+02  0.18169901204E+02  0.16678017909E+03  0.16940926770E+03  0.00000000000E+00 0. -1.
        -14    1    5    5    0    0  0.20280393900E+02 -0.10404200108E+02  0.14836318452E+01  0.22841692584E+02  0.00000000000E+00 0.  1.
          5    1    4    4  501    0 -0.62333749622E+02  0.30375186463E+02  0.59721153587E+02  0.91609152820E+02  0.41800000000E+01 0.  1.
         -5    1    4    4    0  501  0.10133173602E+02 -0.38092702849E+02  0.17607045735E+03  0.18047718296E+03  0.41800000000E+01 0.  1.
</event>
<event>
11    1  0.5813833E-009  0.1387463E+03  0.7561462E-02  0.1108966E+00
         22   -1    0    0    0    0  0.00000000000E+00  0.00000000000E+00  0.13034278235E+04  0.13034278235E+04  0.00000000000E+00 0.  1.
         22   -1    0    0    0    0 -0.00000000000E+00 -0.00000000000E+00 -0.11760380330E+04  0.11760380330E+04  0.00000000000E+00 0. -1.
        -24    2    1    2    0    0 -0.11198134964E+02  0.26773128400E+02 -0.10648001268E+04  0.10685058760E+04  0.84043431826E+02 0.  0.
         25    2    1    2    0    0  0.52175529202E+02 -0.69909976507E+02 -0.53022153673E+02  0.16145588889E+03  0.12508782761E+03 0.  0.
         24    2    1    2    0    0 -0.40977394237E+02  0.43136848107E+02  0.12452120710E+04  0.12495040916E+04  0.84660726332E+02 0.  0.
        -11    1    5    5    0    0 -0.48025784219E+02  0.14009434053E+02  0.11046813200E+04  0.11058135281E+04  0.00000000000E+00 0.  1.
         12    1    5    5    0    0  0.70483899812E+01  0.29127414054E+02  0.14053075095E+03  0.14369056341E+03  0.00000000000E+00 0. -1.
         11    1    3    3    0    0  0.84181057347E+01 -0.22003520577E+02 -0.12277619872E+03  0.12501605654E+03  0.00000000000E+00 0. -1.
        -12    1    3    3    0    0 -0.19616240699E+02  0.48776648977E+02 -0.94202392810E+03  0.94348981950E+03  0.00000000000E+00 0.  1.
          5    1    4    4  501    0 -0.25954461110E+02 -0.13752419396E+01  0.21097265616E+02  0.33735624470E+02  0.41800000000E+01 0.  1.
         -5    1    4    4    0  501  0.78129990312E+02 -0.68534734568E+02 -0.74119419289E+02  0.12772026442E+03  0.41800000000E+01 0.  1.
</event>
<event>
11    1  0.5813833E-009  0.2559286E+03  0.7561462E-02  0.1020788E+00
         22   -1    0    0    0    0  0.00000000000E+00  0.00000000000E+00  0.14746605402E+03  0.14746605402E+03  0.00000000000E+00 0. -1.
         22   -1    0    0    0    0 -0.00000000000E+00 -0.00000000000E+00 -0.15148743197E+04  0.15148743197E+04  0.00000000000E+00 0. -1.
        -24    2    1    2    0    0 -0.47007237557E+02  0.62405494126E+01 -0.10163956924E+04  0.10208815067E+04  0.83007362565E+02 0.  0.
         25    2    1    2    0    0 -0.11829788847E+03 -0.16832365844E+03 -0.31056651535E+03  0.39297124223E+03  0.12509033678E+03 0.  0.
         24    2    1    2    0    0  0.16530512603E+03  0.16208310903E+03 -0.40446057917E+02  0.24848762483E+03  0.80706239966E+02 0.  0.
        -11    1    5    5    0    0  0.40098609670E+02  0.91368954265E+02 -0.30546595035E+02  0.10435170707E+03  0.00000000000E+00 0.  1.
         12    1    5    5    0    0  0.12520651636E+03  0.70714154767E+02 -0.98994628822E+01  0.14413591776E+03  0.00000000000E+00 0. -1.
         13    1    3    3    0    0 -0.37676628232E+02 -0.26302282746E+02 -0.84065039460E+03  0.84190523477E+03  0.00000000000E+00 0. -1.
        -14    1    3    3    0    0 -0.93306093248E+01  0.32542832158E+02 -0.17574529781E+03  0.17897627188E+03  0.00000000000E+00 0.  1.
          5    1    4    4  501    0 -0.34218642787E+02 -0.11149858279E+03 -0.81352227110E+02  0.14226210576E+03  0.41800000000E+01 0. -1.
         -5    1    4    4    0  501 -0.84079245686E+02 -0.56825075651E+02 -0.22921428824E+03  0.25070913648E+03  0.41800000000E+01 0. -1.
</event>
<event>
11    1  0.5813833E-009  0.1552308E+03  0.7561462E-02  0.1091651E+00
         22   -1    0    0    0    0  0.00000000000E+00  0.00000000000E+00  0.48263486108E+03  0.48263486108E+03  0.00000000000E+00 0.  1.
         22   -1    0    0    0    0 -0.00000000000E+00 -0.00000000000E+00 -0.84798290434E+03  0.84798290434E+03  0.00000000000E+00 0. -1.
        -24    2    1    2    0    0  0.67485275577E+02  0.64855116957E+02 -0.80223167139E+03  0.81136256597E+03  0.77285899489E+02 0.  0.
         25    2    1    2    0    0 -0.46473291682E+02 -0.15464427254E+02  0.96830092636E+02  0.16558579547E+03  0.12507467158E+03 0.  0.
         24    2    1    2    0    0 -0.21011983895E+02 -0.49390689703E+02  0.34005353549E+03  0.35366940399E+03  0.81022815460E+02 0.  0.
        -11    1    5    5    0    0  0.18321059767E+02 -0.29878640599E+02  0.26012219294E+03  0.26247275983E+03  0.00000000000E+00 0.  1.
         12    1    5    5    0    0 -0.39333043662E+02 -0.19512049104E+02  0.79931342546E+02  0.91196644155E+02  0.00000000000E+00 0. -1.
         11    1    3    3    0    0  0.66944780645E+02  0.38060029355E+02 -0.35158598888E+03  0.35992065385E+03  0.00000000000E+00 0. -1.
        -12    1    3    3    0    0  0.54049493272E+00  0.26795087602E+02 -0.45064568250E+03  0.45144191212E+03  0.00000000000E+00 0.  1.
          5    1    4    4  501    0 -0.55493662675E+02  0.45083729934E+02  0.63720342970E+02  0.95863673047E+02  0.41800000000E+01 0. -1.
         -5    1    4    4    0  501  0.90203709923E+01 -0.60548157188E+02  0.33109749665E+02  0.69722122419E+02  0.41800000000E+01 0. -1.
</event>
<event>
11    1  0.5813833E-009  0.1591894E+03  0.7561462E-02  0.1087842E+00
         22   -1    0    0    0    0  0.00000000000E+00  0.00000000000E+00  0.13765976354E+04  0.13765976354E+04  0.00000000000E+00 0. -1.
         22   -1    0    0    0    0 -0.00000000000E+00 -0.00000000000E+00 -0.51012793446E+03  0.51012793446E+03  0.00000000000E+00 0.  1.
        -24    2    1    2    0    0 -0.10566320021E+02 -0.69543386241E+02 -0.37512083662E+03  0.38992102487E+03  0.79842556850E+02 0.  0.
         25    2    1    2    0    0  0.90511308979E+02  0.12498822918E+03 -0.45333070557E+02  0.20375708543E+03  0.12508999995E+03 0.  0.
         24    2    1    2    0    0 -0.79944988958E+02 -0.55444842939E+02  0.12869236081E+04  0.12930474596E+04  0.79586604813E+02 0.  0.
        -13    1    5    5    0    0 -0.56632766339E+02  0.80784051368E+01  0.51663109547E+03  0.51978862979E+03  0.00000000000E+00 0.  1.
         14    1    5    5    0    0 -0.23312222619E+02 -0.63523248076E+02  0.77029251265E+03  0.77325882977E+03  0.00000000000E+00 0. -1.
         13    1    3    3    0    0 -0.41216681214E+02 -0.43446723936E+02 -0.15534121000E+03  0.16648520701E+03  0.00000000000E+00 0. -1.
        -14    1    3    3    0    0  0.30650361193E+02 -0.26096662305E+02 -0.21977962662E+03  0.22343581786E+03  0.00000000000E+00 0.  1.
          5    1    4    4  501    0 -0.26298355536E+02  0.57545107608E+02 -0.93283988546E+01  0.64090048671E+02  0.41800000000E+01 0. -1.
         -5    1    4    4    0  501  0.11680966452E+03  0.67443121572E+02 -0.36004671702E+02  0.13966703675E+03  0.41800000000E+01 0. -1.
</event>
<event>
11    1  0.5813833E-009  0.1359801E+03  0.7561462E-02  0.1112132E+00
         22   -1    0    0    0    0  0.00000000000E+00  0.00000000000E+00  0.60380165101E+03  0.60380165101E+03  0.00000000000E+00 0. -1.
         22   -1    0    0    0    0 -0.00000000000E+00 -0.00000000000E+00 -0.77942826640E+03  0.77942826640E+03  0.00000000000E+00 0. -1.
        -24    2    1    2    0    0  0.48428226904E+02  0.14389826776E+02 -0.60100957154E+03  0.60812689923E+03  0.77803985856E+02 0.  0.
         25    2    1    2    0    0 -0.70374957385E+02 -0.38206389062E+02 -0.13948067581E+03  0.20375170003E+03  0.12509010172E+03 0.  0.
         24    2    1    2    0    0  0.21946730481E+02  0.23816562286E+02  0.56486363196E+03  0.57135131816E+03  0.79514265624E+02 0.  0.
        -11    1    5    5    0    0  0.32848847739E+02 -0.97396746740E+01  0.11220070477E+03  0.11731541335E+03  0.00000000000E+00 0.  1.
         12    1    5    5    0    0 -0.10902117258E+02  0.33556236960E+02  0.45266292719E+03  0.45403590481E+03  0.00000000000E+00 0. -1.
         13    1    3    3    0    0  0.37769286560E+02 -0.21071585989E+02 -0.46997640900E+03  0.47196223976E+03  0.00000000000E+00 0. -1.
        -14    1    3    3    0    0  0.10658940344E+02  0.35461412765E+02 -0.13103316253E+03  0.13616465947E+03  0.00000000000E+00 0.  1.
          5    1    4    4  501    0 -0.97139588610E+02 -0.10998533802E+02 -0.58175723118E+02  0.11383740414E+03  0.41800000000E+01 0. -1.
         -5    1    4    4    0  501  0.26764631225E+02 -0.27207855260E+02 -0.81304952691E+02  0.89914295885E+02  0.41800000000E+01 0. -1.
</event>
<event>
11    1  0.5813833E-009  0.1323987E+03  0.7561462E-02  0.1116356E+00
         22   -1    0    0    0    0  0.00000000000E+00  0.00000000000E+00  0.73872530985E+03  0.73872530985E+03  0.00000000000E+00 0.  1.
         22   -1    0    0    0    0 -0.00000000000E+00 -0.00000000000E+00 -0.22954164325E+03  0.22954164325E+03  0.00000000000E+00 0. -1.
        -24    2    1    2    0    0 -0.19881414794E+02  0.45595307465E+01 -0.19140074226E+03  0.20892057262E+03  0.81225005701E+02 0.  0.
         25    2    1    2    0    0  0.13525362121E+01 -0.44317745701E+02  0.14631562006E+03  0.19753656319E+03  0.12508613506E+03 0.  0.
         24    2    1    2    0    0  0.18528878582E+02  0.39758214954E+02  0.55426878880E+03  0.56180981730E+03  0.80575092781E+02 0.  0.
        -11    1    5    5    0    0  0.15368708223E+02  0.28720302578E+02  0.54752760619E+03  0.54849569963E+03  0.00000000000E+00 0.  1.
         12    1    5    5    0    0  0.31601703584E+01  0.11037912377E+02  0.67411826128E+01  0.13314117671E+02  0.00000000000E+00 0. -1.
         13    1    3    3    0    0 -0.43933456900E+02 -0.16828278641E+02 -0.78467675565E+02  0.91490522492E+02  0.00000000000E+00 0. -1.
        -14    1    3    3    0    0  0.24052042106E+02  0.21387809388E+02 -0.11293306670E+03  0.11743005013E+03  0.00000000000E+00 0.  1.
          5    1    4    4  501    0  0.25954361649E+02  0.27492503288E+02  0.67841242112E+01  0.38638884132E+02  0.41800000000E+01 0. -1.
         -5    1    4    4    0  501 -0.24601825437E+02 -0.71810248989E+02  0.13953149585E+03  0.15889767905E+03  0.41800000000E+01 0. -1.
</event>
<event>
11    1  0.7834911E-009  0.1775817E+03  0.7561462E-02  0.1071616E+00
         22   -1    0    0    0    0  0.00000000000E+00  0.00000000000E+00  0.13525447509E+04  0.13525447509E+04  0.00000000000E+00 0. -1.
         22   -1    0    0    0    0 -0.00000000000E+00 -0.00000000000E+00 -0.37666256019E+03  0.37666256019E+03  0.00000000000E+00 0. -1.
        -24    2    1    2    0    0  0.56755819190E+02 -0.82887733232E+02 -0.25086260493E+03  0.28201276214E+03  0.80669400177E+02 0.  0.
         25    2    1    2    0    0 -0.62353408939E+02  0.20532768752E+03  0.40077732178E+02  0.25159799454E+03  0.12509164388E+03 0.  0.
         24    2    1    2    0    0  0.55975897487E+01 -0.12243995429E+03  0.11866670634E+04  0.11955965544E+04  0.79053943625E+02 0.  0.
        -11    1    5    5    0    0  0.22583461025E+02 -0.43005051378E+00  0.19831619446E+03  0.19959837335E+03  0.00000000000E+00 0.  1.
         12    1    5    5    0    0 -0.16985871277E+02 -0.12200990378E+03  0.98835086897E+03  0.99599818104E+03  0.00000000000E+00 0. -1.
         11    1    3    3    0    0  0.46109380130E+02 -0.98703967512E+02 -0.20092558209E+03  0.22855992141E+03  0.00000000000E+00 0. -1.
        -12    1    3    3    0    0  0.10646439061E+02  0.15816234280E+02 -0.49937022845E+02  0.53452840730E+02  0.00000000000E+00 0.  1.
          5    1    4    4  501    0 -0.29477920848E+02 -0.20069155975E+01  0.28576740037E+02  0.41316800444E+02  0.41800000000E+01 0.  1.
         -5    1    4    4    0  501 -0.32875488091E+02  0.20733460312E+03  0.11500992140E+02  0.21028119409E+03  0.41800000000E+01 0.  1.
</event>
<event>
11    1  0.5813833E-009  0.1650754E+03  0.7561462E-02  0.1082399E+00
         22   -1    0    0    0    0  0.00000000000E+00  0.00000000000E+00  0.16835419343E+04  0.16835419343E+04  0.00000000000E+00 0. -1.
         22   -1    0    0    0    0 -0.00000000000E+00 -0.00000000000E+00 -0.35060901875E+02  0.35060901875E+02  0.00000000000E+00 0. -1.
         24    2    1    2    0    0  0.70233347829E+02  0.48576907473E+01  0.15658629555E+03  0.18929135788E+03  0.79722204612E+02 0.  0.
         25    2    1    2    0    0 -0.12059873321E+02  0.96291850271E+02  0.43573431053E+03  0.46360474755E+03  0.12508961430E+03 0.  0.
        -24    2    1    2    0    0 -0.58173474509E+02 -0.10114954102E+03  0.10561604264E+04  0.10657067308E+04  0.81489919542E+02 0.  0.
        -13    1    3    3    0    0  0.68292984730E+02  0.34189686229E+02  0.10376408832E+03  0.12884041459E+03  0.00000000000E+00 0.  1.
         14    1    3    3    0    0  0.19403630998E+01 -0.29331995482E+02  0.52822207231E+02  0.60450943290E+02  0.00000000000E+00 0. -1.
         11    1    5    5    0    0  0.52904458994E+01 -0.70805053272E+02  0.46821100454E+03  0.47356402857E+03  0.00000000000E+00 0. -1.
        -12    1    5    5    0    0 -0.63463920408E+02 -0.30344487746E+02  0.58794942183E+03  0.59214270219E+03  0.00000000000E+00 0.  1.
          5    1    4    4  501    0  0.10068135691E+02  0.47483086535E+02  0.38999154556E+03  0.39302275872E+03  0.41800000000E+01 0. -1.
         -5    1    4    4    0  501 -0.22128009012E+02  0.48808763736E+02  0.45742764969E+02  0.70581988830E+02  0.41800000000E+01 0. -1.
</event>
<event>
11    1  0.5813833E-009  0.1548635E+03  0.7561462E-02  0.1092010E+00
         22   -1    0    0    0    0  0.00000000000E+00  0.00000000000E+00  0.49397601521E+03  0.49397601521E+03  0.00000000000E+00 0.  1.
         22   -1    0    0    0    0 -0.00000000000E+00 -0.00000000000E+00 -0.56135729011E+03  0.56135729011E+03  0.00000000000E+00 0.  1.
         24    2    1    2    0    0 -0.52819095475E+02 -0.78743756606E+02 -0.49587352907E+03  0.51112906680E+03  0.79824369993E+02 0.  0.
         25    2    1    2    0    0 -0.23824085321E+02  0.66477885199E+02  0.54681173541E+02  0.15370501227E+03  0.12509318045E+03 0.  0.
        -24    2    1    2    0    0  0.76643180796E+02  0.12265871408E+02  0.37381108062E+03  0.39049922626E+03  0.82038362649E+02 0.  0.
        -13    1    3    3    0    0 -0.61272027162E+02 -0.45417181556E+02 -0.43111397302E+03  0.43780845061E+03  0.00000000000E+00 0.  1.
         14    1    3    3    0    0  0.84529316864E+01 -0.33326575050E+02 -0.64759556050E+02  0.73320616190E+02  0.00000000000E+00 0. -1.
         11    1    5    5    0    0 -0.17320101090E+02  0.70648259184E+01  0.55420539857E+02  0.58492169605E+02  0.00000000000E+00 0. -1.
        -12    1    5    5    0    0  0.93963281886E+02  0.52010454893E+01  0.31839054077E+03  0.33200705665E+03  0.00000000000E+00 0.  1.
          5    1    4    4  501    0 -0.35778661683E+02 -0.27593572507E+02  0.26353292150E+01  0.45452560276E+02  0.41800000000E+01 0. -1.
         -5    1    4    4    0  501  0.11954576362E+02  0.94071457706E+02  0.52045844326E+02  0.10825245199E+03  0.41800000000E+01 0. -1.
</event>
<event>
11    1  0.5813833E-009  0.1582481E+03  0.7561462E-02  0.1088737E+00
         22   -1    0    0    0    0  0.00000000000E+00  0.00000000000E+00  0.33200925500E+03  0.33200925500E+03  0.00000000000E+00 0.  1.
         22   -1    0    0    0    0 -0.00000000000E+00 -0.00000000000E+00 -0.42664517528E+03  0.42664517528E+03  0.00000000000E+00 0. -1.
         24    2    1    2    0    0 -0.47043427007E+02  0.61468950792E+02 -0.10563384754E+03  0.15336595858E+03  0.79819117813E+02 0.  0.
         25    2    1    2    0    0  0.47801117820E+02 -0.10951596305E+03 -0.26364970018E+03  0.31533868532E+03  0.12509448039E+03 0.  0.
        -24    2    1    2    0    0 -0.75769081352E+00  0.48047012256E+02  0.27464762744E+03  0.28994978639E+03  0.79564250066E+02 0.  0.
        -11    1    3    3    0    0  0.16387216082E+02  0.19751296728E+01  0.43592897997E-01  0.16505874363E+02  0.00000000000E+00 0.  1.
         12    1    3    3    0    0 -0.63430643088E+02  0.59493821119E+02 -0.10567744043E+03  0.13686008421E+03  0.00000000000E+00 0. -1.
         13    1    5    5    0    0  0.15814111387E+02  0.74856997690E+01  0.71722394228E+01  0.18909332043E+02  0.00000000000E+00 0. -1.
        -14    1    5    5    0    0 -0.16571802200E+02  0.40561312487E+02  0.26747538802E+03  0.27104045435E+03  0.00000000000E+00 0.  1.
          5    1    4    4  501    0  0.85887849827E+02 -0.45800942998E+02 -0.13075924442E+03  0.16306410252E+03  0.41800000000E+01 0.  1.
         -5    1    4    4    0  501 -0.38086732007E+02 -0.63715020050E+02 -0.13289045576E+03  0.15227458280E+03  0.41800000000E+01 0.  1.
</event>
<event>
11    1  0.5813833E-009  0.1437865E+03  0.7561462E-02  0.1103402E+00
         22   -1    0    0    0    0  0.00000000000E+00  0.00000000000E+00  0.49671220375E+02  0.49671220375E+02  0.00000000000E+00 0. -1.
         22   -1    0    0    0    0 -0.00000000000E+00 -0.00000000000E+00 -0.25361834708E+04  0.25361834708E+04  0.00000000000E+00 0. -1.
        -24    2    1    2    0    0  0.73914164429E+02  0.14287556832E+02 -0.19205862086E+04  0.19237633710E+04  0.80911589060E+02 0.  0.
         25    2    1    2    0    0 -0.42608020549E+02 -0.31619706350E+02 -0.55837070727E+03  0.57466550578E+03  0.12508935823E+03 0.  0.
         24    2    1    2    0    0 -0.31306143880E+02  0.17332149518E+02 -0.75553346086E+01  0.87425814382E+02  0.79408512691E+02 0.  0.
        -13    1    5    5    0    0  0.74770752962E+01 -0.21548509882E+02 -0.20872234260E+02  0.30917553204E+02  0.00000000000E+00 0.  1.
         14    1    5    5    0    0 -0.38783219176E+02  0.38880659400E+02  0.13316899652E+02  0.56508261178E+02  0.00000000000E+00 0. -1.
         11    1    3    3    0    0  0.41490155573E+02  0.22730718475E+02 -0.16989853250E+04  0.16996438607E+04  0.00000000000E+00 0. -1.
        -12    1    3    3    0    0  0.32424008856E+02 -0.84431616437E+01 -0.22160088356E+03  0.22411951036E+03  0.00000000000E+00 0.  1.
          5    1    4    4  501    0  0.43049712905E+02 -0.29120691199E+01 -0.13683235962E+03  0.14353510012E+03  0.41800000000E+01 0. -1.
         -5    1    4    4    0  501 -0.85657733454E+02 -0.28707637230E+02 -0.42153834766E+03  0.43113040565E+03  0.41800000000E+01 0. -1.
</event>
<event>
11    1  0.5813833E-009  0.2071437E+03  0.7561462E-02  0.1049584E+00
         22   -1    0    0    0    0  0.00000000000E+00  0.00000000000E+00  0.43791713654E+03  0.43791713654E+03  0.00000000000E+00 0. -1.
         22   -1    0    0    0    0 -0.00000000000E+00 -0.00000000000E+00 -0.14219291485E+04  0.14219291485E+04  0.00000000000E+00 0. -1.
         24    2    1    2    0    0  0.16387661824E+03  0.18775179648E+02 -0.13290501672E+04  0.13416770433E+04  0.80714856674E+02 0.  0.
         25    2    1    2    0    0 -0.16975403900E+03 -0.13490289504E+00  0.57277915734E+02  0.21850224937E+03  0.12508405732E+03 0.  0.
        -24    2    1    2    0    0  0.58774207560E+01 -0.18640276753E+02  0.28776023953E+03  0.29966699239E+03  0.81316338345E+02 0.  0.
        -11    1    3    3    0    0  0.14148129839E+02  0.29812910112E+02 -0.20357812097E+03  0.20623537651E+03  0.00000000000E+00 0.  1.
         12    1    3    3    0    0  0.14972848840E+03 -0.11037730464E+02 -0.11254720462E+04  0.11354416667E+04  0.00000000000E+00 0. -1.
         11    1    5    5    0    0  0.10459210668E+02  0.18128203265E+01  0.27483965639E+03  0.27504457481E+03  0.00000000000E+00 0. -1.
        -12    1    5    5    0    0 -0.45817899120E+01 -0.20453097079E+02  0.12920583135E+02  0.24622417580E+02  0.00000000000E+00 0.  1.
          5    1    4    4  501    0 -0.10204051407E+03 -0.40899667114E+02  0.80154343414E+02  0.13611480614E+03  0.41800000000E+01 0. -1.
         -5    1    4    4    0  501 -0.67713524927E+02  0.40764764219E+02 -0.22876427680E+02  0.82387443238E+02  0.41800000000E+01 0. -1.
</event>
<event>
11    1  0.5813833E-009  0.3521620E+03  0.7561462E-02  0.9802511E-01
         22   -1    0    0    0    0  0.00000000000E+00  0.00000000000E+00  0.19073410570E+04  0.19073410570E+04  0.00000000000E+00 0. -1.
         22   -1    0    0    0    0 -0.00000000000E+00 -0.00000000000E+00 -0.63832917640E+03  0.63832917640E+03  0.00000000000E+00 0.  1.
        -24    2    1    2    0    0  0.10770979040E+03 -0.31774892628E+03 -0.47128569750E+03  0.58402212686E+03  0.80036597185E+02 0.  0.
         25    2    1    2    0    0 -0.24012975830E+02  0.30761524315E+03  0.14657446840E+03  0.36377848281E+03  0.12508776495E+03 0.  0.
         24    2    1    2    0    0 -0.83696814573E+02  0.10133683130E+02  0.15937231097E+04  0.15978696237E+04  0.78269634741E+02 0.  0.
        -11    1    5    5    0    0 -0.49264764082E+02 -0.25499389713E+02  0.50870162323E+03  0.51171728262E+03  0.00000000000E+00 0.  1.
         12    1    5    5    0    0 -0.34432050491E+02  0.35633072843E+02  0.10850214865E+04  0.10861523411E+04  0.00000000000E+00 0. -1.
         11    1    3    3    0    0  0.97434864148E+02 -0.17532595071E+03 -0.30219325449E+03  0.36270305320E+03  0.00000000000E+00 0. -1.
        -12    1    3    3    0    0  0.10274926255E+02 -0.14242297557E+03 -0.16909244302E+03  0.22131907366E+03  0.00000000000E+00 0.  1.
          5    1    4    4  501    0  0.11766484743E+02  0.14269633576E+02  0.48996818998E+02  0.52537922280E+02  0.41800000000E+01 0. -1.
         -5    1    4    4    0  501 -0.35779460573E+02  0.29334560957E+03  0.97577649399E+02  0.31124056053E+03  0.41800000000E+01 0. -1.
</event>
<event>
11    1  0.5813833E-009  0.1295371E+03  0.7561462E-02  0.1119839E+00
         22   -1    0    0    0    0  0.00000000000E+00  0.00000000000E+00  0.18148979137E+04  0.18148979137E+04  0.00000000000E+00 0.  1.
         22   -1    0    0    0    0 -0.00000000000E+00 -0.00000000000E+00 -0.52786738283E+03  0.52786738283E+03  0.00000000000E+00 0. -1.
         24    2    1    2    0    0 -0.14411981462E+02 -0.47417656646E+01 -0.51720959805E+03  0.52398479721E+03  0.82608170564E+02 0.  0.
         25    2    1    2    0    0  0.43282212291E+02  0.11984354482E+02  0.81056095142E+03  0.82138586236E+03  0.12509478113E+03 0.  0.
        -24    2    1    2    0    0 -0.28870230830E+02 -0.72425888173E+01  0.99367917748E+03  0.99739463694E+03  0.80695778875E+02 0.  0.
        -11    1    3    3    0    0 -0.45702704489E+02 -0.26527459365E+01 -0.19728813267E+03  0.20252995224E+03  0.00000000000E+00 0.  1.
         12    1    3    3    0    0  0.31290723027E+02 -0.20890197282E+01 -0.31992146537E+03  0.32145484497E+03  0.00000000000E+00 0. -1.
         11    1    5    5    0    0  0.23743972150E+02 -0.18693872684E+02  0.26206408608E+03  0.26380072461E+03  0.00000000000E+00 0. -1.
        -12    1    5    5    0    0 -0.52614202980E+02  0.11451283866E+02  0.73161509139E+03  0.73359391233E+03  0.00000000000E+00 0.  1.
          5    1    4    4  501    0  0.69670258970E+02  0.83782133917E+01  0.76660314027E+03  0.76981945059E+03  0.41800000000E+01 0. -1.
         -5    1    4    4    0  501 -0.26388046679E+02  0.36061410902E+01  0.43957811150E+02  0.51566411764E+02  0.41800000000E+01 0. -1.
</event>
<event>
11    1  0.5813833E-009  0.1300049E+03  0.7561462E-02  0.1119263E+00
         22   -1    0    0    0    0  0.00000000000E+00  0.00000000000E+00  0.61142789381E+03  0.61142789381E+03  0.00000000000E+00 0.  1.
         22   -1    0    0    0    0 -0.00000000000E+00 -0.00000000000E+00 -0.11926948121E+03  0.11926948121E+03  0.00000000000E+00 0. -1.
        -24    2    1    2    0    0  0.52217672346E+02  0.18741421816E+02 -0.45490432098E+02  0.10795515706E+03  0.80666041966E+02 0.  0.
         25    2    1    2    0    0 -0.42219877580E+02  0.19665737795E+02  0.89299258520E+02  0.16059755602E+03  0.12509179878E+03 0.  0.
         24    2    1    2    0    0 -0.99977947666E+01 -0.38407159611E+02  0.44834958617E+03  0.46214466193E+03  0.10481064510E+03 0.  0.
        -13    1    5    5    0    0 -0.35735218272E+02 -0.11254757440E+02  0.39617715087E+03  0.39794473267E+03  0.00000000000E+00 0.  1.
         14    1    5    5    0    0  0.25737423505E+02 -0.27152402170E+02  0.52172435301E+02  0.64199929265E+02  0.00000000000E+00 0. -1.
         13    1    3    3    0    0  0.34206179577E+02 -0.19316307699E+02 -0.52188620159E+02  0.65321011462E+02  0.00000000000E+00 0. -1.
        -14    1    3    3    0    0  0.18011492770E+02  0.38057729514E+02  0.66981880613E+01  0.42634145598E+02  0.00000000000E+00 0.  1.
          5    1    4    4  501    0  0.29607388517E+02  0.31354875388E+02  0.74553457359E+02  0.86228858682E+02  0.41800000000E+01 0.  1.
         -5    1    4    4    0  501 -0.71827266096E+02 -0.11689137593E+02  0.14745801162E+02  0.74368697343E+02  0.41800000000E+01 0.  1.
</event>
<event>
11    1  0.5813833E-009  0.1624385E+03  0.7561462E-02  0.1084806E+00
         22   -1    0    0    0    0  0.00000000000E+00  0.00000000000E+00  0.62301229551E+03  0.62301229551E+03  0.00000000000E+00 0. -1.
         22   -1    0    0    0    0 -0.00000000000E+00 -0.00000000000E+00 -0.34196371302E+03  0.34196371302E+03  0.00000000000E+00 0. -1.
         24    2    1    2    0    0  0.35353215348E+02 -0.94661069873E+02 -0.22122790007E+03  0.25663985261E+03  0.81924734928E+02 0.  0.
         25    2    1    2    0    0 -0.65039596216E+02  0.96889337612E+02 -0.26790818098E+02  0.17316594420E+03  0.12510397067E+03 0.  0.
        -24    2    1    2    0    0  0.29686380868E+02 -0.22282677399E+01  0.52906730065E+03  0.53517021172E+03  0.74891257955E+02 0.  0.
        -11    1    3    3    0    0 -0.18075010846E+02 -0.10282231099E+02 -0.10177613075E+02  0.23151978346E+02  0.00000000000E+00 0.  1.
         12    1    3    3    0    0  0.53428226194E+02 -0.84378838774E+02 -0.21105028699E+03  0.23348787426E+03  0.00000000000E+00 0. -1.
         11    1    5    5    0    0 -0.20304575191E+01  0.97905670863E+01  0.43600619722E+03  0.43612083415E+03  0.00000000000E+00 0. -1.
        -12    1    5    5    0    0  0.31716838387E+02 -0.12018834826E+02  0.93061103425E+02  0.99049377578E+02  0.00000000000E+00 0.  1.
          5    1    4    4  501    0 -0.27880859233E+02  0.12038786968E+03 -0.34424193462E+02  0.12834749305E+03  0.41800000000E+01 0. -1.
         -5    1    4    4    0  501 -0.37158736983E+02 -0.23498532069E+02  0.76333753640E+01  0.44818451145E+02  0.41800000000E+01 0. -1.
</event>
<event>
11    1  0.5813833E-009  0.1533862E+03  0.7561462E-02  0.1093468E+00
         22   -1    0    0    0    0  0.00000000000E+00  0.00000000000E+00  0.10631147968E+04  0.10631147968E+04  0.00000000000E+00 0. -1.
         22   -1    0    0    0    0 -0.00000000000E+00 -0.00000000000E+00 -0.10741657336E+04  0.10741657336E+04  0.00000000000E+00 0. -1.
        -24    2    1    2    0    0 -0.53002728299E+02  0.71186020253E+02 -0.10415517565E+04  0.10483347317E+04  0.79365670038E+02 0.  0.
         25    2    1    2    0    0  0.47754449092E+01 -0.10799175253E+03  0.23792243878E+03  0.28972483863E+03  0.12509345209E+03 0.  0.
         24    2    1    2    0    0  0.48227283390E+02  0.36805732276E+02  0.79257838093E+03  0.79922096008E+03  0.83024817447E+02 0.  0.
        -11    1    5    5    0    0  0.82611318710E+01 -0.19194557494E+02  0.62347863664E+02  0.65756622789E+02  0.00000000000E+00 0.  1.
         12    1    5    5    0    0  0.39966151519E+02  0.56000289771E+02  0.73023051727E+03  0.73346433729E+03  0.00000000000E+00 0. -1.
         11    1    3    3    0    0 -0.56309300480E+02  0.57016321225E+02 -0.10141354355E+04  0.10172965544E+04  0.00000000000E+00 0. -1.
        -12    1    3    3    0    0  0.33065721805E+01  0.14169699028E+02 -0.27416321052E+02  0.31038177301E+02  0.00000000000E+00 0.  1.
          5    1    4    4  501    0 -0.56003243981E+02 -0.25485579728E+02  0.10586697693E+03  0.12252006903E+03  0.41800000000E+01 0. -1.
         -5    1    4    4    0  501  0.60778688890E+02 -0.82506172802E+02  0.13205546185E+03  0.16720476960E+03  0.41800000000E+01 0. -1.
</event>
<event>
11    1  0.5813833E-009  0.1286483E+03  0.7561462E-02  0.1120941E+00
         22   -1    0    0    0    0  0.00000000000E+00  0.00000000000E+00  0.24867396804E+03  0.24867396804E+03  0.00000000000E+00 0. -1.
         22   -1    0    0    0    0 -0.00000000000E+00 -0.00000000000E+00 -0.30347119665E+03  0.30347119665E+03  0.00000000000E+00 0. -1.
        -24    2    1    2    0    0  0.21666219280E+02 -0.15542046911E+02 -0.23544600124E+03  0.25032060093E+03  0.80713093531E+02 0.  0.
         25    2    1    2    0    0  0.13000832860E+02  0.12693295016E+02  0.36190038834E+02  0.13148258023E+03  0.12509120113E+03 0.  0.
         24    2    1    2    0    0 -0.34667052141E+02  0.28487518949E+01  0.14445873380E+03  0.17034198354E+03  0.83295532248E+02 0.  0.
        -11    1    5    5    0    0 -0.15116647379E+02 -0.26691075698E+02  0.11522870151E+02  0.32767408906E+02  0.00000000000E+00 0.  1.
         12    1    5    5    0    0 -0.19550404761E+02  0.29539827593E+02  0.13293586365E+03  0.13757457463E+03  0.00000000000E+00 0. -1.
         13    1    3    3    0    0  0.39158547234E+02 -0.51261136080E+00 -0.21777104969E+03  0.22126428694E+03  0.00000000000E+00 0. -1.
        -14    1    3    3    0    0 -0.17492327954E+02 -0.15029435550E+02 -0.17674951555E+02  0.29056313990E+02  0.00000000000E+00 0.  1.
          5    1    4    4  501    0 -0.29913972776E+02 -0.11013436163E+02  0.66378691999E+02  0.73754624905E+02  0.41800000000E+01 0. -1.
         -5    1    4    4    0  501  0.42914805636E+02  0.23706731179E+02 -0.30188653165E+02  0.57727955324E+02  0.41800000000E+01 0. -1.
</event>
<event>
11    1  0.5813833E-009  0.1684790E+03  0.7561462E-02  0.1079363E+00
         22   -1    0    0    0    0  0.00000000000E+00  0.00000000000E+00  0.16239216959E+03  0.16239216959E+03  0.00000000000E+00 0.  1.
         22   -1    0    0    0    0 -0.00000000000E+00 -0.00000000000E+00 -0.10119070310E+04  0.10119070310E+04  0.00000000000E+00 0.  1.
         24    2    1    2    0    0  0.10876563538E+03 -0.10966294005E+02 -0.78561532536E+03  0.79807909269E+03  0.88252907656E+02 0.  0.
         25    2    1    2    0    0 -0.13951475145E+03 -0.15541763145E+02 -0.15877475023E+03  0.24609279174E+03  0.12508528515E+03 0.  0.
        -24    2    1    2    0    0  0.30749116078E+02  0.26508057150E+02  0.94875214154E+02  0.13012731618E+03  0.79269331533E+02 0.  0.
        -13    1    3    3    0    0  0.62729813200E+02 -0.30819223379E+02 -0.64534584979E+03  0.64911949580E+03  0.00000000000E+00 0.  1.
         14    1    3    3    0    0  0.46035822175E+02  0.19852929374E+02 -0.14026947557E+03  0.14895959689E+03  0.00000000000E+00 0. -1.
         11    1    5    5    0    0  0.26609688585E+01 -0.15789009529E+02 -0.60767805688E+01  0.17126028123E+02  0.00000000000E+00 0. -1.
        -12    1    5    5    0    0  0.28088147219E+02  0.42297066679E+02  0.10095199472E+03  0.11300128806E+03  0.00000000000E+00 0.  1.
          5    1    4    4  501    0 -0.15879538756E+03  0.65610441006E+00 -0.15158816452E+03  0.21957424623E+03  0.41800000000E+01 0. -1.
         -5    1    4    4    0  501  0.19280636107E+02 -0.16197867555E+02 -0.71865857124E+01  0.26518545515E+02  0.41800000000E+01 0. -1.
</event>
<event>
11    1  0.5813833E-009  0.2807857E+03  0.7561462E-02  0.1008668E+00
         22   -1    0    0    0    0  0.00000000000E+00  0.00000000000E+00  0.24075237661E+04  0.24075237661E+04  0.00000000000E+00 0.  1.
         22   -1    0    0    0    0 -0.00000000000E+00 -0.00000000000E+00 -0.27414198705E+03  0.27414198705E+03  0.00000000000E+00 0.  1.
         24    2    1    2    0    0 -0.10319310787E+03 -0.15506442753E+03 -0.16905568291E+03  0.26373347066E+03  0.79257336726E+02 0.  0.
         25    2    1    2    0    0  0.33495280435E+03  0.95081981139E+02  0.66402847201E+03  0.76014201012E+03  0.12509236436E+03 0.  0.
        -24    2    1    2    0    0 -0.23175969648E+03  0.59982446393E+02  0.16384089899E+04  0.16577902724E+04  0.81080934854E+02 0.  0.
        -13    1    3    3    0    0 -0.10170949693E+03 -0.11128383673E+03 -0.15834611997E+03  0.21863761752E+03  0.00000000000E+00 0.  1.
         14    1    3    3    0    0 -0.14836109407E+01 -0.43780590807E+02 -0.10709562941E+02  0.45095853149E+02  0.00000000000E+00 0. -1.
         13    1    5    5    0    0 -0.20131450029E+02 -0.66905161243E+01  0.33164789354E+03  0.33232568901E+03  0.00000000000E+00 0. -1.
        -14    1    5    5    0    0 -0.21162824645E+03  0.66672962517E+02  0.13067610964E+04  0.13254645833E+04  0.00000000000E+00 0.  1.
          5    1    4    4  501    0  0.12428402960E+03  0.24060861199E+01  0.13700565530E+03  0.18504143117E+03  0.41800000000E+01 0. -1.
         -5    1    4    4    0  501  0.21066877475E+03  0.92675895019E+02  0.52702281671E+03  0.57510057895E+03  0.41800000000E+01 0. -1.
</event>
<event>
11    1  0.5813833E-009  0.1730316E+03  0.7561462E-02  0.1075423E+00
         22   -1    0    0    0    0  0.00000000000E+00  0.00000000000E+00  0.70944694593E+03  0.70944694593E+03  0.00000000000E+00 0.  1.
         22   -1    0    0    0    0 -0.00000000000E+00 -0.00000000000E+00 -0.62523613727E+03  0.62523613727E+03  0.00000000000E+00 0.  1.
         24    2    1    2    0    0 -0.66498362985E+00 -0.17669551793E+02 -0.53758030065E+03  0.54386630696E+03  0.80531515142E+02 0.  0.
         25    2    1    2    0    0 -0.60251863778E+02  0.11877714169E+03  0.34056221057E+02  0.18586414413E+03  0.12508939765E+03 0.  0.
        -24    2    1    2    0    0  0.60916847407E+02 -0.10110758989E+03  0.58773488826E+03  0.60495263211E+03  0.81251345759E+02 0.  0.
        -11    1    3    3    0    0 -0.33068015558E+02 -0.24252252396E+02 -0.41092553216E+03  0.41296665529E+03  0.00000000000E+00 0.  1.
         12    1    3    3    0    0  0.32403031929E+02  0.65827006029E+01 -0.12665476849E+03  0.13089965167E+03  0.00000000000E+00 0. -1.
         13    1    5    5    0    0  0.68901553137E+02 -0.36090216811E+02  0.31473294591E+03  0.32420171964E+03  0.00000000000E+00 0. -1.
        -14    1    5    5    0    0 -0.79847057298E+01 -0.65017373084E+02  0.27300194235E+03  0.28075091247E+03  0.00000000000E+00 0.  1.
          5    1    4    4  501    0 -0.53668861482E+02 -0.85263961586E+01  0.29428806853E+01  0.54581856610E+02  0.41800000000E+01 0. -1.
         -5    1    4    4    0  501 -0.65830022956E+01  0.12730353785E+03  0.31113340371E+02  0.13128228752E+03  0.41800000000E+01 0. -1.
</event>
<event>
11    1  0.5813833E-009  0.1410354E+03  0.7561462E-02  0.1106408E+00
         22   -1    0    0    0    0  0.00000000000E+00  0.00000000000E+00  0.43535873531E+03  0.43535873531E+03  0.00000000000E+00 0.  1.
         22   -1    0    0    0    0 -0.00000000000E+00 -0.00000000000E+00 -0.11568142604E+04  0.11568142604E+04  0.00000000000E+00 0.  1.
         24    2    1    2    0    0 -0.53379101920E+02  0.37117244016E+02 -0.10892631329E+04  0.10941716597E+04  0.80563204528E+02 0.  0.
         25    2    1    2    0    0  0.56778517266E+02 -0.39769208368E+02  0.26558020867E+02  0.14546182462E+03  0.12509366088E+03 0.  0.
        -24    2    1    2    0    0 -0.33994153463E+01  0.26519643521E+01  0.34124958700E+03  0.35253951131E+03  0.88398175681E+02 0.  0.
        -11    1    3    3    0    0 -0.36564024533E+02 -0.16635917844E+02 -0.66120695998E+03  0.66242609065E+03  0.00000000000E+00 0.  1.
         12    1    3    3    0    0 -0.16815077387E+02  0.53753161860E+02 -0.42805617294E+03  0.43174556909E+03  0.00000000000E+00 0. -1.
         11    1    5    5    0    0  0.57860850860E+01 -0.39418042643E+02  0.10313464086E+03  0.11056226757E+03  0.00000000000E+00 0. -1.
        -12    1    5    5    0    0 -0.91855004322E+01  0.42070006995E+02  0.23811494614E+03  0.24197724373E+03  0.00000000000E+00 0.  1.
          5    1    4    4  501    0  0.78753431666E+02  0.85122501224E+01  0.42398475277E+02  0.89942562267E+02  0.41800000000E+01 0.  1.
         -5    1    4    4    0  501 -0.21974914400E+02 -0.48281458490E+02 -0.15840454410E+02  0.55519262357E+02  0.41800000000E+01 0.  1.
</event>
<event>
11    1  0.5813833E-009  0.1640745E+03  0.7561462E-02  0.1083306E+00
         22   -1    0    0    0    0  0.00000000000E+00  0.00000000000E+00  0.77123406263E+03  0.77123406263E+03  0.00000000000E+00 0.  1.
         22   -1    0    0    0    0 -0.00000000000E+00 -0.00000000000E+00 -0.23890576675E+03  0.23890576675E+03  0.00000000000E+00 0. -1.
        -24    2    1    2    0    0  0.10308762590E+03  0.27994571520E+02 -0.19453729087E+03  0.23565637536E+03  0.79236450345E+02 0.  0.
         25    2    1    2    0    0 -0.92918181422E+02 -0.27612467331E+02  0.27231979015E+03  0.31496370149E+03  0.12509128011E+03 0.  0.
         24    2    1    2    0    0 -0.10169444473E+02 -0.38210418890E+00  0.45454579660E+03  0.45951975253E+03  0.66655518545E+02 0.  0.
        -11    1    5    5    0    0  0.15096993832E+02 -0.10231564867E+02  0.37566852539E+03  0.37611094787E+03  0.00000000000E+00 0.  1.
         12    1    5    5    0    0 -0.25266438305E+02  0.98494606778E+01  0.78877271210E+02  0.83408804654E+02  0.00000000000E+00 0. -1.
         11    1    3    3    0    0  0.98695053370E+02  0.38982273604E+02 -0.19682159597E+03  0.22360472235E+03  0.00000000000E+00 0. -1.
        -12    1    3    3    0    0  0.43925725250E+01 -0.10987702085E+02  0.22843051074E+01  0.12051653012E+02  0.00000000000E+00 0.  1.
          5    1    4    4  501    0 -0.12378573400E+03 -0.18770028330E+02  0.22689410389E+03  0.25917875817E+03  0.41800000000E+01 0. -1.
         -5    1    4    4    0  501  0.30867552578E+02 -0.88424390004E+01  0.45425686257E+02  0.55784943323E+02  0.41800000000E+01 0. -1.
</event>
<event>
11    1  0.5813833E-009  0.1308498E+03  0.7561462E-02  0.1118229E+00
         22   -1    0    0    0    0  0.00000000000E+00  0.00000000000E+00  0.12412093754E+03  0.12412093754E+03  0.00000000000E+00 0. -1.
         22   -1    0    0    0    0 -0.00000000000E+00 -0.00000000000E+00 -0.14372362177E+04  0.14372362177E+04  0.00000000000E+00 0.  1.
         24    2    1    2    0    0 -0.31796851661E+02 -0.18573498012E+02 -0.11823202782E+04  0.11853987513E+04  0.77025611139E+02 0.  0.
         25    2    1    2    0    0  0.22528025660E+02  0.55010608683E+02 -0.21499981466E+03  0.25574508308E+03  0.12508776202E+03 0.  0.
        -24    2    1    2    0    0  0.92688260014E+01 -0.36437110671E+02  0.84204812741E+02  0.12021332081E+03  0.77118206946E+02 0.  0.
        -11    1    3    3    0    0 -0.49015031889E+02  0.40044895634E+01 -0.96201836757E+03  0.96327454488E+03  0.00000000000E+00 0.  1.
         12    1    3    3    0    0  0.17218180228E+02 -0.22577987575E+02 -0.22030191064E+03  0.22212420643E+03  0.00000000000E+00 0. -1.
         13    1    5    5    0    0 -0.13615411233E+02 -0.53946209372E+02  0.65122040325E+02  0.85653097228E+02  0.00000000000E+00 0. -1.
        -14    1    5    5    0    0  0.22884237234E+02  0.17509098701E+02  0.19082772415E+02  0.34560223584E+02  0.00000000000E+00 0.  1.
          5    1    4    4  501    0  0.18688559722E+02 -0.38895347161E+02 -0.53718644720E+02  0.69030974829E+02  0.41800000000E+01 0. -1.
         -5    1    4    4    0  501  0.38394659374E+01  0.93905955844E+02 -0.16128116994E+03  0.18671410825E+03  0.41800000000E+01 0. -1.
</event>
<event>
11    1  0.5813833E-009  0.1329101E+03  0.7561462E-02  0.1115744E+00
         22   -1    0    0    0    0  0.00000000000E+00  0.00000000000E+00  0.87860039971E+03  0.87860039971E+03  0.00000000000E+00 0. -1.
         22   -1    0    0    0    0 -0.00000000000E+00 -0.00000000000E+00 -0.20953350308E+03  0.20953350308E+03  0.00000000000E+00 0. -1.
        -24    2    1    2    0    0 -0.76534088866E+01 -0.33187515706E+02 -0.15697132228E+03  0.17933616479E+03  0.79758874850E+02 0.  0.
         25    2    1    2    0    0 -0.37069045605E+02  0.38949308996E+02  0.82193107143E+02  0.15904191477E+03  0.12508981165E+03 0.  0.
         24    2    1    2    0    0  0.44722454491E+02 -0.57617932905E+01  0.74384511176E+03  0.74975582323E+03  0.82431474427E+02 0.  0.
        -11    1    5    5    0    0  0.83625080458E+01  0.61660330308E+01  0.85224645940E+01  0.13438151172E+02  0.00000000000E+00 0.  1.
         12    1    5    5    0    0  0.36359946446E+02 -0.11927826321E+02  0.73532264717E+03  0.73631767206E+03  0.00000000000E+00 0. -1.
         13    1    3    3    0    0 -0.10753603597E+02 -0.10502912044E+02 -0.15568032217E+03  0.15640432815E+03  0.00000000000E+00 0. -1.
        -14    1    3    3    0    0  0.31001947102E+01 -0.22684603662E+02 -0.12910001073E+01  0.22931836643E+02  0.00000000000E+00 0.  1.
          5    1    4    4  501    0 -0.69381459324E+02  0.38829263133E+02  0.95072290035E+02  0.12400690023E+03  0.41800000000E+01 0. -1.
         -5    1    4    4    0  501  0.32312413719E+02  0.12004586313E+00 -0.12879182892E+02  0.35035014533E+02  0.41800000000E+01 0. -1.
</event>
<event>
11    1  0.5813833E-009  0.1528724E+03  0.7561462E-02  0.1093979E+00
         22   -1    0    0    0    0  0.00000000000E+00  0.00000000000E+00  0.15757920148E+04  0.15757920148E+04  0.00000000000E+00 0. -1.
         22   -1    0    0    0    0 -0.00000000000E+00 -0.00000000000E+00 -0.12575389109E+04  0.12575389109E+04  0.00000000000E+00 0. -1.
        -24    2    1    2    0    0 -0.47981256865E+02 -0.24303523721E+02 -0.12291818193E+04  0.12324206555E+04  0.71273170930E+02 0.  0.
         25    2    1    2    0    0  0.82818408612E+02  0.10015542210E+03  0.31521846136E+03  0.36318029229E+03  0.12508896413E+03 0.  0.
         24    2    1    2    0    0 -0.34837151747E+02 -0.75851898378E+02  0.12322164619E+04  0.12377299779E+04  0.81553366749E+02 0.  0.
        -11    1    5    5    0    0 -0.80104010476E+01 -0.64789112688E+02  0.42432005479E+03  0.42931259537E+03  0.00000000000E+00 0.  1.
         12    1    5    5    0    0 -0.26826750700E+02 -0.11062785690E+02  0.80789640712E+03  0.80841738255E+03  0.00000000000E+00 0. -1.
         13    1    3    3    0    0 -0.32343797850E+02 -0.15281651356E+00 -0.10803124937E+04  0.10807965714E+04  0.00000000000E+00 0. -1.
        -14    1    3    3    0    0 -0.15637459016E+02 -0.24150707208E+02 -0.14886932556E+03  0.15162408409E+03  0.00000000000E+00 0.  1.
          5    1    4    4  501    0  0.35976614103E+02  0.32810609410E+00  0.84846568443E+01  0.37200621200E+02  0.41800000000E+01 0. -1.
         -5    1    4    4    0  501  0.46841794510E+02  0.99827316005E+02  0.30673380451E+03  0.32597967109E+03  0.41800000000E+01 0. -1.
</event>
<event>
11    1  0.5813833E-009  0.2338225E+03  0.7561462E-02  0.1032888E+00
         22   -1    0    0    0    0  0.00000000000E+00  0.00000000000E+00  0.29840526012E+04  0.29840526012E+04  0.00000000000E+00 0.  1.
         22   -1    0    0    0    0 -0.00000000000E+00 -0.00000000000E+00 -0.81168283934E+03  0.81168283934E+03  0.00000000000E+00 0. -1.
         24    2    1    2    0    0 -0.18732128305E+02 -0.19655237342E+03 -0.78210769407E+03  0.81053378803E+03  0.79302259056E+02 0.  0.
         25    2    1    2    0    0  0.42926604590E+02  0.20182970372E+03  0.99303602774E+03  0.10219325426E+04  0.12509055362E+03 0.  0.
        -24    2    1    2    0    0 -0.24194476286E+02 -0.52773303056E+01  0.19614414282E+04  0.19632691099E+04  0.80993201409E+02 0.  0.
        -13    1    3    3    0    0 -0.57717609514E+01 -0.44897547477E+02 -0.78189079310E+02  0.90347302767E+02  0.00000000000E+00 0.  1.
         14    1    3    3    0    0 -0.12960367353E+02 -0.15165482594E+03 -0.70391861476E+03  0.72018648527E+03  0.00000000000E+00 0. -1.
         11    1    5    5    0    0  0.83735978745E+01  0.73567308072E+01  0.40380922995E+02  0.41891020177E+02  0.00000000000E+00 0. -1.
        -12    1    5    5    0    0 -0.32568074160E+02 -0.12634061113E+02  0.19210605052E+04  0.19213780897E+04  0.00000000000E+00 0.  1.
          5    1    4    4  501    0 -0.23419290202E+02 -0.41226238659E+01  0.12626596328E+03  0.12855358829E+03  0.41800000000E+01 0.  1.
         -5    1    4    4    0  501  0.66345894792E+02  0.20595232759E+03  0.86677006446E+03  0.89337895433E+03  0.41800000000E+01 0.  1.
</event>
<event>
11    1  0.7611682E-009  0.1636137E+03  0.7561462E-02  0.1083727E+00
         22   -1    0    0    0    0  0.00000000000E+00  0.00000000000E+00  0.15828957018E+04  0.15828957018E+04  0.00000000000E+00 0.  1.
         22   -1    0    0    0    0 -0.00000000000E+00 -0.00000000000E+00 -0.15750197007E+03  0.15750197007E+03  0.00000000000E+00 0.  1.
        -24    2    1    2    0    0  0.75926920907E+02 -0.44078538381E+01 -0.59466132280E+02  0.12557517769E+03  0.80303037737E+02 0.  0.
         25    2    1    2    0    0 -0.17623800563E+03 -0.13704981848E+02  0.12753787182E+03  0.25132255663E+03  0.12509779201E+03 0.  0.
         24    2    1    2    0    0  0.10031108472E+03  0.18112835686E+02  0.13573219921E+04  0.13634999375E+04  0.80116794070E+02 0.  0.
        -11    1    5    5    0    0  0.97842241994E+02  0.40892758436E+02  0.10574858188E+04  0.10627895271E+04  0.00000000000E+00 0.  1.
         12    1    5    5    0    0  0.24688427258E+01 -0.22779922750E+02  0.29983617340E+03  0.30071041043E+03  0.00000000000E+00 0. -1.
         11    1    3    3    0    0 -0.14418853231E+01 -0.24058096328E+02  0.29007034594E+01  0.24275195422E+02  0.00000000000E+00 0. -1.
        -12    1    3    3    0    0  0.77368806230E+02  0.19650242490E+02 -0.62366835739E+02  0.10129998227E+03  0.00000000000E+00 0.  1.
          5    1    4    4  501    0  0.18137046434E+02  0.58341806724E+01  0.21408039102E+02  0.28961468465E+02  0.41800000000E+01 0.  1.
         -5    1    4    4    0  501 -0.19437505206E+03 -0.19539162521E+02  0.10612983272E+03  0.22236108816E+03  0.41800000000E+01 0.  1.
</event>
<event>
11    1  0.5813833E-009  0.2201742E+03  0.7561462E-02  0.1041108E+00
         22   -1    0    0    0    0  0.00000000000E+00  0.00000000000E+00  0.22350110305E+04  0.22350110305E+04  0.00000000000E+00 0.  1.
         22   -1    0    0    0    0 -0.00000000000E+00 -0.00000000000E+00 -0.97166440909E+03  0.97166440909E+03  0.00000000000E+00 0. -1.
         24    2    1    2    0    0  0.16564442815E+03 -0.76807356006E+02 -0.91824842145E+03  0.93966536968E+03  0.80333037808E+02 0.  0.
         25    2    1    2    0    0 -0.14613358504E+03  0.43065160184E+02  0.19129060032E+03  0.27468130046E+03  0.12509232731E+03 0.  0.
        -24    2    1    2    0    0 -0.19510843116E+02  0.33742195822E+02  0.19903044425E+04  0.19923287694E+04  0.80888458866E+02 0.  0.
        -11    1    3    3    0    0  0.39565660866E+02  0.20146361288E+01 -0.35191777784E+03  0.35414068199E+03  0.00000000000E+00 0.  1.
         12    1    3    3    0    0  0.12607876729E+03 -0.78821992134E+02 -0.56633064361E+03  0.58552468770E+03  0.00000000000E+00 0. -1.
         11    1    5    5    0    0 -0.28351048193E+02  0.57121753672E+02  0.15553090328E+04  0.15566158370E+04  0.00000000000E+00 0. -1.
        -12    1    5    5    0    0  0.88402050776E+01 -0.23379557850E+02  0.43499540977E+03  0.43571293241E+03  0.00000000000E+00 0.  1.
          5    1    4    4  501    0 -0.10375149929E+03  0.30892193077E+02  0.20190611457E+03  0.22913370049E+03  0.41800000000E+01 0.  1.
         -5    1    4    4    0  501 -0.42382085750E+02  0.12172967107E+02 -0.10615514247E+02  0.45547599974E+02  0.41800000000E+01 0.  1.
</event>
<event>
11    1  0.5813833E-009  0.2400955E+03  0.7561462E-02  0.1029312E+00
         22   -1    0    0    0    0  0.00000000000E+00  0.00000000000E+00  0.19713797351E+03  0.19713797351E+03  0.00000000000E+00 0.  1.
         22   -1    0    0    0    0 -0.00000000000E+00 -0.00000000000E+00 -0.82051687569E+03  0.82051687569E+03  0.00000000000E+00 0.  1.
         24    2    1    2    0    0  0.94766119230E+02 -0.17769384555E+03 -0.56674616483E+03  0.60690058158E+03  0.81064051603E+02 0.  0.
         25    2    1    2    0    0 -0.46390464694E+02  0.22165990473E+03 -0.12380576541E+03  0.28681030340E+03  0.12508834480E+03 0.  0.
        -24    2    1    2    0    0 -0.48375654537E+02 -0.43966059182E+02  0.67173028066E+02  0.12394396423E+03  0.81096684624E+02 0.  0.
        -13    1    3    3    0    0  0.14066512539E+02 -0.11023125170E+03 -0.31677277344E+03  0.33569895088E+03  0.00000000000E+00 0.  1.
         14    1    3    3    0    0  0.80699606691E+02 -0.67462593851E+02 -0.24997339139E+03  0.27120163070E+03  0.00000000000E+00 0. -1.
         11    1    5    5    0    0  0.13891867889E+02  0.24140016940E+01  0.38795147193E+02  0.41278018889E+02  0.00000000000E+00 0. -1.
        -12    1    5    5    0    0 -0.62267522426E+02 -0.46380060876E+02  0.28377880872E+02  0.82665945339E+02  0.00000000000E+00 0.  1.
          5    1    4    4  501    0 -0.67237724930E+02  0.16953755487E+03 -0.13801021878E+03  0.22875355091E+03  0.41800000000E+01 0. -1.
         -5    1    4    4    0  501  0.20847260237E+02  0.52122349860E+02  0.14204453365E+02  0.58056752490E+02  0.41800000000E+01 0. -1.
</event>
<event>
11    1  0.5813833E-009  0.1401498E+03  0.7561462E-02  0.1107391E+00
         22   -1    0    0    0    0  0.00000000000E+00  0.00000000000E+00  0.16952087190E+04  0.16952087190E+04  0.00000000000E+00 0. -1.
         22   -1    0    0    0    0 -0.00000000000E+00 -0.00000000000E+00 -0.86819509027E+02  0.86819509027E+02  0.00000000000E+00 0.  1.
        -24    2    1    2    0    0 -0.59849288519E+02  0.12949918072E+01 -0.34746625755E+02  0.10688732541E+03  0.81449112901E+02 0.  0.
         25    2    1    2    0    0  0.11058185802E+03 -0.30943792800E+02  0.50872756876E+03  0.53631750779E+03  0.12508742667E+03 0.  0.
         24    2    1    2    0    0 -0.50732569497E+02  0.29648800993E+02  0.11344082670E+04  0.11388233949E+04  0.81140393309E+02 0.  0.
        -11    1    5    5    0    0 -0.45017750157E+02 -0.26939496825E+01  0.26612640831E+03  0.26992058165E+03  0.00000000000E+00 0.  1.
         12    1    5    5    0    0 -0.57148193393E+01  0.32342750675E+02  0.86828185869E+03  0.86890281322E+03  0.00000000000E+00 0. -1.
         11    1    3    3    0    0 -0.84478985909E+01  0.18137909535E+02  0.21142622368E+02  0.29109469825E+02  0.00000000000E+00 0. -1.
        -12    1    3    3    0    0 -0.51401389928E+02 -0.16842917727E+02 -0.55889248123E+02  0.77777855588E+02  0.00000000000E+00 0.  1.
          5    1    4    4  501    0  0.95296471655E+02  0.12457233964E+02  0.17758003976E+03  0.20196223189E+03  0.41800000000E+01 0. -1.
         -5    1    4    4    0  501  0.15285386360E+02 -0.43401026764E+02  0.33114752900E+03  0.33435527590E+03  0.41800000000E+01 0. -1.
</event>
<event>
11    1  0.5813833E-009  0.1530218E+03  0.7561462E-02  0.1093830E+00
         22   -1    0    0    0    0  0.00000000000E+00  0.00000000000E+00  0.82243526306E+03  0.82243526306E+03  0.00000000000E+00 0.  1.
         22   -1    0    0    0    0 -0.00000000000E+00 -0.00000000000E+00 -0.22657860024E+03  0.22657860024E+03  0.00000000000E+00 0. -1.
        -24    2    1    2    0    0 -0.62678294609E+02 -0.58318709937E+02 -0.17059416461E+03  0.20700210865E+03  0.80111568711E+02 0.  0.
         25    2    1    2    0    0  0.13352994926E+03  0.38985627754E+02  0.23936022389E+03  0.30379582589E+03  0.12509380690E+03 0.  0.
         24    2    1    2    0    0 -0.70851654656E+02  0.19333082182E+02  0.52709060354E+03  0.53821592877E+03  0.80362656788E+02 0.  0.
        -11    1    5    5    0    0 -0.83238018514E+02 -0.20001614595E+00  0.45351414218E+03  0.46108967120E+03  0.00000000000E+00 0.  1.
         12    1    5    5    0    0  0.12386363857E+02  0.19533098328E+02  0.73576461367E+02  0.77126257573E+02  0.00000000000E+00 0. -1.
         11    1    3    3    0    0 -0.68503945121E+02 -0.39575154837E+02 -0.16983696793E+03  0.18735949150E+03  0.00000000000E+00 0. -1.
        -12    1    3    3    0    0  0.58256505125E+01 -0.18743555099E+02 -0.75719667706E+00  0.19642617149E+02  0.00000000000E+00 0.  1.
          5    1    4    4  501    0  0.11930667004E+03  0.23185198868E+02  0.86082333101E+02  0.14899421275E+03  0.41800000000E+01 0. -1.
         -5    1    4    4    0  501  0.14223279226E+02  0.15800428886E+02  0.15327789079E+03  0.15480161313E+03  0.41800000000E+01 0. -1.
</event>
<event>
11    1  0.5813833E-009  0.1978443E+03  0.7561462E-02  0.1056059E+00
         22   -1    0    0    0    0  0.00000000000E+00  0.00000000000E+00  0.23996184538E+04  0.23996184538E+04  0.00000000000E+00 0.  1.
         22   -1    0    0    0    0 -0.00000000000E+00 -0.00000000000E+00 -0.36201510649E+03  0.36201510649E+03  0.00000000000E+00 0. -1.
         24    2    1    2    0    0  0.12135482141E+03 -0.95449269473E+02 -0.32830742390E+03  0.37158339719E+03  0.80317499708E+02 0.  0.
         25    2    1    2    0    0 -0.11385869420E+03  0.43746189861E+02  0.70244066798E+03  0.72384189911E+03  0.12508665600E+03 0.  0.
        -24    2    1    2    0    0 -0.74961272043E+01  0.51703079612E+02  0.16634701032E+04  0.16662082640E+04  0.79923677810E+02 0.  0.
        -11    1    3    3    0    0  0.29925343653E-01 -0.25393044476E+00 -0.75172378871E+02  0.75172813712E+02  0.00000000000E+00 0.  1.
         12    1    3    3    0    0  0.12132489606E+03 -0.95195339028E+02 -0.25313504503E+03  0.29641058348E+03  0.00000000000E+00 0. -1.
         13    1    5    5    0    0 -0.50472566384E+01  0.22448793734E+02  0.10631177128E+03  0.10877323132E+03  0.00000000000E+00 0. -1.
        -14    1    5    5    0    0 -0.24488705659E+01  0.29254285878E+02  0.15571583320E+04  0.15574350327E+04  0.00000000000E+00 0.  1.
          5    1    4    4  501    0 -0.11591429406E+03  0.77503618095E+02  0.59460361155E+03  0.61074860758E+03  0.41800000000E+01 0.  1.
         -5    1    4    4    0  501  0.20555998609E+01 -0.33757428234E+02  0.10783705643E+03  0.11309329154E+03  0.41800000000E+01 0.  1.
</event>
<event>
11    1  0.5813833E-009  0.2018063E+03  0.7561462E-02  0.1053254E+00
         22   -1    0    0    0    0  0.00000000000E+00  0.00000000000E+00  0.15708999558E+04  0.15708999558E+04  0.00000000000E+00 0. -1.
         22   -1    0    0    0    0 -0.00000000000E+00 -0.00000000000E+00 -0.41571010264E+03  0.41571010264E+03  0.00000000000E+00 0.  1.
         24    2    1    2    0    0 -0.83265834958E+02 -0.13774244438E+03 -0.37219076256E+03  0.41334104528E+03  0.80116638226E+02 0.  0.
         25    2    1    2    0    0  0.75475122307E+02  0.89174717256E+02  0.32068769245E+03  0.36350198605E+03  0.12507786969E+03 0.  0.
        -24    2    1    2    0    0  0.77907126513E+01  0.48567727120E+02  0.12066929232E+04  0.12097670271E+04  0.70773791040E+02 0.  0.
        -11    1    3    3    0    0 -0.58459639130E+02 -0.92164468688E+02 -0.32629870023E+03  0.34406781376E+03  0.00000000000E+00 0.  1.
         12    1    3    3    0    0 -0.24806195829E+02 -0.45577975689E+02 -0.45892062330E+02  0.69273231513E+02  0.00000000000E+00 0. -1.
         11    1    5    5    0    0  0.31183129649E+02  0.53618537994E+02  0.82969516978E+03  0.83201046265E+03  0.00000000000E+00 0. -1.
        -12    1    5    5    0    0 -0.23392416998E+02 -0.50508108733E+01  0.37699775346E+03  0.37775656444E+03  0.00000000000E+00 0.  1.
          5    1    4    4  501    0  0.99307687333E+02  0.48435485237E+02  0.28002237303E+03  0.30106148009E+03  0.41800000000E+01 0.  1.
         -5    1    4    4    0  501 -0.23832565026E+02  0.40739232019E+02  0.40665319420E+02  0.62440505962E+02  0.41800000000E+01 0.  1.
</event>
<event>
11    1  0.5813833E-009  0.1312077E+03  0.7561462E-02  0.1117794E+00
         22   -1    0    0    0    0  0.00000000000E+00  0.00000000000E+00  0.25451184337E+03  0.25451184337E+03  0.00000000000E+00 0.  1.
         22   -1    0    0    0    0 -0.00000000000E+00 -0.00000000000E+00 -0.96952571704E+03  0.96952571704E+03  0.00000000000E+00 0. -1.
         24    2    1    2    0    0  0.45841034890E+02  0.14887744459E+01 -0.54492960044E+03  0.55233519151E+03  0.77603333828E+02 0.  0.
         25    2    1    2    0    0 -0.20486251889E+02 -0.21255019908E+02 -0.40267866339E+03  0.42269367647E+03  0.12509346824E+03 0.  0.
        -24    2    1    2    0    0 -0.25354783001E+02  0.19766245462E+02  0.23259439015E+03  0.24900869243E+03  0.82895169304E+02 0.  0.
        -13    1    3    3    0    0  0.22806564298E+02  0.31603497401E+02 -0.13104483191E+03  0.13671747655E+03  0.00000000000E+00 0.  1.
         14    1    3    3    0    0  0.23034470592E+02 -0.30114722955E+02 -0.41388476853E+03  0.41561771497E+03  0.00000000000E+00 0. -1.
         11    1    5    5    0    0  0.22215972895E+02 -0.18077468711E+01  0.19530503369E+02  0.29635417363E+02  0.00000000000E+00 0. -1.
        -12    1    5    5    0    0 -0.47570755896E+02  0.21573992333E+02  0.21306388679E+03  0.21937327507E+03  0.00000000000E+00 0.  1.
          5    1    4    4  501    0  0.49970641393E+02 -0.26762950537E+02 -0.15489239198E+03  0.16499226048E+03  0.41800000000E+01 0.  1.
         -5    1    4    4    0  501 -0.70456893282E+02  0.55079306296E+01 -0.24778627140E+03  0.25770141600E+03  0.41800000000E+01 0.  1.
</event>
<event>
11    1  0.5813833E-009  0.1471315E+03  0.7561462E-02  0.1099846E+00
         22   -1    0    0    0    0  0.00000000000E+00  0.00000000000E+00  0.85480694458E+02  0.85480694458E+02  0.00000000000E+00 0.  1.
         22   -1    0    0    0    0 -0.00000000000E+00 -0.00000000000E+00 -0.66104720448E+03  0.66104720448E+03  0.00000000000E+00 0.  1.
        -24    2    1    2    0    0 -0.28204641728E+02  0.18003469776E+02 -0.39169823541E+03  0.40144153458E+03  0.81290659543E+02 0.  0.
         25    2    1    2    0    0  0.90133050775E+02  0.22869596085E+02 -0.17689615710E+03  0.23575956110E+03  0.12507331845E+03 0.  0.
         24    2    1    2    0    0 -0.61928409046E+02 -0.40873065861E+02 -0.69721175169E+01  0.10932680325E+03  0.79987524822E+02 0.  0.
        -11    1    5    5    0    0 -0.50176573753E+02 -0.30774252041E+02  0.32276290792E+02  0.67130485545E+02  0.00000000000E+00 0.  1.
         12    1    5    5    0    0 -0.11751835293E+02 -0.10098813820E+02 -0.39248408309E+02  0.42196317709E+02  0.00000000000E+00 0. -1.
         11    1    3    3    0    0 -0.39157328940E+02  0.41919651277E+02 -0.20409555906E+03  0.21200365752E+03  0.00000000000E+00 0. -1.
        -12    1    3    3    0    0  0.10952687211E+02 -0.23916181501E+02 -0.18760267634E+03  0.18943787706E+03  0.00000000000E+00 0.  1.
          5    1    4    4  501    0  0.99628462279E+02  0.59222824156E+02 -0.11564833251E+03  0.16378395102E+03  0.41800000000E+01 0. -1.
         -5    1    4    4    0  501 -0.94954115045E+01 -0.36353228071E+02 -0.61247824587E+02  0.71975610087E+02  0.41800000000E+01 0. -1.
</event>
<event>
11    1  0.5813833E-009  0.1369890E+03  0.7561462E-02  0.1110968E+00
         22   -1    0    0    0    0  0.00000000000E+00  0.00000000000E+00  0.11951483389E+04  0.11951483389E+04  0.00000000000E+00 0.  1.
         22   -1    0    0    0    0 -0.00000000000E+00 -0.00000000000E+00 -0.17436930405E+03  0.17436930405E+03  0.00000000000E+00 0. -1.
         24    2    1    2    0    0  0.95742534837E+01  0.51472533311E+02 -0.12254316273E+03  0.15560213120E+03  0.80337466261E+02 0.  0.
         25    2    1    2    0    0 -0.12476079787E+02 -0.94304940153E+02  0.15241545121E+03  0.21892266488E+03  0.12509032387E+03 0.  0.
        -24    2    1    2    0    0  0.29018263034E+01  0.42832406842E+02  0.99090674635E+03  0.99499284687E+03  0.79193116367E+02 0.  0.
        -11    1    3    3    0    0  0.90757026296E+01 -0.16996782066E+02 -0.59449797258E+02  0.62494298723E+02  0.00000000000E+00 0.  1.
         12    1    3    3    0    0  0.49855085416E+00  0.68469315377E+02 -0.63093365472E+02  0.93107832472E+02  0.00000000000E+00 0. -1.
         13    1    5    5    0    0 -0.12929035592E+02  0.34584858391E+02  0.17322447091E+03  0.17711575230E+03  0.00000000000E+00 0. -1.
        -14    1    5    5    0    0  0.15830861896E+02  0.82475484503E+01  0.81768227544E+03  0.81787709457E+03  0.00000000000E+00 0.  1.
          5    1    4    4  501    0  0.21340605542E+02 -0.11222798025E+03  0.13432572943E+03  0.17638428213E+03  0.41800000000E+01 0. -1.
         -5    1    4    4    0  501 -0.33816685329E+02  0.17923040094E+02  0.18089721787E+02  0.42538382752E+02  0.41800000000E+01 0. -1.
</event>
<event>
11    1  0.5813833E-009  0.2847518E+03  0.7561462E-02  0.1006859E+00
         22   -1    0    0    0    0  0.00000000000E+00  0.00000000000E+00  0.84685662054E+03  0.84685662054E+03  0.00000000000E+00 0.  1.
         22   -1    0    0    0    0 -0.00000000000E+00 -0.00000000000E+00 -0.21197300631E+04  0.21197300631E+04  0.00000000000E+00 0. -1.
        -24    2    1    2    0    0 -0.25461604556E+03 -0.46825768596E+02 -0.16661262982E+04  0.16879944343E+04  0.79538578646E+02 0.  0.
         25    2    1    2    0    0  0.24646820212E+03  0.25782130282E+01 -0.39663753552E+03  0.48344896952E+03  0.12509336396E+03 0.  0.
         24    2    1    2    0    0  0.81478434458E+01  0.44247555568E+02  0.78989039114E+03  0.79514327982E+03  0.79383700471E+02 0.  0.
        -11    1    5    5    0    0  0.32830898622E+02  0.39389568149E+02  0.69771201047E+03  0.69959377894E+03  0.00000000000E+00 0.  1.
         12    1    5    5    0    0 -0.24683055177E+02  0.48579874188E+01  0.92178380671E+02  0.95549500876E+02  0.00000000000E+00 0. -1.
         13    1    3    3    0    0 -0.20547343432E+03 -0.19287859701E+02 -0.11099958299E+04  0.11290182001E+04  0.00000000000E+00 0. -1.
        -14    1    3    3    0    0 -0.49142611248E+02 -0.27537908896E+02 -0.55613046825E+03  0.55897623419E+03  0.00000000000E+00 0.  1.
          5    1    4    4  501    0  0.13022620087E+03 -0.30289098155E+02 -0.30076838891E+03  0.32917379760E+03  0.41800000000E+01 0.  1.
         -5    1    4    4    0  501  0.11624200124E+03  0.32867311183E+02 -0.95869146609E+02  0.15427517191E+03  0.41800000000E+01 0.  1.
</event>
<event>
11    1  0.5813833E-009  0.1360083E+03  0.7561462E-02  0.1112100E+00
         22   -1    0    0    0    0  0.00000000000E+00  0.00000000000E+00  0.12330197447E+04  0.12330197447E+04  0.00000000000E+00 0.  1.
         22   -1    0    0    0    0 -0.00000000000E+00 -0.00000000000E+00 -0.20728936030E+03  0.20728936030E+03  0.00000000000E+00 0.  1.
         24    2    1    2    0    0 -0.12539159138E+02  0.28271776186E+01 -0.16989350422E+03  0.19172216259E+03  0.87911099454E+02 0.  0.
         25    2    1    2    0    0 -0.39326094248E+02  0.13779021597E+02  0.15472008857E+03  0.20327821198E+03  0.12508925827E+03 0.  0.
        -24    2    1    2    0    0  0.51865253386E+02 -0.16606199216E+02  0.10409038000E+04  0.10453087304E+04  0.78891384535E+02 0.  0.
        -11    1    3    3    0    0 -0.57226426488E+01 -0.81901412688E+01 -0.17677179303E+03  0.17705392925E+03  0.00000000000E+00 0.  1.
         12    1    3    3    0    0 -0.68165164894E+01  0.11017318887E+02  0.68782888047E+01  0.14668233343E+02  0.00000000000E+00 0. -1.
         11    1    5    5    0    0  0.26994991649E+02 -0.23435819580E+02  0.15658490708E+03  0.16061382362E+03  0.00000000000E+00 0. -1.
        -12    1    5    5    0    0  0.24870261737E+02  0.68296203642E+01  0.88431889296E+03  0.88469490677E+03  0.00000000000E+00 0.  1.
          5    1    4    4  501    0 -0.41485337826E+02  0.47049866331E+02  0.15747865265E+03  0.16956332627E+03  0.41800000000E+01 0.  1.
         -5    1    4    4    0  501  0.21592435776E+01 -0.33270844734E+02 -0.27585640846E+01  0.33714885703E+02  0.41800000000E+01 0.  1.
</event>
<event>
11    1  0.5813833E-009  0.1434963E+03  0.7561462E-02  0.1103716E+00
         22   -1    0    0    0    0  0.00000000000E+00  0.00000000000E+00  0.56090197843E+02  0.56090197843E+02  0.00000000000E+00 0.  1.
         22   -1    0    0    0    0 -0.00000000000E+00 -0.00000000000E+00 -0.24444090977E+04  0.24444090977E+04  0.00000000000E+00 0. -1.
         24    2    1    2    0    0 -0.70229535403E+02 -0.14684183745E+02 -0.14379876504E+04  0.14419461913E+04  0.79072896010E+02 0.  0.
         25    2    1    2    0    0  0.50833943590E+02  0.59304126182E+02 -0.95282385804E+03  0.96417067759E+03  0.12510284518E+03 0.  0.
        -24    2    1    2    0    0  0.19395591813E+02 -0.44619942436E+02  0.24926085968E+01  0.94382426681E+02  0.80837498253E+02 0.  0.
        -11    1    3    3    0    0 -0.55911162833E+02 -0.35241577941E+02 -0.60819312664E+03  0.61177357432E+03  0.00000000000E+00 0.  1.
         12    1    3    3    0    0 -0.14318372570E+02  0.20557394195E+02 -0.82979452377E+03  0.83017261695E+03  0.00000000000E+00 0. -1.
         13    1    5    5    0    0  0.31626116110E+02  0.13421509871E+02 -0.45240925239E+01  0.34652785755E+02  0.00000000000E+00 0. -1.
        -14    1    5    5    0    0 -0.12230524298E+02 -0.58041452307E+02  0.70167011207E+01  0.59729640926E+02  0.00000000000E+00 0.  1.
          5    1    4    4  501    0  0.49055993170E+02  0.11365019857E+02 -0.83976995712E+03  0.84128871823E+03  0.41800000000E+01 0.  1.
         -5    1    4    4    0  501  0.17779504195E+01  0.47939106324E+02 -0.11305390092E+03  0.12288195936E+03  0.41800000000E+01 0.  1.
</event>
<event>
11    1  0.5813833E-009  0.1564754E+03  0.7561462E-02  0.1090440E+00
         22   -1    0    0    0    0  0.00000000000E+00  0.00000000000E+00  0.19505140699E+03  0.19505140699E+03  0.00000000000E+00 0. -1.
         22   -1    0    0    0    0 -0.00000000000E+00 -0.00000000000E+00 -0.20731330908E+04  0.20731330908E+04  0.00000000000E+00 0.  1.
        -24    2    1    2    0    0  0.61544573489E+00  0.58478649280E+02 -0.17106273176E+04  0.17134971835E+04  0.80041532681E+02 0.  0.
         25    2    1    2    0    0  0.53262568376E+02 -0.13195591133E+03 -0.31241223060E+03  0.36537212017E+03  0.12508445405E+03 0.  0.
         24    2    1    2    0    0 -0.53878014111E+02  0.73477262046E+02  0.14495786438E+03  0.18931519413E+03  0.80781878174E+02 0.  0.
        -11    1    5    5    0    0  0.17423998815E+02  0.34721416672E+02  0.32601146734E+02  0.50714961094E+02  0.00000000000E+00 0.  1.
         12    1    5    5    0    0 -0.71302012926E+02  0.38755845374E+02  0.11235671764E+03  0.13860023303E+03  0.00000000000E+00 0. -1.
         11    1    3    3    0    0  0.21329379399E+02  0.24645216276E+02 -0.22582318025E+03  0.22816318250E+03  0.00000000000E+00 0. -1.
        -12    1    3    3    0    0 -0.20713933664E+02  0.33833433004E+02 -0.14848041373E+04  0.14853340010E+04  0.00000000000E+00 0.  1.
          5    1    4    4  501    0 -0.22574600175E+02  0.15851093931E+01 -0.79536281415E+01  0.24348670302E+02  0.41800000000E+01 0.  1.
         -5    1    4    4    0  501  0.75837168551E+02 -0.13354102072E+03 -0.30445860246E+03  0.34102344987E+03  0.41800000000E+01 0.  1.
</event>
<event>
11    1  0.5813833E-009  0.1404782E+03  0.7561462E-02  0.1107026E+00
         22   -1    0    0    0    0  0.00000000000E+00  0.00000000000E+00  0.11866735495E+03  0.11866735495E+03  0.00000000000E+00 0. -1.
         22   -1    0    0    0    0 -0.00000000000E+00 -0.00000000000E+00 -0.11364290196E+04  0.11364290196E+04  0.00000000000E+00 0.  1.
         24    2    1    2    0    0 -0.55384273553E+02 -0.16485609125E+02 -0.63802442727E+03  0.64585258269E+03  0.81921887798E+02 0.  0.
         25    2    1    2    0    0  0.81286619818E+02  0.15352769826E+02 -0.46486428753E+03  0.48845646763E+03  0.12509073846E+03 0.  0.
        -24    2    1    2    0    0 -0.25902346266E+02  0.11328392991E+01  0.85127050156E+02  0.12078732422E+03  0.81674648192E+02 0.  0.
        -11    1    3    3    0    0 -0.20637326566E+02  0.27216953142E+02 -0.39606036376E+03  0.39753046868E+03  0.00000000000E+00 0.  1.
         12    1    3    3    0    0 -0.34746946987E+02 -0.43702562266E+02 -0.24196406351E+03  0.24832211400E+03  0.00000000000E+00 0. -1.
         11    1    5    5    0    0 -0.33215734337E+02 -0.35274326194E+02  0.51140408963E+02  0.70447885170E+02  0.00000000000E+00 0. -1.
        -12    1    5    5    0    0  0.73133880716E+01  0.36407165494E+02  0.33986641193E+02  0.50339439051E+02  0.00000000000E+00 0.  1.
          5    1    4    4  501    0  0.10291291928E+03 -0.25848566234E+01 -0.43580936739E+03  0.44782254024E+03  0.41800000000E+01 0. -1.
         -5    1    4    4    0  501 -0.21626299465E+02  0.17937626449E+02 -0.29054920136E+02  0.40633927392E+02  0.41800000000E+01 0. -1.
</event>
<event>
11    1  0.5813833E-009  0.1312795E+03  0.7561462E-02  0.1117707E+00
         22   -1    0    0    0    0  0.00000000000E+00  0.00000000000E+00  0.58440528080E+03  0.58440528080E+03  0.00000000000E+00 0.  1.
         22   -1    0    0    0    0 -0.00000000000E+00 -0.00000000000E+00 -0.53563772856E+03  0.53563772856E+03  0.00000000000E+00 0.  1.
        -24    2    1    2    0    0  0.34988346395E+02  0.20478598392E+02 -0.50485391326E+03  0.51292718263E+03  0.81075665729E+02 0.  0.
         25    2    1    2    0    0 -0.19327423936E+02  0.20711876967E+02  0.17002823841E+03  0.21297773645E+03  0.12508950076E+03 0.  0.
         24    2    1    2    0    0 -0.15660922460E+02 -0.41190475359E+02  0.38359322709E+03  0.39413809029E+03  0.79114793770E+02 0.  0.
        -11    1    5    5    0    0 -0.11787987045E+02 -0.25387081070E+02  0.37440929551E+03  0.37545409984E+03  0.00000000000E+00 0.  1.
         12    1    5    5    0    0 -0.38729354144E+01 -0.15803394289E+02  0.91839315851E+01  0.18683990450E+02  0.00000000000E+00 0. -1.
         13    1    3    3    0    0  0.31112219222E+01  0.30103634264E+02 -0.63757387367E+02  0.70575583183E+02  0.00000000000E+00 0. -1.
        -14    1    3    3    0    0  0.31877124473E+02 -0.96250358724E+01 -0.44109652589E+03  0.44235159945E+03  0.00000000000E+00 0.  1.
          5    1    4    4  501    0  0.33071386900E+02  0.52007907881E+02  0.55078806645E+02  0.82762832571E+02  0.41800000000E+01 0. -1.
         -5    1    4    4    0  501 -0.52398810836E+02 -0.31296030914E+02  0.11494943177E+03  0.13021490388E+03  0.41800000000E+01 0. -1.
</event>
<event>
11    1  0.5813833E-009  0.1435450E+03  0.7561462E-02  0.1103663E+00
         22   -1    0    0    0    0  0.00000000000E+00  0.00000000000E+00  0.33637050789E+03  0.33637050789E+03  0.00000000000E+00 0. -1.
         22   -1    0    0    0    0 -0.00000000000E+00 -0.00000000000E+00 -0.22284631040E+03  0.22284631040E+03  0.00000000000E+00 0.  1.
        -24    2    1    2    0    0 -0.63817362692E+02 -0.22115641539E+02 -0.10312395392E+03  0.15886899804E+03  0.10021502524E+03 0.  0.
         25    2    1    2    0    0  0.72970703471E+02  0.24491464732E+02 -0.21427062844E+02  0.14842615666E+03  0.12508656822E+03 0.  0.
         24    2    1    2    0    0 -0.91533407791E+01 -0.23758231933E+01  0.23807521425E+03  0.25192166359E+03  0.81824744190E+02 0.  0.
        -11    1    5    5    0    0  0.10857626138E+02  0.84241906797E+01  0.10221041073E+01  0.13780411125E+02  0.00000000000E+00 0.  1.
         12    1    5    5    0    0 -0.20010966917E+02 -0.10800013873E+02  0.23705311015E+03  0.23814125247E+03  0.00000000000E+00 0. -1.
         13    1    3    3    0    0 -0.26274396090E+01 -0.48288197744E+02 -0.19867312481E+02  0.52281579791E+02  0.00000000000E+00 0. -1.
        -14    1    3    3    0    0 -0.61189923083E+02  0.26172556205E+02 -0.83256641440E+02  0.10658741825E+03  0.00000000000E+00 0.  1.
          5    1    4    4  501    0 -0.21841141634E+02 -0.27266383458E+02 -0.19674375036E+02  0.40311841533E+02  0.41800000000E+01 0. -1.
         -5    1    4    4    0  501  0.94811845105E+02  0.51757848190E+02 -0.17526878087E+01  0.10811431513E+03  0.41800000000E+01 0. -1.
</event>
<event>
11    1  0.5813833E-009  0.1698645E+03  0.7561462E-02  0.1078150E+00
         22   -1    0    0    0    0  0.00000000000E+00  0.00000000000E+00  0.82496349278E+03  0.82496349278E+03  0.00000000000E+00 0.  1.
         22   -1    0    0    0    0 -0.00000000000E+00 -0.00000000000E+00 -0.59994174784E+03  0.59994174784E+03  0.00000000000E+00 0.  1.
        -24    2    1    2    0    0  0.57762947579E+02 -0.83922204089E+02 -0.33896647448E+03  0.36286075146E+03  0.79938474297E+02 0.  0.
         25    2    1    2    0    0 -0.92030654268E+02  0.13224995725E+03 -0.20348207248E+03  0.28811719521E+03  0.12508745675E+03 0.  0.
         24    2    1    2    0    0  0.34267706688E+02 -0.48327753164E+02  0.76747029191E+03  0.77392729395E+03  0.80268050403E+02 0.  0.
        -11    1    5    5    0    0  0.90936427873E+01  0.17126792326E+01  0.52457285105E+03  0.52465446121E+03  0.00000000000E+00 0.  1.
         12    1    5    5    0    0  0.25174063901E+02 -0.50040432397E+02  0.24289744085E+03  0.24927283274E+03  0.00000000000E+00 0. -1.
         11    1    3    3    0    0  0.20736761611E+02 -0.57072615907E+02 -0.83005076916E+02  0.10284522139E+03  0.00000000000E+00 0. -1.
        -12    1    3    3    0    0  0.37026185968E+02 -0.26849588182E+02 -0.25596139757E+03  0.26001553007E+03  0.00000000000E+00 0.  1.
          5    1    4    4  501    0 -0.84586018079E+02  0.17097589711E+02 -0.66932345176E+02  0.10929104839E+03  0.41800000000E+01 0.  1.
         -5    1    4    4    0  501 -0.74446361886E+01  0.11515236754E+03 -0.13654972730E+03  0.17882614682E+03  0.41800000000E+01 0.  1.
</event>
<event>
11    1  0.5813833E-009  0.1286522E+03  0.7561462E-02  0.1120936E+00
         22   -1    0    0    0    0  0.00000000000E+00  0.00000000000E+00  0.94243587579E+02  0.94243587579E+02  0.00000000000E+00 0. -1.
         22   -1    0    0    0    0 -0.00000000000E+00 -0.00000000000E+00 -0.17870957674E+04  0.17870957674E+04  0.00000000000E+00 0. -1.
        -24    2    1    2    0    0 -0.12213934068E+02  0.27878041200E+02 -0.16452378740E+04  0.16475740414E+04  0.82256880390E+02 0.  0.
         25    2    1    2    0    0  0.30161419816E+02 -0.51807277176E+01 -0.71193888112E+02  0.14715327005E+03  0.12509581926E+03 0.  0.
         24    2    1    2    0    0 -0.17947485749E+02 -0.22697313482E+02  0.23579582283E+02  0.86612043575E+02  0.78156056116E+02 0.  0.
        -11    1    5    5    0    0 -0.49190704061E+01  0.16874126806E+02 -0.19793937729E+02  0.26471369060E+02  0.00000000000E+00 0.  1.
         12    1    5    5    0    0 -0.13028415342E+02 -0.39571440288E+02  0.43373520012E+02  0.60140674515E+02  0.00000000000E+00 0. -1.
         13    1    3    3    0    0  0.31566727796E+02  0.25303915584E+02 -0.10187530540E+04  0.10195560463E+04  0.00000000000E+00 0. -1.
        -14    1    3    3    0    0 -0.43780661864E+02  0.25741256161E+01 -0.62648482000E+03  0.62801799510E+03  0.00000000000E+00 0.  1.
          5    1    4    4  501    0  0.22089864805E+02 -0.54206449296E+02  0.18510445554E+01  0.58712860928E+02  0.41800000000E+01 0.  1.
         -5    1    4    4    0  501  0.80715550108E+01  0.49025721578E+02 -0.73044932667E+02  0.88440409117E+02  0.41800000000E+01 0.  1.
</event>
<event>
11    1  0.5813833E-009  0.1784938E+03  0.7561462E-02  0.1070868E+00
         22   -1    0    0    0    0  0.00000000000E+00  0.00000000000E+00  0.30850743901E+03  0.30850743901E+03  0.00000000000E+00 0. -1.
         22   -1    0    0    0    0 -0.00000000000E+00 -0.00000000000E+00 -0.22598189285E+04  0.22598189285E+04  0.00000000000E+00 0. -1.
        -24    2    1    2    0    0  0.12434602424E+03 -0.69474849936E+01 -0.20612274277E+04  0.20665664375E+04  0.80796845858E+02 0.  0.
         25    2    1    2    0    0 -0.23516719828E+03  0.27175497598E+02 -0.67533151739E+02  0.27613398196E+03  0.12508849105E+03 0.  0.
         24    2    1    2    0    0  0.11082117404E+03 -0.20228012604E+02  0.17744909004E+03  0.22562594804E+03  0.82026725921E+02 0.  0.
        -11    1    5    5    0    0  0.33843043878E+02  0.23165172115E+02  0.21315200034E+02  0.46220283107E+02  0.00000000000E+00 0.  1.
         12    1    5    5    0    0  0.76978130164E+02 -0.43393184719E+02  0.15613389000E+03  0.17940566494E+03  0.00000000000E+00 0. -1.
         13    1    3    3    0    0  0.97526626525E+02 -0.38157255321E+02 -0.16375567994E+04  0.16409020965E+04  0.00000000000E+00 0. -1.
        -14    1    3    3    0    0  0.26819397711E+02  0.31209770327E+02 -0.42367062838E+03  0.42566434101E+03  0.00000000000E+00 0.  1.
          5    1    4    4  501    0 -0.19534173553E+03  0.37248708898E+02 -0.10091095470E+03  0.22303890497E+03  0.41800000000E+01 0.  1.
         -5    1    4    4    0  501 -0.39825462753E+02 -0.10073211300E+02  0.33377802963E+02  0.53095076985E+02  0.41800000000E+01 0.  1.
</event>
<event>
11    1  0.5813833E-009  0.2125410E+03  0.7561462E-02  0.1045993E+00
         22   -1    0    0    0    0  0.00000000000E+00  0.00000000000E+00  0.20240246499E+03  0.20240246499E+03  0.00000000000E+00 0. -1.
         22   -1    0    0    0    0 -0.00000000000E+00 -0.00000000000E+00 -0.10665753335E+04  0.10665753335E+04  0.00000000000E+00 0.  1.
        -24    2    1    2    0    0  0.65734515534E+02  0.15870864750E+03 -0.91524700431E+03  0.93477035524E+03  0.81296228755E+02 0.  0.
         25    2    1    2    0    0 -0.95539354000E+01 -0.18167056044E+03  0.15578386118E+01  0.22078494487E+03  0.12509234513E+03 0.  0.
         24    2    1    2    0    0 -0.56180580134E+02  0.22961912938E+02  0.49516297193E+02  0.11342249838E+03  0.82032264507E+02 0.  0.
        -13    1    5    5    0    0 -0.21617623174E+02  0.11556401040E+02 -0.22153830739E+02  0.33040342812E+02  0.00000000000E+00 0.  1.
         14    1    5    5    0    0 -0.34562956960E+02  0.11405511899E+02  0.71670127931E+02  0.80382155564E+02  0.00000000000E+00 0. -1.
         11    1    3    3    0    0  0.49714277246E+02  0.14513114370E+03 -0.61703063992E+03  0.63581551478E+03  0.00000000000E+00 0. -1.
        -12    1    3    3    0    0  0.16020238288E+02  0.13577503804E+02 -0.29821636439E+03  0.29895484046E+03  0.00000000000E+00 0.  1.
          5    1    4    4  501    0 -0.61437918575E+02 -0.14371444864E+03  0.18633439976E+01  0.15636305522E+03  0.41800000000E+01 0.  1.
         -5    1    4    4    0  501  0.51883983175E+02 -0.37956111799E+02 -0.30550538586E+00  0.64421889654E+02  0.41800000000E+01 0.  1.
</event>
<event>
11    1  0.5813833E-009  0.1383603E+03  0.7561462E-02  0.1109403E+00
         22   -1    0    0    0    0  0.00000000000E+00  0.00000000000E+00  0.71510421310E+02  0.71510421310E+02  0.00000000000E+00 0. -1.
         22   -1    0    0    0    0 -0.00000000000E+00 -0.00000000000E+00 -0.64562569865E+03  0.64562569865E+03  0.00000000000E+00 0. -1.
         24    2    1    2    0    0  0.12056847623E+02  0.28831358275E+02 -0.41318011692E+03  0.42200604488E+03  0.79966731227E+02 0.  0.
         25    2    1    2    0    0 -0.55797329504E+02 -0.55209372298E+02 -0.12246920992E+03  0.19183238287E+03  0.12505814236E+03 0.  0.
        -24    2    1    2    0    0  0.43740481881E+02  0.26378014023E+02 -0.38465950513E+02  0.10329769222E+03  0.81128012982E+02 0.  0.
        -13    1    3    3    0    0  0.27164322011E+02  0.34825884034E+01 -0.45234488430E+02  0.52878991630E+02  0.00000000000E+00 0.  1.
         14    1    3    3    0    0 -0.15107474388E+02  0.25348769872E+02 -0.36794562849E+03  0.36912705325E+03  0.00000000000E+00 0. -1.
         11    1    5    5    0    0  0.21742722991E+02  0.50573167101E+02 -0.31080940192E+01  0.55136661870E+02  0.00000000000E+00 0. -1.
        -12    1    5    5    0    0  0.21997758890E+02 -0.24195153079E+02 -0.35357856494E+02  0.48161030351E+02  0.00000000000E+00 0.  1.
          5    1    4    4  501    0 -0.22707972134E+02 -0.49989207538E+02  0.92680268218E+01  0.55838531409E+02  0.41800000000E+01 0. -1.
         -5    1    4    4    0  501 -0.33089357370E+02 -0.52201647602E+01 -0.13173723674E+03  0.13599385146E+03  0.41800000000E+01 0. -1.
</event>
<event>
11    1  0.5813833E-009  0.2468067E+03  0.7561462E-02  0.1025614E+00
         22   -1    0    0    0    0  0.00000000000E+00  0.00000000000E+00  0.12940580459E+04  0.12940580459E+04  0.00000000000E+00 0. -1.
         22   -1    0    0    0    0 -0.00000000000E+00 -0.00000000000E+00 -0.10253560109E+03  0.10253560109E+03  0.00000000000E+00 0. -1.
        -24    2    1    2    0    0  0.98805776979E+02  0.17836788571E+03  0.30374880181E+03  0.37463072092E+03  0.80666958795E+02 0.  0.
         25    2    1    2    0    0 -0.58354529859E+02 -0.21418179147E+03  0.19028385257E+03  0.31801739506E+03  0.12509207833E+03 0.  0.
         24    2    1    2    0    0 -0.40451247120E+02  0.35813905761E+02  0.69748979047E+03  0.70394553105E+03  0.78283865740E+02 0.  0.
        -11    1    5    5    0    0 -0.33021619168E+02  0.39864248995E+02  0.20671551250E+03  0.21309830780E+03  0.00000000000E+00 0.  1.
         12    1    5    5    0    0 -0.74296279522E+01 -0.40503432332E+01  0.49077427797E+03  0.49084722325E+03  0.00000000000E+00 0. -1.
         11    1    3    3    0    0  0.87167839998E+02  0.10980300307E+03  0.14693995892E+03  0.20309181013E+03  0.00000000000E+00 0. -1.
        -12    1    3    3    0    0  0.11637936981E+02  0.68564882639E+02  0.15680884289E+03  0.17153891080E+03  0.00000000000E+00 0.  1.
          5    1    4    4  501    0 -0.62008808733E+00 -0.17651261199E+03  0.17218626187E+03  0.24662252103E+03  0.41800000000E+01 0. -1.
         -5    1    4    4    0  501 -0.57734441772E+02 -0.37669179481E+02  0.18097590703E+02  0.71394874037E+02  0.41800000000E+01 0. -1.
</event>
<event>
11    1  0.5813833E-009  0.1384062E+03  0.7561462E-02  0.1109351E+00
         22   -1    0    0    0    0  0.00000000000E+00  0.00000000000E+00  0.59853391431E+03  0.59853391431E+03  0.00000000000E+00 0. -1.
         22   -1    0    0    0    0 -0.00000000000E+00 -0.00000000000E+00 -0.10624520895E+04  0.10624520895E+04  0.00000000000E+00 0. -1.
         24    2    1    2    0    0 -0.60517975265E+02 -0.10288734368E+02 -0.91688217949E+03  0.92225312996E+03  0.78164066301E+02 0.  0.
         25    2    1    2    0    0  0.31077282173E+02  0.23024055645E+02 -0.10920779969E+03  0.17049797736E+03  0.12508921682E+03 0.  0.
        -24    2    1    2    0    0  0.29440693092E+02 -0.12735321277E+02  0.56217180404E+03  0.56823489644E+03  0.76320491762E+02 0.  0.
        -11    1    3    3    0    0 -0.41908059848E+02  0.22954904880E+02 -0.26605527912E+03  0.27031208757E+03  0.00000000000E+00 0.  1.
         12    1    3    3    0    0 -0.18609915417E+02 -0.33243639248E+02 -0.65082690037E+03  0.65194104239E+03  0.00000000000E+00 0. -1.
         13    1    5    5    0    0 -0.10309160742E+02 -0.93764641588E+01  0.42876871919E+03  0.42899511819E+03  0.00000000000E+00 0. -1.
        -14    1    5    5    0    0  0.39749853834E+02 -0.33588571178E+01  0.13340308485E+03  0.13923977825E+03  0.00000000000E+00 0.  1.
          5    1    4    4  501    0  0.77448281373E+02  0.29931977666E+02 -0.60936816494E+02  0.10307728935E+03  0.41800000000E+01 0.  1.
         -5    1    4    4    0  501 -0.46370999200E+02 -0.69079220212E+01 -0.48270983200E+02  0.67420688016E+02  0.41800000000E+01 0.  1.
</event>
<event>
11    1  0.5813833E-009  0.1537015E+03  0.7561462E-02  0.1093155E+00
         22   -1    0    0    0    0  0.00000000000E+00  0.00000000000E+00  0.38912030720E+03  0.38912030720E+03  0.00000000000E+00 0.  1.
         22   -1    0    0    0    0 -0.00000000000E+00 -0.00000000000E+00 -0.92150790216E+03  0.92150790216E+03  0.00000000000E+00 0. -1.
        -24    2    1    2    0    0  0.22773219052E+02  0.86458360255E+00 -0.84950903026E+03  0.85381448902E+03  0.82548301988E+02 0.  0.
         25    2    1    2    0    0  0.70082066018E+02 -0.12448059793E+02  0.34865721538E+02  0.14808439595E+03  0.12508764774E+03 0.  0.
         24    2    1    2    0    0 -0.92855285070E+02  0.11583476191E+02  0.28225571375E+03  0.30872932439E+03  0.83001366881E+02 0.  0.
        -11    1    5    5    0    0 -0.43510689232E+02 -0.30268667836E+02  0.18069958034E+03  0.18831280005E+03  0.00000000000E+00 0.  1.
         12    1    5    5    0    0 -0.49344595839E+02  0.41852144027E+02  0.10155613342E+03  0.12041652433E+03  0.00000000000E+00 0. -1.
         11    1    3    3    0    0  0.14401696740E+02  0.41579380207E+02 -0.41995769163E+03  0.42225669502E+03  0.00000000000E+00 0. -1.
        -12    1    3    3    0    0  0.83715223127E+01 -0.40714796605E+02 -0.42955133863E+03  0.43155779400E+03  0.00000000000E+00 0.  1.
          5    1    4    4  501    0  0.21383789240E+02  0.41406026246E+01  0.77829216952E+02  0.80927562942E+02  0.41800000000E+01 0.  1.
         -5    1    4    4    0  501  0.48698276778E+02 -0.16588662418E+02 -0.42963495413E+02  0.67156833011E+02  0.41800000000E+01 0.  1.
</event>
<event>
11    1  0.5813833E-009  0.1337384E+03  0.7561462E-02  0.1114759E+00
         22   -1    0    0    0    0  0.00000000000E+00  0.00000000000E+00  0.93646937151E+02  0.93646937151E+02  0.00000000000E+00 0.  1.
         22   -1    0    0    0    0 -0.00000000000E+00 -0.00000000000E+00 -0.14333763669E+04  0.14333763669E+04  0.00000000000E+00 0. -1.
         24    2    1    2    0    0 -0.29321611916E+02  0.10034040648E+02 -0.12394985362E+04  0.12424345956E+04  0.79540330211E+02 0.  0.
         25    2    1    2    0    0  0.22246829683E+02 -0.55515901402E+02 -0.12693542999E+03  0.18797527645E+03  0.12508063171E+03 0.  0.
        -24    2    1    2    0    0  0.70747822331E+01  0.45481860754E+02  0.26704536405E+02  0.96613432074E+02  0.80637279165E+02 0.  0.
        -11    1    3    3    0    0 -0.13083681592E+02  0.16121836505E+02 -0.75388843754E+02  0.78195742204E+02  0.00000000000E+00 0.  1.
         12    1    3    3    0    0 -0.16237930323E+02 -0.60877958574E+01 -0.11641096924E+04  0.11642388533E+04  0.00000000000E+00 0. -1.
         11    1    5    5    0    0  0.24331076013E+01  0.61114305333E+02 -0.45800061760E+01  0.61333961111E+02  0.00000000000E+00 0. -1.
        -12    1    5    5    0    0  0.46416746317E+01 -0.15632444579E+02  0.31284542581E+02  0.35279470963E+02  0.00000000000E+00 0.  1.
          5    1    4    4  501    0  0.67681795388E+02 -0.72787471956E+01 -0.86807088347E+02  0.11039360749E+03  0.41800000000E+01 0. -1.
         -5    1    4    4    0  501 -0.45434965705E+02 -0.48237154207E+02 -0.40128341646E+02  0.77581668955E+02  0.41800000000E+01 0. -1.
</event>
<event>
11    1  0.5813833E-009  0.1980589E+03  0.7561462E-02  0.1055905E+00
         22   -1    0    0    0    0  0.00000000000E+00  0.00000000000E+00  0.30057312645E+03  0.30057312645E+03  0.00000000000E+00 0.  1.
         22   -1    0    0    0    0 -0.00000000000E+00 -0.00000000000E+00 -0.87959122387E+03  0.87959122387E+03  0.00000000000E+00 0. -1.
         24    2    1    2    0    0 -0.68091914875E+02  0.87438409563E+02 -0.70540011333E+03  0.71840203227E+03  0.78931462326E+02 0.  0.
         25    2    1    2    0    0 -0.88062961656E+02 -0.73586417395E+01 -0.85570185678E+02  0.17543911132E+03  0.12508952906E+03 0.  0.
        -24    2    1    2    0    0  0.15615487653E+03 -0.80079767824E+02  0.21195220158E+03  0.28632320673E+03  0.79120972430E+02 0.  0.
        -13    1    3    3    0    0 -0.11742107916E-01  0.62795936960E+02 -0.28771609754E+03  0.29448918931E+03  0.00000000000E+00 0.  1.
         14    1    3    3    0    0 -0.68080172767E+02  0.24642472603E+02 -0.41768401579E+03  0.42391284296E+03  0.00000000000E+00 0. -1.
         11    1    5    5    0    0  0.42222128269E+02 -0.47184865049E+02  0.12209973941E+03  0.13754077930E+03  0.00000000000E+00 0. -1.
        -12    1    5    5    0    0  0.11393274826E+03 -0.32894902775E+02  0.89852462171E+02  0.14878242743E+03  0.00000000000E+00 0.  1.
          5    1    4    4  501    0 -0.10172940776E+03  0.32637488753E+02 -0.42811569080E+02  0.11517109413E+03  0.41800000000E+01 0.  1.
         -5    1    4    4    0  501  0.13666446104E+02 -0.39996130493E+02 -0.42758616598E+02  0.60268017197E+02  0.41800000000E+01 0.  1.
</event>
<event>
11    1  0.5813833E-009  0.1841554E+03  0.7561462E-02  0.1066330E+00
         22   -1    0    0    0    0  0.00000000000E+00  0.00000000000E+00  0.10000761084E+04  0.10000761084E+04  0.00000000000E+00 0.  1.
         22   -1    0    0    0    0 -0.00000000000E+00 -0.00000000000E+00 -0.11534584295E+04  0.11534584295E+04  0.00000000000E+00 0.  1.
         24    2    1    2    0    0  0.38023758624E+02 -0.84024277253E+02 -0.11163522032E+04  0.11230634057E+04  0.80766863815E+02 0.  0.
         25    2    1    2    0    0 -0.91033945554E+02  0.17399407444E+03  0.58101754408E+03  0.62593177437E+03  0.12509229574E+03 0.  0.
        -24    2    1    2    0    0  0.53010186930E+02 -0.89969797190E+02  0.38195233801E+03  0.40453935791E+03  0.82824267364E+02 0.  0.
        -13    1    3    3    0    0  0.53887918877E+02 -0.90146068662E+02 -0.91963507316E+03  0.92561271020E+03  0.00000000000E+00 0.  1.
         14    1    3    3    0    0 -0.15864160253E+02  0.61217914089E+01 -0.19671713003E+03  0.19745069551E+03  0.00000000000E+00 0. -1.
         13    1    5    5    0    0  0.52273448350E+01 -0.40670071837E+02  0.45912164284E+02  0.61557344862E+02  0.00000000000E+00 0. -1.
        -14    1    5    5    0    0  0.47782842095E+02 -0.49299725354E+02  0.33604017372E+03  0.34298201305E+03  0.00000000000E+00 0.  1.
          5    1    4    4  501    0 -0.44759941159E+02  0.35628192496E+01  0.55459150371E+02  0.71479617889E+02  0.41800000000E+01 0. -1.
         -5    1    4    4    0  501 -0.46274004394E+02  0.17043125519E+03  0.52555839371E+03  0.55445215648E+03  0.41800000000E+01 0. -1.
</event>
<event>
11    1  0.5813833E-009  0.1609484E+03  0.7561462E-02  0.1086189E+00
         22   -1    0    0    0    0  0.00000000000E+00  0.00000000000E+00  0.24502284732E+03  0.24502284732E+03  0.00000000000E+00 0.  1.
         22   -1    0    0    0    0 -0.00000000000E+00 -0.00000000000E+00 -0.39699813285E+03  0.39699813285E+03  0.00000000000E+00 0.  1.
         24    2    1    2    0    0 -0.93678886245E+02  0.42127316234E+02 -0.29342544741E+03  0.32099153702E+03  0.79916388483E+02 0.  0.
         25    2    1    2    0    0  0.87190690999E+02 -0.33387807741E+02 -0.19343734095E+01  0.15610257021E+03  0.12508920146E+03 0.  0.
        -24    2    1    2    0    0  0.64881952454E+01 -0.87395084926E+01  0.14338453529E+03  0.16492687294E+03  0.80766780137E+02 0.  0.
        -13    1    3    3    0    0 -0.99775024212E+02  0.55384413331E+02 -0.27298611450E+03  0.29587819691E+03  0.00000000000E+00 0.  1.
         14    1    3    3    0    0  0.60961379671E+01 -0.13257097098E+02 -0.20439332905E+02  0.25113340104E+02  0.00000000000E+00 0. -1.
         13    1    5    5    0    0 -0.12848950528E+02  0.32675321027E+02  0.72983200353E+02  0.80989626914E+02  0.00000000000E+00 0. -1.
        -14    1    5    5    0    0  0.19337145773E+02 -0.41414829519E+02  0.70401334934E+02  0.83937246031E+02  0.00000000000E+00 0.  1.
          5    1    4    4  501    0  0.48662415728E+02  0.17457958508E+02 -0.53091907857E+02  0.74222867768E+02  0.41800000000E+01 0. -1.
         -5    1    4    4    0  501  0.38528275271E+02 -0.50845766249E+02  0.51157534448E+02  0.81879702440E+02  0.41800000000E+01 0. -1.
</event>
<event>
11    1  0.5813833E-009  0.1480631E+03  0.7561462E-02  0.1098874E+00
         22   -1    0    0    0    0  0.00000000000E+00  0.00000000000E+00  0.18134295140E+03  0.18134295140E+03  0.00000000000E+00 0.  1.
         22   -1    0    0    0    0 -0.00000000000E+00 -0.00000000000E+00 -0.69825931959E+03  0.69825931959E+03  0.00000000000E+00 0.  1.
        -24    2    1    2    0    0 -0.17929268312E+02  0.44026683391E+02 -0.52264572808E+03  0.53177406370E+03  0.85821269143E+02 0.  0.
         25    2    1    2    0    0  0.64722730552E+02  0.24095290775E+02 -0.11274596042E+03  0.18201186379E+03  0.12508817722E+03 0.  0.
         24    2    1    2    0    0 -0.46793462239E+02 -0.68121974166E+02  0.11847532031E+03  0.16581634350E+03  0.81415150780E+02 0.  0.
        -11    1    5    5    0    0 -0.28689815458E+02 -0.85880663286E+02  0.89565857894E+02  0.12736026357E+03  0.00000000000E+00 0.  1.
         12    1    5    5    0    0 -0.18103646781E+02  0.17758689120E+02  0.28909462416E+02  0.38456079926E+02  0.00000000000E+00 0. -1.
         11    1    3    3    0    0  0.34747789908E+02  0.15910118644E+02 -0.18849028921E+03  0.19232558307E+03  0.00000000000E+00 0. -1.
        -12    1    3    3    0    0 -0.52677058221E+02  0.28116564747E+02 -0.33415543887E+03  0.33944848063E+03  0.00000000000E+00 0.  1.
          5    1    4    4  501    0  0.41848878196E+02 -0.44726640718E+02 -0.20779569751E+02  0.64815614749E+02  0.41800000000E+01 0. -1.
         -5    1    4    4    0  501  0.22873852355E+02  0.68821931493E+02 -0.91966390668E+02  0.11719624904E+03  0.41800000000E+01 0. -1.
</event>
<event>
11    1  0.5813833E-009  0.1542509E+03  0.7561462E-02  0.1092613E+00
         22   -1    0    0    0    0  0.00000000000E+00  0.00000000000E+00  0.10460771575E+04  0.10460771575E+04  0.00000000000E+00 0. -1.
         22   -1    0    0    0    0 -0.00000000000E+00 -0.00000000000E+00 -0.19364883909E+03  0.19364883909E+03  0.00000000000E+00 0.  1.
        -24    2    1    2    0    0 -0.51085382325E+02 -0.74475673324E+02 -0.15060362304E+03  0.19305811258E+03  0.80209982896E+02 0.  0.
         25    2    1    2    0    0  0.14196932165E+02  0.97832470537E+02  0.31991279956E+03  0.35744146131E+03  0.12508978282E+03 0.  0.
         24    2    1    2    0    0  0.36888450160E+02 -0.23356797213E+02  0.68311914185E+03  0.68922642268E+03  0.80467397220E+02 0.  0.
        -13    1    5    5    0    0 -0.36109882396E+01 -0.35834759832E+02  0.14368318933E+03  0.14812841775E+03  0.00000000000E+00 0.  1.
         14    1    5    5    0    0  0.40499438400E+02  0.12477962619E+02  0.53943595253E+03  0.54109800493E+03  0.00000000000E+00 0. -1.
         13    1    3    3    0    0  0.12830587103E+02  0.55566343620E+01 -0.39719953345E+02  0.42109082685E+02  0.00000000000E+00 0. -1.
        -14    1    3    3    0    0 -0.63915969428E+02 -0.80032307686E+02 -0.11088366969E+03  0.15094902989E+03  0.00000000000E+00 0.  1.
          5    1    4    4  501    0 -0.18959580241E+02  0.88917309960E+01  0.21437585036E+03  0.21543678000E+03  0.41800000000E+01 0. -1.
         -5    1    4    4    0  501  0.33156512406E+02  0.88940739541E+02  0.10553694921E+03  0.14200468131E+03  0.41800000000E+01 0. -1.
</event>
<event>
11    1  0.5813833E-009  0.1466777E+03  0.7561462E-02  0.1100323E+00
         22   -1    0    0    0    0  0.00000000000E+00  0.00000000000E+00  0.23406613253E+03  0.23406613253E+03  0.00000000000E+00 0. -1.
         22   -1    0    0    0    0 -0.00000000000E+00 -0.00000000000E+00 -0.59693334455E+03  0.59693334455E+03  0.00000000000E+00 0. -1.
         24    2    1    2    0    0 -0.68213023987E+02  0.28894356145E+02 -0.46934354911E+03  0.48190907579E+03  0.80405781999E+02 0.  0.
         25    2    1    2    0    0  0.11172480182E+03  0.29964115781E+01 -0.41084727126E+02  0.17270488876E+03  0.12509042319E+03 0.  0.
        -24    2    1    2    0    0 -0.43511777832E+02 -0.31890767723E+02  0.14756106422E+03  0.17638551254E+03  0.80170352894E+02 0.  0.
        -11    1    3    3    0    0 -0.13067243403E+02 -0.10187260327E+02 -0.14340136860E+02  0.21912842086E+02  0.00000000000E+00 0.  1.
         12    1    3    3    0    0 -0.55145780584E+02  0.39081616472E+02 -0.45500341225E+03  0.45999623370E+03  0.00000000000E+00 0. -1.
         11    1    5    5    0    0 -0.61611780148E+02 -0.29340149149E+01  0.83764441468E+02  0.10402452380E+03  0.00000000000E+00 0. -1.
        -12    1    5    5    0    0  0.18100002316E+02 -0.28956752809E+02  0.63796622751E+02  0.72360988740E+02  0.00000000000E+00 0.  1.
          5    1    4    4  501    0 -0.15752114413E+01  0.39740534195E+02  0.12685036268E+02  0.41954426397E+02  0.41800000000E+01 0. -1.
         -5    1    4    4    0  501  0.11330001326E+03 -0.36744122616E+02 -0.53769763393E+02  0.13075046236E+03  0.41800000000E+01 0. -1.
</event>
<event>
11    1  0.5813833E-009  0.1758184E+03  0.7561462E-02  0.1073076E+00
         22   -1    0    0    0    0  0.00000000000E+00  0.00000000000E+00  0.26467888190E+03  0.26467888190E+03  0.00000000000E+00 0. -1.
         22   -1    0    0    0    0 -0.00000000000E+00 -0.00000000000E+00 -0.15563790251E+04  0.15563790251E+04  0.00000000000E+00 0. -1.
        -24    2    1    2    0    0 -0.62626829448E+02  0.87194722994E+02 -0.88971299282E+03  0.89883946730E+03  0.69268599629E+02 0.  0.
         25    2    1    2    0    0  0.10106808118E+03 -0.17458271999E+03 -0.62375072224E+03  0.66738617098E+03  0.12508179149E+03 0.  0.
         24    2    1    2    0    0 -0.38441251730E+02  0.87387997000E+02  0.22176357185E+03  0.25483226873E+03  0.81523073631E+02 0.  0.
        -13    1    5    5    0    0  0.15108224525E+02 -0.29164631750E+01  0.96625371391E+01  0.18169447699E+02  0.00000000000E+00 0.  1.
         14    1    5    5    0    0 -0.53549476255E+02  0.90304460175E+02  0.21210103471E+03  0.23666282103E+03  0.00000000000E+00 0. -1.
         11    1    3    3    0    0 -0.30428410987E+02  0.63568785256E+02 -0.31718572333E+03  0.32492100846E+03  0.00000000000E+00 0. -1.
        -12    1    3    3    0    0 -0.32198418461E+02  0.23625937738E+02 -0.57252726949E+03  0.57391845884E+03  0.00000000000E+00 0.  1.
          5    1    4    4  501    0  0.11880280223E+03 -0.14951079509E+03 -0.59573283163E+03  0.62560583657E+03  0.41800000000E+01 0.  1.
         -5    1    4    4    0  501 -0.17734721051E+02 -0.25071924905E+02 -0.28017890617E+02  0.41780334415E+02  0.41800000000E+01 0.  1.
</event>
<event>
11    1  0.5813833E-009  0.2182350E+03  0.7561462E-02  0.1042329E+00
         22   -1    0    0    0    0  0.00000000000E+00  0.00000000000E+00  0.20912776472E+04  0.20912776472E+04  0.00000000000E+00 0. -1.
         22   -1    0    0    0    0 -0.00000000000E+00 -0.00000000000E+00 -0.46699554851E+03  0.46699554851E+03  0.00000000000E+00 0.  1.
        -24    2    1    2    0    0 -0.10846628537E+03 -0.23796850474E+02 -0.36555076727E+03  0.39051475630E+03  0.80889964048E+02 0.  0.
         25    2    1    2    0    0  0.40382514689E+02 -0.14542140998E+03  0.30886702256E+02  0.19843720822E+03  0.12508078691E+03 0.  0.
         24    2    1    2    0    0  0.68083770680E+02  0.16921826046E+03  0.19589461637E+04  0.19693212312E+04  0.86520632551E+02 0.  0.
        -13    1    5    5    0    0  0.53057529035E+02  0.30178538906E+02  0.68875752927E+03  0.69145699774E+03  0.00000000000E+00 0.  1.
         14    1    5    5    0    0  0.15026241645E+02  0.13903972155E+03  0.12701886344E+04  0.12778642334E+04  0.00000000000E+00 0. -1.
         11    1    3    3    0    0  0.59345492908E+00 -0.28119801169E+02 -0.68689310377E+02  0.74224637194E+02  0.00000000000E+00 0. -1.
        -12    1    3    3    0    0 -0.10905974030E+03  0.43229506948E+01 -0.29686145689E+03  0.31629011911E+03  0.00000000000E+00 0.  1.
          5    1    4    4  501    0 -0.44117280323E+02 -0.33502906479E+02  0.12464729702E+02  0.56935235594E+02  0.41800000000E+01 0. -1.
         -5    1    4    4    0  501  0.84499795013E+02 -0.11191850350E+03  0.18421972554E+02  0.14150197262E+03  0.41800000000E+01 0. -1.
</event>
<event>
11    1  0.5813833E-009  0.2230086E+03  0.7561462E-02  0.1039349E+00
         22   -1    0    0    0    0  0.00000000000E+00  0.00000000000E+00  0.13758469864E+04  0.13758469864E+04  0.00000000000E+00 0. -1.
         22   -1    0    0    0    0 -0.00000000000E+00 -0.00000000000E+00 -0.79878030637E+03  0.79878030637E+03  0.00000000000E+00 0. -1.
         24    2    1    2    0    0  0.12202020491E+02 -0.18480549760E+03 -0.75823596165E+03  0.78462492322E+03  0.80078307604E+02 0.  0.
         25    2    1    2    0    0  0.81367498624E+01  0.16666153567E+03  0.39969371052E+03  0.45082621689E+03  0.12508773493E+03 0.  0.
        -24    2    1    2    0    0 -0.20338770353E+02  0.18143961925E+02  0.93560893114E+03  0.93917615263E+03  0.77103208176E+02 0.  0.
        -11    1    3    3    0    0  0.12994333037E+02 -0.40547000893E+02 -0.74255020935E+02  0.85596262223E+02  0.00000000000E+00 0.  1.
         12    1    3    3    0    0 -0.79231254633E+00 -0.14425849671E+03 -0.68398094072E+03  0.69902866100E+03  0.00000000000E+00 0. -1.
         11    1    5    5    0    0 -0.15135462255E+02  0.48001413478E+02  0.50498426189E+03  0.50748627830E+03  0.00000000000E+00 0. -1.
        -12    1    5    5    0    0 -0.52033080982E+01 -0.29857451553E+02  0.43062466925E+03  0.43168987433E+03  0.00000000000E+00 0.  1.
          5    1    4    4  501    0 -0.54984622644E+02  0.10263784889E+03  0.19393632322E+03  0.22624457257E+03  0.41800000000E+01 0. -1.
         -5    1    4    4    0  501  0.63121372506E+02  0.64023686788E+02  0.20575738730E+03  0.22458164432E+03  0.41800000000E+01 0. -1.
</event>
<event>
11    1  0.5813833E-009  0.1359639E+03  0.7561462E-02  0.1112151E+00
         22   -1    0    0    0    0  0.00000000000E+00  0.00000000000E+00  0.47140144550E+03  0.47140144550E+03  0.00000000000E+00 0. -1.
         22   -1    0    0    0    0 -0.00000000000E+00 -0.00000000000E+00 -0.72479589593E+03  0.72479589593E+03  0.00000000000E+00 0.  1.
         24    2    1    2    0    0  0.10005891034E+02 -0.50760540738E+01 -0.57127273514E+03  0.57395584381E+03  0.54285251686E+02 0.  0.
         25    2    1    2    0    0  0.13048667191E+02 -0.43279304923E+02 -0.11670958618E+03  0.17695830324E+03  0.12509895135E+03 0.  0.
        -24    2    1    2    0    0 -0.23054558225E+02  0.48355358997E+02  0.43458787089E+03  0.44528319438E+03  0.80874917463E+02 0.  0.
        -11    1    3    3    0    0  0.45395631738E+01  0.21556136737E+02 -0.39350633871E+03  0.39412245974E+03  0.00000000000E+00 0.  1.
         12    1    3    3    0    0  0.54663278602E+01 -0.26632190811E+02 -0.17776639642E+03  0.17983338407E+03  0.00000000000E+00 0. -1.
         13    1    5    5    0    0 -0.20504332983E+02  0.53438389973E+02  0.43573799294E+03  0.43948115737E+03  0.00000000000E+00 0. -1.
        -14    1    5    5    0    0 -0.25502252423E+01 -0.50830309759E+01 -0.11501220523E+01  0.58020370064E+01  0.00000000000E+00 0.  1.
          5    1    4    4  501    0  0.49525955865E+02 -0.10983389116E+02 -0.52598829123E+00  0.50903872195E+02  0.41800000000E+01 0.  1.
         -5    1    4    4    0  501 -0.36477288674E+02 -0.32295915807E+02 -0.11618359789E+03  0.12605443104E+03  0.41800000000E+01 0.  1.
</event>
<event>
11    1  0.5813833E-009  0.1435481E+03  0.7561462E-02  0.1103660E+00
         22   -1    0    0    0    0  0.00000000000E+00  0.00000000000E+00  0.17215507488E+04  0.17215507488E+04  0.00000000000E+00 0.  1.
         22   -1    0    0    0    0 -0.00000000000E+00 -0.00000000000E+00 -0.31928085457E+03  0.31928085457E+03  0.00000000000E+00 0. -1.
         24    2    1    2    0    0 -0.25404266708E+02 -0.12307288333E+02 -0.28702669897E+03  0.29951911149E+03  0.80811670647E+02 0.  0.
         25    2    1    2    0    0  0.46277274233E+02  0.78140482753E+02  0.22251300664E+03  0.27093726851E+03  0.12508974454E+03 0.  0.
        -24    2    1    2    0    0 -0.20873007525E+02 -0.65833194421E+02  0.14667835866E+04  0.14703752234E+04  0.76023126276E+02 0.  0.
        -11    1    3    3    0    0 -0.39747335951E+02  0.10997536274E+02 -0.73780782989E+02  0.84524555354E+02  0.00000000000E+00 0.  1.
         12    1    3    3    0    0  0.14343069243E+02 -0.23304824607E+02 -0.21324591598E+03  0.21499455614E+03  0.00000000000E+00 0. -1.
         11    1    5    5    0    0 -0.47791836513E+02 -0.43697503198E+02  0.76897967935E+03  0.77170154767E+03  0.00000000000E+00 0. -1.
        -12    1    5    5    0    0  0.26918828988E+02 -0.22135691222E+02  0.69780390724E+03  0.69867367572E+03  0.00000000000E+00 0.  1.
          5    1    4    4  501    0  0.84732322881E+02  0.24628050105E+02  0.13432514245E+03  0.16076947374E+03  0.41800000000E+01 0. -1.
         -5    1    4    4    0  501 -0.38455048648E+02  0.53512432648E+02  0.88187864189E+02  0.11016779477E+03  0.41800000000E+01 0. -1.
</event>
<event>
11    1  0.5813833E-009  0.2464006E+03  0.7561462E-02  0.1025834E+00
         22   -1    0    0    0    0  0.00000000000E+00  0.00000000000E+00  0.60812198704E+03  0.60812198704E+03  0.00000000000E+00 0.  1.
         22   -1    0    0    0    0 -0.00000000000E+00 -0.00000000000E+00 -0.27312965050E+03  0.27312965050E+03  0.00000000000E+00 0.  1.
        -24    2    1    2    0    0  0.47322086895E+01  0.79016042245E+01 -0.16586879621E+03  0.18391883716E+03  0.78923076199E+02 0.  0.
         25    2    1    2    0    0 -0.14168185394E+03  0.15572742373E+03  0.18010466456E+03  0.30399167029E+03  0.12509383346E+03 0.  0.
         24    2    1    2    0    0  0.13694964525E+03 -0.16362902795E+03  0.32075646818E+03  0.39334113010E+03  0.79390607925E+02 0.  0.
        -13    1    5    5    0    0  0.95911830795E+02 -0.13420227086E+03  0.29162219742E+03  0.33504154193E+03  0.00000000000E+00 0.  1.
         14    1    5    5    0    0  0.41037814456E+02 -0.29426757090E+02  0.29134270760E+02  0.58299588171E+02  0.00000000000E+00 0. -1.
         11    1    3    3    0    0 -0.66282611121E+01  0.39291574500E+02 -0.53577807548E+02  0.66770825469E+02  0.00000000000E+00 0. -1.
        -12    1    3    3    0    0  0.11360469802E+02 -0.31389970276E+02 -0.11229098866E+03  0.11714801169E+03  0.00000000000E+00 0.  1.
          5    1    4    4  501    0 -0.81750693244E+02  0.59268476714E+01  0.76538260415E+02  0.11222246244E+03  0.41800000000E+01 0. -1.
         -5    1    4    4    0  501 -0.59931160696E+02  0.14980057605E+03  0.10356640415E+03  0.19176920784E+03  0.41800000000E+01 0. -1.
</event>
<event>
11    1  0.5813833E-009  0.1726604E+03  0.7561462E-02  0.1075739E+00
         22   -1    0    0    0    0  0.00000000000E+00  0.00000000000E+00  0.12851079604E+04  0.12851079604E+04  0.00000000000E+00 0. -1.
         22   -1    0    0    0    0 -0.00000000000E+00 -0.00000000000E+00 -0.43517221179E+03  0.43517221179E+03  0.00000000000E+00 0. -1.
         24    2    1    2    0    0  0.11082065890E+02  0.38749024944E+02 -0.38759786417E+03  0.39747391678E+03  0.78288639577E+02 0.  0.
         25    2    1    2    0    0 -0.72847018414E+02 -0.13529695190E+03  0.22193141292E+03  0.29751266187E+03  0.12509307993E+03 0.  0.
        -24    2    1    2    0    0  0.61764952523E+02  0.96547926955E+02  0.10156021998E+04  0.10252935935E+04  0.81502840663E+02 0.  0.
        -11    1    3    3    0    0  0.31986336749E+02 -0.88992454553E+01 -0.10494174015E+03  0.11006857469E+03  0.00000000000E+00 0.  1.
         12    1    3    3    0    0 -0.20904270859E+02  0.47648270400E+02 -0.28265612402E+03  0.28740534208E+03  0.00000000000E+00 0. -1.
         11    1    5    5    0    0  0.68084136767E+02  0.80946608243E+02  0.98230821949E+03  0.98798645797E+03  0.00000000000E+00 0. -1.
        -12    1    5    5    0    0 -0.63191842435E+01  0.15601318712E+02  0.33293980348E+02  0.37307135543E+02  0.00000000000E+00 0.  1.
          5    1    4    4  501    0 -0.65372598486E+02 -0.14477367828E+03  0.13171347996E+03  0.20639502843E+03  0.41800000000E+01 0. -1.
         -5    1    4    4    0  501 -0.74744199275E+01  0.94767263825E+01  0.90217932960E+02  0.91117633440E+02  0.41800000000E+01 0. -1.
</event>
<event>
11    1  0.5813833E-009  0.2073736E+03  0.7561462E-02  0.1049428E+00
         22   -1    0    0    0    0  0.00000000000E+00  0.00000000000E+00  0.13058475025E+03  0.13058475025E+03  0.00000000000E+00 0.  1.
         22   -1    0    0    0    0 -0.00000000000E+00 -0.00000000000E+00 -0.34467670758E+04  0.34467670758E+04  0.00000000000E+00 0.  1.
        -24    2    1    2    0    0  0.15859715087E+03 -0.33386173394E+02 -0.29708598833E+04  0.29764768632E+04  0.84488923559E+02 0.  0.
         25    2    1    2    0    0 -0.22030577520E+03 -0.33273761341E+02 -0.39524526319E+03  0.47064701658E+03  0.12509203956E+03 0.  0.
         24    2    1    2    0    0  0.61708624325E+02  0.66659934735E+02  0.49922820858E+02  0.13022794634E+03  0.78838624741E+02 0.  0.
        -11    1    5    5    0    0  0.76548763854E+02  0.70194611103E+02  0.37062540795E+02  0.11027524022E+03  0.00000000000E+00 0.  1.
         12    1    5    5    0    0 -0.14840139529E+02 -0.35346763682E+01  0.12860280063E+02  0.19952706121E+02  0.00000000000E+00 0. -1.
         11    1    3    3    0    0  0.41640091455E+02 -0.45606123891E+02 -0.76713896698E+03  0.76962069255E+03  0.00000000000E+00 0. -1.
        -12    1    3    3    0    0  0.11695705942E+03  0.12219950497E+02 -0.22037209163E+04  0.22068561706E+04  0.00000000000E+00 0.  1.
          5    1    4    4  501    0 -0.88299038509E+02  0.35848717185E+02 -0.22486345615E+03  0.24425989650E+03  0.41800000000E+01 0. -1.
         -5    1    4    4    0  501 -0.13200673669E+03 -0.69122478526E+02 -0.17038180704E+03  0.22638712008E+03  0.41800000000E+01 0. -1.
</event>
<event>
11    1  0.5813833E-009  0.2517835E+03  0.7561462E-02  0.1022953E+00
         22   -1    0    0    0    0  0.00000000000E+00  0.00000000000E+00  0.12327527332E+04  0.12327527332E+04  0.00000000000E+00 0. -1.
         22   -1    0    0    0    0 -0.00000000000E+00 -0.00000000000E+00 -0.47477290447E+03  0.47477290447E+03  0.00000000000E+00 0. -1.
        -24    2    1    2    0    0  0.12206616898E+03 -0.18562045274E+03 -0.35647276462E+03  0.42802397831E+03  0.82320058350E+02 0.  0.
         25    2    1    2    0    0 -0.11192476083E+03  0.16678008506E+03  0.92568089707E+02  0.25408320722E+03  0.12508667436E+03 0.  0.
         24    2    1    2    0    0 -0.10141408152E+02  0.18840367684E+02  0.10218845036E+04  0.10254184521E+04  0.82324088678E+02 0.  0.
        -13    1    5    5    0    0  0.35922920542E+02  0.75076394118E+01  0.37244227901E+03  0.37424600475E+03  0.00000000000E+00 0.  1.
         14    1    5    5    0    0 -0.46064328694E+02  0.11332728272E+02  0.64944222463E+03  0.65117244739E+03  0.00000000000E+00 0. -1.
         13    1    3    3    0    0  0.74930011544E+02 -0.15375901371E+03 -0.31200391223E+03  0.35581284712E+03  0.00000000000E+00 0. -1.
        -14    1    3    3    0    0  0.47136157438E+02 -0.31861439032E+02 -0.44468852389E+02  0.72211131192E+02  0.00000000000E+00 0.  1.
          5    1    4    4  501    0  0.27350251539E+02  0.19618518391E+02  0.11599905489E+02  0.35846237326E+02  0.41800000000E+01 0. -1.
         -5    1    4    4    0  501 -0.13927501237E+03  0.14716156667E+03  0.80968184218E+02  0.21823696990E+03  0.41800000000E+01 0. -1.
</event>
<event>
11    1  0.5813833E-009  0.1542960E+03  0.7561462E-02  0.1092568E+00
         22   -1    0    0    0    0  0.00000000000E+00  0.00000000000E+00  0.18940047990E+03  0.18940047990E+03  0.00000000000E+00 0. -1.
         22   -1    0    0    0    0 -0.00000000000E+00 -0.00000000000E+00 -0.84462590299E+03  0.84462590299E+03  0.00000000000E+00 0.  1.
        -24    2    1    2    0    0  0.40991492006E+02 -0.30812720923E+02 -0.73072046887E+03  0.73694595987E+03  0.80667328897E+02 0.  0.
         25    2    1    2    0    0 -0.67757631420E+02  0.10286976989E+03  0.22533586522E+02  0.17699886303E+03  0.12509016277E+03 0.  0.
         24    2    1    2    0    0  0.26766139413E+02 -0.72057048964E+02  0.52961459257E+02  0.12008155999E+03  0.75538204626E+02 0.  0.
        -11    1    5    5    0    0 -0.18794941786E+02 -0.11849013120E+02 -0.73972094212E+01  0.23417251245E+02  0.00000000000E+00 0.  1.
         12    1    5    5    0    0  0.45561081199E+02 -0.60208035844E+02  0.60358668678E+02  0.96664308743E+02  0.00000000000E+00 0. -1.
         11    1    3    3    0    0 -0.43089351463E+01  0.23878721125E+02 -0.21297060758E+03  0.21434840783E+03  0.00000000000E+00 0. -1.
        -12    1    3    3    0    0  0.45300427153E+02 -0.54691442047E+02 -0.51774986129E+03  0.52259755204E+03  0.00000000000E+00 0.  1.
          5    1    4    4  501    0  0.32089548940E+02  0.37997498718E+02 -0.14943794669E+02  0.52099313423E+02  0.41800000000E+01 0.  1.
         -5    1    4    4    0  501 -0.99847180359E+02  0.64872271169E+02  0.37477381192E+02  0.12489954961E+03  0.41800000000E+01 0.  1.
</event>
<event>
11    1  0.5813833E-009  0.1430642E+03  0.7561462E-02  0.1104184E+00
         22   -1    0    0    0    0  0.00000000000E+00  0.00000000000E+00  0.17606321326E+04  0.17606321326E+04  0.00000000000E+00 0. -1.
         22   -1    0    0    0    0 -0.00000000000E+00 -0.00000000000E+00 -0.59091438390E+02  0.59091438390E+02  0.00000000000E+00 0. -1.
        -24    2    1    2    0    0 -0.42307157752E+02 -0.70224226354E+02  0.10107956114E+03  0.15390072842E+03  0.82140239618E+02 0.  0.
         25    2    1    2    0    0 -0.22832132919E-01  0.59729152608E+02  0.12233579215E+03  0.18488213167E+03  0.12509110432E+03 0.  0.
         24    2    1    2    0    0  0.42329989884E+02  0.10495073746E+02  0.14781253410E+04  0.14809407109E+04  0.80180365973E+02 0.  0.
        -11    1    5    5    0    0  0.24466391177E+02 -0.42079488505E+00  0.11143557018E+03  0.11409061165E+03  0.00000000000E+00 0.  1.
         12    1    5    5    0    0  0.17863598708E+02  0.10915868631E+02  0.13666897708E+04  0.13668500993E+04  0.00000000000E+00 0. -1.
         11    1    3    3    0    0 -0.41359074838E+02 -0.38006578754E+02  0.96975029165E+01  0.57001005805E+02  0.00000000000E+00 0. -1.
        -12    1    3    3    0    0 -0.94808291392E+00 -0.32217647600E+02  0.91382058223E+02  0.96899722617E+02  0.00000000000E+00 0.  1.
          5    1    4    4  501    0 -0.10412400060E+02  0.21548080202E+02  0.13946282513E+03  0.14156302422E+03  0.41800000000E+01 0. -1.
         -5    1    4    4    0  501  0.10389567927E+02  0.38181072406E+02 -0.17127032977E+02  0.43319107451E+02  0.41800000000E+01 0. -1.
</event>
<event>
11    1  0.5813833E-009  0.1686493E+03  0.7561462E-02  0.1079213E+00
         22   -1    0    0    0    0  0.00000000000E+00  0.00000000000E+00  0.56085591033E+03  0.56085591033E+03  0.00000000000E+00 0. -1.
         22   -1    0    0    0    0 -0.00000000000E+00 -0.00000000000E+00 -0.74555738749E+03  0.74555738749E+03  0.00000000000E+00 0.  1.
         24    2    1    2    0    0 -0.11054579299E+03  0.23421574493E+02 -0.70915929164E+03  0.72252061230E+03  0.79750810529E+02 0.  0.
         25    2    1    2    0    0  0.11709266431E+03 -0.21357812227E+02  0.33146081663E+03  0.37374007999E+03  0.12509406959E+03 0.  0.
        -24    2    1    2    0    0 -0.65468713208E+01 -0.20637622660E+01  0.19299699785E+03  0.21015260552E+03  0.82880370356E+02 0.  0.
        -13    1    3    3    0    0 -0.12046281588E+03  0.32532919329E+02 -0.63337664622E+03  0.64555066171E+03  0.00000000000E+00 0.  1.
         14    1    3    3    0    0  0.99170228943E+01 -0.91113448364E+01 -0.75782645424E+02  0.76969950599E+02  0.00000000000E+00 0. -1.
         11    1    5    5    0    0  0.18218214900E+02 -0.36154470711E+02  0.10657451061E+03  0.11400515523E+03  0.00000000000E+00 0. -1.
        -12    1    5    5    0    0 -0.24765086221E+02  0.34090708445E+02  0.86422487240E+02  0.96147450297E+02  0.00000000000E+00 0.  1.
          5    1    4    4  501    0 -0.18933874166E+02 -0.30624031473E+02  0.67341766764E+02  0.76476851697E+02  0.41800000000E+01 0.  1.
         -5    1    4    4    0  501  0.13602653848E+03  0.92662192461E+01  0.26411904987E+03  0.29726322829E+03  0.41800000000E+01 0.  1.
</event>
<event>
11    1  0.5813833E-009  0.1311251E+03  0.7561462E-02  0.1117894E+00
         22   -1    0    0    0    0  0.00000000000E+00  0.00000000000E+00  0.14864261354E+04  0.14864261354E+04  0.00000000000E+00 0.  1.
         22   -1    0    0    0    0 -0.00000000000E+00 -0.00000000000E+00 -0.92050706015E+03  0.92050706015E+03  0.00000000000E+00 0. -1.
         24    2    1    2    0    0 -0.10431156727E+01 -0.10037454871E+02 -0.89975654816E+03  0.90396346866E+03  0.86523223066E+02 0.  0.
         25    2    1    2    0    0  0.37676585465E+02 -0.48942837797E+01  0.23473775575E+03  0.26868816089E+03  0.12509210494E+03 0.  0.
        -24    2    1    2    0    0 -0.36633469792E+02  0.14931738651E+02  0.12309378677E+04  0.12342815660E+04  0.81718922093E+02 0.  0.
        -13    1    3    3    0    0  0.22030970645E+02 -0.19997575824E+01 -0.61614303991E+02  0.65465144575E+02  0.00000000000E+00 0.  1.
         14    1    3    3    0    0 -0.23074086318E+02 -0.80376972886E+01 -0.83814224416E+03  0.83849832408E+03  0.00000000000E+00 0. -1.
         13    1    5    5    0    0  0.24135555933E+02  0.90561640123E+01  0.22067110148E+03  0.22217172232E+03  0.00000000000E+00 0. -1.
        -14    1    5    5    0    0 -0.60769025725E+02  0.58755746384E+01  0.10102667662E+04  0.10121098437E+04  0.00000000000E+00 0.  1.
          5    1    4    4  501    0  0.24629615575E+02 -0.47467255432E+02  0.21168113278E+03  0.21837154731E+03  0.41800000000E+01 0.  1.
         -5    1    4    4    0  501  0.13046969890E+02  0.42572971652E+02  0.23056622976E+02  0.50316613575E+02  0.41800000000E+01 0.  1.
</event>
<event>
11    1  0.5813833E-009  0.1477154E+03  0.7561462E-02  0.1099236E+00
         22   -1    0    0    0    0  0.00000000000E+00  0.00000000000E+00  0.20412581560E+03  0.20412581560E+03  0.00000000000E+00 0.  1.
         22   -1    0    0    0    0 -0.00000000000E+00 -0.00000000000E+00 -0.10511703115E+04  0.10511703115E+04  0.00000000000E+00 0. -1.
         24    2    1    2    0    0 -0.17087041689E+02 -0.17306662877E+02 -0.61246705294E+03  0.61823250663E+03  0.80647713809E+02 0.  0.
         25    2    1    2    0    0 -0.62156069976E+02  0.18754210710E+02 -0.40721662216E+03  0.43090612098E+03  0.12505842747E+03 0.  0.
        -24    2    1    2    0    0  0.79243111666E+02 -0.14475478327E+01  0.17263917924E+03  0.20615749946E+03  0.80094083624E+02 0.  0.
        -13    1    3    3    0    0 -0.19647688069E+00 -0.13782824635E+02 -0.14462939532E+02  0.19979526471E+02  0.00000000000E+00 0.  1.
         14    1    3    3    0    0 -0.16890564808E+02 -0.35238382418E+01 -0.59800411341E+03  0.59825298016E+03  0.00000000000E+00 0. -1.
         11    1    5    5    0    0  0.89481856846E+01  0.21405618244E+02  0.61568537310E+01  0.24003694868E+02  0.00000000000E+00 0. -1.
        -12    1    5    5    0    0  0.70294925981E+02 -0.22853166077E+02  0.16648232551E+03  0.18215380459E+03  0.00000000000E+00 0.  1.
          5    1    4    4  501    0 -0.37785446738E+02  0.70835230294E+02 -0.27843771281E+03  0.28981097659E+03  0.41800000000E+01 0.  1.
         -5    1    4    4    0  501 -0.24370623238E+02 -0.52081019584E+02 -0.12877890935E+03  0.14109514439E+03  0.41800000000E+01 0.  1.
</event>
<event>
11    1  0.5813833E-009  0.1406516E+03  0.7561462E-02  0.1106833E+00
         22   -1    0    0    0    0  0.00000000000E+00  0.00000000000E+00  0.79880224993E+03  0.79880224993E+03  0.00000000000E+00 0. -1.
         22   -1    0    0    0    0 -0.00000000000E+00 -0.00000000000E+00 -0.33618153046E+03  0.33618153046E+03  0.00000000000E+00 0.  1.
        -24    2    1    2    0    0 -0.66385528456E+02 -0.26404000838E+01 -0.30525943455E+03  0.32766823044E+03  0.98838943502E+02 0.  0.
         25    2    1    2    0    0  0.15660244192E+02  0.23004927087E+02  0.22565561157E+03  0.25951981722E+03  0.12512238241E+03 0.  0.
         24    2    1    2    0    0  0.50725284264E+02 -0.20364527003E+02  0.54222454246E+03  0.54779573273E+03  0.55542253555E+02 0.  0.
        -13    1    5    5    0    0 -0.11275882399E+02  0.25358803098E+01  0.65625064351E+02  0.66635015449E+02  0.00000000000E+00 0.  1.
         14    1    5    5    0    0  0.62001166663E+02 -0.22900407313E+02  0.47659947811E+03  0.48116071728E+03  0.00000000000E+00 0. -1.
         13    1    3    3    0    0 -0.47958654718E+02  0.25306834382E+02 -0.63070046720E+02  0.83176314069E+02  0.00000000000E+00 0. -1.
        -14    1    3    3    0    0 -0.18426873738E+02 -0.27947234466E+02 -0.24218938783E+03  0.24449191637E+03  0.00000000000E+00 0.  1.
          5    1    4    4  501    0  0.16277959001E+02  0.26286106540E+02 -0.25019199324E+01  0.31299574272E+02  0.41800000000E+01 0. -1.
         -5    1    4    4    0  501 -0.61771480816E+00 -0.32811794533E+01  0.22815753151E+03  0.22822024295E+03  0.41800000000E+01 0. -1.
</event>
<event>
11    1  0.5813833E-009  0.1797480E+03  0.7561462E-02  0.1069847E+00
         22   -1    0    0    0    0  0.00000000000E+00  0.00000000000E+00  0.79191824916E+03  0.79191824916E+03  0.00000000000E+00 0.  1.
         22   -1    0    0    0    0 -0.00000000000E+00 -0.00000000000E+00 -0.36468863445E+03  0.36468863445E+03  0.00000000000E+00 0.  1.
         24    2    1    2    0    0 -0.23065402320E+02  0.57355596571E+02 -0.27204689336E+03  0.29019295036E+03  0.79879653284E+02 0.  0.
         25    2    1    2    0    0  0.14782014516E+03 -0.73342989422E+02  0.68618428934E+02  0.21814288475E+03  0.12509132649E+03 0.  0.
        -24    2    1    2    0    0 -0.12475474284E+03  0.15987392850E+02  0.63065807913E+03  0.64827104850E+03  0.81892594041E+02 0.  0.
        -13    1    3    3    0    0 -0.23476846862E+02  0.26827448730E+02 -0.25001226238E+03  0.25254109702E+03  0.00000000000E+00 0.  1.
         14    1    3    3    0    0  0.41144454248E+00  0.30528147841E+02 -0.22034630975E+02  0.37651853333E+02  0.00000000000E+00 0. -1.
         13    1    5    5    0    0 -0.86335530289E+02 -0.24444119310E+02  0.46191401922E+03  0.47054850962E+03  0.00000000000E+00 0. -1.
        -14    1    5    5    0    0 -0.38419212552E+02  0.40431512161E+02  0.16874405991E+03  0.17772253888E+03  0.00000000000E+00 0.  1.
          5    1    4    4  501    0  0.29698731590E+02 -0.79270522256E+02  0.78729626683E+01  0.85119247518E+02  0.41800000000E+01 0. -1.
         -5    1    4    4    0  501  0.11812141357E+03  0.59275328345E+01  0.60745466266E+02  0.13302363723E+03  0.41800000000E+01 0. -1.
</event>
<event>
11    1  0.5813833E-009  0.3419280E+03  0.7561462E-02  0.9838583E-01
         22   -1    0    0    0    0  0.00000000000E+00  0.00000000000E+00  0.55274164250E+03  0.55274164250E+03  0.00000000000E+00 0.  1.
         22   -1    0    0    0    0 -0.00000000000E+00 -0.00000000000E+00 -0.16439628158E+04  0.16439628158E+04  0.00000000000E+00 0. -1.
        -24    2    1    2    0    0 -0.86022480779E+02 -0.23648127476E+01 -0.91151532316E+03  0.91896882568E+03  0.78981381849E+02 0.  0.
         25    2    1    2    0    0  0.39716601735E+03  0.23280414087E+02 -0.61020885476E+03  0.73911117063E+03  0.12509057957E+03 0.  0.
         24    2    1    2    0    0 -0.31114353657E+03 -0.20915601340E+02  0.43050300462E+03  0.53862446198E+03  0.86808474964E+02 0.  0.
        -11    1    5    5    0    0 -0.27626043346E+03 -0.73984197083E+01  0.41393000843E+03  0.49770735938E+03  0.00000000000E+00 0.  1.
         12    1    5    5    0    0 -0.34883103114E+02 -0.13517181631E+02  0.16572996197E+02  0.40917102599E+02  0.00000000000E+00 0. -1.
         11    1    3    3    0    0 -0.79555398655E+02  0.18378962905E+00 -0.42370978240E+03  0.43111376101E+03  0.00000000000E+00 0. -1.
        -12    1    3    3    0    0 -0.64670821241E+01 -0.25486023767E+01 -0.48780554076E+03  0.48785506467E+03  0.00000000000E+00 0.  1.
          5    1    4    4  501    0  0.19452024056E+03  0.71059947120E+02 -0.27125800770E+03  0.34130048229E+03  0.41800000000E+01 0. -1.
         -5    1    4    4    0  501  0.20264577679E+03 -0.47779533033E+02 -0.33895084707E+03  0.39781068834E+03  0.41800000000E+01 0. -1.
</event>
<event>
11    1  0.5813833E-009  0.1408324E+03  0.7561462E-02  0.1106632E+00
         22   -1    0    0    0    0  0.00000000000E+00  0.00000000000E+00  0.97928243306E+03  0.97928243306E+03  0.00000000000E+00 0.  1.
         22   -1    0    0    0    0 -0.00000000000E+00 -0.00000000000E+00 -0.15517104718E+03  0.15517104718E+03  0.00000000000E+00 0.  1.
        -24    2    1    2    0    0 -0.16054431165E+02 -0.70358146193E+01 -0.12260896177E+03  0.14795411449E+03  0.80933398803E+02 0.  0.
         25    2    1    2    0    0 -0.27124216449E+02  0.56533329744E+02  0.29400132540E+03  0.32560209672E+03  0.12509278780E+03 0.  0.
         24    2    1    2    0    0  0.43178647614E+02 -0.49497515125E+02  0.65271902224E+03  0.66089726903E+03  0.80179040945E+02 0.  0.
        -11    1    5    5    0    0  0.47654672003E+02 -0.11145679590E+02  0.52981618395E+03  0.53207178342E+03  0.00000000000E+00 0.  1.
         12    1    5    5    0    0 -0.44760243890E+01 -0.38351835535E+02  0.12290283829E+03  0.12882548561E+03  0.00000000000E+00 0. -1.
         13    1    3    3    0    0 -0.11067484912E+02 -0.20834713205E+02  0.86865671709E+00  0.23607817797E+02  0.00000000000E+00 0. -1.
        -14    1    3    3    0    0 -0.49869462526E+01  0.13798898586E+02 -0.12347761848E+03  0.12434629669E+03  0.00000000000E+00 0.  1.
          5    1    4    4  501    0 -0.51723009231E+02  0.29716594860E+02  0.28011857337E+03  0.28643015421E+03  0.41800000000E+01 0.  1.
         -5    1    4    4    0  501  0.24598792782E+02  0.26816734884E+02  0.13882752038E+02  0.39171942514E+02  0.41800000000E+01 0.  1.
</event>
<event>
11    1  0.5813833E-009  0.2342114E+03  0.7561462E-02  0.1032663E+00
         22   -1    0    0    0    0  0.00000000000E+00  0.00000000000E+00  0.11065424029E+04  0.11065424029E+04  0.00000000000E+00 0.  1.
         22   -1    0    0    0    0 -0.00000000000E+00 -0.00000000000E+00 -0.19701797746E+03  0.19701797746E+03  0.00000000000E+00 0. -1.
        -24    2    1    2    0    0 -0.96388734323E+02  0.53503173272E+02 -0.75499412300E+02  0.15595695089E+03  0.80430290421E+02 0.  0.
         25    2    1    2    0    0  0.27711064116E+03 -0.62843218759E+02  0.28988597855E+03  0.42475909883E+03  0.12508730505E+03 0.  0.
         24    2    1    2    0    0 -0.18072190684E+03  0.93400454869E+01  0.69513785916E+03  0.72284433061E+03  0.80868034465E+02 0.  0.
        -11    1    5    5    0    0 -0.13332821703E+03  0.39919764429E+02  0.54411978873E+03  0.56163720099E+03  0.00000000000E+00 0.  1.
         12    1    5    5    0    0 -0.47393689809E+02 -0.30579718942E+02  0.15101807043E+03  0.16120712962E+03  0.00000000000E+00 0. -1.
         11    1    3    3    0    0 -0.93074508601E+02  0.70164455585E+02 -0.53737522042E+02  0.12834966402E+03  0.00000000000E+00 0. -1.
        -12    1    3    3    0    0 -0.33142257224E+01 -0.16661282313E+02 -0.21761890258E+02  0.27607286865E+02  0.00000000000E+00 0.  1.
          5    1    4    4  501    0  0.15912486781E+02 -0.52198462663E+01  0.87841648150E+02  0.89521402918E+02  0.41800000000E+01 0.  1.
         -5    1    4    4    0  501  0.26119815438E+03 -0.57623372492E+02  0.20204433040E+03  0.33523769591E+03  0.41800000000E+01 0.  1.
</event>
<event>
11    1  0.5813833E-009  0.1769876E+03  0.7561462E-02  0.1072106E+00
         22   -1    0    0    0    0  0.00000000000E+00  0.00000000000E+00  0.31509650917E+03  0.31509650917E+03  0.00000000000E+00 0. -1.
         22   -1    0    0    0    0 -0.00000000000E+00 -0.00000000000E+00 -0.14650994921E+04  0.14650994921E+04  0.00000000000E+00 0. -1.
         24    2    1    2    0    0  0.12277354426E+03 -0.19346774233E+02 -0.13479421958E+04  0.13559767675E+04  0.79228718032E+02 0.  0.
         25    2    1    2    0    0 -0.14117070723E+03  0.35576282089E+02 -0.20093532532E+02  0.19299189144E+03  0.12508908700E+03 0.  0.
        -24    2    1    2    0    0  0.18397162967E+02 -0.16229507855E+02  0.21803274539E+03  0.23122734242E+03  0.72979129134E+02 0.  0.
        -13    1    3    3    0    0  0.10497296223E+03  0.38206942207E+01 -0.74988214140E+03  0.75720350402E+03  0.00000000000E+00 0.  1.
         14    1    3    3    0    0  0.17800582024E+02 -0.23167468454E+02 -0.59806005441E+03  0.59877326343E+03  0.00000000000E+00 0. -1.
         13    1    5    5    0    0  0.13149393596E+02 -0.56795074308E+01  0.21894123071E+03  0.21940926567E+03  0.00000000000E+00 0. -1.
        -14    1    5    5    0    0  0.52477693703E+01 -0.10550000425E+02 -0.90848532649E+00  0.11818076743E+02  0.00000000000E+00 0.  1.
          5    1    4    4  501    0 -0.81058368870E+02  0.64486360048E+02  0.31738354496E+02  0.10841469154E+03  0.41800000000E+01 0. -1.
         -5    1    4    4    0  501 -0.60112338355E+02 -0.28910077959E+02 -0.51831887028E+02  0.84577199900E+02  0.41800000000E+01 0. -1.
</event>
<event>
11    1  0.5813833E-009  0.1321893E+03  0.7561462E-02  0.1116608E+00
         22   -1    0    0    0    0  0.00000000000E+00  0.00000000000E+00  0.95054711914E+03  0.95054711914E+03  0.00000000000E+00 0.  1.
         22   -1    0    0    0    0 -0.00000000000E+00 -0.00000000000E+00 -0.51841370280E+03  0.51841370280E+03  0.00000000000E+00 0.  1.
        -24    2    1    2    0    0  0.27806270314E+01 -0.41892817502E+02 -0.47977484819E+03  0.48833345870E+03  0.80764607861E+02 0.  0.
         25    2    1    2    0    0 -0.31566456643E+02  0.69526135034E+02  0.13749943152E+03  0.20096187293E+03  0.12509698663E+03 0.  0.
         24    2    1    2    0    0  0.28785829612E+02 -0.27633317532E+02  0.77440883301E+03  0.77966549031E+03  0.81098778753E+02 0.  0.
        -11    1    5    5    0    0  0.17844819344E+02 -0.21667900911E+02  0.76039277726E+03  0.76091071172E+03  0.00000000000E+00 0.  1.
         12    1    5    5    0    0  0.10941010268E+02 -0.59654166206E+01  0.14016055755E+02  0.18754778593E+02  0.00000000000E+00 0. -1.
         13    1    3    3    0    0  0.31170215983E+02 -0.33877305628E+02 -0.14206387513E+03  0.14933652875E+03  0.00000000000E+00 0. -1.
        -14    1    3    3    0    0 -0.28389588951E+02 -0.80155118736E+01 -0.33771097306E+03  0.33899692995E+03  0.00000000000E+00 0.  1.
          5    1    4    4  501    0 -0.41052718549E+02  0.11303047026E+02 -0.83379786491E+01  0.43589894016E+02  0.41800000000E+01 0. -1.
         -5    1    4    4    0  501  0.94862619061E+01  0.58223088008E+02  0.14583741017E+03  0.15737197891E+03  0.41800000000E+01 0. -1.
</event>
<event>
11    1  0.5813833E-009  0.1422103E+03  0.7561462E-02  0.1105115E+00
         22   -1    0    0    0    0  0.00000000000E+00  0.00000000000E+00  0.11792252145E+04  0.11792252145E+04  0.00000000000E+00 0.  1.
         22   -1    0    0    0    0 -0.00000000000E+00 -0.00000000000E+00 -0.64424748141E+02  0.64424748141E+02  0.00000000000E+00 0. -1.
         24    2    1    2    0    0  0.53832209195E+02  0.37324152801E+02  0.14927088466E+01  0.10355787333E+03  0.80193552236E+02 0.  0.
         25    2    1    2    0    0 -0.87285321223E+02 -0.43549738402E+02  0.70241010093E+03  0.72009922919E+03  0.12509053911E+03 0.  0.
        -24    2    1    2    0    0  0.33453112028E+02  0.62255856016E+01  0.41089765655E+03  0.41999286009E+03  0.79995310780E+02 0.  0.
        -13    1    3    3    0    0 -0.73678363987E+01 -0.18344337087E+02 -0.55349071871E+01  0.20528879997E+02  0.00000000000E+00 0.  1.
         14    1    3    3    0    0  0.61200045594E+02  0.55668489888E+02  0.70276160337E+01  0.83028993335E+02  0.00000000000E+00 0. -1.
         13    1    5    5    0    0 -0.11396491460E+02  0.11057072866E+02  0.16052208807E+02  0.22579023131E+02  0.00000000000E+00 0. -1.
        -14    1    5    5    0    0  0.44849603488E+02 -0.48314872642E+01  0.39484544775E+03  0.39741383696E+03  0.00000000000E+00 0.  1.
          5    1    4    4  501    0 -0.11258922044E+03 -0.28183836058E+02  0.64498070165E+03  0.65535352221E+03  0.41800000000E+01 0.  1.
         -5    1    4    4    0  501  0.25303899216E+02 -0.15365902344E+02  0.57429399284E+02  0.64745706981E+02  0.41800000000E+01 0.  1.
</event>
<event>
11    1  0.5813833E-009  0.1557709E+03  0.7561462E-02  0.1091124E+00
         22   -1    0    0    0    0  0.00000000000E+00  0.00000000000E+00  0.53013006638E+02  0.53013006638E+02  0.00000000000E+00 0. -1.
         22   -1    0    0    0    0 -0.00000000000E+00 -0.00000000000E+00 -0.22771208106E+04  0.22771208106E+04  0.00000000000E+00 0.  1.
        -24    2    1    2    0    0  0.22142953020E+01  0.19414131212E+02 -0.16654450331E+04  0.16675123760E+04  0.80675611166E+02 0.  0.
         25    2    1    2    0    0  0.71525593541E+02 -0.73206341005E+02 -0.50198082917E+03  0.52735837187E+03  0.12508805151E+03 0.  0.
         24    2    1    2    0    0 -0.73739888843E+02  0.53792209792E+02 -0.56681941751E+02  0.13526306943E+03  0.82171055670E+02 0.  0.
        -13    1    5    5    0    0 -0.84259934408E+02  0.39763786659E+02 -0.67144082292E+02  0.11484434276E+03  0.00000000000E+00 0.  1.
         14    1    5    5    0    0  0.10520045565E+02  0.14028423133E+02  0.10462140542E+02  0.20418726674E+02  0.00000000000E+00 0. -1.
         11    1    3    3    0    0 -0.96062919009E+01  0.31155741390E+02 -0.26908438671E+03  0.27105233487E+03  0.00000000000E+00 0. -1.
        -12    1    3    3    0    0  0.11820587203E+02 -0.11741610178E+02 -0.13963606464E+04  0.13964600411E+04  0.00000000000E+00 0.  1.
          5    1    4    4  501    0  0.50975043213E+02 -0.32370400486E+01 -0.39196828071E+03  0.39530436241E+03  0.41800000000E+01 0. -1.
         -5    1    4    4    0  501  0.20550550328E+02 -0.69969300956E+02 -0.11001254846E+03  0.13205400946E+03  0.41800000000E+01 0. -1.
</event>
<event>
11    1  0.5813833E-009  0.1386091E+03  0.7561462E-02  0.1109122E+00
         22   -1    0    0    0    0  0.00000000000E+00  0.00000000000E+00  0.12914034505E+04  0.12914034505E+04  0.00000000000E+00 0. -1.
         22   -1    0    0    0    0 -0.00000000000E+00 -0.00000000000E+00 -0.42638369838E+03  0.42638369838E+03  0.00000000000E+00 0. -1.
         24    2    1    2    0    0 -0.80478032544E+02 -0.28715275351E+02 -0.38876657005E+03  0.40562992792E+03  0.78069915309E+02 0.  0.
         25    2    1    2    0    0  0.11318247340E+02  0.25308536168E+02  0.13358763351E+03  0.18510043329E+03  0.12509152590E+03 0.  0.
        -24    2    1    2    0    0  0.69159785204E+02  0.34067391838E+01  0.11201986886E+04  0.11270567876E+04  0.10303988944E+03 0.  0.
        -11    1    3    3    0    0 -0.30957662185E+02  0.25478000529E+02 -0.10150590431E+03  0.10913731703E+03  0.00000000000E+00 0.  1.
         12    1    3    3    0    0 -0.49520370359E+02 -0.54193275881E+02 -0.28726066574E+03  0.29649261089E+03  0.00000000000E+00 0. -1.
         13    1    5    5    0    0  0.16661783132E+02  0.84437221945E+01  0.91495095939E+03  0.91514161175E+03  0.00000000000E+00 0. -1.
        -14    1    5    5    0    0  0.52498002072E+02 -0.50369830107E+01  0.20524772922E+03  0.21191517588E+03  0.00000000000E+00 0.  1.
          5    1    4    4  501    0 -0.27212252176E+02  0.54033505061E+02  0.23735822281E+02  0.65122868464E+02  0.41800000000E+01 0. -1.
         -5    1    4    4    0  501  0.38530499516E+02 -0.28724968893E+02  0.10985181123E+03  0.11997756482E+03  0.41800000000E+01 0. -1.
</event>
<event>
11    1  0.5813833E-009  0.1390667E+03  0.7561462E-02  0.1108605E+00
         22   -1    0    0    0    0  0.00000000000E+00  0.00000000000E+00  0.14672984793E+04  0.14672984793E+04  0.00000000000E+00 0.  1.
         22   -1    0    0    0    0 -0.00000000000E+00 -0.00000000000E+00 -0.77026547002E+02  0.77026547002E+02  0.00000000000E+00 0.  1.
        -24    2    1    2    0    0  0.23106895887E+02 -0.38983208919E+02  0.16936175902E+02  0.91465145951E+02  0.77623576666E+02 0.  0.
         25    2    1    2    0    0 -0.47170316998E+02 -0.18401882381E+02  0.83620856334E+02  0.15875433116E+03  0.12508725742E+03 0.  0.
         24    2    1    2    0    0  0.24063421111E+02  0.57385091300E+02  0.12897149001E+04  0.12941055492E+04  0.86443924347E+02 0.  0.
        -11    1    5    5    0    0  0.18937583419E+02  0.22374942999E+02  0.11357072380E+04  0.11360854724E+04  0.00000000000E+00 0.  1.
         12    1    5    5    0    0  0.51258376922E+01  0.35010148301E+02  0.15400766209E+03  0.15802007683E+03  0.00000000000E+00 0. -1.
         11    1    3    3    0    0  0.13014138281E+02  0.22148562850E+02 -0.41374541662E+01  0.26020091439E+02  0.00000000000E+00 0. -1.
        -12    1    3    3    0    0  0.10092757606E+02 -0.61131771770E+02  0.21073630068E+02  0.65445054512E+02  0.00000000000E+00 0.  1.
          5    1    4    4  501    0 -0.52587223026E+02 -0.55952866432E+01 -0.18062364318E+02  0.56039670439E+02  0.41800000000E+01 0. -1.
         -5    1    4    4    0  501  0.54169060274E+01 -0.12806595737E+02  0.10168322065E+03  0.10271466072E+03  0.41800000000E+01 0. -1.
</event>
<event>
11    1  0.5813833E-009  0.1370846E+03  0.7561462E-02  0.1110858E+00
         22   -1    0    0    0    0  0.00000000000E+00  0.00000000000E+00  0.47700068873E+03  0.47700068873E+03  0.00000000000E+00 0. -1.
         22   -1    0    0    0    0 -0.00000000000E+00 -0.00000000000E+00 -0.26619370415E+03  0.26619370415E+03  0.00000000000E+00 0.  1.
        -24    2    1    2    0    0 -0.40561825468E+02 -0.37664410800E+02 -0.21235977278E+03  0.23333285717E+03  0.79269663884E+02 0.  0.
         25    2    1    2    0    0  0.78558932013E+02  0.11740978406E+02  0.11439213517E+03  0.18719197284E+03  0.12508364296E+03 0.  0.
         24    2    1    2    0    0 -0.37997106545E+02  0.25923432394E+02  0.30877462220E+03  0.32266956287E+03  0.81597028355E+02 0.  0.
        -11    1    5    5    0    0  0.21269414251E+02 -0.10321117588E+01  0.32707471323E+02  0.39028603839E+02  0.00000000000E+00 0.  1.
         12    1    5    5    0    0 -0.59266520796E+02  0.26955544153E+02  0.27606715088E+03  0.28364095903E+03  0.00000000000E+00 0. -1.
         11    1    3    3    0    0  0.45545375977E+01  0.20247687944E+02 -0.27673100524E+02  0.34590651518E+02  0.00000000000E+00 0. -1.
        -12    1    3    3    0    0 -0.45116363066E+02 -0.57912098744E+02 -0.18468667226E+03  0.19874220565E+03  0.00000000000E+00 0.  1.
          5    1    4    4  501    0  0.19431559602E+02  0.58968521419E+02  0.18408477002E+02  0.64893886094E+02  0.41800000000E+01 0.  1.
         -5    1    4    4    0  501  0.59127372411E+02 -0.47227543013E+02  0.95983658164E+02  0.12229808675E+03  0.41800000000E+01 0.  1.
</event>
<event>
11    1  0.5813833E-009  0.1499720E+03  0.7561462E-02  0.1096907E+00
         22   -1    0    0    0    0  0.00000000000E+00  0.00000000000E+00  0.45410910752E+03  0.45410910752E+03  0.00000000000E+00 0.  1.
         22   -1    0    0    0    0 -0.00000000000E+00 -0.00000000000E+00 -0.89269115435E+03  0.89269115435E+03  0.00000000000E+00 0.  1.
        -24    2    1    2    0    0 -0.58081970141E+02 -0.20952572568E+02 -0.69714120401E+03  0.70448712578E+03  0.80521590352E+02 0.  0.
         25    2    1    2    0    0  0.92206933492E+02  0.94284761256E+02 -0.13888750532E+03  0.22875488290E+03  0.12508925824E+03 0.  0.
         24    2    1    2    0    0 -0.34124963351E+02 -0.73332188688E+02  0.39744666249E+03  0.41355825319E+03  0.80774106198E+02 0.  0.
        -13    1    5    5    0    0 -0.34112360080E+02 -0.36259567165E+02  0.34911035142E+03  0.35264209446E+03  0.00000000000E+00 0.  1.
         14    1    5    5    0    0 -0.12603271467E-01 -0.37072621523E+02  0.48336311078E+02  0.60916158727E+02  0.00000000000E+00 0. -1.
         13    1    3    3    0    0 -0.17025757621E+02  0.13708657493E+02 -0.43910381224E+02  0.49050232334E+02  0.00000000000E+00 0. -1.
        -14    1    3    3    0    0 -0.41056212520E+02 -0.34661230061E+02 -0.65323082278E+03  0.65543689345E+03  0.00000000000E+00 0.  1.
          5    1    4    4  501    0  0.53412952264E+02 -0.21338410036E+02 -0.29045600021E+02  0.64570817658E+02  0.41800000000E+01 0.  1.
         -5    1    4    4    0  501  0.38793981228E+02  0.11562317129E+03 -0.10984190530E+03  0.16418406524E+03  0.41800000000E+01 0.  1.
</event>
<event>
11    1  0.5813833E-009  0.1327274E+03  0.7561462E-02  0.1115963E+00
         22   -1    0    0    0    0  0.00000000000E+00  0.00000000000E+00  0.26196522776E+03  0.26196522776E+03  0.00000000000E+00 0. -1.
         22   -1    0    0    0    0 -0.00000000000E+00 -0.00000000000E+00 -0.10815244795E+04  0.10815244795E+04  0.00000000000E+00 0. -1.
        -24    2    1    2    0    0 -0.22892915384E+02 -0.31916202883E+02 -0.96696292241E+03  0.97084638885E+03  0.77347836713E+02 0.  0.
         25    2    1    2    0    0  0.59932347080E+02  0.80276805063E+01 -0.55932723814E+02  0.14977431774E+03  0.12509015461E+03 0.  0.
         24    2    1    2    0    0 -0.37039431697E+02  0.23888522377E+02  0.20333639450E+03  0.22286900066E+03  0.79889430618E+02 0.  0.
        -13    1    5    5    0    0  0.15246660984E+01  0.10006388112E+02 -0.44658261579E+01  0.11063273161E+02  0.00000000000E+00 0.  1.
         14    1    5    5    0    0 -0.38564097795E+02  0.13882134265E+02  0.20780222066E+03  0.21180572750E+03  0.00000000000E+00 0. -1.
         11    1    3    3    0    0 -0.58654488428E+01 -0.12585894828E+02 -0.88093413359E+03  0.88104356077E+03  0.00000000000E+00 0. -1.
        -12    1    3    3    0    0 -0.17027466541E+02 -0.19330308055E+02 -0.86028788818E+02  0.89802828084E+02  0.00000000000E+00 0.  1.
          5    1    4    4  501    0 -0.13151222055E+02  0.51188925291E+02 -0.30049198284E+02  0.60940031437E+02  0.41800000000E+01 0. -1.
         -5    1    4    4    0  501  0.73083569135E+02 -0.43161244785E+02 -0.25883525530E+02  0.88834286302E+02  0.41800000000E+01 0. -1.
</event>
<event>
11    1  0.5813833E-009  0.1852167E+03  0.7561462E-02  0.1065500E+00
         22   -1    0    0    0    0  0.00000000000E+00  0.00000000000E+00  0.51253089595E+03  0.51253089595E+03  0.00000000000E+00 0. -1.
         22   -1    0    0    0    0 -0.00000000000E+00 -0.00000000000E+00 -0.13993153741E+03  0.13993153741E+03  0.00000000000E+00 0. -1.
        -24    2    1    2    0    0  0.44714959209E+02  0.82571621872E+02 -0.21026650753E+02  0.12169684848E+03  0.74501695104E+02 0.  0.
         25    2    1    2    0    0 -0.10625716543E+03  0.61752969950E+02  0.14688545687E+03  0.22874404287E+03  0.12507791654E+03 0.  0.
         24    2    1    2    0    0  0.61542206220E+02 -0.14432459182E+03  0.24674055243E+03  0.30202154201E+03  0.75624603617E+02 0.  0.
        -11    1    5    5    0    0 -0.71302224435E+01 -0.63291737149E+02  0.12618560312E+03  0.14134882560E+03  0.00000000000E+00 0.  1.
         12    1    5    5    0    0  0.68672428664E+02 -0.81032854674E+02  0.12055494931E+03  0.16067271641E+03  0.00000000000E+00 0. -1.
         13    1    3    3    0    0  0.12505546845E+02  0.83477577665E+02 -0.23258021667E+01  0.84441127600E+02  0.00000000000E+00 0. -1.
        -14    1    3    3    0    0  0.32209412364E+02 -0.90595579249E+00 -0.18700848586E+02  0.37255720884E+02  0.00000000000E+00 0.  1.
          5    1    4    4  501    0  0.21814818830E+02 -0.13891344325E+02  0.17011171519E+02  0.31236326996E+02  0.41800000000E+01 0.  1.
         -5    1    4    4    0  501 -0.12807198426E+03  0.75644314275E+02  0.12987428535E+03  0.19750771587E+03  0.41800000000E+01 0.  1.
</event>
<event>
11    1  0.5813833E-009  0.2417998E+03  0.7561462E-02  0.1028361E+00
         22   -1    0    0    0    0  0.00000000000E+00  0.00000000000E+00  0.22708990001E+04  0.22708990001E+04  0.00000000000E+00 0. -1.
         22   -1    0    0    0    0 -0.00000000000E+00 -0.00000000000E+00 -0.28991791902E+03  0.28991791902E+03  0.00000000000E+00 0. -1.
         24    2    1    2    0    0  0.18892854816E+03 -0.97351081967E+02 -0.21501337651E+03  0.31482407620E+03  0.87819231431E+02 0.  0.
         25    2    1    2    0    0 -0.15368558050E+03  0.45403400593E+02  0.41507190640E+03  0.46218370913E+03  0.12509343333E+03 0.  0.
        -24    2    1    2    0    0 -0.35242967659E+02  0.51947681374E+02  0.17809225512E+04  0.17838091338E+04  0.79682269698E+02 0.  0.
        -11    1    3    3    0    0  0.41760108450E+02 -0.23835090671E+02 -0.54320463214E+01  0.48389310103E+02  0.00000000000E+00 0.  1.
         12    1    3    3    0    0  0.14716843971E+03 -0.73515991296E+02 -0.20958133019E+03  0.26643476610E+03  0.00000000000E+00 0. -1.
         13    1    5    5    0    0 -0.18253881797E+02  0.63645904549E+02  0.16448437572E+04  0.16461758688E+04  0.00000000000E+00 0. -1.
        -14    1    5    5    0    0 -0.16989085863E+02 -0.11698223176E+02  0.13607879400E+03  0.13763326502E+03  0.00000000000E+00 0.  1.
          5    1    4    4  501    0 -0.10111626736E+03 -0.34250503462E+02  0.19704073170E+03  0.22414307676E+03  0.41800000000E+01 0. -1.
         -5    1    4    4    0  501 -0.52569313141E+02  0.79653904055E+02  0.21803117470E+03  0.23804063237E+03  0.41800000000E+01 0. -1.
</event>
<event>
11    1  0.5813833E-009  0.1916465E+03  0.7561462E-02  0.1060593E+00
         22   -1    0    0    0    0  0.00000000000E+00  0.00000000000E+00  0.72201119029E+03  0.72201119029E+03  0.00000000000E+00 0.  1.
         22   -1    0    0    0    0 -0.00000000000E+00 -0.00000000000E+00 -0.63375930822E+03  0.63375930822E+03  0.00000000000E+00 0. -1.
        -24    2    1    2    0    0 -0.12702976078E+03  0.77958310255E+02 -0.30895760473E+03  0.35122487687E+03  0.75432448921E+02 0.  0.
         25    2    1    2    0    0  0.14890172168E+03 -0.11647541015E+02 -0.26789258165E+03  0.33124179317E+03  0.12508917743E+03 0.  0.
         24    2    1    2    0    0 -0.21871960896E+02 -0.66310769241E+02  0.66510206845E+03  0.67330382847E+03  0.78113911594E+02 0.  0.
        -11    1    5    5    0    0 -0.21945950891E+02 -0.82601844982E+02  0.60600993917E+03  0.61200713715E+03  0.00000000000E+00 0.  1.
         12    1    5    5    0    0  0.73989994719E-01  0.16291075742E+02  0.59092129279E+02  0.61296691314E+02  0.00000000000E+00 0. -1.
         13    1    3    3    0    0 -0.11602665294E+03  0.32826910726E+02 -0.22482020838E+03  0.25511549611E+03  0.00000000000E+00 0. -1.
        -14    1    3    3    0    0 -0.11003107847E+02  0.45131399529E+02 -0.84137396349E+02  0.96109380760E+02  0.00000000000E+00 0.  1.
          5    1    4    4  501    0  0.15411539415E+03  0.10847772489E+02 -0.16652922313E+03  0.22719745473E+03  0.41800000000E+01 0. -1.
         -5    1    4    4    0  501 -0.52136724687E+01 -0.22495313504E+02 -0.10136335852E+03  0.10404433844E+03  0.41800000000E+01 0. -1.
</event>
<event>
11    1  0.5813833E-009  0.1653507E+03  0.7561462E-02  0.1082150E+00
         22   -1    0    0    0    0  0.00000000000E+00  0.00000000000E+00  0.15885673675E+03  0.15885673675E+03  0.00000000000E+00 0.  1.
         22   -1    0    0    0    0 -0.00000000000E+00 -0.00000000000E+00 -0.13099314056E+04  0.13099314056E+04  0.00000000000E+00 0. -1.
         24    2    1    2    0    0  0.42047103909E+02  0.59896964577E+02 -0.11269437907E+04  0.11322118533E+04  0.80905920092E+02 0.  0.
         25    2    1    2    0    0 -0.55592527762E+02  0.60861173145E+02 -0.92092103259E+02  0.17585094310E+03  0.12509191488E+03 0.  0.
        -24    2    1    2    0    0  0.13545423853E+02 -0.12075813772E+03  0.67961225163E+02  0.16072534596E+03  0.80298831723E+02 0.  0.
        -11    1    3    3    0    0 -0.92313668325E+01  0.19237804878E+02 -0.68490824309E+02  0.71737746582E+02  0.00000000000E+00 0.  1.
         12    1    3    3    0    0  0.51278470741E+02  0.40659159698E+02 -0.10584529664E+04  0.10604741067E+04  0.00000000000E+00 0. -1.
         13    1    5    5    0    0  0.11715712142E+02  0.87228784696E+01  0.27586672493E+00  0.14608991144E+02  0.00000000000E+00 0. -1.
        -14    1    5    5    0    0  0.18297117109E+01 -0.12948101619E+03  0.67685358438E+02  0.14611635482E+03  0.00000000000E+00 0.  1.
          5    1    4    4  501    0 -0.40320443567E+02  0.80344160058E+02 -0.10640487257E+02  0.90617959555E+02  0.41800000000E+01 0. -1.
         -5    1    4    4    0  501 -0.15272084194E+02 -0.19482986913E+02 -0.81451616003E+02  0.85232983546E+02  0.41800000000E+01 0. -1.
</event>
<event>
11    1  0.5813833E-009  0.1488891E+03  0.7561462E-02  0.1098019E+00
         22   -1    0    0    0    0  0.00000000000E+00  0.00000000000E+00  0.19653971307E+04  0.19653971307E+04  0.00000000000E+00 0.  1.
         22   -1    0    0    0    0 -0.00000000000E+00 -0.00000000000E+00 -0.10586652434E+04  0.10586652434E+04  0.00000000000E+00 0.  1.
         24    2    1    2    0    0 -0.46562785694E+02 -0.42570530284E+02 -0.99193562642E+03  0.99710111562E+03  0.79334763835E+02 0.  0.
         25    2    1    2    0    0  0.11408866291E+03 -0.86812727281E+00  0.52450312509E+02  0.17724481297E+03  0.12509081419E+03 0.  0.
        -24    2    1    2    0    0 -0.67525877220E+02  0.43438657557E+02  0.18462172012E+04  0.18497164455E+04  0.80537653725E+02 0.  0.
        -13    1    3    3    0    0 -0.57353815694E+02 -0.17321932229E+02 -0.87229451074E+03  0.87434959997E+03  0.00000000000E+00 0.  1.
         14    1    3    3    0    0  0.10791030000E+02 -0.25248598055E+02 -0.11964111568E+03  0.12275151565E+03  0.00000000000E+00 0. -1.
         11    1    5    5    0    0  0.17294330179E+02  0.10811468771E+02  0.21350099198E+03  0.21447297100E+03  0.00000000000E+00 0. -1.
        -12    1    5    5    0    0 -0.84820207399E+02  0.32627188786E+02  0.16327162092E+04  0.16352434745E+04  0.00000000000E+00 0.  1.
          5    1    4    4  501    0  0.11278093425E+03  0.43582588504E+02  0.21432225113E+02  0.12286494140E+03  0.41800000000E+01 0.  1.
         -5    1    4    4    0  501  0.13077286650E+01 -0.44450715776E+02  0.31018087396E+02  0.54379871579E+02  0.41800000000E+01 0.  1.
</event>
<event>
11    1  0.5813833E-009  0.2011531E+03  0.7561462E-02  0.1053711E+00
         22   -1    0    0    0    0  0.00000000000E+00  0.00000000000E+00  0.16098294240E+03  0.16098294240E+03  0.00000000000E+00 0. -1.
         22   -1    0    0    0    0 -0.00000000000E+00 -0.00000000000E+00 -0.74514006461E+03  0.74514006461E+03  0.00000000000E+00 0. -1.
         24    2    1    2    0    0 -0.15770160002E+03 -0.94282774862E+02 -0.50587588327E+03  0.54391718216E+03  0.78590428794E+02 0.  0.
         25    2    1    2    0    0  0.22699950614E+01  0.12125788639E+03 -0.60424759541E+02  0.18441032485E+03  0.12508952177E+03 0.  0.
        -24    2    1    2    0    0  0.15543160496E+03 -0.26975111525E+02 -0.17856479404E+02  0.17779550000E+03  0.80035901332E+02 0.  0.
        -11    1    3    3    0    0 -0.15603207687E+01  0.70243776350E+01 -0.31739488981E+01  0.78645046677E+01  0.00000000000E+00 0.  1.
         12    1    3    3    0    0 -0.15614127925E+03 -0.10130715250E+03 -0.50270193437E+03  0.53605267750E+03  0.00000000000E+00 0. -1.
         11    1    5    5    0    0  0.12283872982E+03 -0.45162354590E+01 -0.43774263260E+02  0.13048347041E+03  0.00000000000E+00 0. -1.
        -12    1    5    5    0    0  0.32592875143E+02 -0.22458876066E+02  0.25917783857E+02  0.47312029594E+02  0.00000000000E+00 0.  1.
          5    1    4    4  501    0 -0.28668584388E+02  0.64480408401E+01 -0.58290960494E+02  0.65412333980E+02  0.41800000000E+01 0. -1.
         -5    1    4    4    0  501  0.30938579449E+02  0.11480984555E+03 -0.21337990471E+01  0.11899799087E+03  0.41800000000E+01 0. -1.
</event>
<event>
11    1  0.5813833E-009  0.1667070E+03  0.7561462E-02  0.1080933E+00
         22   -1    0    0    0    0  0.00000000000E+00  0.00000000000E+00  0.57570479875E+03  0.57570479875E+03  0.00000000000E+00 0. -1.
         22   -1    0    0    0    0 -0.00000000000E+00 -0.00000000000E+00 -0.37650860896E+03  0.37650860896E+03  0.00000000000E+00 0. -1.
        -24    2    1    2    0    0 -0.97193059749E+01  0.10989171136E+03 -0.28081286058E+03  0.31330826471E+03  0.84472202145E+02 0.  0.
         25    2    1    2    0    0  0.48465783900E+02 -0.10469924705E+03  0.21422710499E+02  0.17150668861E+03  0.12507896374E+03 0.  0.
         24    2    1    2    0    0 -0.38746477925E+02 -0.51924643025E+01  0.45858633987E+03  0.46739845439E+03  0.81434837827E+02 0.  0.
        -13    1    5    5    0    0 -0.36428730738E+01 -0.39143200017E+02  0.25649963482E+03  0.25949474618E+03  0.00000000000E+00 0.  1.
         14    1    5    5    0    0 -0.35103604851E+02  0.33950735714E+02  0.20208670505E+03  0.20790370821E+03  0.00000000000E+00 0. -1.
         13    1    3    3    0    0 -0.31192372065E+02  0.69339436233E+02 -0.24048766480E+03  0.25222061457E+03  0.00000000000E+00 0. -1.
        -14    1    3    3    0    0  0.21473066090E+02  0.40552275124E+02 -0.40325195774E+02  0.61087650137E+02  0.00000000000E+00 0.  1.
          5    1    4    4  501    0  0.62950543183E+02 -0.19366405067E+02 -0.28067861476E+02  0.71715450079E+02  0.41800000000E+01 0.  1.
         -5    1    4    4    0  501 -0.14484759283E+02 -0.85332841988E+02  0.49490571975E+02  0.99791238531E+02  0.41800000000E+01 0.  1.
</event>
<event>
11    1  0.5813833E-009  0.1438208E+03  0.7561462E-02  0.1103365E+00
         22   -1    0    0    0    0  0.00000000000E+00  0.00000000000E+00  0.15275553591E+03  0.15275553591E+03  0.00000000000E+00 0.  1.
         22   -1    0    0    0    0 -0.00000000000E+00 -0.00000000000E+00 -0.67594154463E+03  0.67594154463E+03  0.00000000000E+00 0. -1.
        -24    2    1    2    0    0 -0.55996670892E+02  0.19284359423E+01 -0.43734955679E+03  0.44827122895E+03  0.80827680019E+02 0.  0.
         25    2    1    2    0    0  0.76344620564E+02  0.64280207899E+02 -0.17871425248E+03  0.23988830135E+03  0.12508863605E+03 0.  0.
         24    2    1    2    0    0 -0.20347949672E+02 -0.66208643841E+02  0.92877800550E+02  0.14053755024E+03  0.79541772777E+02 0.  0.
        -13    1    5    5    0    0 -0.46083679442E+02 -0.32684904304E+02  0.76748344812E+02  0.95301190505E+02  0.00000000000E+00 0.  1.
         14    1    5    5    0    0  0.25735729770E+02 -0.33523739538E+02  0.16129455738E+02  0.45236359732E+02  0.00000000000E+00 0. -1.
         13    1    3    3    0    0 -0.65528056231E+02 -0.22164478659E+02 -0.36310529387E+03  0.36963582713E+03  0.00000000000E+00 0. -1.
        -14    1    3    3    0    0  0.95313853391E+01  0.24092914601E+02 -0.74244262927E+02  0.78635401812E+02  0.00000000000E+00 0.  1.
          5    1    4    4  501    0 -0.28372434964E+02 -0.10287969595E+02 -0.45087672195E+02  0.54416982350E+02  0.41800000000E+01 0. -1.
         -5    1    4    4    0  501  0.10471705553E+03  0.74568177493E+02 -0.13362658029E+03  0.18547131900E+03  0.41800000000E+01 0. -1.
</event>
<event>
11    1  0.5813833E-009  0.1409167E+03  0.7561462E-02  0.1106539E+00
         22   -1    0    0    0    0  0.00000000000E+00  0.00000000000E+00  0.95489984110E+03  0.95489984110E+03  0.00000000000E+00 0.  1.
         22   -1    0    0    0    0 -0.00000000000E+00 -0.00000000000E+00 -0.39486783254E+03  0.39486783254E+03  0.00000000000E+00 0. -1.
         24    2    1    2    0    0 -0.16048363180E+02  0.11385268652E+02 -0.36291025686E+03  0.37258430805E+03  0.82024616850E+02 0.  0.
         25    2    1    2    0    0  0.51232143637E+02  0.43217087082E+02  0.19107481406E+03  0.23800959956E+03  0.12508611336E+03 0.  0.
        -24    2    1    2    0    0 -0.35183780457E+02 -0.54602355734E+02  0.73186745136E+03  0.73917376603E+03  0.80799593903E+02 0.  0.
        -11    1    3    3    0    0 -0.34003729383E+02  0.17265414448E+01 -0.59988543902E+02  0.68977242310E+02  0.00000000000E+00 0.  1.
         12    1    3    3    0    0  0.17955366202E+02  0.96587272068E+01 -0.30292171296E+03  0.30360706574E+03  0.00000000000E+00 0. -1.
         11    1    5    5    0    0  0.52516272528E+01  0.17903634613E+02  0.19969865456E+03  0.20056837327E+03  0.00000000000E+00 0. -1.
        -12    1    5    5    0    0 -0.40435407710E+02 -0.72505990347E+02  0.53216879679E+03  0.53860539276E+03  0.00000000000E+00 0.  1.
          5    1    4    4  501    0 -0.13000672529E+02  0.58705899274E+02  0.38055330878E+02  0.71281699643E+02  0.41800000000E+01 0.  1.
         -5    1    4    4    0  501  0.64232816166E+02 -0.15488812191E+02  0.15301948318E+03  0.16672789991E+03  0.41800000000E+01 0.  1.
</event>
<event>
11    1  0.5813833E-009  0.1824868E+03  0.7561462E-02  0.1067649E+00
         22   -1    0    0    0    0  0.00000000000E+00  0.00000000000E+00  0.47096752078E+03  0.47096752078E+03  0.00000000000E+00 0. -1.
         22   -1    0    0    0    0 -0.00000000000E+00 -0.00000000000E+00 -0.34430946294E+03  0.34430946294E+03  0.00000000000E+00 0. -1.
         24    2    1    2    0    0  0.27901490684E+02 -0.13400920338E+03 -0.27465040181E+03  0.31727171666E+03  0.80570088791E+02 0.  0.
         25    2    1    2    0    0 -0.51184862658E+02  0.92737916675E+02  0.12519381169E+03  0.20625549503E+03  0.12509047682E+03 0.  0.
        -24    2    1    2    0    0  0.23283371974E+02  0.41271286704E+02  0.27611464796E+03  0.29174977203E+03  0.81444435911E+02 0.  0.
        -11    1    3    3    0    0  0.10093415771E+02 -0.25688863665E+02 -0.77345821251E+01  0.28663888763E+02  0.00000000000E+00 0.  1.
         12    1    3    3    0    0  0.17808074912E+02 -0.10832033971E+03 -0.26691581968E+03  0.28860782790E+03  0.00000000000E+00 0. -1.
         11    1    5    5    0    0  0.17891382522E+01  0.25480788159E+02  0.25856306588E+03  0.25982172854E+03  0.00000000000E+00 0. -1.
        -12    1    5    5    0    0  0.21494233722E+02  0.15790498545E+02  0.17551582080E+02  0.31928043490E+02  0.00000000000E+00 0.  1.
          5    1    4    4  501    0  0.41668145427E+02  0.34159137109E+02  0.42078377300E+02  0.68491920892E+02  0.41800000000E+01 0. -1.
         -5    1    4    4    0  501 -0.92853008084E+02  0.58578779566E+02  0.83115434390E+02  0.13776357414E+03  0.41800000000E+01 0. -1.
</event>
<event>
11    1  0.5813833E-009  0.1290033E+03  0.7561462E-02  0.1120500E+00
         22   -1    0    0    0    0  0.00000000000E+00  0.00000000000E+00  0.13209847400E+04  0.13209847400E+04  0.00000000000E+00 0. -1.
         22   -1    0    0    0    0 -0.00000000000E+00 -0.00000000000E+00 -0.16626925857E+03  0.16626925857E+03  0.00000000000E+00 0. -1.
        -24    2    1    2    0    0  0.16354724640E+01 -0.31577028384E+02 -0.13231319736E+03  0.15849145681E+03  0.81320207784E+02 0.  0.
         25    2    1    2    0    0 -0.74212587104E+01  0.29731206980E+02  0.19490763564E+03  0.23361415888E+03  0.12509024361E+03 0.  0.
         24    2    1    2    0    0  0.57857862465E+01  0.18458214046E+01  0.10921210431E+04  0.10951483828E+04  0.81146320157E+02 0.  0.
        -13    1    5    5    0    0  0.42261061809E+02 -0.46259199020E+01  0.46719888334E+03  0.46912918592E+03  0.00000000000E+00 0.  1.
         14    1    5    5    0    0 -0.36475275562E+02  0.64717413066E+01  0.62492215976E+03  0.62601919693E+03  0.00000000000E+00 0. -1.
         11    1    3    3    0    0  0.13474043806E+02 -0.54696151218E+02 -0.11252807329E+03  0.12584031982E+03  0.00000000000E+00 0. -1.
        -12    1    3    3    0    0 -0.11838571342E+02  0.23119122834E+02 -0.19785124068E+02  0.32651136985E+02  0.00000000000E+00 0.  1.
          5    1    4    4  501    0  0.38769240668E+02  0.26008219028E+02  0.17806576603E+03  0.18413139577E+03  0.41800000000E+01 0.  1.
         -5    1    4    4    0  501 -0.46190499378E+02  0.37229879517E+01  0.16841869612E+02  0.49482763101E+02  0.41800000000E+01 0.  1.
</event>
<event>
11    1  0.5813833E-009  0.1459951E+03  0.7561462E-02  0.1101043E+00
         22   -1    0    0    0    0  0.00000000000E+00  0.00000000000E+00  0.21425028311E+03  0.21425028311E+03  0.00000000000E+00 0.  1.
         22   -1    0    0    0    0 -0.00000000000E+00 -0.00000000000E+00 -0.18297238795E+04  0.18297238795E+04  0.00000000000E+00 0. -1.
        -24    2    1    2    0    0 -0.57103536607E+02 -0.12055077611E+02 -0.15617826439E+04  0.15646828584E+04  0.75241489897E+02 0.  0.
         25    2    1    2    0    0  0.90849510441E+02  0.76808390191E+02 -0.22084096741E+03  0.28030532386E+03  0.12508868593E+03 0.  0.
         24    2    1    2    0    0 -0.33745973833E+02 -0.64753312580E+02  0.16715001496E+03  0.19898598030E+03  0.79526791812E+02 0.  0.
        -13    1    5    5    0    0 -0.27001738827E+01  0.49944489474E+01  0.90926408856E+02  0.91103497665E+02  0.00000000000E+00 0.  1.
         14    1    5    5    0    0 -0.31045799951E+02 -0.69747761527E+02  0.76223606103E+02  0.10788248264E+03  0.00000000000E+00 0. -1.
         13    1    3    3    0    0 -0.61063394940E+02 -0.85252439576E+00 -0.15204591089E+04  0.15216850419E+04  0.00000000000E+00 0. -1.
        -14    1    3    3    0    0  0.39598583331E+01 -0.11202553216E+02 -0.41323535046E+02  0.42997816517E+02  0.00000000000E+00 0.  1.
          5    1    4    4  501    0 -0.20341814080E+02  0.54272423144E+02 -0.60988500460E+02  0.84239865279E+02  0.41800000000E+01 0.  1.
         -5    1    4    4    0  501  0.11119132452E+03  0.22535967047E+02 -0.15985246695E+03  0.19606545858E+03  0.41800000000E+01 0.  1.
</event>
<event>
11    1  0.5813833E-009  0.1323984E+03  0.7561462E-02  0.1116357E+00
         22   -1    0    0    0    0  0.00000000000E+00  0.00000000000E+00  0.36353464245E+03  0.36353464245E+03  0.00000000000E+00 0.  1.
         22   -1    0    0    0    0 -0.00000000000E+00 -0.00000000000E+00 -0.43020699557E+03  0.43020699557E+03  0.00000000000E+00 0. -1.
         24    2    1    2    0    0  0.86193927221E+01 -0.20336109794E+02 -0.23601397047E+03  0.25124610377E+03  0.83271598472E+02 0.  0.
         25    2    1    2    0    0 -0.48502053679E+02  0.33185021515E+01 -0.15506421842E+03  0.20507814609E+03  0.12509465416E+03 0.  0.
        -24    2    1    2    0    0  0.39882660957E+02  0.17017607643E+02  0.32440583577E+03  0.33741738816E+03  0.82043414964E+02 0.  0.
        -11    1    3    3    0    0 -0.22584085818E+02 -0.15009122223E+02 -0.22041620940E+02  0.34944924321E+02  0.00000000000E+00 0.  1.
         12    1    3    3    0    0  0.31203478540E+02 -0.53269875714E+01 -0.21397234953E+03  0.21630117945E+03  0.00000000000E+00 0. -1.
         11    1    5    5    0    0  0.89517923126E+01 -0.47584802978E+01 -0.65867085885E+00  0.10159309408E+02  0.00000000000E+00 0. -1.
        -12    1    5    5    0    0  0.30930868644E+02  0.21776087941E+02  0.32506450663E+03  0.32725807875E+03  0.00000000000E+00 0.  1.
          5    1    4    4  501    0  0.50308143743E+01  0.53356476837E+02 -0.99241466727E+02  0.11286524634E+03  0.41800000000E+01 0. -1.
         -5    1    4    4    0  501 -0.53532868053E+02 -0.50037974685E+02 -0.55822751693E+02  0.92212899744E+02  0.41800000000E+01 0. -1.
</event>
<event>
11    1  0.7039617E-009  0.1577194E+03  0.7561462E-02  0.1089242E+00
         22   -1    0    0    0    0  0.00000000000E+00  0.00000000000E+00  0.11017685526E+04  0.11017685526E+04  0.00000000000E+00 0. -1.
         22   -1    0    0    0    0 -0.00000000000E+00 -0.00000000000E+00 -0.12629588706E+04  0.12629588706E+04  0.00000000000E+00 0.  1.
         24    2    1    2    0    0  0.13523460556E+02  0.62710479923E+02 -0.98835092253E+03  0.99375257117E+03  0.81185826057E+02 0.  0.
         25    2    1    2    0    0 -0.10582619980E+03 -0.87818887886E+02 -0.23601141070E+03  0.30043411979E+03  0.12509169725E+03 0.  0.
        -24    2    1    2    0    0  0.92302739239E+02  0.25108407963E+02  0.10631720152E+04  0.10705407322E+04  0.81070941788E+02 0.  0.
        -13    1    3    3    0    0  0.11787540639E+02  0.59051609395E+02 -0.98783661910E+03  0.98967026061E+03  0.00000000000E+00 0.  1.
         14    1    3    3    0    0  0.17359199175E+01  0.36588705284E+01 -0.51430342983E+00  0.40823105616E+01  0.00000000000E+00 0. -1.
         13    1    5    5    0    0  0.55678608779E+02 -0.19411154938E+02  0.73350602742E+03  0.73587226654E+03  0.00000000000E+00 0. -1.
        -14    1    5    5    0    0  0.36624130460E+02  0.44519562901E+02  0.32966598782E+03  0.33466846571E+03  0.00000000000E+00 0.  1.
          5    1    4    4  501    0 -0.10095100624E+03 -0.62350664614E+02 -0.24534263673E+03  0.27256043887E+03  0.41800000000E+01 0.  1.
         -5    1    4    4    0  501 -0.48751935542E+01 -0.25468223272E+02  0.93312260321E+01  0.27873680921E+02  0.41800000000E+01 0.  1.
</event>
<event>
11    1  0.5813833E-009  0.1404055E+03  0.7561462E-02  0.1107106E+00
         22   -1    0    0    0    0  0.00000000000E+00  0.00000000000E+00  0.40769608957E+03  0.40769608957E+03  0.00000000000E+00 0.  1.
         22   -1    0    0    0    0 -0.00000000000E+00 -0.00000000000E+00 -0.12802886786E+04  0.12802886786E+04  0.00000000000E+00 0. -1.
         24    2    1    2    0    0  0.49957110833E+02  0.36108170146E+02 -0.10941779015E+04  0.10989307709E+04  0.81388242956E+02 0.  0.
         25    2    1    2    0    0 -0.91536788624E+02 -0.36166741545E+02 -0.14271565503E+03  0.21377901331E+03  0.12508673582E+03 0.  0.
        -24    2    1    2    0    0  0.41579677791E+02  0.58571398419E-01  0.36430096757E+03  0.37527498394E+03  0.79920245003E+02 0.  0.
        -11    1    3    3    0    0  0.45565141308E+02 -0.50980299235E+01 -0.28256461637E+03  0.28626025647E+03  0.00000000000E+00 0.  1.
         12    1    3    3    0    0  0.43919695253E+01  0.41206200070E+02 -0.81161328516E+03  0.81267051440E+03  0.00000000000E+00 0. -1.
         13    1    5    5    0    0 -0.49983145669E+01 -0.29505186189E+02  0.74795224686E+02  0.80559697097E+02  0.00000000000E+00 0. -1.
        -14    1    5    5    0    0  0.46577992358E+02  0.29563757588E+02  0.28950574289E+03  0.29471528685E+03  0.00000000000E+00 0.  1.
          5    1    4    4  501    0 -0.37899704736E+02 -0.49731455805E+02 -0.21989058847E+01  0.62704967129E+02  0.41800000000E+01 0. -1.
         -5    1    4    4    0  501 -0.53637083888E+02  0.13564714260E+02 -0.14051674914E+03  0.15107404618E+03  0.41800000000E+01 0. -1.
</event>
<event>
11    1  0.5813833E-009  0.1565706E+03  0.7561462E-02  0.1090348E+00
         22   -1    0    0    0    0  0.00000000000E+00  0.00000000000E+00  0.16044284697E+04  0.16044284697E+04  0.00000000000E+00 0. -1.
         22   -1    0    0    0    0 -0.00000000000E+00 -0.00000000000E+00 -0.94688762060E+03  0.94688762060E+03  0.00000000000E+00 0.  1.
         24    2    1    2    0    0 -0.28152816379E+01 -0.46318615719E+02 -0.89701372376E+03  0.90205923179E+03  0.83209957797E+02 0.  0.
         25    2    1    2    0    0 -0.14846819177E+02  0.13621733240E+03  0.14800257274E+03  0.23733390974E+03  0.12508810291E+03 0.  0.
        -24    2    1    2    0    0  0.17662100815E+02 -0.89898716678E+02  0.14065520001E+04  0.14119229487E+04  0.82122805347E+02 0.  0.
        -13    1    3    3    0    0 -0.14063221281E+02 -0.43017614001E+01 -0.70610472210E+03  0.70625785511E+03  0.00000000000E+00 0.  1.
         14    1    3    3    0    0  0.11247939643E+02 -0.42016854319E+02 -0.19090900166E+03  0.19580137668E+03  0.00000000000E+00 0. -1.
         13    1    5    5    0    0  0.11523301987E+02 -0.53425615021E+02  0.12446745426E+04  0.12458739101E+04  0.00000000000E+00 0. -1.
        -14    1    5    5    0    0  0.61387988275E+01 -0.36473101656E+02  0.16187745746E+03  0.16604903863E+03  0.00000000000E+00 0.  1.
          5    1    4    4  501    0 -0.19472450073E+02  0.19027297869E+02  0.11087509174E+03  0.11424523073E+03  0.41800000000E+01 0.  1.
         -5    1    4    4    0  501  0.46256308969E+01  0.11719003453E+03  0.37127480998E+02  0.12308867901E+03  0.41800000000E+01 0.  1.
</event>
<event>
11    1  0.5813833E-009  0.1712226E+03  0.7561462E-02  0.1076973E+00
         22   -1    0    0    0    0  0.00000000000E+00  0.00000000000E+00  0.21535342516E+04  0.21535342516E+04  0.00000000000E+00 0. -1.
         22   -1    0    0    0    0 -0.00000000000E+00 -0.00000000000E+00 -0.39775969770E+03  0.39775969770E+03  0.00000000000E+00 0.  1.
         24    2    1    2    0    0 -0.31093215865E+02  0.11022982930E+03 -0.34592091467E+03  0.37271871688E+03  0.78361721313E+02 0.  0.
         25    2    1    2    0    0  0.35482220540E+02 -0.16748148728E+03  0.26568416269E+03  0.33991846452E+03  0.12508977440E+03 0.  0.
        -24    2    1    2    0    0 -0.43890046747E+01  0.57251657989E+02  0.18360113059E+04  0.18386567679E+04  0.80150977207E+02 0.  0.
        -11    1    3    3    0    0 -0.16273261930E+02  0.51732604144E+02 -0.27170979018E+03  0.27706910954E+03  0.00000000000E+00 0.  1.
         12    1    3    3    0    0 -0.14819953935E+02  0.58497225152E+02 -0.74211124495E+02  0.95649607338E+02  0.00000000000E+00 0. -1.
         13    1    5    5    0    0 -0.32973267939E+02  0.61417298511E+02  0.12941601860E+04  0.12960362294E+04  0.00000000000E+00 0. -1.
        -14    1    5    5    0    0  0.28584263264E+02 -0.41656405223E+01  0.54185111984E+03  0.54262053845E+03  0.00000000000E+00 0.  1.
          5    1    4    4  501    0 -0.22710946397E+02  0.84283648329E+01  0.17519891620E+02  0.30186808748E+02  0.41800000000E+01 0. -1.
         -5    1    4    4    0  501  0.58193166937E+02 -0.17590985212E+03  0.24816427107E+03  0.30973165577E+03  0.41800000000E+01 0. -1.
</event>
<event>
11    1  0.5813833E-009  0.1627417E+03  0.7561462E-02  0.1084527E+00
         22   -1    0    0    0    0  0.00000000000E+00  0.00000000000E+00  0.11147314949E+04  0.11147314949E+04  0.00000000000E+00 0.  1.
         22   -1    0    0    0    0 -0.00000000000E+00 -0.00000000000E+00 -0.48119138395E+03  0.48119138395E+03  0.00000000000E+00 0.  1.
         24    2    1    2    0    0 -0.33986022726E+02 -0.10174911734E+03 -0.39872438791E+03  0.41963979413E+03  0.74889830309E+02 0.  0.
         25    2    1    2    0    0 -0.21119143863E+02  0.88117090729E+02  0.16014123356E+02  0.15529091545E+03  0.12509267108E+03 0.  0.
        -24    2    1    2    0    0  0.55105166589E+02  0.13632026613E+02  0.10162503755E+04  0.10209921693E+04  0.80235730631E+02 0.  0.
        -11    1    3    3    0    0 -0.30917786502E+02 -0.51094695921E+02 -0.32305822030E+03  0.32853187239E+03  0.00000000000E+00 0.  1.
         12    1    3    3    0    0 -0.30682362239E+01 -0.50654421421E+02 -0.75666167610E+02  0.91107921740E+02  0.00000000000E+00 0. -1.
         11    1    5    5    0    0 -0.68378886596E+01 -0.88932294187E+00  0.73146333315E+01  0.10052436391E+02  0.00000000000E+00 0. -1.
        -12    1    5    5    0    0  0.61943055248E+02  0.14521349555E+02  0.10089357422E+04  0.10109397329E+04  0.00000000000E+00 0.  1.
          5    1    4    4  501    0 -0.57770020992E+02  0.29151259943E+02  0.46047425098E+02  0.79529925436E+02  0.41800000000E+01 0. -1.
         -5    1    4    4    0  501  0.36650877129E+02  0.58965830787E+02 -0.30033301742E+02  0.75760990016E+02  0.41800000000E+01 0. -1.
</event>
<event>
11    1  0.5813833E-009  0.2774314E+03  0.7561462E-02  0.1010223E+00
         22   -1    0    0    0    0  0.00000000000E+00  0.00000000000E+00  0.78394647470E+03  0.78394647470E+03  0.00000000000E+00 0. -1.
         22   -1    0    0    0    0 -0.00000000000E+00 -0.00000000000E+00 -0.32934210812E+04  0.32934210812E+04  0.00000000000E+00 0.  1.
         24    2    1    2    0    0 -0.15288765097E+03  0.18789827993E+03 -0.26782030446E+04  0.26903992817E+04  0.82439975327E+02 0.  0.
         25    2    1    2    0    0  0.17677794006E+03 -0.22025596559E+03 -0.56706247307E+03  0.64573131616E+03  0.12508378726E+03 0.  0.
        -24    2    1    2    0    0 -0.23890289094E+02  0.32357685660E+02  0.73579091114E+03  0.74123695806E+03  0.80163566184E+02 0.  0.
        -13    1    3    3    0    0 -0.11252879320E+03  0.18348227852E+03 -0.22346471190E+04  0.22449891364E+04  0.00000000000E+00 0.  1.
         14    1    3    3    0    0 -0.40358857765E+02  0.44160014107E+01 -0.44355592553E+03  0.44541014531E+03  0.00000000000E+00 0. -1.
         11    1    5    5    0    0  0.29148302474E+02  0.50500506497E+01  0.21022559741E+03  0.21229679309E+03  0.00000000000E+00 0. -1.
        -12    1    5    5    0    0 -0.53038591567E+02  0.27307635011E+02  0.52556531373E+03  0.52894016497E+03  0.00000000000E+00 0.  1.
          5    1    4    4  501    0  0.44815772335E+02 -0.48987967656E+02 -0.44084675689E+02  0.79807302019E+02  0.41800000000E+01 0. -1.
         -5    1    4    4    0  501  0.13196216772E+03 -0.17126799793E+03 -0.52297779738E+03  0.56592401414E+03  0.41800000000E+01 0. -1.
</event>
<event>
11    1  0.5813833E-009  0.2036427E+03  0.7561462E-02  0.1051977E+00
         22   -1    0    0    0    0  0.00000000000E+00  0.00000000000E+00  0.61754223795E+03  0.61754223795E+03  0.00000000000E+00 0. -1.
         22   -1    0    0    0    0 -0.00000000000E+00 -0.00000000000E+00 -0.10310748881E+04  0.10310748881E+04  0.00000000000E+00 0. -1.
        -24    2    1    2    0    0  0.12774102946E+03  0.90685645284E+02 -0.88763544500E+03  0.90495228463E+03  0.80624421720E+02 0.  0.
         25    2    1    2    0    0 -0.19026245404E+03 -0.10794871393E+03 -0.71785948957E+01  0.25209730915E+03  0.12509514299E+03 0.  0.
         24    2    1    2    0    0  0.62521424579E+02  0.17263068649E+02  0.48128138979E+03  0.49156753222E+03  0.76157209194E+02 0.  0.
        -13    1    5    5    0    0 -0.86009473169E+01 -0.99627881952E+00  0.57350918407E+01  0.10385573872E+02  0.00000000000E+00 0.  1.
         14    1    5    5    0    0  0.71122371895E+02  0.18259347468E+02  0.47554629794E+03  0.48118195835E+03  0.00000000000E+00 0. -1.
         13    1    3    3    0    0  0.64373495983E+02  0.82360903928E+02 -0.67072686917E+03  0.67882383466E+03  0.00000000000E+00 0. -1.
        -14    1    3    3    0    0  0.63367533480E+02  0.83247413560E+01 -0.21690857583E+03  0.22612844997E+03  0.00000000000E+00 0.  1.
          5    1    4    4  501    0 -0.19628284403E+02  0.13376408470E+02 -0.33242439535E+02  0.41069819069E+02  0.41800000000E+01 0.  1.
         -5    1    4    4    0  501 -0.17063416964E+03 -0.12132512240E+03  0.26063844639E+02  0.21102749009E+03  0.41800000000E+01 0.  1.
</event>
<event>
11    1  0.5813833E-009  0.1551778E+03  0.7561462E-02  0.1091702E+00
         22   -1    0    0    0    0  0.00000000000E+00  0.00000000000E+00  0.40187341762E+03  0.40187341762E+03  0.00000000000E+00 0.  1.
         22   -1    0    0    0    0 -0.00000000000E+00 -0.00000000000E+00 -0.28924817617E+03  0.28924817617E+03  0.00000000000E+00 0.  1.
        -24    2    1    2    0    0  0.44942725146E+01  0.91402440572E+02 -0.21186266000E+03  0.24445737821E+03  0.80616489805E+02 0.  0.
         25    2    1    2    0    0 -0.32351813625E+02 -0.92040965831E+02  0.61762705073E+02  0.17023912544E+03  0.12509415996E+03 0.  0.
         24    2    1    2    0    0  0.27857541111E+02  0.63852525947E+00  0.26272519638E+03  0.27642509015E+03  0.81300992242E+02 0.  0.
        -13    1    5    5    0    0  0.27782377379E+02  0.23320680235E+02  0.24491386856E+03  0.24758537443E+03  0.00000000000E+00 0.  1.
         14    1    5    5    0    0  0.75163731941E-01 -0.22682154976E+02  0.17811327820E+02  0.28839715718E+02  0.00000000000E+00 0. -1.
         13    1    3    3    0    0  0.21069425004E+02  0.77527386703E+02 -0.89787684450E+02  0.12048337909E+03  0.00000000000E+00 0. -1.
        -14    1    3    3    0    0 -0.16575152489E+02  0.13875053869E+02 -0.12207497555E+03  0.12397399912E+03  0.00000000000E+00 0.  1.
          5    1    4    4  501    0 -0.12689708572E+02 -0.69738309590E+02  0.99360009295E+02  0.12212429887E+03  0.41800000000E+01 0. -1.
         -5    1    4    4    0  501 -0.19662105053E+02 -0.22302656241E+02 -0.37597304222E+02  0.48114826564E+02  0.41800000000E+01 0. -1.
</event>
<event>
11    1  0.5813833E-009  0.1655167E+03  0.7561462E-02  0.1082000E+00
         22   -1    0    0    0    0  0.00000000000E+00  0.00000000000E+00  0.64682344546E+03  0.64682344546E+03  0.00000000000E+00 0.  1.
         22   -1    0    0    0    0 -0.00000000000E+00 -0.00000000000E+00 -0.77730413494E+03  0.77730413494E+03  0.00000000000E+00 0. -1.
        -24    2    1    2    0    0 -0.31015120510E+02  0.11048105667E+03 -0.63832721238E+03  0.65389218749E+03  0.83338833791E+02 0.  0.
         25    2    1    2    0    0  0.27676150070E+02 -0.69603503786E+02 -0.86343805698E+02  0.16943862671E+03  0.12507429159E+03 0.  0.
         24    2    1    2    0    0  0.33389704396E+01 -0.40877552886E+02  0.59419032859E+03  0.60079676620E+03  0.78819316327E+02 0.  0.
        -11    1    5    5    0    0 -0.62453696840E+01 -0.18254494809E+02  0.54916705464E+03  0.54950585541E+03  0.00000000000E+00 0.  1.
         12    1    5    5    0    0  0.95843401236E+01 -0.22623058077E+02  0.45023273950E+02  0.51290910788E+02  0.00000000000E+00 0. -1.
         13    1    3    3    0    0 -0.10962030129E+01  0.45629229364E+02 -0.45276922040E+03  0.45506394625E+03  0.00000000000E+00 0. -1.
        -14    1    3    3    0    0 -0.29918917497E+02  0.64851827307E+02 -0.18555799198E+03  0.19882824124E+03  0.00000000000E+00 0.  1.
          5    1    4    4  501    0  0.31248270832E+01 -0.10297298460E+03 -0.52063863570E+02  0.11550462498E+03  0.41800000000E+01 0. -1.
         -5    1    4    4    0  501  0.24551322987E+02  0.33369480813E+02 -0.34279942127E+02  0.53934001728E+02  0.41800000000E+01 0. -1.
</event>
<event>
11    1  0.5813833E-009  0.1321558E+03  0.7561462E-02  0.1116648E+00
         22   -1    0    0    0    0  0.00000000000E+00  0.00000000000E+00  0.76427472989E+03  0.76427472989E+03  0.00000000000E+00 0.  1.
         22   -1    0    0    0    0 -0.00000000000E+00 -0.00000000000E+00 -0.56401214058E+03  0.56401214058E+03  0.00000000000E+00 0. -1.
        -24    2    1    2    0    0  0.44773796048E+02 -0.16845198604E+01 -0.49898856315E+03  0.50738888024E+03  0.80289222275E+02 0.  0.
         25    2    1    2    0    0 -0.78386589291E+01 -0.31678029849E+01  0.98618704841E+01  0.12575974904E+03  0.12508708343E+03 0.  0.
         24    2    1    2    0    0 -0.36935137119E+02  0.48523228453E+01  0.68938928198E+03  0.69513824119E+03  0.81066903644E+02 0.  0.
        -11    1    5    5    0    0 -0.50189010026E+02  0.31471849808E+02  0.48240453536E+03  0.48602834258E+03  0.00000000000E+00 0.  1.
         12    1    5    5    0    0  0.13253872907E+02 -0.26619526963E+02  0.20698474663E+03  0.20910989861E+03  0.00000000000E+00 0. -1.
         13    1    3    3    0    0  0.15824728442E+02 -0.19318037990E+02 -0.42794593942E+03  0.42867392699E+03  0.00000000000E+00 0. -1.
        -14    1    3    3    0    0  0.28949067606E+02  0.17633518130E+02 -0.71042623733E+02  0.78714953241E+02  0.00000000000E+00 0.  1.
          5    1    4    4  501    0 -0.37670334862E+02 -0.51897329994E+02 -0.10182925727E+02  0.65065746483E+02  0.41800000000E+01 0. -1.
         -5    1    4    4    0  501  0.29831675932E+02  0.48729527009E+02  0.20044796211E+02  0.60694002558E+02  0.41800000000E+01 0. -1.
</event>
<event>
11    1  0.5813833E-009  0.1485814E+03  0.7561462E-02  0.1098337E+00
         22   -1    0    0    0    0  0.00000000000E+00  0.00000000000E+00  0.98282571470E+02  0.98282571470E+02  0.00000000000E+00 0.  1.
         22   -1    0    0    0    0 -0.00000000000E+00 -0.00000000000E+00 -0.12268918149E+04  0.12268918149E+04  0.00000000000E+00 0.  1.
        -24    2    1    2    0    0 -0.10165038456E+02  0.81883366925E+02 -0.10390006664E+04  0.10453449801E+04  0.80096996613E+02 0.  0.
         25    2    1    2    0    0 -0.71934331199E+02 -0.52236605603E+02 -0.76659743014E+02  0.17154336140E+03  0.12508875917E+03 0.  0.
         24    2    1    2    0    0  0.82099369655E+02 -0.29646761322E+02 -0.12948834034E+02  0.10828604488E+03  0.62761120600E+02 0.  0.
        -11    1    5    5    0    0  0.81429290870E+02 -0.57395896868E+01 -0.18571993333E+02  0.83717329376E+02  0.00000000000E+00 0.  1.
         12    1    5    5    0    0  0.67007878420E+00 -0.23907171635E+02  0.56231592989E+01  0.24568715507E+02  0.00000000000E+00 0. -1.
         11    1    3    3    0    0 -0.73229610006E+01 -0.14233068425E+02 -0.24894580393E+03  0.24945985506E+03  0.00000000000E+00 0. -1.
        -12    1    3    3    0    0 -0.28420774551E+01  0.96116435350E+02 -0.79005486250E+03  0.79588512507E+03  0.00000000000E+00 0.  1.
          5    1    4    4  501    0 -0.20415338224E+02 -0.70320253882E+02  0.46753476850E+01  0.73491873135E+02  0.41800000000E+01 0. -1.
         -5    1    4    4    0  501 -0.51518992975E+02  0.18083648279E+02 -0.81335090699E+02  0.98051488266E+02  0.41800000000E+01 0. -1.
</event>
<event>
11    1  0.7836061E-009  0.1658986E+03  0.7561462E-02  0.1081657E+00
         22   -1    0    0    0    0  0.00000000000E+00  0.00000000000E+00  0.45105392741E+03  0.45105392741E+03  0.00000000000E+00 0.  1.
         22   -1    0    0    0    0 -0.00000000000E+00 -0.00000000000E+00 -0.82443306605E+03  0.82443306605E+03  0.00000000000E+00 0.  1.
        -24    2    1    2    0    0 -0.16530900253E+02  0.60684689149E+02 -0.52782240834E+03  0.53814555878E+03  0.83953829718E+02 0.  0.
         25    2    1    2    0    0 -0.51352875861E+02  0.27297640457E+02 -0.26366470772E+03  0.29757246200E+03  0.12509201816E+03 0.  0.
         24    2    1    2    0    0  0.67883776114E+02 -0.87982329606E+02  0.41810797743E+03  0.43976897268E+03  0.78951701425E+02 0.  0.
        -13    1    5    5    0    0  0.10084226358E+02 -0.70302438875E+02  0.16673020397E+03  0.18122661352E+03  0.00000000000E+00 0.  1.
         14    1    5    5    0    0  0.57799549756E+02 -0.17679890730E+02  0.25137777346E+03  0.25854235916E+03  0.00000000000E+00 0. -1.
         11    1    3    3    0    0 -0.27408641893E+01  0.76115972395E+02 -0.30508293567E+03  0.31444673830E+03  0.00000000000E+00 0. -1.
        -12    1    3    3    0    0 -0.13790036064E+02 -0.15431283247E+02 -0.22273947267E+03  0.22369882048E+03  0.00000000000E+00 0.  1.
          5    1    4    4  501    0 -0.13631753913E+02  0.75315685614E+02 -0.15197239208E+03  0.17020974581E+03  0.41800000000E+01 0.  1.
         -5    1    4    4    0  501 -0.37721121948E+02 -0.48018045157E+02 -0.11169231564E+03  0.12736271619E+03  0.41800000000E+01 0.  1.
</event>
<event>
11    1  0.5813833E-009  0.1363087E+03  0.7561462E-02  0.1111752E+00
         22   -1    0    0    0    0  0.00000000000E+00  0.00000000000E+00  0.11722887023E+04  0.11722887023E+04  0.00000000000E+00 0.  1.
         22   -1    0    0    0    0 -0.00000000000E+00 -0.00000000000E+00 -0.47145866388E+03  0.47145866388E+03  0.00000000000E+00 0.  1.
        -24    2    1    2    0    0  0.17035365502E+02 -0.50393283574E+02 -0.41928136526E+03  0.43021338760E+03  0.80355515699E+02 0.  0.
         25    2    1    2    0    0 -0.65526825947E+01  0.77059052432E+02  0.75345259835E+02  0.16524372032E+03  0.12509014236E+03 0.  0.
         24    2    1    2    0    0 -0.10482682908E+02 -0.26665768858E+02  0.10447661439E+04  0.10482902583E+04  0.80964315220E+02 0.  0.
        -13    1    5    5    0    0 -0.22536521869E+02 -0.28081065984E+02  0.10207200516E+04  0.10213549162E+04  0.00000000000E+00 0.  1.
         14    1    5    5    0    0  0.12053838961E+02  0.14152971258E+01  0.24046092276E+02  0.26935342088E+02  0.00000000000E+00 0. -1.
         11    1    3    3    0    0  0.29996913175E+02  0.54136777633E+01 -0.71227804205E+02  0.77475949809E+02  0.00000000000E+00 0. -1.
        -12    1    3    3    0    0 -0.12961547673E+02 -0.55806961337E+02 -0.34805356106E+03  0.35273743779E+03  0.00000000000E+00 0.  1.
          5    1    4    4  501    0 -0.46172033455E+02  0.30722322926E+02  0.86781869158E+02  0.10307416269E+03  0.41800000000E+01 0. -1.
         -5    1    4    4    0  501  0.39619350860E+02  0.46336729506E+02 -0.11436609323E+02  0.62169557636E+02  0.41800000000E+01 0. -1.
</event>
<event>
11    1  0.5813833E-009  0.1325071E+03  0.7561462E-02  0.1116226E+00
         22   -1    0    0    0    0  0.00000000000E+00  0.00000000000E+00  0.24455418421E+04  0.24455418421E+04  0.00000000000E+00 0.  1.
         22   -1    0    0    0    0 -0.00000000000E+00 -0.00000000000E+00 -0.57494545416E+03  0.57494545416E+03  0.00000000000E+00 0. -1.
        -24    2    1    2    0    0  0.92549275452E+01  0.14629973675E+02 -0.47139142507E+03  0.47836614348E+03  0.79527365002E+02 0.  0.
         25    2    1    2    0    0  0.22499781531E+02  0.15612773350E+02 -0.57813745811E+02  0.14050238610E+03  0.12509393445E+03 0.  0.
         24    2    1    2    0    0 -0.31754709076E+02 -0.30242747025E+02  0.23998015588E+04  0.24016187666E+04  0.82475411507E+02 0.  0.
        -13    1    5    5    0    0 -0.70550579607E+01 -0.31909963880E+02  0.22060520100E+04  0.22062940626E+04  0.00000000000E+00 0.  1.
         14    1    5    5    0    0 -0.24699651115E+02  0.16672168551E+01  0.19374954876E+03  0.19532470407E+03  0.00000000000E+00 0. -1.
         11    1    3    3    0    0  0.69692216783E+01 -0.27208223373E+02 -0.80974560726E+02  0.85707274806E+02  0.00000000000E+00 0. -1.
        -12    1    3    3    0    0  0.22857058669E+01  0.41838197049E+02 -0.39041686434E+03  0.39265886867E+03  0.00000000000E+00 0.  1.
          5    1    4    4  501    0  0.14990881887E+02  0.66892605319E+02 -0.91481625704E+01  0.69285701732E+02  0.41800000000E+01 0. -1.
         -5    1    4    4    0  501  0.75088996433E+01 -0.51279831969E+02 -0.48665583241E+02  0.71216684371E+02  0.41800000000E+01 0. -1.
</event>
<event>
11    1  0.5813833E-009  0.1626729E+03  0.7561462E-02  0.1084590E+00
         22   -1    0    0    0    0  0.00000000000E+00  0.00000000000E+00  0.54126184764E+03  0.54126184764E+03  0.00000000000E+00 0.  1.
         22   -1    0    0    0    0 -0.00000000000E+00 -0.00000000000E+00 -0.14185049581E+04  0.14185049581E+04  0.00000000000E+00 0.  1.
         24    2    1    2    0    0 -0.11148541082E+03 -0.59272967323E+02 -0.85880417436E+03  0.87233312661E+03  0.86476542572E+02 0.  0.
         25    2    1    2    0    0  0.48604280337E+02  0.58287755377E+02 -0.53868684529E+03  0.55820142100E+03  0.12508185569E+03 0.  0.
        -24    2    1    2    0    0  0.62881130485E+02  0.98521194564E+00  0.52024790917E+03  0.52923225815E+03  0.73985734183E+02 0.  0.
        -13    1    3    3    0    0 -0.67440430198E+01 -0.12555664471E+02 -0.36923103376E+03  0.36950599876E+03  0.00000000000E+00 0.  1.
         14    1    3    3    0    0 -0.10474136780E+03 -0.46717302852E+02 -0.48957314059E+03  0.50282712785E+03  0.00000000000E+00 0. -1.
         11    1    5    5    0    0  0.32819926904E+02  0.37420349339E+02  0.27850310192E+03  0.28291590257E+03  0.00000000000E+00 0. -1.
        -12    1    5    5    0    0  0.30061203581E+02 -0.36435137393E+02  0.24174480725E+03  0.24631635558E+03  0.00000000000E+00 0.  1.
          5    1    4    4  501    0 -0.23888877447E+02  0.37856215647E+02 -0.68065418564E+02  0.81572943634E+02  0.41800000000E+01 0. -1.
         -5    1    4    4    0  501  0.72493157784E+02  0.20431539730E+02 -0.47062142673E+03  0.47662847737E+03  0.41800000000E+01 0. -1.
</event>
<event>
11    1  0.5813833E-009  0.1857103E+03  0.7561462E-02  0.1065115E+00
         22   -1    0    0    0    0  0.00000000000E+00  0.00000000000E+00  0.25928247829E+04  0.25928247829E+04  0.00000000000E+00 0. -1.
         22   -1    0    0    0    0 -0.00000000000E+00 -0.00000000000E+00 -0.16082781234E+04  0.16082781234E+04  0.00000000000E+00 0.  1.
         24    2    1    2    0    0  0.28829802586E+02 -0.13275749823E+02 -0.15117864924E+04  0.15141367604E+04  0.78130196458E+02 0.  0.
         25    2    1    2    0    0  0.94135809363E+02  0.75438686092E+02 -0.11414673667E+02  0.17415553232E+03  0.12508920297E+03 0.  0.
        -24    2    1    2    0    0 -0.12296561195E+03 -0.62162936268E+02  0.25077478256E+04  0.25128106135E+04  0.80207545377E+02 0.  0.
        -13    1    3    3    0    0 -0.87492727961E+01 -0.28983513038E+02 -0.10822858904E+04  0.10827092603E+04  0.00000000000E+00 0.  1.
         14    1    3    3    0    0  0.37579075382E+02  0.15707763215E+02 -0.42950060199E+03  0.43142750010E+03  0.00000000000E+00 0. -1.
         13    1    5    5    0    0 -0.62452513396E+02 -0.14387256662E+02  0.17448952536E+04  0.17460718072E+04  0.00000000000E+00 0. -1.
        -14    1    5    5    0    0 -0.60513098552E+02 -0.47775679607E+02  0.76285257193E+03  0.76673880635E+03  0.00000000000E+00 0.  1.
          5    1    4    4  501    0  0.24552869978E+01  0.52913402137E+02 -0.49168071501E+02  0.72393564735E+02  0.41800000000E+01 0.  1.
         -5    1    4    4    0  501  0.91680522365E+02  0.22525283955E+02  0.37753397834E+02  0.10176196758E+03  0.41800000000E+01 0.  1.
</event>
<event>
11    1  0.5813833E-009  0.1426965E+03  0.7561462E-02  0.1104584E+00
         22   -1    0    0    0    0  0.00000000000E+00  0.00000000000E+00  0.21777746461E+04  0.21777746461E+04  0.00000000000E+00 0.  1.
         22   -1    0    0    0    0 -0.00000000000E+00 -0.00000000000E+00 -0.26172667469E+03  0.26172667469E+03  0.00000000000E+00 0.  1.
        -24    2    1    2    0    0 -0.50629689434E+02 -0.47879739916E+02 -0.23870169880E+03  0.26081656432E+03  0.78682553756E+02 0.  0.
         25    2    1    2    0    0 -0.97244915068E+01  0.50797898981E+02  0.42803143948E+03  0.44892493376E+03  0.12509072985E+03 0.  0.
         24    2    1    2    0    0  0.60354180940E+02 -0.29181590657E+01  0.17267182307E+04  0.17297598227E+04  0.82837510530E+02 0.  0.
        -13    1    5    5    0    0  0.32771048427E+02  0.15607500235E+02  0.15162944389E+04  0.15167288358E+04  0.00000000000E+00 0.  1.
         14    1    5    5    0    0  0.27583132513E+02 -0.18525659301E+02  0.21042379176E+03  0.21303098692E+03  0.00000000000E+00 0. -1.
         13    1    3    3    0    0 -0.17843734343E+02  0.13193381634E+02 -0.13009800718E+03  0.13197710274E+03  0.00000000000E+00 0. -1.
        -14    1    3    3    0    0 -0.32785955091E+02 -0.61073121549E+02 -0.10860369162E+03  0.12883946158E+03  0.00000000000E+00 0.  1.
          5    1    4    4  501    0 -0.32459204591E+02  0.76780062109E+02  0.17930439747E+03  0.19777845497E+03  0.41800000000E+01 0.  1.
         -5    1    4    4    0  501  0.22734713084E+02 -0.25982163128E+02  0.24872704201E+03  0.25114647879E+03  0.41800000000E+01 0.  1.
</event>
<event>
11    1  0.5813833E-009  0.1463085E+03  0.7561462E-02  0.1100712E+00
         22   -1    0    0    0    0  0.00000000000E+00  0.00000000000E+00  0.10130676140E+04  0.10130676140E+04  0.00000000000E+00 0. -1.
         22   -1    0    0    0    0 -0.00000000000E+00 -0.00000000000E+00 -0.10400157098E+03  0.10400157098E+03  0.00000000000E+00 0. -1.
         24    2    1    2    0    0 -0.57488657749E+02 -0.76604212899E+02  0.35544333076E+01  0.12379822883E+03  0.78359532045E+02 0.  0.
         25    2    1    2    0    0  0.10839331918E+02  0.43562057665E+02  0.67345714154E+02  0.14899060807E+03  0.12509041568E+03 0.  0.
        -24    2    1    2    0    0  0.46649325831E+02  0.33042155234E+02  0.83816589556E+03  0.84428034809E+03  0.83781227324E+02 0.  0.
        -13    1    3    3    0    0 -0.50323394826E+02 -0.37821995041E+02  0.36185140855E+02  0.72610686503E+02  0.00000000000E+00 0.  1.
         14    1    3    3    0    0 -0.71652629227E+01 -0.38782217858E+02 -0.32630707547E+02  0.51187542330E+02  0.00000000000E+00 0. -1.
         13    1    5    5    0    0  0.34985768271E+02  0.51327796668E+02  0.33903898264E+03  0.34468243130E+03  0.00000000000E+00 0. -1.
        -14    1    5    5    0    0  0.11663557560E+02 -0.18285641434E+02  0.49912691292E+03  0.49959791679E+03  0.00000000000E+00 0.  1.
          5    1    4    4  501    0 -0.47571179663E+02  0.51025445649E+02  0.54377527580E+02  0.88549427688E+02  0.41800000000E+01 0. -1.
         -5    1    4    4    0  501  0.58410511580E+02 -0.74633879837E+01  0.12968186574E+02  0.60441180385E+02  0.41800000000E+01 0. -1.
</event>
<event>
11    1  0.5813833E-009  0.1323897E+03  0.7561462E-02  0.1116367E+00
         22   -1    0    0    0    0  0.00000000000E+00  0.00000000000E+00  0.23567226722E+03  0.23567226722E+03  0.00000000000E+00 0. -1.
         22   -1    0    0    0    0 -0.00000000000E+00 -0.00000000000E+00 -0.18436544204E+04  0.18436544204E+04  0.00000000000E+00 0.  1.
         24    2    1    2    0    0  0.32805632897E+02  0.28741166444E+02 -0.15644416238E+04  0.15669968726E+04  0.78098273023E+02 0.  0.
         25    2    1    2    0    0 -0.46123954131E+02 -0.71683155638E+01 -0.25334803044E+03  0.28637700693E+03  0.12509101359E+03 0.  0.
        -24    2    1    2    0    0  0.13318321234E+02 -0.21572850880E+02  0.20980750112E+03  0.22595280803E+03  0.79954476756E+02 0.  0.
        -11    1    3    3    0    0  0.24781564722E+02  0.55879508005E+02 -0.10860421530E+04  0.10877610967E+04  0.00000000000E+00 0.  1.
         12    1    3    3    0    0  0.80240681754E+01 -0.27138341561E+02 -0.47839947085E+03  0.47923577596E+03  0.00000000000E+00 0. -1.
         11    1    5    5    0    0 -0.54549855498E+01  0.18084762487E+02  0.15305934558E+03  0.15422055236E+03  0.00000000000E+00 0. -1.
        -12    1    5    5    0    0  0.18773306784E+02 -0.39657613367E+02  0.56748155545E+02  0.71732255669E+02  0.00000000000E+00 0.  1.
          5    1    4    4  501    0 -0.21827623017E+02  0.14022233365E+02 -0.25249318712E+03  0.25385694810E+03  0.41800000000E+01 0. -1.
         -5    1    4    4    0  501 -0.24296331115E+02 -0.21190548929E+02 -0.85484331618E+00  0.32520058835E+02  0.41800000000E+01 0. -1.
</event>
<event>
11    1  0.5813833E-009  0.1742696E+03  0.7561462E-02  0.1074375E+00
         22   -1    0    0    0    0  0.00000000000E+00  0.00000000000E+00  0.14638055354E+03  0.14638055354E+03  0.00000000000E+00 0. -1.
         22   -1    0    0    0    0 -0.00000000000E+00 -0.00000000000E+00 -0.76510621009E+03  0.76510621009E+03  0.00000000000E+00 0.  1.
         24    2    1    2    0    0  0.44402418831E+02 -0.94737765506E+02 -0.44977909288E+03  0.46873956620E+03  0.80428412362E+02 0.  0.
         25    2    1    2    0    0  0.73490057048E+02  0.12910712905E+03 -0.21397868306E+03  0.28897032476E+03  0.12509009766E+03 0.  0.
        -24    2    1    2    0    0 -0.11789247588E+03 -0.34369363540E+02  0.45032119393E+02  0.15377687268E+03  0.80867458069E+02 0.  0.
        -11    1    3    3    0    0  0.23660597560E+01 -0.87600256728E+02 -0.26535082258E+03  0.27944670738E+03  0.00000000000E+00 0.  1.
         12    1    3    3    0    0  0.42036359075E+02 -0.71375087778E+01 -0.18442827030E+03  0.18929285882E+03  0.00000000000E+00 0. -1.
         13    1    5    5    0    0 -0.12764568729E+03 -0.39126721063E+02  0.32904028079E+02  0.13750271579E+03  0.00000000000E+00 0. -1.
        -14    1    5    5    0    0  0.97532114150E+01  0.47573575221E+01  0.12128091313E+02  0.16274156888E+02  0.00000000000E+00 0.  1.
          5    1    4    4  501    0 -0.26645547915E+02  0.12264924784E+02 -0.78503448302E+02  0.83908744473E+02  0.41800000000E+01 0. -1.
         -5    1    4    4    0  501  0.10013560496E+03  0.11684220426E+03 -0.13547523476E+03  0.20506158029E+03  0.41800000000E+01 0. -1.
</event>
<event>
11    1  0.9691477E-009  0.1763066E+03  0.7561462E-02  0.1072670E+00
         22   -1    0    0    0    0  0.00000000000E+00  0.00000000000E+00  0.39889081954E+03  0.39889081954E+03  0.00000000000E+00 0.  1.
         22   -1    0    0    0    0 -0.00000000000E+00 -0.00000000000E+00 -0.14570447847E+04  0.14570447847E+04  0.00000000000E+00 0.  1.
         24    2    1    2    0    0 -0.43429572457E+02 -0.24462476845E+02 -0.75022315394E+03  0.75602078946E+03  0.79045005211E+02 0.  0.
         25    2    1    2    0    0  0.16571833073E+03  0.78720122861E+01 -0.67363325669E+03  0.70495075075E+03  0.12509701333E+03 0.  0.
        -24    2    1    2    0    0 -0.12228875828E+03  0.16590464559E+02  0.36570244552E+03  0.39496406398E+03  0.83836443502E+02 0.  0.
        -11    1    3    3    0    0 -0.32193713291E+02 -0.17440470577E+02 -0.73470063120E+03  0.73561241335E+03  0.00000000000E+00 0.  1.
         12    1    3    3    0    0 -0.11235859166E+02 -0.70220062680E+01 -0.15522522746E+02  0.20408376114E+02  0.00000000000E+00 0. -1.
         13    1    5    5    0    0 -0.24867046863E+02  0.19876851024E+02  0.20156781391E+03  0.20406627068E+03  0.00000000000E+00 0. -1.
        -14    1    5    5    0    0 -0.97421711415E+02 -0.32863864643E+01  0.16413463162E+03  0.19089779330E+03  0.00000000000E+00 0.  1.
          5    1    4    4  501    0  0.18127956539E+03  0.25688009132E+02 -0.57642781303E+03  0.60482117248E+03  0.41800000000E+01 0. -1.
         -5    1    4    4    0  501 -0.15561234659E+02 -0.17815996846E+02 -0.97205443658E+02  0.10012957827E+03  0.41800000000E+01 0. -1.
</event>
<event>
11    1  0.5813833E-009  0.1854973E+03  0.7561462E-02  0.1065281E+00
         22   -1    0    0    0    0  0.00000000000E+00  0.00000000000E+00  0.14939720692E+04  0.14939720692E+04  0.00000000000E+00 0. -1.
         22   -1    0    0    0    0 -0.00000000000E+00 -0.00000000000E+00 -0.63679517264E+03  0.63679517264E+03  0.00000000000E+00 0.  1.
        -24    2    1    2    0    0 -0.13175137841E+02 -0.23849832589E+02 -0.57117506701E+03  0.57683045698E+03  0.75828887264E+02 0.  0.
         25    2    1    2    0    0  0.13304075558E+03 -0.42405882130E+02  0.93080255335E+02  0.20930769471E+03  0.12509066971E+03 0.  0.
         24    2    1    2    0    0 -0.11986561774E+03  0.66255714720E+02  0.13352717082E+04  0.13446290901E+04  0.79493831184E+02 0.  0.
        -13    1    5    5    0    0  0.44227586076E+01  0.26564756412E+02  0.28949096517E+03  0.29074089150E+03  0.00000000000E+00 0.  1.
         14    1    5    5    0    0 -0.12428837635E+03  0.39690958308E+02  0.10457807431E+04  0.10538881986E+04  0.00000000000E+00 0. -1.
         11    1    3    3    0    0 -0.42422792460E+02 -0.28006414886E+02 -0.38047384940E+03  0.38385466348E+03  0.00000000000E+00 0. -1.
        -12    1    3    3    0    0  0.29247654619E+02  0.41565822963E+01 -0.19070121761E+03  0.19297579350E+03  0.00000000000E+00 0.  1.
          5    1    4    4  501    0  0.12634340168E+03 -0.58305622437E+02  0.28194382671E+02  0.14203730626E+03  0.41800000000E+01 0.  1.
         -5    1    4    4    0  501  0.66973539027E+01  0.15899740307E+02  0.64885872664E+02  0.67270388452E+02  0.41800000000E+01 0.  1.
</event>
<event>
11    1  0.5813833E-009  0.1894810E+03  0.7561462E-02  0.1062222E+00
         22   -1    0    0    0    0  0.00000000000E+00  0.00000000000E+00  0.63978731219E+03  0.63978731219E+03  0.00000000000E+00 0. -1.
         22   -1    0    0    0    0 -0.00000000000E+00 -0.00000000000E+00 -0.20852778187E+03  0.20852778187E+03  0.00000000000E+00 0.  1.
        -24    2    1    2    0    0 -0.12157957192E+03 -0.70055738135E+02 -0.80209863731E+02  0.19517692107E+03  0.10941210867E+03 0.  0.
         25    2    1    2    0    0  0.11793740326E+03  0.89458954866E+02  0.73089055315E+02  0.20712690934E+03  0.12508961138E+03 0.  0.
         24    2    1    2    0    0  0.36421686624E+01 -0.19403216730E+02  0.43838033873E+03  0.44601126365E+03  0.79743185971E+02 0.  0.
        -11    1    5    5    0    0  0.39729653205E+02 -0.26916078795E+01  0.27456930642E+03  0.27744187522E+03  0.00000000000E+00 0.  1.
         12    1    5    5    0    0 -0.36087484542E+02 -0.16711608851E+02  0.16381103231E+03  0.16856938844E+03  0.00000000000E+00 0. -1.
         11    1    3    3    0    0  0.47790577378E+01 -0.34862929749E+02  0.92767721708E+01  0.36391231986E+02  0.00000000000E+00 0. -1.
        -12    1    3    3    0    0 -0.12635862966E+03 -0.35192808386E+02 -0.89486635902E+02  0.15878568908E+03  0.00000000000E+00 0.  1.
          5    1    4    4  501    0  0.29802975254E+02  0.97581432709E+02  0.57395663553E+02  0.11714131610E+03  0.41800000000E+01 0. -1.
         -5    1    4    4    0  501  0.88134428005E+02 -0.81224778428E+01  0.15693391762E+02  0.89985593241E+02  0.41800000000E+01 0. -1.
</event>
<event>
11    1  0.5813833E-009  0.1529731E+03  0.7561462E-02  0.1093879E+00
         22   -1    0    0    0    0  0.00000000000E+00  0.00000000000E+00  0.22967698548E+03  0.22967698548E+03  0.00000000000E+00 0. -1.
         22   -1    0    0    0    0 -0.00000000000E+00 -0.00000000000E+00 -0.13421767102E+04  0.13421767102E+04  0.00000000000E+00 0.  1.
         24    2    1    2    0    0  0.97444850435E+01 -0.85185649082E+01 -0.10661558773E+04  0.10692609340E+04  0.80393217736E+02 0.  0.
         25    2    1    2    0    0  0.24301841153E+02 -0.73501922186E+02 -0.23555741162E+03  0.27771896795E+03  0.12508964362E+03 0.  0.
        -24    2    1    2    0    0 -0.34046326197E+02  0.82020487094E+02  0.18921356419E+03  0.22487379369E+03  0.82945389151E+02 0.  0.
        -13    1    3    3    0    0  0.12451757316E+02  0.33609817794E+02 -0.64485091017E+03  0.64584623748E+03  0.00000000000E+00 0.  1.
         14    1    3    3    0    0 -0.27072722727E+01 -0.42128382702E+02 -0.42130496712E+03  0.42341469657E+03  0.00000000000E+00 0. -1.
         13    1    5    5    0    0 -0.58378475467E+02  0.38319887471E+02  0.91505669554E+02  0.11510754855E+03  0.00000000000E+00 0. -1.
        -14    1    5    5    0    0  0.24332149270E+02  0.43700599624E+02  0.97707894639E+02  0.10976624513E+03  0.00000000000E+00 0.  1.
          5    1    4    4  501    0  0.37564698155E+00 -0.83848519691E+02 -0.23684791184E+03  0.25128692984E+03  0.41800000000E+01 0. -1.
         -5    1    4    4    0  501  0.23926194172E+02  0.10346597505E+02  0.12905002251E+01  0.26432038104E+02  0.41800000000E+01 0. -1.
</event>
<event>
11    1  0.5813833E-009  0.2557932E+03  0.7561462E-02  0.1020858E+00
         22   -1    0    0    0    0  0.00000000000E+00  0.00000000000E+00  0.33208439526E+03  0.33208439526E+03  0.00000000000E+00 0. -1.
         22   -1    0    0    0    0 -0.00000000000E+00 -0.00000000000E+00 -0.11726710386E+03  0.11726710386E+03  0.00000000000E+00 0.  1.
        -24    2    1    2    0    0  0.63858615818E+02 -0.77824936803E+02  0.65761286010E+02  0.14578605619E+03  0.82428052506E+02 0.  0.
         25    2    1    2    0    0  0.99628829875E+01 -0.70207258539E+01  0.64472269967E+02  0.14125219773E+03  0.12508780972E+03 0.  0.
         24    2    1    2    0    0 -0.73821498805E+02  0.84845662657E+02  0.84583735425E+02  0.16231324520E+03  0.80887459539E+02 0.  0.
        -11    1    5    5    0    0 -0.20197392960E+02  0.16193711345E+02 -0.15067950272E+02  0.29953532261E+02  0.00000000000E+00 0.  1.
         12    1    5    5    0    0 -0.53624105845E+02  0.68651951312E+02  0.99651685697E+02  0.13235971294E+03  0.00000000000E+00 0. -1.
         13    1    3    3    0    0  0.60882197541E+02 -0.26722377184E+02  0.67258480802E+02  0.94575000183E+02  0.00000000000E+00 0. -1.
        -14    1    3    3    0    0  0.29764182770E+01 -0.51102559619E+02 -0.14971947925E+01  0.51211056010E+02  0.00000000000E+00 0.  1.
          5    1    4    4  501    0  0.35571144056E+02  0.46376867354E+02  0.76866142232E+01  0.59098870998E+02  0.41800000000E+01 0.  1.
         -5    1    4    4    0  501 -0.25608261068E+02 -0.53397593208E+02  0.56785655743E+02  0.82153326735E+02  0.41800000000E+01 0.  1.
</event>
<event>
11    1  0.5813833E-009  0.1544619E+03  0.7561462E-02  0.1092405E+00
         22   -1    0    0    0    0  0.00000000000E+00  0.00000000000E+00  0.11809279044E+04  0.11809279044E+04  0.00000000000E+00 0.  1.
         22   -1    0    0    0    0 -0.00000000000E+00 -0.00000000000E+00 -0.41465593764E+03  0.41465593764E+03  0.00000000000E+00 0. -1.
         24    2    1    2    0    0  0.41213298482E+02  0.81594578952E+02 -0.37129328688E+03  0.39072310875E+03  0.80309598070E+02 0.  0.
         25    2    1    2    0    0 -0.17994108090E+02 -0.76360033297E+02  0.14083549815E+03  0.20405283795E+03  0.12509308744E+03 0.  0.
        -24    2    1    2    0    0 -0.23219190392E+02 -0.52345456544E+01  0.99672975547E+03  0.10008078953E+04  0.87061510481E+02 0.  0.
        -11    1    3    3    0    0  0.46988160553E+02  0.64052883617E+02 -0.16011216864E+03  0.17873602233E+03  0.00000000000E+00 0.  1.
         12    1    3    3    0    0 -0.57748620712E+01  0.17541695335E+02 -0.21118111824E+03  0.21198708642E+03  0.00000000000E+00 0. -1.
         13    1    5    5    0    0 -0.40409161105E+02 -0.34224061254E+02  0.46374728658E+03  0.46676089433E+03  0.00000000000E+00 0. -1.
        -14    1    5    5    0    0  0.17189970713E+02  0.28989515599E+02  0.53298246889E+03  0.53404700098E+03  0.00000000000E+00 0.  1.
          5    1    4    4  501    0  0.36513923216E+02 -0.64298725805E+02  0.12597264841E+03  0.14613067192E+03  0.41800000000E+01 0.  1.
         -5    1    4    4    0  501 -0.54508031306E+02 -0.12061307492E+02  0.14862849737E+02  0.57922166029E+02  0.41800000000E+01 0.  1.
</event>
<event>
11    1  0.5813833E-009  0.1754798E+03  0.7561462E-02  0.1073359E+00
         22   -1    0    0    0    0  0.00000000000E+00  0.00000000000E+00  0.41050824299E+03  0.41050824299E+03  0.00000000000E+00 0. -1.
         22   -1    0    0    0    0 -0.00000000000E+00 -0.00000000000E+00 -0.53677926776E+03  0.53677926776E+03  0.00000000000E+00 0. -1.
        -24    2    1    2    0    0 -0.12276054403E+03 -0.23209076210E+02 -0.41973106492E+03  0.44482589097E+03  0.78019831011E+02 0.  0.
         25    2    1    2    0    0  0.85385419168E+02  0.11136011109E+03  0.51215521646E+01  0.18805772808E+03  0.12509090552E+03 0.  0.
         24    2    1    2    0    0  0.37375124859E+02 -0.88151034879E+02  0.28833848798E+03  0.31440389170E+03  0.80890163556E+02 0.  0.
        -13    1    5    5    0    0  0.51227194359E+02 -0.19317255537E+02  0.11429128944E+03  0.12672758439E+03  0.00000000000E+00 0.  1.
         14    1    5    5    0    0 -0.13852069500E+02 -0.68833779343E+02  0.17404719854E+03  0.18767630731E+03  0.00000000000E+00 0. -1.
         11    1    3    3    0    0 -0.24522249225E+02 -0.23994587827E+02 -0.21527658001E+03  0.21799331837E+03  0.00000000000E+00 0. -1.
        -12    1    3    3    0    0 -0.98238294802E+02  0.78551161636E+00 -0.20445448491E+03  0.22683257260E+03  0.00000000000E+00 0.  1.
          5    1    4    4  501    0  0.12310561854E+02  0.11181442866E+03 -0.11011967428E+02  0.11310504947E+03  0.41800000000E+01 0. -1.
         -5    1    4    4    0  501  0.73074857314E+02 -0.45431756543E+00  0.16133519592E+02  0.74952678607E+02  0.41800000000E+01 0. -1.
</event>
<event>
11    1  0.5813833E-009  0.2682965E+03  0.7561462E-02  0.1014580E+00
         22   -1    0    0    0    0  0.00000000000E+00  0.00000000000E+00  0.12635966595E+04  0.12635966595E+04  0.00000000000E+00 0. -1.
         22   -1    0    0    0    0 -0.00000000000E+00 -0.00000000000E+00 -0.62059271303E+03  0.62059271303E+03  0.00000000000E+00 0.  1.
         24    2    1    2    0    0 -0.69033713267E+02  0.22470541741E+03 -0.54342926880E+03  0.59900793852E+03  0.90757710668E+02 0.  0.
         25    2    1    2    0    0  0.12452782738E+03 -0.25492077422E+03  0.48008413470E+03  0.57150769057E+03  0.12509389698E+03 0.  0.
        -24    2    1    2    0    0 -0.55494114116E+02  0.30215356813E+02  0.70634908058E+03  0.71367374344E+03  0.80053881594E+02 0.  0.
        -11    1    3    3    0    0  0.26529604872E+01  0.13474363156E+03 -0.25360813934E+03  0.28719326730E+03  0.00000000000E+00 0.  1.
         12    1    3    3    0    0 -0.71686673754E+02  0.89961785857E+02 -0.28982112946E+03  0.31181467122E+03  0.00000000000E+00 0. -1.
         11    1    5    5    0    0  0.11027028873E+02  0.18402115724E+02  0.36914950728E+03  0.36977235152E+03  0.00000000000E+00 0. -1.
        -12    1    5    5    0    0 -0.66521142989E+02  0.11813241089E+02  0.33719957330E+03  0.34390139192E+03  0.00000000000E+00 0.  1.
          5    1    4    4  501    0  0.12046592090E+03 -0.12989920170E+03  0.21695920434E+03  0.28013319947E+03  0.41800000000E+01 0. -1.
         -5    1    4    4    0  501  0.40619064809E+01 -0.12502157253E+03  0.26312493036E+03  0.29137449110E+03  0.41800000000E+01 0. -1.
</event>
<event>
11    1  0.5813833E-009  0.2103972E+03  0.7561462E-02  0.1047405E+00
         22   -1    0    0    0    0  0.00000000000E+00  0.00000000000E+00  0.96443016135E+03  0.96443016135E+03  0.00000000000E+00 0.  1.
         22   -1    0    0    0    0 -0.00000000000E+00 -0.00000000000E+00 -0.24661867596E+03  0.24661867596E+03  0.00000000000E+00 0.  1.
        -24    2    1    2    0    0  0.35818722554E+02  0.14372772197E+03 -0.74216269430E+02  0.18339985543E+03  0.78656299010E+02 0.  0.
         25    2    1    2    0    0  0.36387802514E+01 -0.29517792593E+03  0.13492247163E+03  0.34784265498E+03  0.12508873088E+03 0.  0.
         24    2    1    2    0    0 -0.39457502805E+02  0.15145020395E+03  0.65710528319E+03  0.67980632690E+03  0.76519475306E+02 0.  0.
        -13    1    5    5    0    0 -0.20525959316E+02  0.11028306392E+03  0.57673393858E+03  0.58754208794E+03  0.00000000000E+00 0.  1.
         14    1    5    5    0    0 -0.18931543489E+02  0.41167140029E+02  0.80371344605E+02  0.92264238959E+02  0.00000000000E+00 0. -1.
         13    1    3    3    0    0  0.55006705894E+02  0.58334847294E+02 -0.34426546081E+02  0.87257545102E+02  0.00000000000E+00 0. -1.
        -14    1    3    3    0    0 -0.19187983340E+02  0.85392874680E+02 -0.39789723349E+02  0.96142310327E+02  0.00000000000E+00 0.  1.
          5    1    4    4  501    0 -0.25814378606E+02 -0.10201679751E+03  0.10749785917E+03  0.15048943897E+03  0.41800000000E+01 0. -1.
         -5    1    4    4    0  501  0.29453158857E+02 -0.19316112841E+03  0.27424612467E+02  0.19735321600E+03  0.41800000000E+01 0. -1.
</event>
<event>
11    1  0.5813833E-009  0.1954084E+03  0.7561462E-02  0.1057819E+00
         22   -1    0    0    0    0  0.00000000000E+00  0.00000000000E+00  0.20918309940E+04  0.20918309940E+04  0.00000000000E+00 0. -1.
         22   -1    0    0    0    0 -0.00000000000E+00 -0.00000000000E+00 -0.19758431878E+03  0.19758431878E+03  0.00000000000E+00 0.  1.
        -24    2    1    2    0    0  0.22800415466E+02  0.16317684163E+02 -0.79273783906E+02  0.11709654074E+03  0.81493197730E+02 0.  0.
         25    2    1    2    0    0 -0.97437469048E+02 -0.14547804033E+03  0.25246041466E+02  0.21666257479E+03  0.12508952040E+03 0.  0.
         24    2    1    2    0    0  0.74637053582E+02  0.12916035616E+03  0.19482744177E+04  0.19556561973E+04  0.81023872846E+02 0.  0.
        -13    1    5    5    0    0  0.59515299406E+02  0.83876112699E+02  0.82768201797E+03  0.83404723848E+03  0.00000000000E+00 0.  1.
         14    1    5    5    0    0  0.15121754176E+02  0.45284243466E+02  0.11205923997E+04  0.11216089588E+04  0.00000000000E+00 0. -1.
         11    1    3    3    0    0  0.73587525075E+01  0.19547570808E+02  0.12256038407E+02  0.24217127006E+02  0.00000000000E+00 0. -1.
        -12    1    3    3    0    0  0.15441662958E+02 -0.32298866450E+01 -0.91529822314E+02  0.92879413733E+02  0.00000000000E+00 0.  1.
          5    1    4    4  501    0 -0.44511713518E+02 -0.93323447801E+02  0.74420447665E+02  0.12746149999E+03  0.41800000000E+01 0.  1.
         -5    1    4    4    0  501 -0.52925755531E+02 -0.52154592527E+02 -0.49174406199E+02  0.89201074798E+02  0.41800000000E+01 0.  1.
</event>
<event>
11    1  0.5813833E-009  0.1651965E+03  0.7561462E-02  0.1082289E+00
         22   -1    0    0    0    0  0.00000000000E+00  0.00000000000E+00  0.36303178232E+03  0.36303178232E+03  0.00000000000E+00 0. -1.
         22   -1    0    0    0    0 -0.00000000000E+00 -0.00000000000E+00 -0.60399142167E+03  0.60399142167E+03  0.00000000000E+00 0.  1.
         24    2    1    2    0    0  0.11020946102E+03 -0.70342804676E+01 -0.52102440187E+03  0.53882263289E+03  0.81656573294E+02 0.  0.
         25    2    1    2    0    0 -0.82501949273E+02  0.20488862414E+02  0.17491363423E+02  0.15224880173E+03  0.12508950683E+03 0.  0.
        -24    2    1    2    0    0 -0.27707511747E+02 -0.13454581947E+02  0.26257339910E+03  0.27595176937E+03  0.79093976528E+02 0.  0.
        -11    1    3    3    0    0  0.53730763797E+02 -0.22341830018E+02 -0.40202026947E+03  0.40620985883E+03  0.00000000000E+00 0.  1.
         12    1    3    3    0    0  0.56478697224E+02  0.15307549550E+02 -0.11900413240E+03  0.13261277405E+03  0.00000000000E+00 0. -1.
         13    1    5    5    0    0  0.27206507215E+02 -0.11383270588E+02  0.10541328555E+03  0.10946110567E+03  0.00000000000E+00 0. -1.
        -14    1    5    5    0    0 -0.54914018962E+02 -0.20713113590E+01  0.15716011355E+03  0.16649066370E+03  0.00000000000E+00 0.  1.
          5    1    4    4  501    0  0.13811131651E+02 -0.36444657210E+02  0.23290910473E+01  0.39266492863E+02  0.41800000000E+01 0. -1.
         -5    1    4    4    0  501 -0.96313080924E+02  0.56933519625E+02  0.15162272376E+02  0.11298230887E+03  0.41800000000E+01 0. -1.
</event>
<event>
11    1  0.5813833E-009  0.2210505E+03  0.7561462E-02  0.1040561E+00
         22   -1    0    0    0    0  0.00000000000E+00  0.00000000000E+00  0.46667653469E+03  0.46667653469E+03  0.00000000000E+00 0. -1.
         22   -1    0    0    0    0 -0.00000000000E+00 -0.00000000000E+00 -0.96266834842E+03  0.96266834842E+03  0.00000000000E+00 0. -1.
        -24    2    1    2    0    0  0.26731851927E+02 -0.18257472306E+03 -0.66163868227E+03  0.69161473909E+03  0.80728433970E+02 0.  0.
         25    2    1    2    0    0  0.24497954123E+02  0.17931269497E+03 -0.23332951626E+03  0.32069154806E+03  0.12508882246E+03 0.  0.
         24    2    1    2    0    0 -0.51229806050E+02  0.32620280862E+01  0.39897638481E+03  0.41703859595E+03  0.11001773050E+03 0.  0.
        -13    1    5    5    0    0  0.25309008008E+02 -0.20940066493E+02  0.57195313464E+02  0.65957078114E+02  0.00000000000E+00 0.  1.
         14    1    5    5    0    0 -0.76538814059E+02  0.24202094579E+02  0.34178107134E+03  0.35108151784E+03  0.00000000000E+00 0. -1.
         13    1    3    3    0    0  0.90382892433E+01 -0.69716812108E+02 -0.39990736445E+03  0.40603943738E+03  0.00000000000E+00 0. -1.
        -14    1    3    3    0    0  0.17693562684E+02 -0.11285791095E+03 -0.26173131781E+03  0.28557530172E+03  0.00000000000E+00 0.  1.
          5    1    4    4  501    0 -0.79452424985E+01 -0.17828982943E+02 -0.25321623429E+02  0.32243705188E+02  0.41800000000E+01 0. -1.
         -5    1    4    4    0  501  0.32443196621E+02  0.19714167792E+03 -0.20800789284E+03  0.28844784288E+03  0.41800000000E+01 0. -1.
</event>
<event>
11    1  0.5813833E-009  0.1420379E+03  0.7561462E-02  0.1105304E+00
         22   -1    0    0    0    0  0.00000000000E+00  0.00000000000E+00  0.22212809535E+04  0.22212809535E+04  0.00000000000E+00 0. -1.
         22   -1    0    0    0    0 -0.00000000000E+00 -0.00000000000E+00 -0.66443430760E+03  0.66443430760E+03  0.00000000000E+00 0. -1.
        -24    2    1    2    0    0  0.62234357931E+02 -0.25101195513E+02 -0.63664120108E+03  0.64496751296E+03  0.78535906061E+02 0.  0.
         25    2    1    2    0    0 -0.93956393388E+02 -0.17187086500E+02  0.25298916888E+03  0.29794380077E+03  0.12507513359E+03 0.  0.
         24    2    1    2    0    0  0.31722035457E+02  0.42288282013E+02  0.19404986781E+04  0.19428039474E+04  0.78469560307E+02 0.  0.
        -11    1    5    5    0    0 -0.17280179044E+02  0.23533311465E+02  0.28878726821E+03  0.29025937989E+03  0.00000000000E+00 0.  1.
         12    1    5    5    0    0  0.49002214501E+02  0.18754970548E+02  0.16517114099E+04  0.16525445675E+04  0.00000000000E+00 0. -1.
         11    1    3    3    0    0  0.27056740401E+02 -0.44912967341E+02 -0.49236422175E+03  0.49514822902E+03  0.00000000000E+00 0. -1.
        -12    1    3    3    0    0  0.35177617529E+02  0.19811771828E+02 -0.14427697933E+03  0.14981928394E+03  0.00000000000E+00 0.  1.
          5    1    4    4  501    0 -0.34194153141E+02 -0.20099121877E+02  0.23044035371E+03  0.23386629477E+03  0.41800000000E+01 0.  1.
         -5    1    4    4    0  501 -0.59762240247E+02  0.29120353777E+01  0.22548815168E+02  0.64077505997E+02  0.41800000000E+01 0.  1.
</event>
<event>
11    1  0.5813833E-009  0.2771866E+03  0.7561462E-02  0.1010337E+00
         22   -1    0    0    0    0  0.00000000000E+00  0.00000000000E+00  0.93301622491E+03  0.93301622491E+03  0.00000000000E+00 0. -1.
         22   -1    0    0    0    0 -0.00000000000E+00 -0.00000000000E+00 -0.22302488498E+03  0.22302488498E+03  0.00000000000E+00 0.  1.
         24    2    1    2    0    0 -0.32522291274E+02  0.23799338779E+02 -0.94481440236E+02  0.13145834394E+03  0.82039293548E+02 0.  0.
         25    2    1    2    0    0  0.75788201033E+02  0.22368579227E+03  0.12409668289E+03  0.29466336806E+03  0.12508928289E+03 0.  0.
        -24    2    1    2    0    0 -0.43265909759E+02 -0.24748513105E+03  0.68037609729E+03  0.72991939789E+03  0.82157559751E+02 0.  0.
        -11    1    3    3    0    0 -0.36685198576E+02 -0.12193727488E+02 -0.85936350145E+02  0.94231348610E+02  0.00000000000E+00 0.  1.
         12    1    3    3    0    0  0.41629073025E+01  0.35993066267E+02 -0.85450900909E+01  0.37226995328E+02  0.00000000000E+00 0. -1.
         11    1    5    5    0    0 -0.40936084009E+02 -0.25374604788E+03  0.65357898258E+03  0.70230214741E+03  0.00000000000E+00 0. -1.
        -12    1    5    5    0    0 -0.23298257498E+01  0.62609168300E+01  0.26797114707E+02  0.27617250482E+02  0.00000000000E+00 0.  1.
          5    1    4    4  501    0 -0.18804912324E+02  0.40779150307E+02  0.67299449300E+02  0.81013900680E+02  0.41800000000E+01 0.  1.
         -5    1    4    4    0  501  0.94593113356E+02  0.18290664197E+03  0.56797233585E+02  0.21364946738E+03  0.41800000000E+01 0.  1.
</event>
<event>
11    1  0.5813833E-009  0.1260942E+03  0.7561462E-02  0.1124163E+00
         22   -1    0    0    0    0  0.00000000000E+00  0.00000000000E+00  0.59865958859E+03  0.59865958859E+03  0.00000000000E+00 0. -1.
         22   -1    0    0    0    0 -0.00000000000E+00 -0.00000000000E+00 -0.16863648456E+04  0.16863648456E+04  0.00000000000E+00 0. -1.
        -24    2    1    2    0    0  0.93319835818E+01  0.22495465979E+02 -0.16555405753E+04  0.16575529431E+04  0.77936068265E+02 0.  0.
         25    2    1    2    0    0 -0.21140282935E+02 -0.28626562748E+02  0.13702223415E+03  0.18891745968E+03  0.12509325426E+03 0.  0.
         24    2    1    2    0    0  0.11808299353E+02  0.61310967691E+01  0.43081308413E+03  0.43855403145E+03  0.80948741559E+02 0.  0.
        -11    1    5    5    0    0  0.41461024058E+02 -0.16102533276E+02  0.25870007732E+03  0.26249578682E+03  0.00000000000E+00 0.  1.
         12    1    5    5    0    0 -0.29652724706E+02  0.22233630045E+02  0.17211300681E+03  0.17605824463E+03  0.00000000000E+00 0. -1.
         11    1    3    3    0    0  0.42505600653E+02  0.15764957391E+02 -0.11409092410E+04  0.11418095972E+04  0.00000000000E+00 0. -1.
        -12    1    3    3    0    0 -0.33173617071E+02  0.67305085874E+01 -0.51463133425E+03  0.51574334587E+03  0.00000000000E+00 0.  1.
          5    1    4    4  501    0  0.39004783485E+02  0.13344640357E+02  0.96503681985E+02  0.10502326217E+03  0.41800000000E+01 0. -1.
         -5    1    4    4    0  501 -0.60145066419E+02 -0.41971203104E+02  0.40518552169E+02  0.83894197502E+02  0.41800000000E+01 0. -1.
</event>
<event>
11    1  0.5813833E-009  0.1849655E+03  0.7561462E-02  0.1065696E+00
         22   -1    0    0    0    0  0.00000000000E+00  0.00000000000E+00  0.64325485244E+03  0.64325485244E+03  0.00000000000E+00 0.  1.
         22   -1    0    0    0    0 -0.00000000000E+00 -0.00000000000E+00 -0.33313398665E+03  0.33313398665E+03  0.00000000000E+00 0. -1.
        -24    2    1    2    0    0 -0.90609747017E+02 -0.37494027791E+02 -0.24512621045E+03  0.27615567845E+03  0.80988711069E+02 0.  0.
         25    2    1    2    0    0  0.57498954014E+02  0.16455322642E+03  0.15050088819E+03  0.26207365568E+03  0.12509272407E+03 0.  0.
         24    2    1    2    0    0  0.33110793003E+02 -0.12705919863E+03  0.40474618804E+03  0.43815950496E+03  0.10451751280E+03 0.  0.
        -11    1    5    5    0    0 -0.57112300049E+01 -0.10820653075E+03  0.36016030629E+03  0.37610732202E+03  0.00000000000E+00 0.  1.
         12    1    5    5    0    0  0.38822023008E+02 -0.18852667885E+02  0.44585881749E+02  0.62052182944E+02  0.00000000000E+00 0. -1.
         11    1    3    3    0    0 -0.62059848312E+02 -0.58582054820E+02 -0.20782856324E+03  0.22466863069E+03  0.00000000000E+00 0. -1.
        -12    1    3    3    0    0 -0.28549898705E+02  0.21088027029E+02 -0.37297647207E+02  0.51487047762E+02  0.00000000000E+00 0.  1.
          5    1    4    4  501    0 -0.13502697593E+02  0.13716098389E+03  0.88743098141E+02  0.16397642578E+03  0.41800000000E+01 0. -1.
         -5    1    4    4    0  501  0.71001651607E+02  0.27392242534E+02  0.61757790052E+02  0.98097229900E+02  0.41800000000E+01 0. -1.
</event>
<event>
11    1  0.5813833E-009  0.1794778E+03  0.7561462E-02  0.1070066E+00
         22   -1    0    0    0    0  0.00000000000E+00  0.00000000000E+00  0.81888756317E+03  0.81888756317E+03  0.00000000000E+00 0. -1.
         22   -1    0    0    0    0 -0.00000000000E+00 -0.00000000000E+00 -0.12228695963E+03  0.12228695963E+03  0.00000000000E+00 0.  1.
         24    2    1    2    0    0 -0.12420984825E+02  0.18075193536E+02 -0.65464797861E+02  0.10560267031E+03  0.79908014193E+02 0.  0.
         25    2    1    2    0    0  0.11878152858E+03  0.53889458671E+02  0.31542909620E+03  0.36353538254E+03  0.12509729951E+03 0.  0.
        -24    2    1    2    0    0 -0.10636054376E+03 -0.71964652207E+02  0.44663630520E+03  0.47203646995E+03  0.82722206244E+02 0.  0.
        -13    1    3    3    0    0  0.13185809363E+02  0.43863510783E+02 -0.29544468351E+02  0.54504575560E+02  0.00000000000E+00 0.  1.
         14    1    3    3    0    0 -0.25606794188E+02 -0.25788317247E+02 -0.35920329510E+02  0.51098094751E+02  0.00000000000E+00 0. -1.
         11    1    5    5    0    0 -0.37527958730E+02 -0.25720089758E+02  0.30122956656E+03  0.30464589686E+03  0.00000000000E+00 0. -1.
        -12    1    5    5    0    0 -0.68832585029E+02 -0.46244562449E+02  0.14540673863E+03  0.16739057309E+03  0.00000000000E+00 0.  1.
          5    1    4    4  501    0 -0.55517164772E+01  0.48222825619E+02  0.47331763622E+02  0.67926656874E+02  0.41800000000E+01 0. -1.
         -5    1    4    4    0  501  0.12433324506E+03  0.56666330519E+01  0.26809733257E+03  0.29560872567E+03  0.41800000000E+01 0. -1.
</event>
<event>
11    1  0.5813833E-009  0.1557221E+03  0.7561462E-02  0.1091171E+00
         22   -1    0    0    0    0  0.00000000000E+00  0.00000000000E+00  0.28245380519E+04  0.28245380519E+04  0.00000000000E+00 0. -1.
         22   -1    0    0    0    0 -0.00000000000E+00 -0.00000000000E+00 -0.25087524213E+02  0.25087524213E+02  0.00000000000E+00 0.  1.
        -24    2    1    2    0    0  0.34035317542E+02 -0.80454304426E+02  0.21210907524E+03  0.24317159824E+03  0.80689952593E+02 0.  0.
         25    2    1    2    0    0 -0.73368936787E+02  0.90816640765E+02  0.86353765433E+03  0.88032699574E+03  0.12509067057E+03 0.  0.
         24    2    1    2    0    0  0.39333619245E+02 -0.10362336339E+02  0.17238037981E+04  0.17261269821E+04  0.79751566916E+02 0.  0.
        -11    1    5    5    0    0  0.34606424537E+02  0.19077269011E+02  0.39143330065E+03  0.39342289673E+03  0.00000000000E+00 0.  1.
         12    1    5    5    0    0  0.47271947076E+01 -0.29439605350E+02  0.13323704974E+04  0.13327040854E+04  0.00000000000E+00 0. -1.
         13    1    3    3    0    0 -0.51293396957E+01 -0.31864496223E+02  0.13493588733E+02  0.34981897921E+02  0.00000000000E+00 0. -1.
        -14    1    3    3    0    0  0.39164657238E+02 -0.48589808204E+02  0.19861548651E+03  0.20818970032E+03  0.00000000000E+00 0.  1.
          5    1    4    4  501    0 -0.10547114783E+03  0.50806901846E+02  0.52588987749E+03  0.53877930542E+03  0.41800000000E+01 0. -1.
         -5    1    4    4    0  501  0.32102211039E+02  0.40009738920E+02  0.33764777684E+03  0.34154769033E+03  0.41800000000E+01 0. -1.
</event>
<event>
11    1  0.5813833E-009  0.1352755E+03  0.7561462E-02  0.1112952E+00
         22   -1    0    0    0    0  0.00000000000E+00  0.00000000000E+00  0.11634584226E+04  0.11634584226E+04  0.00000000000E+00 0. -1.
         22   -1    0    0    0    0 -0.00000000000E+00 -0.00000000000E+00 -0.49878338689E+03  0.49878338689E+03  0.00000000000E+00 0.  1.
        -24    2    1    2    0    0 -0.39195201081E+02  0.33771327744E+02 -0.48118473061E+03  0.49073579194E+03  0.81277956172E+02 0.  0.
         25    2    1    2    0    0  0.37534209678E+02 -0.29672862492E+01  0.40258175392E+03  0.42324642011E+03  0.12509133408E+03 0.  0.
         24    2    1    2    0    0  0.16609914028E+01 -0.30804041495E+02  0.74327801243E+03  0.74825959746E+03  0.80489586731E+02 0.  0.
        -13    1    5    5    0    0  0.28390754413E+02 -0.35775283736E+02  0.24372640890E+03  0.24796868403E+03  0.00000000000E+00 0.  1.
         14    1    5    5    0    0 -0.26729763010E+02  0.49712422417E+01  0.49955160353E+03  0.50029091344E+03  0.00000000000E+00 0. -1.
         13    1    3    3    0    0  0.18254506398E+02  0.16520615948E+02 -0.53845082185E+02  0.59206846147E+02  0.00000000000E+00 0. -1.
        -14    1    3    3    0    0 -0.57449707479E+02  0.17250711796E+02 -0.42733964842E+03  0.43152894580E+03  0.00000000000E+00 0.  1.
          5    1    4    4  501    0 -0.31554117147E+02 -0.34698471535E+01  0.28658192150E+02  0.42970530896E+02  0.41800000000E+01 0.  1.
         -5    1    4    4    0  501  0.69088326825E+02  0.50256090422E+00  0.37392356177E+03  0.38027588921E+03  0.41800000000E+01 0.  1.
</event>
<event>
11    1  0.5813833E-009  0.1550667E+03  0.7561462E-02  0.1091811E+00
         22   -1    0    0    0    0  0.00000000000E+00  0.00000000000E+00  0.75593339262E+03  0.75593339262E+03  0.00000000000E+00 0. -1.
         22   -1    0    0    0    0 -0.00000000000E+00 -0.00000000000E+00 -0.20088528007E+03  0.20088528007E+03  0.00000000000E+00 0. -1.
         24    2    1    2    0    0 -0.39455331384E+02  0.82993370498E+02 -0.15295863736E+03  0.19533147526E+03  0.79457018345E+02 0.  0.
         25    2    1    2    0    0  0.17007258503E+02 -0.89663976410E+02  0.23676046994E+03  0.28289999123E+03  0.12509200376E+03 0.  0.
        -24    2    1    2    0    0  0.22448072881E+02  0.66706059120E+01  0.47124627996E+03  0.47858720620E+03  0.80151385516E+02 0.  0.
        -13    1    3    3    0    0 -0.40931477591E+01 -0.13394746541E+02 -0.42751975266E+01  0.14644125353E+02  0.00000000000E+00 0.  1.
         14    1    3    3    0    0 -0.35362183625E+02  0.96388117039E+02 -0.14868343983E+03  0.18068734991E+03  0.00000000000E+00 0. -1.
         11    1    5    5    0    0  0.10219097557E+01  0.29859859483E+02  0.39409188410E+03  0.39522280883E+03  0.00000000000E+00 0. -1.
        -12    1    5    5    0    0  0.21426163125E+02 -0.23189253571E+02  0.77154395861E+02  0.83364397366E+02  0.00000000000E+00 0.  1.
          5    1    4    4  501    0 -0.47920927470E+02 -0.10228275780E+02  0.10421063566E+03  0.11523177469E+03  0.41800000000E+01 0. -1.
         -5    1    4    4    0  501  0.64928185973E+02 -0.79435700630E+02  0.13254983429E+03  0.16766821654E+03  0.41800000000E+01 0. -1.
</event>
<event>
11    1  0.5813833E-009  0.1405908E+03  0.7561462E-02  0.1106900E+00
         22   -1    0    0    0    0  0.00000000000E+00  0.00000000000E+00  0.99146707211E+03  0.99146707211E+03  0.00000000000E+00 0.  1.
         22   -1    0    0    0    0 -0.00000000000E+00 -0.00000000000E+00 -0.33505659067E+03  0.33505659067E+03  0.00000000000E+00 0.  1.
         24    2    1    2    0    0  0.24774372022E+02  0.48785912472E+02 -0.30988802748E+03  0.32489934997E+03  0.80840356701E+02 0.  0.
         25    2    1    2    0    0 -0.45163054316E+02  0.22728472292E+02  0.34228516444E+03  0.36791749549E+03  0.12509142562E+03 0.  0.
        -24    2    1    2    0    0  0.20388682294E+02 -0.71514384764E+02  0.62401334449E+03  0.63370681733E+03  0.81619058023E+02 0.  0.
        -11    1    3    3    0    0 -0.23677204038E+02  0.40570589780E+02 -0.17990860123E+03  0.18594001061E+03  0.00000000000E+00 0.  1.
         12    1    3    3    0    0  0.48451576060E+02  0.82153226915E+01 -0.12997942624E+03  0.13895933936E+03  0.00000000000E+00 0. -1.
         13    1    5    5    0    0  0.23198158624E+02 -0.11445125187E+02  0.47683126730E+02  0.54247820498E+02  0.00000000000E+00 0. -1.
        -14    1    5    5    0    0 -0.28094763297E+01 -0.60069259577E+02  0.57633021776E+03  0.57945899683E+03  0.00000000000E+00 0.  1.
          5    1    4    4  501    0 -0.26384867187E+02 -0.48938943255E+02  0.99631236598E+02  0.11417108692E+03  0.41800000000E+01 0. -1.
         -5    1    4    4    0  501 -0.18778187130E+02  0.71667415547E+02  0.24265392784E+03  0.25374640856E+03  0.41800000000E+01 0. -1.
</event>
<event>
11    1  0.5813833E-009  0.1254137E+03  0.7561462E-02  0.1125036E+00
         22   -1    0    0    0    0  0.00000000000E+00  0.00000000000E+00  0.40623038623E+03  0.40623038623E+03  0.00000000000E+00 0. -1.
         22   -1    0    0    0    0 -0.00000000000E+00 -0.00000000000E+00 -0.96350945371E+03  0.96350945371E+03  0.00000000000E+00 0.  1.
        -24    2    1    2    0    0 -0.48373073265E+01 -0.29335428648E+02 -0.88896745139E+03  0.89250922647E+03  0.73658827061E+02 0.  0.
         25    2    1    2    0    0  0.52269495828E+01  0.36391491905E+02 -0.54720773770E+01  0.13049502424E+03  0.12508935221E+03 0.  0.
         24    2    1    2    0    0 -0.38964225636E+00 -0.70560632576E+01  0.33716046129E+03  0.34673558922E+03  0.80612978654E+02 0.  0.
        -13    1    5    5    0    0  0.32689119875E+02 -0.94927990237E+01  0.73530792047E+02  0.81027582776E+02  0.00000000000E+00 0.  1.
         14    1    5    5    0    0 -0.33078762131E+02  0.24367357661E+01  0.26362966924E+03  0.26570800645E+03  0.00000000000E+00 0. -1.
         13    1    3    3    0    0 -0.19064967681E+02  0.16992485402E+02 -0.16969992021E+03  0.17161084019E+03  0.00000000000E+00 0. -1.
        -14    1    3    3    0    0  0.14227660354E+02 -0.46327914049E+02 -0.71926753118E+03  0.72089838628E+03  0.00000000000E+00 0.  1.
          5    1    4    4  501    0 -0.28334431240E+02 -0.85692046369E+01 -0.50330405379E+02  0.58539673448E+02  0.41800000000E+01 0.  1.
         -5    1    4    4    0  501  0.33561380823E+02  0.44960696542E+02  0.44858328002E+02  0.71955350791E+02  0.41800000000E+01 0.  1.
</event>
<event>
11    1  0.5813833E-009  0.1469317E+03  0.7561462E-02  0.1100056E+00
         22   -1    0    0    0    0  0.00000000000E+00  0.00000000000E+00  0.21043588600E+04  0.21043588600E+04  0.00000000000E+00 0. -1.
         22   -1    0    0    0    0 -0.00000000000E+00 -0.00000000000E+00 -0.78752690571E+02  0.78752690571E+02  0.00000000000E+00 0. -1.
        -24    2    1    2    0    0  0.71727023277E+02  0.11419286500E+02 -0.75256207282E+01  0.10881693945E+03  0.80680390257E+02 0.  0.
         25    2    1    2    0    0 -0.10634061480E+03 -0.18732183806E+02  0.33548855470E+03  0.37398504487E+03  0.12511203936E+03 0.  0.
         24    2    1    2    0    0  0.34613591523E+02  0.73128973058E+01  0.16976432354E+04  0.17003095662E+04  0.88365643604E+02 0.  0.
        -13    1    5    5    0    0  0.16423142189E+01 -0.18209714126E+02  0.77410025523E+02  0.79539945537E+02  0.00000000000E+00 0.  1.
         14    1    5    5    0    0  0.32971277304E+02  0.25522611432E+02  0.16202332099E+04  0.16207696207E+04  0.00000000000E+00 0. -1.
         13    1    3    3    0    0  0.25519208714E+02  0.37724449182E+02 -0.26102056044E+02  0.52494584570E+02  0.00000000000E+00 0. -1.
        -14    1    3    3    0    0  0.46207814563E+02 -0.26305162682E+02  0.18576435315E+02  0.56322354882E+02  0.00000000000E+00 0.  1.
          5    1    4    4  501    0 -0.90076253414E+01  0.41019307987E+02  0.15256082390E+03  0.15829086622E+03  0.41800000000E+01 0. -1.
         -5    1    4    4    0  501 -0.97332989458E+02 -0.59751491793E+02  0.18292773080E+03  0.21569417865E+03  0.41800000000E+01 0. -1.
</event>
<event>
11    1  0.5813833E-009  0.1323370E+03  0.7561462E-02  0.1116430E+00
         22   -1    0    0    0    0  0.00000000000E+00  0.00000000000E+00  0.22530360782E+04  0.22530360782E+04  0.00000000000E+00 0.  1.
         22   -1    0    0    0    0 -0.00000000000E+00 -0.00000000000E+00 -0.12192517679E+04  0.12192517679E+04  0.00000000000E+00 0. -1.
        -24    2    1    2    0    0  0.17030421162E+02  0.39729793935E+02 -0.12095424944E+04  0.12128495301E+04  0.78373753480E+02 0.  0.
         25    2    1    2    0    0 -0.27572165613E+02 -0.23070152835E+02  0.59849141198E+03  0.61247991871E+03  0.12508886575E+03 0.  0.
         24    2    1    2    0    0  0.10541744451E+02 -0.16659641100E+02  0.16448353927E+04  0.16469583973E+04  0.81239282882E+02 0.  0.
        -13    1    5    5    0    0  0.25855051007E+02 -0.43430054221E+02  0.11940341717E+04  0.11951034501E+04  0.00000000000E+00 0.  1.
         14    1    5    5    0    0 -0.15313306555E+02  0.26770413121E+02  0.45080122102E+03  0.45185494713E+03  0.00000000000E+00 0. -1.
         11    1    3    3    0    0 -0.71620529927E+00  0.60451878924E+02 -0.71319972173E+03  0.71575749084E+03  0.00000000000E+00 0. -1.
        -12    1    3    3    0    0  0.17746626461E+02 -0.20722084989E+02 -0.49634277267E+03  0.49709203930E+03  0.00000000000E+00 0.  1.
          5    1    4    4  501    0 -0.15111719672E+01  0.42511517903E+02  0.96597694633E+02  0.10563190713E+03  0.41800000000E+01 0. -1.
         -5    1    4    4    0  501 -0.26060993646E+02 -0.65581670738E+02  0.50189371735E+03  0.50684801158E+03  0.41800000000E+01 0. -1.
</event>
<event>
11    1  0.5813833E-009  0.1310588E+03  0.7561462E-02  0.1117975E+00
         22   -1    0    0    0    0  0.00000000000E+00  0.00000000000E+00  0.75995560554E+02  0.75995560554E+02  0.00000000000E+00 0. -1.
         22   -1    0    0    0    0 -0.00000000000E+00 -0.00000000000E+00 -0.89222059086E+03  0.89222059086E+03  0.00000000000E+00 0.  1.
         24    2    1    2    0    0 -0.43617874969E+02 -0.12957361456E+01 -0.62816301472E+03  0.63473844753E+03  0.79999536027E+02 0.  0.
         25    2    1    2    0    0  0.15067597535E+02 -0.15489350293E+00 -0.20953967496E+03  0.24450060672E+03  0.12508642940E+03 0.  0.
        -24    2    1    2    0    0  0.28550277434E+02  0.14506296485E+01  0.21477659365E+02  0.88977097164E+02  0.81476446290E+02 0.  0.
        -13    1    3    3    0    0  0.15876337163E+02  0.12738559499E+02 -0.61344275935E+02  0.64633189383E+02  0.00000000000E+00 0.  1.
         14    1    3    3    0    0 -0.59494212132E+02 -0.14034295645E+02 -0.56681873878E+03  0.57010525815E+03  0.00000000000E+00 0. -1.
         11    1    5    5    0    0 -0.95322685465E+01  0.26581074601E+02  0.31456069092E+02  0.42271763073E+02  0.00000000000E+00 0. -1.
        -12    1    5    5    0    0  0.38082545980E+02 -0.25130444953E+02 -0.99784097274E+01  0.46705334091E+02  0.00000000000E+00 0.  1.
          5    1    4    4  501    0 -0.49885351294E+02 -0.11022406921E+02 -0.13781146249E+03  0.14703575524E+03  0.41800000000E+01 0.  1.
         -5    1    4    4    0  501  0.64952948829E+02  0.10867513418E+02 -0.71728212470E+02  0.97464851478E+02  0.41800000000E+01 0.  1.
</event>
<event>
11    1  0.5813833E-009  0.1396393E+03  0.7561462E-02  0.1107962E+00
         22   -1    0    0    0    0  0.00000000000E+00  0.00000000000E+00  0.11888101085E+03  0.11888101085E+03  0.00000000000E+00 0. -1.
         22   -1    0    0    0    0 -0.00000000000E+00 -0.00000000000E+00 -0.33497736000E+04  0.33497736000E+04  0.00000000000E+00 0.  1.
        -24    2    1    2    0    0 -0.62307822115E+02  0.82434657310E+01 -0.31127185444E+04  0.31144006934E+04  0.80775758030E+02 0.  0.
         25    2    1    2    0    0  0.44943822375E+02  0.11027463529E+02 -0.19740982472E+03  0.23823989683E+03  0.12508420135E+03 0.  0.
         24    2    1    2    0    0  0.17363999740E+02 -0.19270929260E+02  0.79235779906E+02  0.11601402066E+03  0.80672591205E+02 0.  0.
        -13    1    5    5    0    0 -0.27279317149E+02 -0.16634601278E+02  0.97952192173E+01  0.33418818401E+02  0.00000000000E+00 0.  1.
         14    1    5    5    0    0  0.44643316889E+02 -0.26363279824E+01  0.69440560689E+02  0.82595202263E+02  0.00000000000E+00 0. -1.
         11    1    3    3    0    0 -0.84169418761E+01 -0.33059957073E+02 -0.92561971929E+03  0.92624816891E+03  0.00000000000E+00 0. -1.
        -12    1    3    3    0    0 -0.53890880239E+02  0.41303422804E+02 -0.21870988251E+04  0.21881525245E+04  0.00000000000E+00 0.  1.
          5    1    4    4  501    0  0.86057268599E+02  0.89082885478E+01 -0.16232091958E+03  0.18398577232E+03  0.41800000000E+01 0.  1.
         -5    1    4    4    0  501 -0.41113446224E+02  0.21191749816E+01 -0.35088905138E+02  0.54254124514E+02  0.41800000000E+01 0.  1.
</event>
<event>
11    1  0.5813833E-009  0.2178113E+03  0.7561462E-02  0.1042597E+00
         22   -1    0    0    0    0  0.00000000000E+00  0.00000000000E+00  0.53048609983E+03  0.53048609983E+03  0.00000000000E+00 0.  1.
         22   -1    0    0    0    0 -0.00000000000E+00 -0.00000000000E+00 -0.44733307206E+04  0.44733307206E+04  0.00000000000E+00 0.  1.
         24    2    1    2    0    0 -0.62649981499E+02  0.16678805070E+03 -0.43573360908E+04  0.43617104224E+04  0.79979542311E+02 0.  0.
         25    2    1    2    0    0  0.17831192301E+03 -0.13455032893E+03  0.66631930082E+02  0.26454872773E+03  0.12508909758E+03 0.  0.
        -24    2    1    2    0    0 -0.11566194151E+03 -0.32237721771E+02  0.34785953992E+03  0.37755767028E+03  0.84419070431E+02 0.  0.
        -11    1    3    3    0    0 -0.30842443050E+02  0.15975889428E+03 -0.36474856166E+04  0.36511129103E+04  0.00000000000E+00 0.  1.
         12    1    3    3    0    0 -0.31807538449E+02  0.70291564261E+01 -0.70985047415E+03  0.71059751210E+03  0.00000000000E+00 0. -1.
         13    1    5    5    0    0 -0.47156047141E+02 -0.42604227574E+02  0.87544069219E+02  0.10817937440E+03  0.00000000000E+00 0. -1.
        -14    1    5    5    0    0 -0.68505894374E+02  0.10366505803E+02  0.26031547070E+03  0.26937829588E+03  0.00000000000E+00 0.  1.
          5    1    4    4  501    0  0.70227320233E+02  0.10134663397E+02 -0.25082439276E+01  0.71122089373E+02  0.41800000000E+01 0. -1.
         -5    1    4    4    0  501  0.10808460278E+03 -0.14468499233E+03  0.69140174010E+02  0.19342663836E+03  0.41800000000E+01 0. -1.
</event>
<event>
11    1  0.5813833E-009  0.1259936E+03  0.7561462E-02  0.1124292E+00
         22   -1    0    0    0    0  0.00000000000E+00  0.00000000000E+00  0.26923626464E+03  0.26923626464E+03  0.00000000000E+00 0. -1.
         22   -1    0    0    0    0 -0.00000000000E+00 -0.00000000000E+00 -0.24195168446E+03  0.24195168446E+03  0.00000000000E+00 0.  1.
        -24    2    1    2    0    0 -0.52231474065E+01  0.16155073571E+02 -0.97191953745E+02  0.12535514677E+03  0.77326381519E+02 0.  0.
         25    2    1    2    0    0  0.19548888474E+02 -0.18921353026E+02 -0.90239727793E+02  0.15662291994E+03  0.12508938380E+03 0.  0.
         24    2    1    2    0    0 -0.14325741067E+02  0.27662794559E+01  0.21471626172E+03  0.22920988239E+03  0.78874697966E+02 0.  0.
        -13    1    5    5    0    0 -0.28225418819E+02 -0.20645555805E+02  0.43362777924E+02  0.55706765759E+02  0.00000000000E+00 0.  1.
         14    1    5    5    0    0  0.13899677752E+02  0.23411835261E+02  0.17135348379E+03  0.17350311663E+03  0.00000000000E+00 0. -1.
         13    1    3    3    0    0 -0.11135253126E+02  0.34017959412E+02 -0.11461746298E+02  0.37584399063E+02  0.00000000000E+00 0. -1.
        -14    1    3    3    0    0  0.59121057192E+01 -0.17862885841E+02 -0.85730207448E+02  0.87770747711E+02  0.00000000000E+00 0.  1.
          5    1    4    4  501    0  0.10694615032E+02 -0.69242126717E+02 -0.75925885279E+02  0.10339757907E+03  0.41800000000E+01 0. -1.
         -5    1    4    4    0  501  0.88542734415E+01  0.50320773691E+02 -0.14313842514E+02  0.53225340868E+02  0.41800000000E+01 0. -1.
</event>
<event>
11    1  0.5813833E-009  0.1532153E+03  0.7561462E-02  0.1093638E+00
         22   -1    0    0    0    0  0.00000000000E+00  0.00000000000E+00  0.61281457526E+02  0.61281457526E+02  0.00000000000E+00 0.  1.
         22   -1    0    0    0    0 -0.00000000000E+00 -0.00000000000E+00 -0.12844455713E+04  0.12844455713E+04  0.00000000000E+00 0.  1.
        -24    2    1    2    0    0  0.70443572500E+00  0.20048091605E+02 -0.87067068530E+03  0.87390430563E+03  0.72380045200E+02 0.  0.
         25    2    1    2    0    0  0.13328268662E+02 -0.10327872440E+03 -0.30677390291E+03  0.34727889324E+03  0.12509302349E+03 0.  0.
         24    2    1    2    0    0 -0.14032704387E+02  0.83230632798E+02 -0.45719525601E+02  0.12454382999E+03  0.79351342396E+02 0.  0.
        -13    1    5    5    0    0  0.54851200878E+00  0.75300872850E+02  0.63685388325E+00  0.75305563541E+02  0.00000000000E+00 0.  1.
         14    1    5    5    0    0 -0.14581216396E+02  0.79297599482E+01 -0.46356379484E+02  0.49238266453E+02  0.00000000000E+00 0. -1.
         13    1    3    3    0    0  0.26519221230E+02  0.21429503785E+02 -0.21180951144E+03  0.21453615514E+03  0.00000000000E+00 0. -1.
        -14    1    3    3    0    0 -0.25814785505E+02 -0.13814121801E+01 -0.65886117386E+03  0.65936815049E+03  0.00000000000E+00 0.  1.
          5    1    4    4  501    0  0.56800755287E+02 -0.10456204741E+03 -0.22570967725E+03  0.25518988688E+03  0.41800000000E+01 0.  1.
         -5    1    4    4    0  501 -0.43472486625E+02  0.12833230103E+01 -0.81064225659E+02  0.92089006363E+02  0.41800000000E+01 0.  1.
</event>
<event>
11    1  0.5813833E-009  0.1417269E+03  0.7561462E-02  0.1105645E+00
         22   -1    0    0    0    0  0.00000000000E+00  0.00000000000E+00  0.14664211740E+04  0.14664211740E+04  0.00000000000E+00 0.  1.
         22   -1    0    0    0    0 -0.00000000000E+00 -0.00000000000E+00 -0.60539490873E+02  0.60539490873E+02  0.00000000000E+00 0.  1.
         24    2    1    2    0    0  0.19126521314E+02  0.22551546205E+02 -0.11942636288E+01  0.84962015693E+02  0.79641206615E+02 0.  0.
         25    2    1    2    0    0  0.14547910263E+02  0.39773104346E+02  0.27750890006E+03  0.30733187198E+03  0.12509255932E+03 0.  0.
        -24    2    1    2    0    0 -0.33674431577E+02 -0.62324650551E+02  0.11295670467E+04  0.11346667772E+04  0.80800079837E+02 0.  0.
        -13    1    3    3    0    0  0.25400447148E+02  0.46089002495E+02  0.16163295821E+02  0.55051167091E+02  0.00000000000E+00 0.  1.
         14    1    3    3    0    0 -0.62739258340E+01 -0.23537456290E+02 -0.17357559450E+02  0.29910848601E+02  0.00000000000E+00 0. -1.
         13    1    5    5    0    0 -0.90651900824E+01  0.18455774143E+02  0.33350996625E+03  0.33414321908E+03  0.00000000000E+00 0. -1.
        -14    1    5    5    0    0 -0.24609241494E+02 -0.80780424694E+02  0.79605708049E+03  0.80052355816E+03  0.00000000000E+00 0.  1.
          5    1    4    4  501    0  0.60034672656E+02  0.17176010254E+01  0.20449780410E+03  0.21317583436E+03  0.41800000000E+01 0.  1.
         -5    1    4    4    0  501 -0.45486762393E+02  0.38055503321E+02  0.73011095962E+02  0.94156037616E+02  0.41800000000E+01 0.  1.
</event>
<event>
11    1  0.5813833E-009  0.1442400E+03  0.7561462E-02  0.1102914E+00
         22   -1    0    0    0    0  0.00000000000E+00  0.00000000000E+00  0.18390378584E+03  0.18390378584E+03  0.00000000000E+00 0. -1.
         22   -1    0    0    0    0 -0.00000000000E+00 -0.00000000000E+00 -0.79767303286E+03  0.79767303286E+03  0.00000000000E+00 0. -1.
        -24    2    1    2    0    0 -0.39955337686E+02  0.10253409683E+02 -0.61338929526E+03  0.61987853576E+03  0.79381421863E+02 0.  0.
         25    2    1    2    0    0  0.77748666674E+02  0.49052733478E+02 -0.12447128935E+03  0.19897719745E+03  0.12509115637E+03 0.  0.
         24    2    1    2    0    0 -0.37793328988E+02 -0.59306143161E+02  0.12409133758E+03  0.16272108550E+03  0.78319456520E+02 0.  0.
        -13    1    5    5    0    0 -0.27101164663E+02 -0.14222184328E+01  0.20377968175E+01  0.27214857104E+02  0.00000000000E+00 0.  1.
         14    1    5    5    0    0 -0.10692164326E+02 -0.57883924728E+02  0.12205354076E+03  0.13550622839E+03  0.00000000000E+00 0. -1.
         13    1    3    3    0    0 -0.49916324617E+02  0.25623242802E+02 -0.57036356129E+03  0.57311672640E+03  0.00000000000E+00 0. -1.
        -14    1    3    3    0    0  0.99609869315E+01 -0.15369833119E+02 -0.43025733970E+02  0.46761809357E+02  0.00000000000E+00 0.  1.
          5    1    4    4  501    0  0.54737653622E+02 -0.36896127593E+02 -0.54626250827E+02  0.85784815875E+02  0.41800000000E+01 0. -1.
         -5    1    4    4    0  501  0.23011013053E+02  0.85948861072E+02 -0.69845038520E+02  0.11319238158E+03  0.41800000000E+01 0. -1.
</event>
<event>
11    1  0.5813833E-009  0.1432895E+03  0.7561462E-02  0.1103940E+00
         22   -1    0    0    0    0  0.00000000000E+00  0.00000000000E+00  0.10570514335E+04  0.10570514335E+04  0.00000000000E+00 0. -1.
         22   -1    0    0    0    0 -0.00000000000E+00 -0.00000000000E+00 -0.65125230603E+03  0.65125230603E+03  0.00000000000E+00 0. -1.
         24    2    1    2    0    0  0.30783584253E+01 -0.18488910838E+02 -0.41674589304E+03  0.42482074276E+03  0.80275824531E+02 0.  0.
         25    2    1    2    0    0  0.50095885157E+02  0.63672583792E+02 -0.20349998382E+03  0.25223728149E+03  0.12509039581E+03 0.  0.
        -24    2    1    2    0    0 -0.53174243582E+02 -0.45183672954E+02  0.10260450043E+04  0.10312457153E+04  0.76356465975E+02 0.  0.
        -11    1    3    3    0    0 -0.65596343832E+01  0.24881721079E+02 -0.27675942121E+03  0.27795306452E+03  0.00000000000E+00 0.  1.
         12    1    3    3    0    0  0.96379928085E+01 -0.43370631917E+02 -0.13998647183E+03  0.14686767824E+03  0.00000000000E+00 0. -1.
         11    1    5    5    0    0 -0.41294096746E+02 -0.29641990261E+02  0.97869075047E+03  0.98000991580E+03  0.00000000000E+00 0. -1.
        -12    1    5    5    0    0 -0.11880146835E+02 -0.15541682693E+02  0.47354253844E+02  0.51235799466E+02  0.00000000000E+00 0.  1.
          5    1    4    4  501    0 -0.13778912496E+02 -0.45280464402E+01 -0.13613386212E+03  0.13696810741E+03  0.41800000000E+01 0. -1.
         -5    1    4    4    0  501  0.63874797653E+02  0.68200630232E+02 -0.67366121705E+02  0.11526917408E+03  0.41800000000E+01 0. -1.
</event>
<event>
11    1  0.5813833E-009  0.1386615E+03  0.7561462E-02  0.1109062E+00
         22   -1    0    0    0    0  0.00000000000E+00  0.00000000000E+00  0.10355979260E+04  0.10355979260E+04  0.00000000000E+00 0.  1.
         22   -1    0    0    0    0 -0.00000000000E+00 -0.00000000000E+00 -0.44731527920E+02  0.44731527920E+02  0.00000000000E+00 0.  1.
        -24    2    1    2    0    0 -0.45353684690E+02 -0.41242245340E+02  0.95061282093E+02  0.13909507225E+03  0.80950060255E+02 0.  0.
         25    2    1    2    0    0 -0.37667280008E+01  0.75199389497E+02  0.26635192156E+03  0.30374512297E+03  0.12509443308E+03 0.  0.
         24    2    1    2    0    0  0.49120412690E+02 -0.33957144157E+02  0.62945319438E+03  0.63748925866E+03  0.81334669129E+02 0.  0.
        -13    1    5    5    0    0  0.23494889710E+02 -0.59249342010E+02  0.35391027848E+03  0.35960392042E+03  0.00000000000E+00 0.  1.
         14    1    5    5    0    0  0.25625522981E+02  0.25292197853E+02  0.27554291590E+03  0.27788533823E+03  0.00000000000E+00 0. -1.
         11    1    3    3    0    0 -0.54080333525E-01 -0.12086302051E+02  0.83018965815E+02  0.83894161340E+02  0.00000000000E+00 0. -1.
        -12    1    3    3    0    0 -0.45299604356E+02 -0.29155943289E+02  0.12042316278E+02  0.55200910910E+02  0.00000000000E+00 0.  1.
          5    1    4    4  501    0 -0.41982388012E+02  0.55807207232E+02  0.24667573808E+03  0.25640467516E+03  0.41800000000E+01 0.  1.
         -5    1    4    4    0  501  0.38215660011E+02  0.19392182265E+02  0.19676183478E+02  0.47340447815E+02  0.41800000000E+01 0.  1.
</event>
<event>
11    1  0.5813833E-009  0.1458969E+03  0.7561462E-02  0.1101147E+00
         22   -1    0    0    0    0  0.00000000000E+00  0.00000000000E+00  0.43621290656E+03  0.43621290656E+03  0.00000000000E+00 0. -1.
         22   -1    0    0    0    0 -0.00000000000E+00 -0.00000000000E+00 -0.49815235733E+03  0.49815235733E+03  0.00000000000E+00 0. -1.
         24    2    1    2    0    0 -0.52530227550E+02  0.79525241864E+01 -0.44254996643E+03  0.45255494758E+03  0.78312453299E+02 0.  0.
         25    2    1    2    0    0  0.76780300126E+02 -0.72461704334E+02  0.12834021274E+03  0.20800265667E+03  0.12509189379E+03 0.  0.
        -24    2    1    2    0    0 -0.24250072575E+02  0.64509180147E+02  0.25227030292E+03  0.27380765964E+03  0.81122305201E+02 0.  0.
        -13    1    3    3    0    0 -0.38147230809E+02 -0.25402603151E+02 -0.12883657992E+03  0.13674563170E+03  0.00000000000E+00 0.  1.
         14    1    3    3    0    0 -0.14382996741E+02  0.33355127338E+02 -0.31371338651E+03  0.31580931587E+03  0.00000000000E+00 0. -1.
         11    1    5    5    0    0 -0.23176064570E+02  0.69665661536E+02  0.25665778581E+03  0.26695253020E+03  0.00000000000E+00 0. -1.
        -12    1    5    5    0    0 -0.10740080053E+01 -0.51564813887E+01 -0.43874828899E+01  0.68551294384E+01  0.00000000000E+00 0.  1.
          5    1    4    4  501    0  0.38781107628E+02 -0.93156815430E+02  0.38288539582E+02  0.10800764433E+03  0.41800000000E+01 0.  1.
         -5    1    4    4    0  501  0.37999192498E+02  0.20695111096E+02  0.90051673160E+02  0.99995012339E+02  0.41800000000E+01 0.  1.
</event>
<event>
11    1  0.5813833E-009  0.2525288E+03  0.7561462E-02  0.1022561E+00
         22   -1    0    0    0    0  0.00000000000E+00  0.00000000000E+00  0.29289667286E+03  0.29289667286E+03  0.00000000000E+00 0. -1.
         22   -1    0    0    0    0 -0.00000000000E+00 -0.00000000000E+00 -0.45863901624E+03  0.45863901624E+03  0.00000000000E+00 0. -1.
        -24    2    1    2    0    0  0.23241865389E+03 -0.23849248135E+02 -0.27726180963E+03  0.37147197143E+03  0.80809016612E+02 0.  0.
         25    2    1    2    0    0 -0.18345411676E+03  0.39119744061E+02 -0.10861186937E+02  0.22573947238E+03  0.12511825077E+03 0.  0.
         24    2    1    2    0    0 -0.48964537125E+02 -0.15270495926E+02  0.12238065320E+03  0.15432424529E+03  0.78792350296E+02 0.  0.
        -11    1    5    5    0    0 -0.48119574332E+02  0.18921605315E+02  0.40802391328E+02  0.65866195576E+02  0.00000000000E+00 0.  1.
         12    1    5    5    0    0 -0.84496279359E+00 -0.34192101241E+02  0.81578261869E+02  0.88458049713E+02  0.00000000000E+00 0. -1.
         11    1    3    3    0    0  0.13529450791E+03 -0.19816706878E+02 -0.21887648304E+03  0.25807793507E+03  0.00000000000E+00 0. -1.
        -12    1    3    3    0    0  0.97124145977E+02 -0.40325412572E+01 -0.58385326594E+02  0.11339403636E+03  0.00000000000E+00 0.  1.
          5    1    4    4  501    0  0.13554903812E+02  0.12469919130E+02  0.16423821960E+02  0.25028955796E+02  0.41800000000E+01 0. -1.
         -5    1    4    4    0  501 -0.19700902058E+03  0.26649824930E+02 -0.27285008897E+02  0.20071051658E+03  0.41800000000E+01 0. -1.
</event>
<event>
11    1  0.5813833E-009  0.1272555E+03  0.7561462E-02  0.1122688E+00
         22   -1    0    0    0    0  0.00000000000E+00  0.00000000000E+00  0.37645754312E+03  0.37645754312E+03  0.00000000000E+00 0.  1.
         22   -1    0    0    0    0 -0.00000000000E+00 -0.00000000000E+00 -0.78840323139E+03  0.78840323139E+03  0.00000000000E+00 0.  1.
         24    2    1    2    0    0 -0.14310214158E+02 -0.18408720208E+02 -0.75226048091E+03  0.75685237272E+03  0.79912575687E+02 0.  0.
         25    2    1    2    0    0  0.40465810505E+02  0.39363817348E+01  0.14534564355E+03  0.19602448592E+03  0.12508903252E+03 0.  0.
        -24    2    1    2    0    0 -0.26155596348E+02  0.14472338473E+02  0.19496914908E+03  0.21198391587E+03  0.77657244952E+02 0.  0.
        -11    1    3    3    0    0  0.23939027010E+02 -0.28956829850E+02 -0.50828401424E+03  0.50967069186E+03  0.00000000000E+00 0.  1.
         12    1    3    3    0    0 -0.38249241167E+02  0.10548109642E+02 -0.24397646666E+03  0.24718168086E+03  0.00000000000E+00 0. -1.
         11    1    5    5    0    0  0.20356772387E+02  0.22522131775E+02  0.11668330386E+03  0.12056798083E+03  0.00000000000E+00 0. -1.
        -12    1    5    5    0    0 -0.46512368734E+02 -0.80497933022E+01  0.78285845218E+02  0.91415935039E+02  0.00000000000E+00 0.  1.
          5    1    4    4  501    0  0.69316950912E+02  0.42731398426E+02  0.76582616722E+02  0.11186233360E+03  0.41800000000E+01 0.  1.
         -5    1    4    4    0  501 -0.28851140407E+02 -0.38795016692E+02  0.68763026831E+02  0.84162152312E+02  0.41800000000E+01 0.  1.
</event>
<event>
11    1  0.5813833E-009  0.1381221E+03  0.7561462E-02  0.1109674E+00
         22   -1    0    0    0    0  0.00000000000E+00  0.00000000000E+00  0.45070037069E+03  0.45070037069E+03  0.00000000000E+00 0.  1.
         22   -1    0    0    0    0 -0.00000000000E+00 -0.00000000000E+00 -0.15263557007E+04  0.15263557007E+04  0.00000000000E+00 0.  1.
        -24    2    1    2    0    0  0.47555504679E+01 -0.11440554496E+00 -0.13821257987E+04  0.13845058385E+04  0.81006573788E+02 0.  0.
         25    2    1    2    0    0 -0.46042099521E+02 -0.41227523345E+02 -0.10143398034E+03  0.17249955293E+03  0.12509060630E+03 0.  0.
         24    2    1    2    0    0  0.41286549053E+02  0.41341928890E+02  0.40790444906E+03  0.42005067995E+03  0.81503373850E+02 0.  0.
        -13    1    5    5    0    0  0.50699356540E+02  0.59065601191E+02  0.35579644941E+03  0.36421186610E+03  0.00000000000E+00 0.  1.
         14    1    5    5    0    0 -0.94128074866E+01 -0.17723672301E+02  0.52107999646E+02  0.55838813846E+02  0.00000000000E+00 0. -1.
         11    1    3    3    0    0  0.25919867947E+02 -0.25505325897E+01 -0.12758474332E+04  0.12761132464E+04  0.00000000000E+00 0. -1.
        -12    1    3    3    0    0 -0.21164317479E+02  0.24361270448E+01 -0.10627836551E+03  0.10839259211E+03  0.00000000000E+00 0.  1.
          5    1    4    4  501    0 -0.45907509807E+02  0.38015474641E+02 -0.36983758962E+02  0.70270524374E+02  0.41800000000E+01 0. -1.
         -5    1    4    4    0  501 -0.13458971457E+00 -0.79242997986E+02 -0.64450221375E+02  0.10222902856E+03  0.41800000000E+01 0. -1.
</event>
<event>
11    1  0.5813833E-009  0.1374997E+03  0.7561462E-02  0.1110383E+00
         22   -1    0    0    0    0  0.00000000000E+00  0.00000000000E+00  0.31172105471E+03  0.31172105471E+03  0.00000000000E+00 0. -1.
         22   -1    0    0    0    0 -0.00000000000E+00 -0.00000000000E+00 -0.33454230055E+03  0.33454230055E+03  0.00000000000E+00 0.  1.
         24    2    1    2    0    0  0.48592783842E+02  0.24431979496E+01 -0.21133936946E+03  0.23530058027E+03  0.91295159424E+02 0.  0.
         25    2    1    2    0    0 -0.10229462122E+03 -0.25852316791E+02 -0.33833565951E+02  0.16710382307E+03  0.12508575333E+03 0.  0.
        -24    2    1    2    0    0  0.53701837377E+02  0.23409118841E+02  0.22235168956E+03  0.24385895193E+03  0.81209854084E+02 0.  0.
        -11    1    3    3    0    0  0.27611397137E+02 -0.43332374637E+02 -0.85375069654E+02  0.99644299696E+02  0.00000000000E+00 0.  1.
         12    1    3    3    0    0  0.20981386705E+02  0.45775572587E+02 -0.12596429980E+03  0.13565628057E+03  0.00000000000E+00 0. -1.
         11    1    5    5    0    0  0.42772445287E+02 -0.25617964259E+02  0.11447839950E+03  0.12486419070E+03  0.00000000000E+00 0. -1.
        -12    1    5    5    0    0  0.10929392090E+02  0.49027083101E+02  0.10787329007E+03  0.11899476122E+03  0.00000000000E+00 0.  1.
          5    1    4    4  501    0 -0.67009537288E+02  0.31991857255E+02 -0.58762880649E+02  0.94785576752E+02  0.41800000000E+01 0. -1.
         -5    1    4    4    0  501 -0.35285083931E+02 -0.57844174046E+02  0.24929314698E+02  0.72318246317E+02  0.41800000000E+01 0. -1.
</event>
<event>
11    1  0.5813833E-009  0.1532822E+03  0.7561462E-02  0.1093571E+00
         22   -1    0    0    0    0  0.00000000000E+00  0.00000000000E+00  0.36271729583E+03  0.36271729583E+03  0.00000000000E+00 0.  1.
         22   -1    0    0    0    0 -0.00000000000E+00 -0.00000000000E+00 -0.16328964671E+03  0.16328964671E+03  0.00000000000E+00 0.  1.
        -24    2    1    2    0    0 -0.52932258306E+01 -0.35512451916E+02 -0.39735743132E+02  0.88979135171E+02  0.71057756316E+02 0.  0.
         25    2    1    2    0    0 -0.83560021826E+02  0.21907081346E+02 -0.18244510985E+02  0.15311058179E+03  0.12509112924E+03 0.  0.
         24    2    1    2    0    0  0.88853247657E+02  0.13605370569E+02  0.25740790324E+03  0.28391722559E+03  0.79184320448E+02 0.  0.
        -13    1    5    5    0    0  0.97113761637E+02  0.24602500963E+02  0.24738051420E+03  0.26689601825E+03  0.00000000000E+00 0.  1.
         14    1    5    5    0    0 -0.82605139799E+01 -0.10997130394E+02  0.10027389046E+02  0.17021207337E+02  0.00000000000E+00 0. -1.
         13    1    3    3    0    0 -0.71352412272E+01 -0.50976352648E+02 -0.59993025873E+01  0.51821731235E+02  0.00000000000E+00 0. -1.
        -14    1    3    3    0    0  0.18420153967E+01  0.15463900732E+02 -0.33736440545E+02  0.37157403935E+02  0.00000000000E+00 0.  1.
          5    1    4    4  501    0 -0.40868111882E+02 -0.25600644947E+02  0.42834425340E+02  0.64636336412E+02  0.41800000000E+01 0. -1.
         -5    1    4    4    0  501 -0.42691909944E+02  0.47507726293E+02 -0.61078936326E+02  0.88474245376E+02  0.41800000000E+01 0. -1.
</event>
<event>
11    1  0.5813833E-009  0.1300796E+03  0.7561462E-02  0.1119171E+00
         22   -1    0    0    0    0  0.00000000000E+00  0.00000000000E+00  0.10301603828E+04  0.10301603828E+04  0.00000000000E+00 0.  1.
         22   -1    0    0    0    0 -0.00000000000E+00 -0.00000000000E+00 -0.44418668458E+03  0.44418668458E+03  0.00000000000E+00 0.  1.
        -24    2    1    2    0    0  0.99964953283E+01  0.90733260025E+01 -0.36373542980E+03  0.37281384893E+03  0.80650157463E+02 0.  0.
         25    2    1    2    0    0 -0.30556509443E+02 -0.37746447206E+02 -0.12520856298E+02  0.13477072104E+03  0.12509148996E+03 0.  0.
         24    2    1    2    0    0  0.20560014115E+02  0.28673121204E+02  0.96222998434E+03  0.96676249744E+03  0.86592849781E+02 0.  0.
        -13    1    5    5    0    0 -0.10720527020E+02 -0.79954013671E+01  0.70074316713E+03  0.70087077441E+03  0.00000000000E+00 0.  1.
         14    1    5    5    0    0  0.31280541135E+02  0.36668522571E+02  0.26148681721E+03  0.26589172303E+03  0.00000000000E+00 0. -1.
         13    1    3    3    0    0  0.23392236238E+02  0.35957892953E+01 -0.27561476069E+02  0.36328520201E+02  0.00000000000E+00 0. -1.
        -14    1    3    3    0    0 -0.13395740910E+02  0.54775367072E+01 -0.33617395373E+03  0.33648532873E+03  0.00000000000E+00 0.  1.
          5    1    4    4  501    0 -0.63954003918E+02 -0.18090894614E+02  0.33430737602E+02  0.74514976358E+02  0.41800000000E+01 0. -1.
         -5    1    4    4    0  501  0.33397494475E+02 -0.19655552593E+02 -0.45951593900E+02  0.60255744679E+02  0.41800000000E+01 0. -1.
</event>
<event>
11    1  0.1148527E-008  0.1544651E+03  0.7561462E-02  0.1092402E+00
         22   -1    0    0    0    0  0.00000000000E+00  0.00000000000E+00  0.63925778533E+03  0.63925778533E+03  0.00000000000E+00 0.  1.
         22   -1    0    0    0    0 -0.00000000000E+00 -0.00000000000E+00 -0.37856329346E+03  0.37856329346E+03  0.00000000000E+00 0.  1.
        -24    2    1    2    0    0  0.54247188560E+02 -0.40374248890E+02 -0.21722188874E+03  0.24192278208E+03  0.82270566437E+02 0.  0.
         25    2    1    2    0    0 -0.13748204107E+03  0.67180967544E+02 -0.72679496130E+02  0.21058398672E+03  0.12509481320E+03 0.  0.
         24    2    1    2    0    0  0.83234852510E+02 -0.26806718654E+02  0.55059587674E+03  0.56531431000E+03  0.93689960886E+02 0.  0.
        -11    1    5    5    0    0  0.77949149113E+02 -0.27539278763E+02  0.55322340729E+03  0.55936626650E+03  0.00000000000E+00 0.  1.
         12    1    5    5    0    0  0.52857033975E+01  0.73256010917E+00 -0.26275305499E+01  0.59480435028E+01  0.00000000000E+00 0. -1.
         11    1    3    3    0    0 -0.20067979282E+02 -0.19952773428E+02 -0.74995872180E+02  0.80157456321E+02  0.00000000000E+00 0. -1.
        -12    1    3    3    0    0  0.74315167842E+02 -0.20421475462E+02 -0.14222601656E+03  0.16176532576E+03  0.00000000000E+00 0.  1.
          5    1    4    4  501    0 -0.22732288732E+02  0.53467956761E+02  0.20833823144E+02  0.61863559047E+02  0.41800000000E+01 0.  1.
         -5    1    4    4    0  501 -0.11474975234E+03  0.13713010783E+02 -0.93513319273E+02  0.14872042767E+03  0.41800000000E+01 0.  1.
</event>
<event>
11    1  0.5813833E-009  0.1754826E+03  0.7561462E-02  0.1073357E+00
         22   -1    0    0    0    0  0.00000000000E+00  0.00000000000E+00  0.39704252677E+03  0.39704252677E+03  0.00000000000E+00 0.  1.
         22   -1    0    0    0    0 -0.00000000000E+00 -0.00000000000E+00 -0.30024812080E+03  0.30024812080E+03  0.00000000000E+00 0. -1.
        -24    2    1    2    0    0 -0.11791687303E+03  0.14436159223E+02 -0.16945219057E+03  0.22164222468E+03  0.79362706818E+02 0.  0.
         25    2    1    2    0    0  0.13368278857E+03 -0.37211691204E+02 -0.96689540453E+01  0.18707307649E+03  0.12508816632E+03 0.  0.
         24    2    1    2    0    0 -0.15765915534E+02  0.22775531981E+02  0.27591555059E+03  0.28857534640E+03  0.79868958583E+02 0.  0.
        -13    1    5    5    0    0 -0.40814015022E+02  0.29119751004E+02  0.23419233861E+03  0.23949905049E+03  0.00000000000E+00 0.  1.
         14    1    5    5    0    0  0.25048099488E+02 -0.63442190229E+01  0.41723211979E+02  0.49076295916E+02  0.00000000000E+00 0. -1.
         13    1    3    3    0    0 -0.36700274861E+02 -0.66775801473E+01 -0.11671333167E+03  0.12252959659E+03  0.00000000000E+00 0. -1.
        -14    1    3    3    0    0 -0.81216598172E+02  0.21113739370E+02 -0.52738858904E+02  0.99112628092E+02  0.00000000000E+00 0.  1.
          5    1    4    4  501    0  0.14139310026E+03 -0.25740241351E+02 -0.43562025140E+02  0.15023212459E+03  0.41800000000E+01 0. -1.
         -5    1    4    4    0  501 -0.77103116930E+01 -0.11471449853E+02  0.33893071094E+02  0.36840951892E+02  0.41800000000E+01 0. -1.
</event>
<event>
11    1  0.5813833E-009  0.1308617E+03  0.7561462E-02  0.1118215E+00
         22   -1    0    0    0    0  0.00000000000E+00  0.00000000000E+00  0.10794291732E+04  0.10794291732E+04  0.00000000000E+00 0. -1.
         22   -1    0    0    0    0 -0.00000000000E+00 -0.00000000000E+00 -0.75317113337E+03  0.75317113337E+03  0.00000000000E+00 0. -1.
        -24    2    1    2    0    0 -0.20870949357E+02  0.30739116696E+02 -0.60161687128E+03  0.60809337801E+03  0.80338077841E+02 0.  0.
         25    2    1    2    0    0 -0.68833934649E+01 -0.57176377634E+02 -0.11390499259E+03  0.17871727760E+03  0.12509595801E+03 0.  0.
         24    2    1    2    0    0  0.27754342822E+02  0.26437260938E+02  0.10417799037E+04  0.10457896509E+04  0.83074629004E+02 0.  0.
        -11    1    5    5    0    0 -0.13519331292E+02  0.29620292540E+02  0.17382548727E+03  0.17684861909E+03  0.00000000000E+00 0.  1.
         12    1    5    5    0    0  0.41273674114E+02 -0.31830316018E+01  0.86795441641E+03  0.86894103185E+03  0.00000000000E+00 0. -1.
         11    1    3    3    0    0 -0.37048383064E+02 -0.10634358544E+02 -0.17638500174E+03  0.18054733758E+03  0.00000000000E+00 0. -1.
        -12    1    3    3    0    0  0.16177433706E+02  0.41373475240E+02 -0.42523186954E+03  0.42754604043E+03  0.00000000000E+00 0.  1.
          5    1    4    4  501    0  0.42268185241E+02 -0.76290189483E+01 -0.97904734088E+02  0.10699350808E+03  0.41800000000E+01 0.  1.
         -5    1    4    4    0  501 -0.49151578706E+02 -0.49547358686E+02 -0.16000258502E+02  0.71723769520E+02  0.41800000000E+01 0.  1.
</event>
<event>
11    1  0.5813833E-009  0.1621522E+03  0.7561462E-02  0.1085070E+00
         22   -1    0    0    0    0  0.00000000000E+00  0.00000000000E+00  0.12448232210E+04  0.12448232210E+04  0.00000000000E+00 0.  1.
         22   -1    0    0    0    0 -0.00000000000E+00 -0.00000000000E+00 -0.23295124590E+03  0.23295124590E+03  0.00000000000E+00 0.  1.
        -24    2    1    2    0    0 -0.59381346490E+02 -0.62645052840E+02 -0.19049196122E+03  0.22447846462E+03  0.81564985337E+02 0.  0.
         25    2    1    2    0    0 -0.45314598529E+02  0.95108092364E+02  0.30732277952E+03  0.34812848817E+03  0.12508873405E+03 0.  0.
         24    2    1    2    0    0  0.10469594502E+03 -0.32463039525E+02  0.89504115683E+03  0.90516751414E+03  0.78831886911E+02 0.  0.
        -13    1    5    5    0    0  0.97802091900E+02  0.36240498990E+01  0.61817780213E+03  0.62587712689E+03  0.00000000000E+00 0.  1.
         14    1    5    5    0    0  0.68938531194E+01 -0.36087089424E+02  0.27686335471E+03  0.27929038726E+03  0.00000000000E+00 0. -1.
         11    1    3    3    0    0 -0.75298779693E+02 -0.46082001467E+02 -0.11151722346E+03  0.14223061629E+03  0.00000000000E+00 0. -1.
        -12    1    3    3    0    0  0.15917433203E+02 -0.16563051373E+02 -0.78974737761E+02  0.82247848331E+02  0.00000000000E+00 0.  1.
          5    1    4    4  501    0 -0.57645626063E+02  0.35384660226E+02  0.26562717469E+03  0.27413566116E+03  0.41800000000E+01 0. -1.
         -5    1    4    4    0  501  0.12331027534E+02  0.59723432139E+02  0.41695604827E+02  0.73992827006E+02  0.41800000000E+01 0. -1.
</event>
<event>
11    1  0.5813833E-009  0.1323562E+03  0.7561462E-02  0.1116407E+00
         22   -1    0    0    0    0  0.00000000000E+00  0.00000000000E+00  0.12259753304E+04  0.12259753304E+04  0.00000000000E+00 0. -1.
         22   -1    0    0    0    0 -0.00000000000E+00 -0.00000000000E+00 -0.15573138602E+03  0.15573138602E+03  0.00000000000E+00 0.  1.
        -24    2    1    2    0    0  0.30978816873E+02 -0.20752122252E+02 -0.55099545750E+02  0.96788870747E+02  0.70297851218E+02 0.  0.
         25    2    1    2    0    0 -0.67399018606E+02 -0.18099467982E+01 -0.12494930506E+02  0.14264271903E+03  0.12507964817E+03 0.  0.
         24    2    1    2    0    0  0.36420201733E+02  0.22562069050E+02  0.11378384207E+04  0.11422751267E+04  0.90998436330E+02 0.  0.
        -13    1    5    5    0    0  0.10056818639E+02 -0.13621011934E+02  0.90575332239E+03  0.90591155892E+03  0.00000000000E+00 0.  1.
         14    1    5    5    0    0  0.26363383095E+02  0.36183080984E+02  0.23208509828E+03  0.23636356775E+03  0.00000000000E+00 0. -1.
         13    1    3    3    0    0 -0.11941808983E+02  0.67300754714E+01  0.78485428399E+01  0.15795579836E+02  0.00000000000E+00 0. -1.
        -14    1    3    3    0    0  0.42920625856E+02 -0.27482197723E+02 -0.62948088590E+02  0.80993290911E+02  0.00000000000E+00 0.  1.
          5    1    4    4  501    0  0.63244961717E+01  0.28540268851E+01 -0.56152433531E+02  0.56733701737E+02  0.41800000000E+01 0.  1.
         -5    1    4    4    0  501 -0.73723514778E+02 -0.46639736833E+01  0.43657503025E+02  0.85909017292E+02  0.41800000000E+01 0.  1.
</event>
<event>
11    1  0.5813833E-009  0.1332368E+03  0.7561462E-02  0.1115355E+00
         22   -1    0    0    0    0  0.00000000000E+00  0.00000000000E+00  0.92168910549E+03  0.92168910549E+03  0.00000000000E+00 0. -1.
         22   -1    0    0    0    0 -0.00000000000E+00 -0.00000000000E+00 -0.19370681602E+03  0.19370681602E+03  0.00000000000E+00 0. -1.
        -24    2    1    2    0    0  0.17177567304E+02 -0.10676666322E+02 -0.14871105154E+03  0.17086522788E+03  0.81675511791E+02 0.  0.
         25    2    1    2    0    0  0.23137203903E+02 -0.14559969321E+02  0.10082005566E+03  0.16297310453E+03  0.12509287055E+03 0.  0.
         24    2    1    2    0    0 -0.40314771207E+02  0.25236635643E+02  0.77587328534E+03  0.78155758910E+03  0.81183382714E+02 0.  0.
        -13    1    5    5    0    0  0.13848778728E+02  0.28938587504E+02  0.15325783550E+03  0.15657967512E+03  0.00000000000E+00 0.  1.
         14    1    5    5    0    0 -0.54163549935E+02 -0.37019518609E+01  0.62261544984E+03  0.62497791398E+03  0.00000000000E+00 0. -1.
         13    1    3    3    0    0  0.83095581563E+01 -0.13917024632E+02 -0.15728117923E+03  0.15811420452E+03  0.00000000000E+00 0. -1.
        -14    1    3    3    0    0  0.88680091478E+01  0.32403583098E+01  0.85701276868E+01  0.12751023362E+02  0.00000000000E+00 0.  1.
          5    1    4    4  501    0 -0.33841903312E+02  0.37493440140E+02  0.37207244461E+02  0.62871964449E+02  0.41800000000E+01 0.  1.
         -5    1    4    4    0  501  0.56979107215E+02 -0.52053409461E+02  0.63612811201E+02  0.10010114008E+03  0.41800000000E+01 0.  1.
</event>
<event>
11    1  0.5813833E-009  0.1329765E+03  0.7561462E-02  0.1115665E+00
         22   -1    0    0    0    0  0.00000000000E+00  0.00000000000E+00  0.13060578353E+02  0.13060578353E+02  0.00000000000E+00 0.  1.
         22   -1    0    0    0    0 -0.00000000000E+00 -0.00000000000E+00 -0.30479418132E+04  0.30479418132E+04  0.00000000000E+00 0.  1.
         24    2    1    2    0    0 -0.27431218980E+02  0.47626778637E+02 -0.16656874514E+04  0.16686214168E+04  0.82231167880E+02 0.  0.
         25    2    1    2    0    0 -0.71295656227E+01 -0.26577221442E+02 -0.11237537528E+04  0.11310293992E+04  0.12509126935E+03 0.  0.
        -24    2    1    2    0    0  0.34560784603E+02 -0.21049557195E+02 -0.24544003060E+03  0.26135157546E+03  0.80164241924E+02 0.  0.
        -13    1    3    3    0    0 -0.85620787823E+01  0.65542434474E+02 -0.14248791418E+04  0.14264114724E+04  0.00000000000E+00 0.  1.
         14    1    3    3    0    0 -0.18869140198E+02 -0.17915655837E+02 -0.24080830964E+03  0.24220994441E+03  0.00000000000E+00 0. -1.
         11    1    5    5    0    0  0.20130153757E+02  0.95126448566E+01 -0.21411538489E+03  0.21526985751E+03  0.00000000000E+00 0. -1.
        -12    1    5    5    0    0  0.14430630846E+02 -0.30562202051E+02 -0.31324645706E+02  0.46081717953E+02  0.00000000000E+00 0.  1.
          5    1    4    4  501    0  0.44954014007E+02  0.27465109484E+02 -0.44626385933E+03  0.44938190903E+03  0.41800000000E+01 0. -1.
         -5    1    4    4    0  501 -0.52083579630E+02 -0.54042330925E+02 -0.67748989345E+03  0.68164749022E+03  0.41800000000E+01 0. -1.
</event>
<event>
11    1  0.5813833E-009  0.1827730E+03  0.7561462E-02  0.1067422E+00
         22   -1    0    0    0    0  0.00000000000E+00  0.00000000000E+00  0.20105076127E+03  0.20105076127E+03  0.00000000000E+00 0.  1.
         22   -1    0    0    0    0 -0.00000000000E+00 -0.00000000000E+00 -0.10165804252E+04  0.10165804252E+04  0.00000000000E+00 0.  1.
        -24    2    1    2    0    0  0.12940212828E+03 -0.12660960995E+02 -0.84063603074E+03  0.85441541069E+03  0.80321523328E+02 0.  0.
         25    2    1    2    0    0 -0.17885613608E+03  0.95116162098E+02 -0.32039557586E+01  0.23810579477E+03  0.12508997749E+03 0.  0.
         24    2    1    2    0    0  0.49454007794E+02 -0.82455201103E+02  0.28310322587E+02  0.12510998099E+03  0.74876390816E+02 0.  0.
        -11    1    5    5    0    0  0.58085994997E+01 -0.53898853253E+02  0.44886470879E+02  0.70381968416E+02  0.00000000000E+00 0.  1.
         12    1    5    5    0    0  0.43645408294E+02 -0.28556347851E+02 -0.16576148292E+02  0.54728012571E+02  0.00000000000E+00 0. -1.
         13    1    3    3    0    0  0.38548047688E+02 -0.42877484897E+01 -0.86717966767E+02  0.94996539558E+02  0.00000000000E+00 0. -1.
        -14    1    3    3    0    0  0.90854080593E+02 -0.83732125052E+01 -0.75391806397E+03  0.75941887113E+03  0.00000000000E+00 0.  1.
          5    1    4    4  501    0  0.14450601672E+02  0.16502385086E+02 -0.18253887914E+02  0.28841383916E+02  0.41800000000E+01 0.  1.
         -5    1    4    4    0  501 -0.19330673775E+03  0.78613777012E+02  0.15049932155E+02  0.20926441086E+03  0.41800000000E+01 0.  1.
</event>
<event>
11    1  0.5813833E-009  0.1476974E+03  0.7561462E-02  0.1099255E+00
         22   -1    0    0    0    0  0.00000000000E+00  0.00000000000E+00  0.22200423922E+03  0.22200423922E+03  0.00000000000E+00 0.  1.
         22   -1    0    0    0    0 -0.00000000000E+00 -0.00000000000E+00 -0.11368851045E+04  0.11368851045E+04  0.00000000000E+00 0.  1.
         24    2    1    2    0    0  0.70884919971E+01 -0.74953741623E+02 -0.92091823289E+03  0.92748173105E+03  0.80396888429E+02 0.  0.
         25    2    1    2    0    0 -0.51829844353E+02  0.11147578188E+03 -0.16046291660E+03  0.23771594905E+03  0.12508933655E+03 0.  0.
        -24    2    1    2    0    0  0.44741352356E+02 -0.36522040262E+02  0.16650028422E+03  0.19369166359E+03  0.80364593356E+02 0.  0.
        -13    1    3    3    0    0  0.14830956871E+02 -0.15392323696E+02 -0.63322494369E+03  0.63358559818E+03  0.00000000000E+00 0.  1.
         14    1    3    3    0    0 -0.77424648740E+01 -0.59561417926E+02 -0.28769328920E+03  0.29389613287E+03  0.00000000000E+00 0. -1.
         11    1    5    5    0    0 -0.10608206240E+02 -0.22068272366E+02  0.89377895901E+01  0.26065816074E+02  0.00000000000E+00 0. -1.
        -12    1    5    5    0    0  0.55349558596E+02 -0.14453767897E+02  0.15756249463E+03  0.16762584752E+03  0.00000000000E+00 0.  1.
          5    1    4    4  501    0 -0.34549136023E+02  0.93276886377E+02 -0.17995954089E+03  0.20566265847E+03  0.41800000000E+01 0. -1.
         -5    1    4    4    0  501 -0.17280708330E+02  0.18198895508E+02  0.19496624294E+02  0.32053290579E+02  0.41800000000E+01 0. -1.
</event>
<event>
11    1  0.5813833E-009  0.2259787E+03  0.7561462E-02  0.1037536E+00
         22   -1    0    0    0    0  0.00000000000E+00  0.00000000000E+00  0.80808662668E+03  0.80808662668E+03  0.00000000000E+00 0. -1.
         22   -1    0    0    0    0 -0.00000000000E+00 -0.00000000000E+00 -0.41082070156E+03  0.41082070156E+03  0.00000000000E+00 0. -1.
         24    2    1    2    0    0  0.10363949989E+03  0.17815482933E+03 -0.21249607123E+03  0.30648445724E+03  0.79359013921E+02 0.  0.
         25    2    1    2    0    0 -0.23381585539E+02 -0.16635825103E+03 -0.71779240866E+02  0.22140563957E+03  0.12508569697E+03 0.  0.
        -24    2    1    2    0    0 -0.80257914350E+02 -0.11796578301E+02  0.68154123722E+03  0.69101723143E+03  0.80161487202E+02 0.  0.
        -11    1    3    3    0    0  0.18120457372E+02  0.19292171889E+02 -0.75331815588E+02  0.79846235423E+02  0.00000000000E+00 0.  1.
         12    1    3    3    0    0  0.85519042516E+02  0.15886265744E+03 -0.13716425564E+03  0.22663822182E+03  0.00000000000E+00 0. -1.
         13    1    5    5    0    0 -0.96061986185E+02 -0.33661063821E+01  0.57814623918E+03  0.58608216978E+03  0.00000000000E+00 0. -1.
        -14    1    5    5    0    0  0.15804071835E+02 -0.84304719191E+01  0.10339499804E+03  0.10493506165E+03  0.00000000000E+00 0.  1.
          5    1    4    4  501    0  0.46374152177E+02 -0.92842983315E+02 -0.14362212869E+02  0.10485288312E+03  0.41800000000E+01 0. -1.
         -5    1    4    4    0  501 -0.69755737716E+02 -0.73515267712E+02 -0.57417027997E+02  0.11655275645E+03  0.41800000000E+01 0. -1.
</event>
<event>
11    1  0.5813833E-009  0.1311289E+03  0.7561462E-02  0.1117890E+00
         22   -1    0    0    0    0  0.00000000000E+00  0.00000000000E+00  0.16863050251E+03  0.16863050251E+03  0.00000000000E+00 0.  1.
         22   -1    0    0    0    0 -0.00000000000E+00 -0.00000000000E+00 -0.16471889110E+03  0.16471889110E+03  0.00000000000E+00 0.  1.
         24    2    1    2    0    0 -0.73553334008E+00  0.22053701095E+02 -0.46949696577E+02  0.96142863073E+02  0.80946089281E+02 0.  0.
         25    2    1    2    0    0 -0.30462973905E+02 -0.40097397852E+02  0.67530692166E+00  0.13484798669E+03  0.12509088448E+03 0.  0.
        -24    2    1    2    0    0  0.31198507246E+02  0.18043696757E+02  0.50186001061E+02  0.10235854385E+03  0.81607076587E+02 0.  0.
        -13    1    3    3    0    0 -0.12400040300E+02  0.21422802340E+02 -0.67836465199E+02  0.72211380475E+02  0.00000000000E+00 0.  1.
         14    1    3    3    0    0  0.11664506959E+02  0.63089875530E+00  0.20886768622E+02  0.23931482598E+02  0.00000000000E+00 0. -1.
         11    1    5    5    0    0 -0.24411540206E+02  0.22652097463E+02  0.16333318310E+02  0.37092022076E+02  0.00000000000E+00 0. -1.
        -12    1    5    5    0    0  0.55610047452E+02 -0.46084007056E+01  0.33852682751E+02  0.65266521771E+02  0.00000000000E+00 0.  1.
          5    1    4    4  501    0  0.29119514055E+02 -0.36293110234E+02 -0.40804447292E+02  0.62029116293E+02  0.41800000000E+01 0.  1.
         -5    1    4    4    0  501 -0.59582487960E+02 -0.38042876185E+01  0.41479754214E+02  0.72818870394E+02  0.41800000000E+01 0.  1.
</event>
<event>
11    1  0.5813833E-009  0.1652677E+03  0.7561462E-02  0.1082225E+00
         22   -1    0    0    0    0  0.00000000000E+00  0.00000000000E+00  0.39330064524E+03  0.39330064524E+03  0.00000000000E+00 0. -1.
         22   -1    0    0    0    0 -0.00000000000E+00 -0.00000000000E+00 -0.30012925430E+04  0.30012925430E+04  0.00000000000E+00 0. -1.
         24    2    1    2    0    0  0.52992568263E+02 -0.93789740109E+02 -0.29202567933E+04  0.29233152289E+04  0.79167298319E+02 0.  0.
         25    2    1    2    0    0 -0.14362935465E+03  0.78289299048E+02  0.10542188880E+03  0.23134410073E+03  0.12509081677E+03 0.  0.
        -24    2    1    2    0    0  0.90636786388E+02  0.15500441061E+02  0.20684300669E+03  0.23993385865E+03  0.79554612634E+02 0.  0.
        -13    1    3    3    0    0 -0.20724568322E+02 -0.13915876012E+02 -0.57050230913E+03  0.57104819766E+03  0.00000000000E+00 0.  1.
         14    1    3    3    0    0  0.73717136584E+02 -0.79873864097E+02 -0.23497544842E+04  0.23522670312E+04  0.00000000000E+00 0. -1.
         11    1    5    5    0    0  0.63297823359E+02 -0.27578368099E+02  0.99833774832E+02  0.12138353853E+03  0.00000000000E+00 0. -1.
        -12    1    5    5    0    0  0.27338963029E+02  0.43078809160E+02  0.10700923186E+03  0.11855032012E+03  0.00000000000E+00 0.  1.
          5    1    4    4  501    0 -0.14162674709E+03  0.20743252697E+02  0.51014294158E+02  0.15201430404E+03  0.41800000000E+01 0. -1.
         -5    1    4    4    0  501 -0.20026075610E+01  0.57546046351E+02  0.54407594644E+02  0.79329796689E+02  0.41800000000E+01 0. -1.
</event>
<event>
11    1  0.5813833E-009  0.3517282E+03  0.7561462E-02  0.9804013E-01
         22   -1    0    0    0    0  0.00000000000E+00  0.00000000000E+00  0.14493038381E+04  0.14493038381E+04  0.00000000000E+00 0.  1.
         22   -1    0    0    0    0 -0.00000000000E+00 -0.00000000000E+00 -0.68016215644E+03  0.68016215644E+03  0.00000000000E+00 0. -1.
         24    2    1    2    0    0  0.11390864971E+03 -0.12228128256E+02 -0.51772762549E+03  0.53627507151E+03  0.80152046276E+02 0.  0.
         25    2    1    2    0    0  0.23183025447E+03  0.36780835269E+02  0.83989557733E+01  0.26611278844E+03  0.12508947592E+03 0.  0.
        -24    2    1    2    0    0 -0.34573890418E+03 -0.24552707013E+02  0.12784703514E+04  0.13270781346E+04  0.80695171185E+02 0.  0.
        -11    1    3    3    0    0  0.87131589172E+02  0.85996060032E+01 -0.22253325708E+03  0.23913786308E+03  0.00000000000E+00 0.  1.
         12    1    3    3    0    0  0.26777060540E+02 -0.20827734259E+02 -0.29519436841E+03  0.29713720842E+03  0.00000000000E+00 0. -1.
         13    1    5    5    0    0 -0.19718608416E+03 -0.52424343659E+02  0.69296683404E+03  0.72238057606E+03  0.00000000000E+00 0. -1.
        -14    1    5    5    0    0 -0.14855282002E+03  0.27871636646E+02  0.58550351737E+03  0.60469755855E+03  0.00000000000E+00 0.  1.
          5    1    4    4  501    0  0.20813826297E+03  0.16435607650E+02 -0.35758187941E+02  0.21186737860E+03  0.41800000000E+01 0. -1.
         -5    1    4    4    0  501  0.23691991502E+02  0.20345227619E+02  0.44157143714E+02  0.54245409844E+02  0.41800000000E+01 0. -1.
</event>
<event>
11    1  0.5813833E-009  0.1508502E+03  0.7561462E-02  0.1096013E+00
         22   -1    0    0    0    0  0.00000000000E+00  0.00000000000E+00  0.19317352189E+03  0.19317352189E+03  0.00000000000E+00 0.  1.
         22   -1    0    0    0    0 -0.00000000000E+00 -0.00000000000E+00 -0.15832392579E+04  0.15832392579E+04  0.00000000000E+00 0.  1.
         24    2    1    2    0    0 -0.77267218413E+02 -0.27700834437E+02 -0.13979348428E+04  0.14029722227E+04  0.85858452763E+02 0.  0.
         25    2    1    2    0    0  0.11016748505E+03  0.68019395869E+02 -0.11795808483E+03  0.21524175628E+03  0.12510551904E+03 0.  0.
        -24    2    1    2    0    0 -0.32900266632E+02 -0.40318561432E+02  0.12582719154E+03  0.15819880080E+03  0.80537969326E+02 0.  0.
        -11    1    3    3    0    0 -0.77661719026E+01 -0.15572542604E+02 -0.88902658341E+03  0.88919687557E+03  0.00000000000E+00 0.  1.
         12    1    3    3    0    0 -0.69501046510E+02 -0.12128291834E+02 -0.50890825935E+03  0.51377534717E+03  0.00000000000E+00 0. -1.
         13    1    5    5    0    0  0.20594842177E+02 -0.18466141143E+02  0.79374645138E+02  0.84056410724E+02  0.00000000000E+00 0. -1.
        -14    1    5    5    0    0 -0.53495108809E+02 -0.21852420289E+02  0.46452546405E+02  0.74142390078E+02  0.00000000000E+00 0.  1.
          5    1    4    4  501    0 -0.10816011226E+02  0.56160604951E+02 -0.27145049390E+02  0.63445454949E+02  0.41800000000E+01 0. -1.
         -5    1    4    4    0  501  0.12098349627E+03  0.11858790918E+02 -0.90813035443E+02  0.15179630133E+03  0.41800000000E+01 0. -1.
</event>
<event>
11    1  0.5813833E-009  0.1537641E+03  0.7561462E-02  0.1093094E+00
         22   -1    0    0    0    0  0.00000000000E+00  0.00000000000E+00  0.14618541017E+04  0.14618541017E+04  0.00000000000E+00 0.  1.
         22   -1    0    0    0    0 -0.00000000000E+00 -0.00000000000E+00 -0.27051895452E+04  0.27051895452E+04  0.00000000000E+00 0. -1.
        -24    2    1    2    0    0 -0.24227443330E+02 -0.86403135648E+02 -0.26614085671E+04  0.26641529395E+04  0.81011437955E+02 0.  0.
         25    2    1    2    0    0  0.36234863935E+02  0.53898567300E+02  0.80318296369E+02  0.16222253147E+03  0.12508836902E+03 0.  0.
         24    2    1    2    0    0 -0.12007420605E+02  0.32504568348E+02  0.13377548273E+04  0.13406681759E+04  0.81255491983E+02 0.  0.
        -11    1    5    5    0    0  0.98938778708E+01  0.19479651042E+02  0.12196521179E+04  0.12198477915E+04  0.00000000000E+00 0.  1.
         12    1    5    5    0    0 -0.21901298476E+02  0.13024917306E+02  0.11810270936E+03  0.12082038447E+03  0.00000000000E+00 0. -1.
         11    1    3    3    0    0 -0.42509021018E+02 -0.91789226632E+02 -0.23328824751E+04  0.23350745002E+04  0.00000000000E+00 0. -1.
        -12    1    3    3    0    0  0.18281577688E+02  0.53860909835E+01 -0.32852609205E+03  0.32907843930E+03  0.00000000000E+00 0.  1.
          5    1    4    4  501    0  0.11908021601E+01  0.53233752666E+02  0.10591489764E+03  0.11861993245E+03  0.41800000000E+01 0.  1.
         -5    1    4    4    0  501  0.35044061775E+02  0.66481463409E+00 -0.25596601273E+02  0.43602599016E+02  0.41800000000E+01 0.  1.
</event>
<event>
11    1  0.5813833E-009  0.2714220E+03  0.7561462E-02  0.1013068E+00
         22   -1    0    0    0    0  0.00000000000E+00  0.00000000000E+00  0.24339640868E+04  0.24339640868E+04  0.00000000000E+00 0.  1.
         22   -1    0    0    0    0 -0.00000000000E+00 -0.00000000000E+00 -0.17619615065E+04  0.17619615065E+04  0.00000000000E+00 0. -1.
         24    2    1    2    0    0 -0.18217201845E+03  0.15414470177E+03 -0.16310344421E+04  0.16504185308E+04  0.81613369006E+02 0.  0.
         25    2    1    2    0    0  0.22388915307E+03 -0.18191685117E+03  0.85386378697E+02  0.32582025875E+03  0.12509162140E+03 0.  0.
        -24    2    1    2    0    0 -0.41717134619E+02  0.27772149398E+02  0.22176506438E+04  0.22196868037E+04  0.80768292550E+02 0.  0.
        -13    1    3    3    0    0 -0.73176778358E+02  0.11316969845E+03 -0.94761510022E+03  0.95715024928E+03  0.00000000000E+00 0.  1.
         14    1    3    3    0    0 -0.10899524009E+03  0.40975003327E+02 -0.68341934193E+03  0.69326828153E+03  0.00000000000E+00 0. -1.
         11    1    5    5    0    0 -0.31464117337E+02 -0.25254232125E+02  0.10835843991E+04  0.10843352419E+04  0.00000000000E+00 0. -1.
        -12    1    5    5    0    0 -0.10253017283E+02  0.53026381523E+02  0.11340662447E+04  0.11353515618E+04  0.00000000000E+00 0.  1.
          5    1    4    4  501    0 -0.13053092400E+02 -0.29695086443E+02  0.11004995621E+02  0.34507444250E+02  0.41800000000E+01 0.  1.
         -5    1    4    4    0  501  0.23694224547E+03 -0.15222176473E+03  0.74381383076E+02  0.29131281450E+03  0.41800000000E+01 0.  1.
</event>
<event>
11    1  0.5813833E-009  0.1256692E+03  0.7561462E-02  0.1124708E+00
         22   -1    0    0    0    0  0.00000000000E+00  0.00000000000E+00  0.89047168581E+02  0.89047168581E+02  0.00000000000E+00 0. -1.
         22   -1    0    0    0    0 -0.00000000000E+00 -0.00000000000E+00 -0.42900131467E+03  0.42900131467E+03  0.00000000000E+00 0.  1.
        -24    2    1    2    0    0 -0.15409615873E+02 -0.91550323819E+01 -0.25205015179E+03  0.26579713691E+03  0.82447365612E+02 0.  0.
         25    2    1    2    0    0 -0.40621150464E+01 -0.18017247932E+02 -0.12332271717E+03  0.17663282076E+03  0.12509811668E+03 0.  0.
         24    2    1    2    0    0  0.19471730920E+02  0.27172280314E+02  0.35418722872E+02  0.75618525579E+02  0.57846299435E+02 0.  0.
        -13    1    5    5    0    0 -0.18774606300E+02  0.20740263317E+02  0.13381416793E+02  0.31011395963E+02  0.00000000000E+00 0.  1.
         14    1    5    5    0    0  0.38246337219E+02  0.64320169965E+01  0.22037306078E+02  0.44607129616E+02  0.00000000000E+00 0. -1.
         13    1    3    3    0    0 -0.22893089190E+02  0.63183996846E+01 -0.14924104154E+02  0.28048967754E+02  0.00000000000E+00 0. -1.
        -14    1    3    3    0    0  0.74834733169E+01 -0.15473432067E+02 -0.23712604763E+03  0.23774816916E+03  0.00000000000E+00 0.  1.
          5    1    4    4  501    0 -0.33897781353E+02 -0.44673756852E+02 -0.12426296013E+03  0.13639486717E+03  0.41800000000E+01 0. -1.
         -5    1    4    4    0  501  0.29835666306E+02  0.26656508920E+02  0.94024295552E+00  0.40237953583E+02  0.41800000000E+01 0. -1.
</event>
<event>
11    1  0.5813833E-009  0.2369019E+03  0.7561462E-02  0.1031118E+00
         22   -1    0    0    0    0  0.00000000000E+00  0.00000000000E+00  0.10895803384E+04  0.10895803384E+04  0.00000000000E+00 0. -1.
         22   -1    0    0    0    0 -0.00000000000E+00 -0.00000000000E+00 -0.18954235525E+03  0.18954235525E+03  0.00000000000E+00 0. -1.
        -24    2    1    2    0    0 -0.84735419680E+01  0.25393441811E+02 -0.93737074834E+02  0.12701738874E+03  0.81425733308E+02 0.  0.
         25    2    1    2    0    0  0.15265854004E+03 -0.15954873397E+03  0.18275489023E+03  0.31275563721E+03  0.12512517871E+03 0.  0.
         24    2    1    2    0    0 -0.14418499807E+03  0.13415529216E+03  0.81102016774E+03  0.83934966769E+03  0.89259151257E+02 0.  0.
        -11    1    5    5    0    0 -0.10349351072E+03  0.55264991860E+02  0.33068539445E+03  0.35088168404E+03  0.00000000000E+00 0.  1.
         12    1    5    5    0    0 -0.40691487344E+02  0.78890300298E+02  0.48033477329E+03  0.48846798365E+03  0.00000000000E+00 0. -1.
         13    1    3    3    0    0 -0.15389840660E+02  0.33619860911E+02 -0.10507757523E+03  0.11139317331E+03  0.00000000000E+00 0. -1.
        -14    1    3    3    0    0  0.69162986917E+01 -0.82264190998E+01  0.11340500397E+02  0.15624215438E+02  0.00000000000E+00 0.  1.
          5    1    4    4  501    0  0.17353933675E+03 -0.13338695746E+03  0.16792716693E+03  0.27590757078E+03  0.41800000000E+01 0.  1.
         -5    1    4    4    0  501 -0.20880796714E+02 -0.26161776506E+02  0.14827723304E+02  0.36848066432E+02  0.41800000000E+01 0.  1.
</event>
<event>
11    1  0.5813833E-009  0.1793296E+03  0.7561462E-02  0.1070186E+00
         22   -1    0    0    0    0  0.00000000000E+00  0.00000000000E+00  0.21501672767E+03  0.21501672767E+03  0.00000000000E+00 0. -1.
         22   -1    0    0    0    0 -0.00000000000E+00 -0.00000000000E+00 -0.65650572553E+03  0.65650572553E+03  0.00000000000E+00 0. -1.
         24    2    1    2    0    0  0.35210498341E+02 -0.61906324717E+02 -0.40465412194E+03  0.41880766837E+03  0.81134040020E+02 0.  0.
         25    2    1    2    0    0  0.98178003291E+02  0.47563693414E+02 -0.17713932007E+03  0.24274906437E+03  0.12509014459E+03 0.  0.
        -24    2    1    2    0    0 -0.13338850163E+03  0.14342631303E+02  0.14030444415E+03  0.20996572046E+03  0.80012894461E+02 0.  0.
        -11    1    3    3    0    0  0.14952588123E+01 -0.60513154201E+01  0.23096752168E+01  0.66474669489E+01  0.00000000000E+00 0.  1.
         12    1    3    3    0    0  0.33715239528E+02 -0.55855009297E+02 -0.40696379715E+03  0.41216020142E+03  0.00000000000E+00 0. -1.
         13    1    5    5    0    0 -0.12051340508E+03  0.39852370253E+02  0.12183529773E+03  0.17594184263E+03  0.00000000000E+00 0. -1.
        -14    1    5    5    0    0 -0.12875096556E+02 -0.25509738950E+02  0.18469146422E+02  0.34023877824E+02  0.00000000000E+00 0.  1.
          5    1    4    4  501    0 -0.68996325271E+01 -0.27615626568E+02 -0.79894882479E+01  0.29858534495E+02  0.41800000000E+01 0. -1.
         -5    1    4    4    0  501  0.10507763582E+03  0.75179319982E+02 -0.16914983182E+03  0.21289052987E+03  0.41800000000E+01 0. -1.
</event>
<event>
11    1  0.5813833E-009  0.1915444E+03  0.7561462E-02  0.1060669E+00
         22   -1    0    0    0    0  0.00000000000E+00  0.00000000000E+00  0.84516927973E+03  0.84516927973E+03  0.00000000000E+00 0. -1.
         22   -1    0    0    0    0 -0.00000000000E+00 -0.00000000000E+00 -0.60719112679E+03  0.60719112679E+03  0.00000000000E+00 0.  1.
        -24    2    1    2    0    0 -0.35634343515E+02 -0.39232450693E+02 -0.56265059721E+03  0.57065397857E+03  0.79128231953E+02 0.  0.
         25    2    1    2    0    0  0.76300713702E+02  0.16256609104E+03  0.40044782782E+03  0.45635174044E+03  0.12509562474E+03 0.  0.
         24    2    1    2    0    0 -0.40666370187E+02 -0.12333364034E+03  0.40018092232E+03  0.42535468750E+03  0.62585134688E+02 0.  0.
        -11    1    5    5    0    0  0.35065022607E+01  0.61271619051E+01  0.14335040727E+02  0.15979082069E+02  0.00000000000E+00 0.  1.
         12    1    5    5    0    0 -0.44172872448E+02 -0.12946080225E+03  0.38584588160E+03  0.40937560543E+03  0.00000000000E+00 0. -1.
         13    1    3    3    0    0  0.30527796206E+01  0.12043453715E+02 -0.16073729562E+02  0.20315733382E+02  0.00000000000E+00 0. -1.
        -14    1    3    3    0    0 -0.38687123135E+02 -0.51275904408E+02 -0.54657686765E+03  0.55033824519E+03  0.00000000000E+00 0.  1.
          5    1    4    4  501    0  0.96798509255E+02  0.62386214182E+02  0.23654972542E+03  0.26312589403E+03  0.41800000000E+01 0. -1.
         -5    1    4    4    0  501 -0.20497795553E+02  0.10017987685E+03  0.16389810240E+03  0.19322584641E+03  0.41800000000E+01 0. -1.
</event>
<event>
11    1  0.5813833E-009  0.1504650E+03  0.7561462E-02  0.1096405E+00
         22   -1    0    0    0    0  0.00000000000E+00  0.00000000000E+00  0.30786323058E+03  0.30786323058E+03  0.00000000000E+00 0. -1.
         22   -1    0    0    0    0 -0.00000000000E+00 -0.00000000000E+00 -0.10322475216E+04  0.10322475216E+04  0.00000000000E+00 0. -1.
         24    2    1    2    0    0 -0.72431633974E+01 -0.69924054370E+02 -0.85316865789E+03  0.85977442405E+03  0.79833981775E+02 0.  0.
         25    2    1    2    0    0  0.40528699654E+02 -0.11680350816E+02 -0.13614356555E+03  0.18963473870E+03  0.12508899868E+03 0.  0.
        -24    2    1    2    0    0 -0.33285536256E+02  0.81604405186E+02  0.26492793246E+03  0.29070158938E+03  0.80953065409E+02 0.  0.
        -13    1    3    3    0    0  0.32754779144E+02 -0.35174447251E+02 -0.54200546421E+03  0.54413237409E+03  0.00000000000E+00 0.  1.
         14    1    3    3    0    0 -0.39997942542E+02 -0.34749607119E+02 -0.31116319368E+03  0.31564204996E+03  0.00000000000E+00 0. -1.
         11    1    5    5    0    0 -0.37067650245E+02 -0.60469375467E+00  0.73006273808E+02  0.81879743310E+02  0.00000000000E+00 0. -1.
        -12    1    5    5    0    0  0.37821139890E+01  0.82209098940E+02  0.19192165865E+03  0.20882184607E+03  0.00000000000E+00 0.  1.
          5    1    4    4  501    0  0.21224159033E+01 -0.28242353175E+02 -0.14404724525E+03  0.14686461938E+03  0.41800000000E+01 0. -1.
         -5    1    4    4    0  501  0.38406283750E+02  0.16562002359E+02  0.79036797046E+01  0.42770119319E+02  0.41800000000E+01 0. -1.
</event>
<event>
11    1  0.5813833E-009  0.2860216E+03  0.7561462E-02  0.1006287E+00
         22   -1    0    0    0    0  0.00000000000E+00  0.00000000000E+00  0.45558500981E+03  0.45558500981E+03  0.00000000000E+00 0. -1.
         22   -1    0    0    0    0 -0.00000000000E+00 -0.00000000000E+00 -0.25477024549E+04  0.25477024549E+04  0.00000000000E+00 0. -1.
         24    2    1    2    0    0 -0.95730017320E+02 -0.30942323902E+02 -0.22900891301E+04  0.22937173058E+04  0.80679559641E+02 0.  0.
         25    2    1    2    0    0  0.32457537056E+03  0.90650731857E+02 -0.43967560697E+02  0.36214125653E+03  0.12508563835E+03 0.  0.
        -24    2    1    2    0    0 -0.22884535324E+03 -0.59708407955E+02  0.24193924567E+03  0.34742890245E+03  0.78974388133E+02 0.  0.
        -13    1    3    3    0    0 -0.21906409776E+02  0.27177913659E+02 -0.66054855055E+03  0.66147026949E+03  0.00000000000E+00 0.  1.
         14    1    3    3    0    0 -0.73823607544E+02 -0.58120237561E+02 -0.16295405795E+04  0.16322470363E+04  0.00000000000E+00 0. -1.
         13    1    5    5    0    0 -0.19376526140E+03 -0.69946234859E+02  0.23049233128E+03  0.30913454526E+03  0.00000000000E+00 0. -1.
        -14    1    5    5    0    0 -0.35080091845E+02  0.10237826904E+02  0.11446914396E+02  0.38294357192E+02  0.00000000000E+00 0.  1.
          5    1    4    4  501    0  0.98907566161E+02  0.85120615545E+02 -0.39198586497E+02  0.13631664395E+03  0.41800000000E+01 0.  1.
         -5    1    4    4    0  501  0.22566780440E+03  0.55301163120E+01 -0.47689742007E+01  0.22582461258E+03  0.41800000000E+01 0.  1.
</event>
<event>
11    1  0.5813833E-009  0.1640161E+03  0.7561462E-02  0.1083360E+00
         22   -1    0    0    0    0  0.00000000000E+00  0.00000000000E+00  0.15682576029E+03  0.15682576029E+03  0.00000000000E+00 0. -1.
         22   -1    0    0    0    0 -0.00000000000E+00 -0.00000000000E+00 -0.70211927523E+03  0.70211927523E+03  0.00000000000E+00 0. -1.
         24    2    1    2    0    0 -0.85708060231E+02  0.19574726925E+02 -0.33669324993E+03  0.35720564034E+03  0.80650377665E+02 0.  0.
         25    2    1    2    0    0  0.15922402322E+03 -0.34903969024E+02 -0.29641671825E+03  0.36066682836E+03  0.12508842312E+03 0.  0.
        -24    2    1    2    0    0 -0.73515962989E+02  0.15329242099E+02  0.87816453242E+02  0.14107256683E+03  0.80933041297E+02 0.  0.
        -11    1    3    3    0    0 -0.46755583874E+02 -0.21301463267E+02 -0.85546950892E+02  0.99790369113E+02  0.00000000000E+00 0.  1.
         12    1    3    3    0    0 -0.38952476356E+02  0.40876190193E+02 -0.25114629904E+03  0.25741527122E+03  0.00000000000E+00 0. -1.
         11    1    5    5    0    0 -0.78483738405E+02  0.29378660605E+02  0.93100377553E+02  0.12526165891E+03  0.00000000000E+00 0. -1.
        -12    1    5    5    0    0  0.49677754157E+01 -0.14049418507E+02 -0.52839243111E+01  0.15810907914E+02  0.00000000000E+00 0.  1.
          5    1    4    4  501    0  0.82601394591E+02 -0.76866481725E+02 -0.20572388535E+03  0.23467261409E+03  0.41800000000E+01 0.  1.
         -5    1    4    4    0  501  0.76622628629E+02  0.41962512701E+02 -0.90692832899E+02  0.12599421427E+03  0.41800000000E+01 0.  1.
</event>
<event>
11    1  0.5813833E-009  0.1547543E+03  0.7561462E-02  0.1092118E+00
         22   -1    0    0    0    0  0.00000000000E+00  0.00000000000E+00  0.88479318460E+03  0.88479318460E+03  0.00000000000E+00 0. -1.
         22   -1    0    0    0    0 -0.00000000000E+00 -0.00000000000E+00 -0.42693196633E+03  0.42693196633E+03  0.00000000000E+00 0. -1.
        -24    2    1    2    0    0  0.84490619715E+02 -0.37246754906E+02 -0.38443137495E+03  0.40495499100E+03  0.87607517472E+02 0.  0.
         25    2    1    2    0    0 -0.53497498266E+02  0.51110086434E+02  0.14965863021E+03  0.20861267228E+03  0.12508924087E+03 0.  0.
         24    2    1    2    0    0 -0.30993121449E+02 -0.13863331527E+02  0.69263396302E+03  0.69815748765E+03  0.80804116902E+02 0.  0.
        -13    1    5    5    0    0 -0.96457020264E+01 -0.20583341159E+02  0.47742268101E+02  0.52877572413E+02  0.00000000000E+00 0.  1.
         14    1    5    5    0    0 -0.21347419422E+02  0.67200096316E+01  0.64489169491E+03  0.64527991524E+03  0.00000000000E+00 0. -1.
         11    1    3    3    0    0  0.58081123199E+02  0.10452235039E+02 -0.10679476398E+03  0.12201552238E+03  0.00000000000E+00 0. -1.
        -12    1    3    3    0    0  0.26409496516E+02 -0.47698989945E+02 -0.27763661097E+03  0.28293946862E+03  0.00000000000E+00 0.  1.
          5    1    4    4  501    0 -0.34187703990E+02  0.18919565768E+02  0.16367468852E+03  0.16832594908E+03  0.41800000000E+01 0. -1.
         -5    1    4    4    0  501 -0.19309794276E+02  0.32190520666E+02 -0.14016058303E+02  0.40286723198E+02  0.41800000000E+01 0. -1.
</event>
<event>
11    1  0.5813833E-009  0.1686536E+03  0.7561462E-02  0.1079209E+00
         22   -1    0    0    0    0  0.00000000000E+00  0.00000000000E+00  0.50648924218E+03  0.50648924218E+03  0.00000000000E+00 0. -1.
         22   -1    0    0    0    0 -0.00000000000E+00 -0.00000000000E+00 -0.74351914764E+03  0.74351914764E+03  0.00000000000E+00 0. -1.
        -24    2    1    2    0    0 -0.11253318748E+03 -0.66619027877E+00 -0.68276995300E+03  0.69569955566E+03  0.71825489408E+02 0.  0.
         25    2    1    2    0    0  0.12828764934E+03  0.28801299248E+02  0.12102743536E+03  0.21813242137E+03  0.12508747871E+03 0.  0.
         24    2    1    2    0    0 -0.15754461861E+02 -0.28135108969E+02  0.32471261218E+03  0.33617641279E+03  0.80848701786E+02 0.  0.
        -13    1    5    5    0    0 -0.12564630607E+02  0.21536956879E+01  0.30927004868E+01  0.13117665330E+02  0.00000000000E+00 0.  1.
         14    1    5    5    0    0 -0.31898312536E+01 -0.30288804657E+02  0.32161991169E+03  0.32305874746E+03  0.00000000000E+00 0. -1.
         11    1    3    3    0    0 -0.92349279016E+02 -0.41872630824E+01 -0.65329388471E+03  0.65980210845E+03  0.00000000000E+00 0. -1.
        -12    1    3    3    0    0 -0.20183908467E+02  0.35210728036E+01 -0.29476068290E+02  0.35897447214E+02  0.00000000000E+00 0.  1.
          5    1    4    4  501    0  0.13276380086E+03  0.60234296127E+02  0.80867959462E+02  0.16676779220E+03  0.41800000000E+01 0. -1.
         -5    1    4    4    0  501 -0.44761515132E+01 -0.31432996879E+02  0.40159475898E+02  0.51364629168E+02  0.41800000000E+01 0. -1.
</event>
<event>
11    1  0.5813833E-009  0.1815829E+03  0.7561462E-02  0.1068370E+00
         22   -1    0    0    0    0  0.00000000000E+00  0.00000000000E+00  0.22328213254E+04  0.22328213254E+04  0.00000000000E+00 0.  1.
         22   -1    0    0    0    0 -0.00000000000E+00 -0.00000000000E+00 -0.11341516108E+03  0.11341516108E+03  0.00000000000E+00 0.  1.
         24    2    1    2    0    0  0.68428710910E+02 -0.25340077386E+02  0.45117661189E+02  0.11715037287E+03  0.79774673386E+02 0.  0.
         25    2    1    2    0    0 -0.10562588467E+03 -0.10110770208E+03  0.50909231825E+02  0.19904242103E+03  0.12508613253E+03 0.  0.
        -24    2    1    2    0    0  0.37197173762E+02  0.12644777946E+03  0.20233792713E+04  0.20300436926E+04  0.98188836172E+02 0.  0.
        -13    1    3    3    0    0  0.60198996822E+02  0.19087301073E+01 -0.40203874631E+01  0.60363283413E+02  0.00000000000E+00 0.  1.
         14    1    3    3    0    0  0.82297140876E+01 -0.27248807493E+02  0.49138048652E+02  0.56787089458E+02  0.00000000000E+00 0. -1.
         13    1    5    5    0    0  0.34810142512E+02 -0.29380605484E+01  0.44207807304E+03  0.44345619951E+03  0.00000000000E+00 0. -1.
        -14    1    5    5    0    0  0.23870312498E+01  0.12938584001E+03  0.15813011983E+04  0.15865874931E+04  0.00000000000E+00 0.  1.
          5    1    4    4  501    0 -0.10527236081E+03 -0.32140552634E+02 -0.48496358911E+01  0.11025550527E+03  0.41800000000E+01 0. -1.
         -5    1    4    4    0  501 -0.35352386397E+00 -0.68967149444E+02  0.55758867716E+02  0.88786915762E+02  0.41800000000E+01 0. -1.
</event>
<event>
11    1  0.5813833E-009  0.1373249E+03  0.7561462E-02  0.1110583E+00
         22   -1    0    0    0    0  0.00000000000E+00  0.00000000000E+00  0.15641428736E+04  0.15641428736E+04  0.00000000000E+00 0.  1.
         22   -1    0    0    0    0 -0.00000000000E+00 -0.00000000000E+00 -0.22627758507E+03  0.22627758507E+03  0.00000000000E+00 0.  1.
         24    2    1    2    0    0  0.18164034930E+02  0.14259241107E+02 -0.19885650528E+03  0.21636185341E+03  0.82068774785E+02 0.  0.
         25    2    1    2    0    0 -0.67480275194E+02 -0.37199552846E+02  0.30471542876E+03  0.33828453142E+03  0.12509011713E+03 0.  0.
        -24    2    1    2    0    0  0.49316240265E+02  0.22940311740E+02  0.12320063651E+04  0.12357740738E+04  0.79621156561E+02 0.  0.
        -13    1    3    3    0    0  0.22955204074E+02  0.15463586868E+02 -0.20590365352E+03  0.20775557380E+03  0.00000000000E+00 0.  1.
         14    1    3    3    0    0 -0.47911691439E+01 -0.12043457613E+01  0.70471482338E+01  0.86062796089E+01  0.00000000000E+00 0. -1.
         11    1    5    5    0    0 -0.12366349631E+02 -0.18194824485E+02  0.24393676194E+03  0.24492676879E+03  0.00000000000E+00 0. -1.
        -12    1    5    5    0    0  0.61682589895E+02  0.41135136225E+02  0.98806960312E+03  0.99084730506E+03  0.00000000000E+00 0.  1.
          5    1    4    4  501    0 -0.39961262560E+01  0.43202663504E+02  0.75411101002E+02  0.87101927150E+02  0.41800000000E+01 0.  1.
         -5    1    4    4    0  501 -0.63484148938E+02 -0.80402216351E+02  0.22930432776E+03  0.25118260427E+03  0.41800000000E+01 0.  1.
</event>
<event>
11    1  0.6000886E-009  0.1530441E+03  0.7561462E-02  0.1093808E+00
         22   -1    0    0    0    0  0.00000000000E+00  0.00000000000E+00  0.35909083918E+03  0.35909083918E+03  0.00000000000E+00 0.  1.
         22   -1    0    0    0    0 -0.00000000000E+00 -0.00000000000E+00 -0.10709867503E+04  0.10709867503E+04  0.00000000000E+00 0. -1.
         24    2    1    2    0    0  0.23356563373E+02 -0.23170784383E+02 -0.82586445123E+03  0.83037926024E+03  0.79970055285E+02 0.  0.
         25    2    1    2    0    0 -0.64432451074E+02 -0.55267084150E+02 -0.20744849863E+03  0.25670556888E+03  0.12512744771E+03 0.  0.
        -24    2    1    2    0    0  0.41075887701E+02  0.78437868533E+02  0.32141703875E+03  0.34299276033E+03  0.80594001447E+02 0.  0.
        -11    1    3    3    0    0 -0.11683024174E+02  0.18142238924E+02 -0.91106376468E+02  0.93626949754E+02  0.00000000000E+00 0.  1.
         12    1    3    3    0    0  0.35039587548E+02 -0.41313023307E+02 -0.73475807476E+03  0.73675231049E+03  0.00000000000E+00 0. -1.
         13    1    5    5    0    0 -0.15213498489E+02  0.13493414404E+02  0.16476066363E+02  0.26172190037E+02  0.00000000000E+00 0. -1.
        -14    1    5    5    0    0  0.56289386190E+02  0.64944454129E+02  0.30494097239E+03  0.31682057030E+03  0.00000000000E+00 0.  1.
          5    1    4    4  501    0 -0.31651276379E+02 -0.47505340455E+02 -0.21452554811E+03  0.22202982651E+03  0.41800000000E+01 0. -1.
         -5    1    4    4    0  501 -0.32781174695E+02 -0.77617436948E+01  0.70770494849E+01  0.34675742371E+02  0.41800000000E+01 0. -1.
</event>
<event>
11    1  0.5813833E-009  0.1302348E+03  0.7561462E-02  0.1118981E+00
         22   -1    0    0    0    0  0.00000000000E+00  0.00000000000E+00  0.14226718214E+03  0.14226718214E+03  0.00000000000E+00 0. -1.
         22   -1    0    0    0    0 -0.00000000000E+00 -0.00000000000E+00 -0.18951316443E+04  0.18951316443E+04  0.00000000000E+00 0. -1.
         24    2    1    2    0    0 -0.23956817464E+02 -0.26720470839E+02 -0.17976719802E+04  0.17997905760E+04  0.79584272569E+02 0.  0.
         25    2    1    2    0    0  0.32090033678E+02  0.49281882712E+02 -0.80374594032E+01  0.13845800478E+03  0.12509014393E+03 0.  0.
        -24    2    1    2    0    0 -0.81332162143E+01 -0.22561411873E+02  0.52844977426E+02  0.99150245673E+02  0.80392867010E+02 0.  0.
        -11    1    3    3    0    0 -0.14107818461E+02  0.19689355892E+02 -0.20717464865E+03  0.20858580086E+03  0.00000000000E+00 0.  1.
         12    1    3    3    0    0 -0.98489990032E+01 -0.46409826731E+02 -0.15904973315E+04  0.15912047751E+04  0.00000000000E+00 0. -1.
         13    1    5    5    0    0  0.14068110484E+02 -0.48064279819E+02  0.31394318819E+02  0.59107444381E+02  0.00000000000E+00 0. -1.
        -14    1    5    5    0    0 -0.22201326699E+02  0.25502867946E+02  0.21450658608E+02  0.40042801292E+02  0.00000000000E+00 0.  1.
          5    1    4    4  501    0 -0.40892731253E+02 -0.10874132523E+01 -0.24933990549E+02  0.48089231867E+02  0.41800000000E+01 0.  1.
         -5    1    4    4    0  501  0.72982764931E+02  0.50369295965E+02  0.16896531146E+02  0.90368772912E+02  0.41800000000E+01 0.  1.
</event>
<event>
11    1  0.5813833E-009  0.1367289E+03  0.7561462E-02  0.1111267E+00
         22   -1    0    0    0    0  0.00000000000E+00  0.00000000000E+00  0.33637271630E+03  0.33637271630E+03  0.00000000000E+00 0.  1.
         22   -1    0    0    0    0 -0.00000000000E+00 -0.00000000000E+00 -0.74387883704E+03  0.74387883704E+03  0.00000000000E+00 0. -1.
         24    2    1    2    0    0  0.39462875733E+02  0.43816679720E+02 -0.45510575312E+03  0.46400147012E+03  0.68548506674E+02 0.  0.
         25    2    1    2    0    0 -0.50092136341E+02 -0.79052421683E+01 -0.26172642484E+03  0.29448088984E+03  0.12508620246E+03 0.  0.
        -24    2    1    2    0    0  0.10629260609E+02 -0.35911437552E+02  0.30932605722E+03  0.32176919338E+03  0.80313084882E+02 0.  0.
        -11    1    3    3    0    0  0.25732134078E+02 -0.10854982057E+02 -0.81155792843E+02  0.85826779455E+02  0.00000000000E+00 0.  1.
         12    1    3    3    0    0  0.13730741655E+02  0.54671661778E+02 -0.37394996027E+03  0.37817469066E+03  0.00000000000E+00 0. -1.
         13    1    5    5    0    0  0.12163209800E+02 -0.40962855995E+02  0.67518317576E+02  0.79903832525E+02  0.00000000000E+00 0. -1.
        -14    1    5    5    0    0 -0.15339491914E+01  0.50514184431E+01  0.24180773964E+03  0.24186536085E+03  0.00000000000E+00 0.  1.
          5    1    4    4  501    0 -0.29893086165E+02 -0.25531054204E+02 -0.93159597543E+01  0.40616386291E+02  0.41800000000E+01 0.  1.
         -5    1    4    4    0  501 -0.20199050176E+02  0.17625812035E+02 -0.25241046509E+03  0.25386450355E+03  0.41800000000E+01 0.  1.
</event>
<event>
11    1  0.5813833E-009  0.1509285E+03  0.7561462E-02  0.1095934E+00
         22   -1    0    0    0    0  0.00000000000E+00  0.00000000000E+00  0.31793317926E+03  0.31793317926E+03  0.00000000000E+00 0. -1.
         22   -1    0    0    0    0 -0.00000000000E+00 -0.00000000000E+00 -0.27942682146E+03  0.27942682146E+03  0.00000000000E+00 0. -1.
         24    2    1    2    0    0  0.53449121226E+02 -0.17089459337E+02 -0.18917645948E+03  0.21085985398E+03  0.74332274396E+02 0.  0.
         25    2    1    2    0    0  0.35672470160E+02  0.45090043663E+02  0.11228016606E+02  0.13812857667E+03  0.12509115944E+03 0.  0.
        -24    2    1    2    0    0 -0.89121591386E+02 -0.28000584327E+02  0.21645480068E+03  0.24837157007E+03  0.78160509922E+02 0.  0.
        -13    1    3    3    0    0  0.35975157702E+02 -0.42078932604E+01 -0.22209251006E+02  0.42487282422E+02  0.00000000000E+00 0.  1.
         14    1    3    3    0    0  0.17473963524E+02 -0.12881566076E+02 -0.16696720848E+03  0.16837257156E+03  0.00000000000E+00 0. -1.
         13    1    5    5    0    0 -0.94153929556E+02 -0.41108920160E+02  0.20798005094E+03  0.23197113475E+03  0.00000000000E+00 0. -1.
        -14    1    5    5    0    0  0.50323381701E+01  0.13108335834E+02  0.84747497391E+01  0.16400435327E+02  0.00000000000E+00 0.  1.
          5    1    4    4  501    0  0.24464308871E+02 -0.35438303504E+02 -0.23938615481E+02  0.49445985428E+02  0.41800000000E+01 0.  1.
         -5    1    4    4    0  501  0.11208161289E+02  0.80528347168E+02  0.35166632087E+02  0.88682591242E+02  0.41800000000E+01 0.  1.
</event>
<event>
11    1  0.5813833E-009  0.2197117E+03  0.7561462E-02  0.1041398E+00
         22   -1    0    0    0    0  0.00000000000E+00  0.00000000000E+00  0.56670405180E+03  0.56670405180E+03  0.00000000000E+00 0.  1.
         22   -1    0    0    0    0 -0.00000000000E+00 -0.00000000000E+00 -0.22698706868E+03  0.22698706868E+03  0.00000000000E+00 0. -1.
         24    2    1    2    0    0  0.24496806198E+02 -0.18742400546E+03 -0.10949604226E+03  0.23277393727E+03  0.80414372255E+02 0.  0.
         25    2    1    2    0    0 -0.66372575500E+02  0.14257691971E+03  0.16792334622E+03  0.26187752801E+03  0.12509233653E+03 0.  0.
        -24    2    1    2    0    0  0.41875769302E+02  0.44847085746E+02  0.28128967917E+03  0.29903965519E+03  0.80845473706E+02 0.  0.
        -13    1    3    3    0    0 -0.12832229022E+02 -0.15740278458E+02  0.75445810986E+01  0.21664329474E+02  0.00000000000E+00 0.  1.
         14    1    3    3    0    0  0.37329035220E+02 -0.17168372700E+03 -0.11704062336E+03  0.21110960780E+03  0.00000000000E+00 0. -1.
         13    1    5    5    0    0  0.18283130403E+02  0.51783656132E+02  0.84877763491E+02  0.10109428587E+03  0.00000000000E+00 0. -1.
        -14    1    5    5    0    0  0.23592638900E+02 -0.69365703862E+01  0.19641191568E+03  0.19794536933E+03  0.00000000000E+00 0.  1.
          5    1    4    4  501    0 -0.17910645638E+02  0.34585777897E+02  0.13262529231E+03  0.13828921802E+03  0.41800000000E+01 0.  1.
         -5    1    4    4    0  501 -0.48461929862E+02  0.10799114182E+03  0.35298053909E+02  0.12358830999E+03  0.41800000000E+01 0.  1.
</event>
<event>
11    1  0.5813833E-009  0.3065780E+03  0.7561462E-02  0.9974451E-01
         22   -1    0    0    0    0  0.00000000000E+00  0.00000000000E+00  0.46808961578E+03  0.46808961578E+03  0.00000000000E+00 0.  1.
         22   -1    0    0    0    0 -0.00000000000E+00 -0.00000000000E+00 -0.70676367983E+03  0.70676367983E+03  0.00000000000E+00 0. -1.
         24    2    1    2    0    0  0.39427844386E+02  0.49957039555E+02 -0.37734675867E+03  0.39368531704E+03  0.92451564950E+02 0.  0.
         25    2    1    2    0    0  0.24631215217E+03 -0.67281879296E+02 -0.18686471172E+03  0.34023927155E+03  0.12509122203E+03 0.  0.
        -24    2    1    2    0    0 -0.28573999656E+03  0.17324839741E+02  0.32553740633E+03  0.44092870702E+03  0.80597928315E+02 0.  0.
        -13    1    3    3    0    0 -0.27440236820E+02  0.48013154325E+01 -0.14698442450E+03  0.14960093673E+03  0.00000000000E+00 0.  1.
         14    1    3    3    0    0  0.66868081206E+02  0.45155724123E+02 -0.23036233417E+03  0.24408438031E+03  0.00000000000E+00 0. -1.
         13    1    5    5    0    0 -0.13821637423E+03  0.30693265184E+02  0.20905600773E+03  0.25248813240E+03  0.00000000000E+00 0. -1.
        -14    1    5    5    0    0 -0.14752362233E+03 -0.13368425443E+02  0.11648139859E+03  0.18844057462E+03  0.00000000000E+00 0.  1.
          5    1    4    4  501    0  0.29340166287E+02 -0.40318722997E+01  0.18224054684E+02  0.35024133410E+02  0.41800000000E+01 0.  1.
         -5    1    4    4    0  501  0.21697198589E+03 -0.63250006997E+02 -0.20508876640E+03  0.30521513814E+03  0.41800000000E+01 0.  1.
</event>
<event>
11    1  0.5813833E-009  0.1604669E+03  0.7561462E-02  0.1086639E+00
         22   -1    0    0    0    0  0.00000000000E+00  0.00000000000E+00  0.44822661047E+03  0.44822661047E+03  0.00000000000E+00 0.  1.
         22   -1    0    0    0    0 -0.00000000000E+00 -0.00000000000E+00 -0.84901872486E+03  0.84901872486E+03  0.00000000000E+00 0. -1.
        -24    2    1    2    0    0 -0.16108143753E+01 -0.96276458485E+02 -0.66157013413E+03  0.67351617044E+03  0.81714370156E+02 0.  0.
         25    2    1    2    0    0  0.50170571980E+02  0.13533766792E+03 -0.12271612198E+03  0.22702542232E+03  0.12509166692E+03 0.  0.
         24    2    1    2    0    0 -0.48559757605E+02 -0.39061209434E+02  0.38349414173E+03  0.39670374256E+03  0.80139094596E+02 0.  0.
        -13    1    5    5    0    0 -0.27902427750E+02 -0.60214940309E+02  0.19694837375E+03  0.20782936855E+03  0.00000000000E+00 0.  1.
         14    1    5    5    0    0 -0.20657329855E+02  0.21153730876E+02  0.18654576798E+03  0.18887437401E+03  0.00000000000E+00 0. -1.
         13    1    3    3    0    0 -0.11291234619E+02 -0.10811434851E+03 -0.61401424453E+03  0.62356210342E+03  0.00000000000E+00 0. -1.
        -14    1    3    3    0    0  0.96804202438E+01  0.11837890027E+02 -0.47555889606E+02  0.49954067028E+02  0.00000000000E+00 0.  1.
          5    1    4    4  501    0  0.62663363426E+02  0.82865300664E+02 -0.13114998150E+02  0.10479900165E+03  0.41800000000E+01 0.  1.
         -5    1    4    4    0  501 -0.12492791446E+02  0.52472367254E+02 -0.10960112383E+03  0.12222642067E+03  0.41800000000E+01 0.  1.
</event>
<event>
11    1  0.5813833E-009  0.1296320E+03  0.7561462E-02  0.1119722E+00
         22   -1    0    0    0    0  0.00000000000E+00  0.00000000000E+00  0.25565431086E+04  0.25565431086E+04  0.00000000000E+00 0. -1.
         22   -1    0    0    0    0 -0.00000000000E+00 -0.00000000000E+00 -0.16225080541E+03  0.16225080541E+03  0.00000000000E+00 0. -1.
         24    2    1    2    0    0 -0.27153861213E+02 -0.50989124975E+02 -0.13652126238E+03  0.16943897766E+03  0.82062713980E+02 0.  0.
         25    2    1    2    0    0 -0.82519407296E+01  0.29387429564E+02  0.52203261175E+03  0.53767748819E+03  0.12508924027E+03 0.  0.
        -24    2    1    2    0    0  0.35405801942E+02  0.21601695411E+02  0.20087809538E+04  0.20116774481E+04  0.99624449696E+02 0.  0.
        -13    1    3    3    0    0 -0.80100066537E+01  0.47765087177E+01  0.86695730263E+01  0.12733292527E+02  0.00000000000E+00 0.  1.
         14    1    3    3    0    0 -0.19143854559E+02 -0.55765633692E+02 -0.14519083540E+03  0.15670568514E+03  0.00000000000E+00 0. -1.
         13    1    5    5    0    0 -0.10890883674E+02  0.25862299479E+02  0.16023918951E+04  0.16026375933E+04  0.00000000000E+00 0. -1.
        -14    1    5    5    0    0  0.46296685617E+02 -0.42606040684E+01  0.40638905867E+03  0.40903985485E+03  0.00000000000E+00 0.  1.
          5    1    4    4  501    0 -0.22913187065E+02  0.65577430762E+02  0.17344911166E+03  0.18688895179E+03  0.41800000000E+01 0.  1.
         -5    1    4    4    0  501  0.14661246335E+02 -0.36190001198E+02  0.34858350009E+03  0.35078853640E+03  0.41800000000E+01 0.  1.
</event>
<event>
11    1  0.5813833E-009  0.2088000E+03  0.7561462E-02  0.1048469E+00
         22   -1    0    0    0    0  0.00000000000E+00  0.00000000000E+00  0.22755048073E+04  0.22755048073E+04  0.00000000000E+00 0.  1.
         22   -1    0    0    0    0 -0.00000000000E+00 -0.00000000000E+00 -0.12044494072E+04  0.12044494072E+04  0.00000000000E+00 0. -1.
        -24    2    1    2    0    0 -0.10976677543E+03 -0.17320368380E+02 -0.11054091117E+04  0.11137308737E+04  0.78220295674E+02 0.  0.
         25    2    1    2    0    0 -0.31519953253E+02 -0.79821806955E+02 -0.27470671930E+02  0.15416686440E+03  0.12509099065E+03 0.  0.
         24    2    1    2    0    0  0.14128672868E+03  0.97142175335E+02  0.22039351837E+04  0.22120564763E+04  0.80405338534E+02 0.  0.
        -11    1    5    5    0    0  0.11595164521E+03  0.11024198348E+03  0.17876769323E+04  0.17948222456E+04  0.00000000000E+00 0.  1.
         12    1    5    5    0    0  0.25335083471E+02 -0.13099808140E+02  0.41625825138E+03  0.41723423070E+03  0.00000000000E+00 0. -1.
         13    1    3    3    0    0 -0.46306751861E+02  0.91009660698E+01 -0.76479196021E+03  0.76624662169E+03  0.00000000000E+00 0. -1.
        -14    1    3    3    0    0 -0.63460023568E+02 -0.26421334450E+02 -0.34061715150E+03  0.34748425202E+03  0.00000000000E+00 0.  1.
          5    1    4    4  501    0  0.18553251138E+02  0.26759079333E+02 -0.13551472036E+02  0.35515999900E+02  0.41800000000E+01 0.  1.
         -5    1    4    4    0  501 -0.50073204391E+02 -0.10658088629E+03 -0.13919199894E+02  0.11865086450E+03  0.41800000000E+01 0.  1.
</event>
<event>
11    1  0.5813833E-009  0.1414927E+03  0.7561462E-02  0.1105903E+00
         22   -1    0    0    0    0  0.00000000000E+00  0.00000000000E+00  0.36139263960E+03  0.36139263960E+03  0.00000000000E+00 0.  1.
         22   -1    0    0    0    0 -0.00000000000E+00 -0.00000000000E+00 -0.10543721456E+04  0.10543721456E+04  0.00000000000E+00 0.  1.
         24    2    1    2    0    0 -0.28738456363E+02  0.15282183314E+02 -0.94856648559E+03  0.95265097552E+03  0.81890534096E+02 0.  0.
         25    2    1    2    0    0  0.80605099460E+02  0.23850119595E+02 -0.35904052250E+02  0.15493020260E+03  0.12509299119E+03 0.  0.
        -24    2    1    2    0    0 -0.51866643097E+02 -0.39132302909E+02  0.29149103181E+03  0.30818360712E+03  0.76083035386E+02 0.  0.
        -11    1    3    3    0    0 -0.52316555859E+02 -0.56376623346E+01 -0.44526073605E+03  0.44835915104E+03  0.00000000000E+00 0.  1.
         12    1    3    3    0    0  0.23578099496E+02  0.20919845648E+02 -0.50330574954E+03  0.50429182448E+03  0.00000000000E+00 0. -1.
         13    1    5    5    0    0 -0.38786357504E+02 -0.39526869574E+02  0.86071898273E+02  0.10234806602E+03  0.00000000000E+00 0. -1.
        -14    1    5    5    0    0 -0.13080285593E+02  0.39456666505E+00  0.20541913354E+03  0.20583554109E+03  0.00000000000E+00 0.  1.
          5    1    4    4  501    0  0.36631973022E+01 -0.15454725045E+02  0.37846979522E+02  0.41256924263E+02  0.41800000000E+01 0.  1.
         -5    1    4    4    0  501  0.76941902158E+02  0.39304844640E+02 -0.73751031771E+02  0.11367327833E+03  0.41800000000E+01 0.  1.
</event>
<event>
11    1  0.5813833E-009  0.2046761E+03  0.7561462E-02  0.1051265E+00
         22   -1    0    0    0    0  0.00000000000E+00  0.00000000000E+00  0.34750404150E+04  0.34750404150E+04  0.00000000000E+00 0. -1.
         22   -1    0    0    0    0 -0.00000000000E+00 -0.00000000000E+00 -0.75294000173E+03  0.75294000173E+03  0.00000000000E+00 0.  1.
        -24    2    1    2    0    0 -0.82743957923E+02  0.13850440997E+03 -0.72137876003E+03  0.74343198220E+03  0.79207086699E+02 0.  0.
         25    2    1    2    0    0  0.12034867823E+02 -0.27828454310E+03  0.13722711801E+04  0.14058318726E+04  0.12509171517E+03 0.  0.
         24    2    1    2    0    0  0.70709090100E+02  0.13978013313E+03  0.20712079932E+04  0.20787165620E+04  0.81374030400E+02 0.  0.
        -11    1    5    5    0    0  0.56587769461E+02  0.63178236614E+02  0.67028917884E+03  0.67563396044E+03  0.00000000000E+00 0.  1.
         12    1    5    5    0    0  0.14121320639E+02  0.76601896518E+02  0.14009188144E+04  0.14030826015E+04  0.00000000000E+00 0. -1.
         11    1    3    3    0    0 -0.20208549769E+02  0.29770894213E+02 -0.57670232350E+02  0.67974607945E+02  0.00000000000E+00 0. -1.
        -12    1    3    3    0    0 -0.62535408155E+02  0.10873351576E+03 -0.66370852768E+03  0.67545737426E+03  0.00000000000E+00 0.  1.
          5    1    4    4  501    0  0.30338977049E+02 -0.28004618367E+03  0.12045942120E+04  0.12370978160E+04  0.41800000000E+01 0. -1.
         -5    1    4    4    0  501 -0.18304109226E+02  0.17616405667E+01  0.16767696814E+03  0.16873405654E+03  0.41800000000E+01 0.  1.
</event>
<event>
11    1  0.5813833E-009  0.1299476E+03  0.7561462E-02  0.1119333E+00
         22   -1    0    0    0    0  0.00000000000E+00  0.00000000000E+00  0.11883340661E+03  0.11883340661E+03  0.00000000000E+00 0.  1.
         22   -1    0    0    0    0 -0.00000000000E+00 -0.00000000000E+00 -0.46854599179E+03  0.46854599179E+03  0.00000000000E+00 0.  1.
        -24    2    1    2    0    0  0.72145957005E+01  0.17234452273E+02 -0.25882867807E+03  0.27165050028E+03  0.80328282516E+02 0.  0.
         25    2    1    2    0    0 -0.76291203758E+01  0.19789107923E+02 -0.15948540974E+03  0.20379469954E+03  0.12508745490E+03 0.  0.
         24    2    1    2    0    0  0.41452467533E+00 -0.37023560196E+02  0.68601502630E+02  0.11193419858E+03  0.80325480445E+02 0.  0.
        -13    1    5    5    0    0  0.30047203151E+02 -0.46435582258E+02  0.54990537828E+02  0.77993954685E+02  0.00000000000E+00 0.  1.
         14    1    5    5    0    0 -0.29632678475E+02  0.94120220619E+01  0.13610964802E+02  0.33940243897E+02  0.00000000000E+00 0. -1.
         11    1    3    3    0    0  0.43432412103E+01  0.38025413602E+02 -0.56538484872E+02  0.68274417577E+02  0.00000000000E+00 0. -1.
        -12    1    3    3    0    0  0.28713544902E+01 -0.20790961329E+02 -0.20229019320E+03  0.20337608270E+03  0.00000000000E+00 0.  1.
          5    1    4    4  501    0  0.45667786692E+02  0.13806531819E+02 -0.15898879568E+02  0.50462003861E+02  0.41800000000E+01 0.  1.
         -5    1    4    4    0  501 -0.53296907068E+02  0.59825761037E+01 -0.14358653017E+03  0.15333269568E+03  0.41800000000E+01 0.  1.
</event>
<event>
11    1  0.5813833E-009  0.1490481E+03  0.7561462E-02  0.1097855E+00
         22   -1    0    0    0    0  0.00000000000E+00  0.00000000000E+00  0.11579338351E+03  0.11579338351E+03  0.00000000000E+00 0.  1.
         22   -1    0    0    0    0 -0.00000000000E+00 -0.00000000000E+00 -0.11070775382E+04  0.11070775382E+04  0.00000000000E+00 0. -1.
         24    2    1    2    0    0 -0.51931122735E+01  0.55633631038E+02 -0.60015859835E+03  0.60827057583E+03  0.81735432540E+02 0.  0.
         25    2    1    2    0    0 -0.60851108270E+02 -0.45680245745E+01 -0.45978703992E+03  0.48039090472E+03  0.12509026752E+03 0.  0.
        -24    2    1    2    0    0  0.66044220544E+02 -0.51065606463E+02  0.68661483626E+02  0.13420944112E+03  0.79550232700E+02 0.  0.
        -13    1    3    3    0    0 -0.16449345102E+02  0.24398139595E+02 -0.57449745358E+02  0.64547063541E+02  0.00000000000E+00 0.  1.
         14    1    3    3    0    0  0.11256232829E+02  0.31235491442E+02 -0.54270885299E+03  0.54372351229E+03  0.00000000000E+00 0. -1.
         13    1    5    5    0    0  0.47968273619E+02 -0.47861535016E+02  0.49912331429E+01  0.67945523887E+02  0.00000000000E+00 0. -1.
        -14    1    5    5    0    0  0.18075946925E+02 -0.32040714476E+01  0.63670250483E+02  0.66263917237E+02  0.00000000000E+00 0.  1.
          5    1    4    4  501    0 -0.26713367443E+02 -0.64074178046E+02 -0.20388331642E+03  0.21541815942E+03  0.41800000000E+01 0.  1.
         -5    1    4    4    0  501 -0.34137740827E+02  0.59506153472E+02 -0.25590372350E+03  0.26497274530E+03  0.41800000000E+01 0.  1.
</event>
<event>
11    1  0.5813833E-009  0.1431502E+03  0.7561462E-02  0.1104091E+00
         22   -1    0    0    0    0  0.00000000000E+00  0.00000000000E+00  0.12798243735E+03  0.12798243735E+03  0.00000000000E+00 0.  1.
         22   -1    0    0    0    0 -0.00000000000E+00 -0.00000000000E+00 -0.13976451384E+04  0.13976451384E+04  0.00000000000E+00 0.  1.
        -24    2    1    2    0    0 -0.18269660023E+02 -0.58196742965E+02 -0.37428964229E+03  0.38794657353E+03  0.81787323112E+02 0.  0.
         25    2    1    2    0    0  0.78677728831E+02  0.38522854065E+02 -0.98875574266E+03  0.10004795449E+04  0.12508879186E+03 0.  0.
         24    2    1    2    0    0 -0.60408068808E+02  0.19673888900E+02  0.93382683910E+02  0.13720145729E+03  0.77895555376E+02 0.  0.
        -13    1    5    5    0    0 -0.18702088760E+02  0.25592114092E+02  0.89443399607E+02  0.94893867879E+02  0.00000000000E+00 0.  1.
         14    1    5    5    0    0 -0.41705980048E+02 -0.59182251915E+01  0.39392843030E+01  0.42307589414E+02  0.00000000000E+00 0. -1.
         13    1    3    3    0    0  0.31983584166E+02 -0.18626363990E+02 -0.11140122106E+03  0.11738876924E+03  0.00000000000E+00 0. -1.
        -14    1    3    3    0    0 -0.50253244189E+02 -0.39570378975E+02 -0.26288842123E+03  0.27055780428E+03  0.00000000000E+00 0.  1.
          5    1    4    4  501    0  0.11226375108E+03  0.36480022128E+02 -0.72611208779E+03  0.73565629084E+03  0.41800000000E+01 0.  1.
         -5    1    4    4    0  501 -0.33586022253E+02  0.20428319368E+01 -0.26264365488E+03  0.26482325408E+03  0.41800000000E+01 0.  1.
</event>
<event>
11    1  0.5813833E-009  0.1645323E+03  0.7561462E-02  0.1082890E+00
         22   -1    0    0    0    0  0.00000000000E+00  0.00000000000E+00  0.12717817904E+04  0.12717817904E+04  0.00000000000E+00 0. -1.
         22   -1    0    0    0    0 -0.00000000000E+00 -0.00000000000E+00 -0.40361078035E+03  0.40361078035E+03  0.00000000000E+00 0. -1.
         24    2    1    2    0    0 -0.97297793388E+02  0.55905748947E+02 -0.27649807030E+03  0.30932796008E+03  0.81487978514E+02 0.  0.
         25    2    1    2    0    0  0.55879020075E+02 -0.77037417143E+02 -0.52137564891E+02  0.16560118867E+03  0.12509276355E+03 0.  0.
        -24    2    1    2    0    0  0.41418773313E+02  0.21131668195E+02  0.11968066452E+04  0.12004634220E+04  0.81266347862E+02 0.  0.
        -13    1    3    3    0    0 -0.35385764576E+02  0.49863986907E+02 -0.20799247569E+03  0.21679354111E+03  0.00000000000E+00 0.  1.
         14    1    3    3    0    0 -0.61912028812E+02  0.60417620400E+01 -0.68505594614E+02  0.92534418967E+02  0.00000000000E+00 0. -1.
         13    1    5    5    0    0  0.14423222432E+02  0.30370227093E+02  0.10682301755E+04  0.10687591346E+04  0.00000000000E+00 0. -1.
        -14    1    5    5    0    0  0.26995550880E+02 -0.92385588979E+01  0.12857646975E+03  0.13170428737E+03  0.00000000000E+00 0.  1.
          5    1    4    4  501    0  0.56297123131E+02 -0.10668352310E+03 -0.21199325103E+02  0.12254641553E+03  0.41800000000E+01 0.  1.
         -5    1    4    4    0  501 -0.41810305593E+00  0.29646105961E+02 -0.30938239788E+02  0.43054773139E+02  0.41800000000E+01 0.  1.
</event>
<event>
11    1  0.5813833E-009  0.1535567E+03  0.7561462E-02  0.1093299E+00
         22   -1    0    0    0    0  0.00000000000E+00  0.00000000000E+00  0.29550967541E+04  0.29550967541E+04  0.00000000000E+00 0. -1.
         22   -1    0    0    0    0 -0.00000000000E+00 -0.00000000000E+00 -0.13928412921E+03  0.13928412921E+03  0.00000000000E+00 0. -1.
        -24    2    1    2    0    0  0.69707721356E+01 -0.88565232529E+02 -0.84139744108E+02  0.15580122539E+03  0.96447567196E+02 0.  0.
         25    2    1    2    0    0  0.18263486063E+02  0.92467093072E+02  0.30935680531E+03  0.34674615559E+03  0.12509014829E+03 0.  0.
         24    2    1    2    0    0 -0.25234258199E+02 -0.39018605436E+01  0.25905955637E+04  0.25918335023E+04  0.75917961324E+02 0.  0.
        -13    1    5    5    0    0 -0.37983735726E+02 -0.27465537814E+02  0.11014179975E+04  0.11024149515E+04  0.00000000000E+00 0.  1.
         14    1    5    5    0    0  0.12749477527E+02  0.23563677271E+02  0.14891775661E+04  0.14894185508E+04  0.00000000000E+00 0. -1.
         13    1    3    3    0    0 -0.56247250299E+01 -0.99609885227E+02 -0.38078522687E+02  0.10678829831E+03  0.00000000000E+00 0. -1.
        -14    1    3    3    0    0  0.12595497165E+02  0.11044652698E+02 -0.46061221421E+02  0.49012927079E+02  0.00000000000E+00 0.  1.
          5    1    4    4  501    0  0.65959494976E+02  0.22477707789E+02  0.16766499108E+03  0.18161752107E+03  0.41800000000E+01 0. -1.
         -5    1    4    4    0  501 -0.47696008913E+02  0.69989385283E+02  0.14169181423E+03  0.16512863452E+03  0.41800000000E+01 0. -1.
</event>
<event>
11    1  0.5813833E-009  0.1359855E+03  0.7561462E-02  0.1112126E+00
         22   -1    0    0    0    0  0.00000000000E+00  0.00000000000E+00  0.58859106613E+03  0.58859106613E+03  0.00000000000E+00 0.  1.
         22   -1    0    0    0    0 -0.00000000000E+00 -0.00000000000E+00 -0.56067066405E+03  0.56067066405E+03  0.00000000000E+00 0.  1.
         24    2    1    2    0    0 -0.49274591450E+02  0.20368625088E+02 -0.43663522910E+03  0.44724368018E+03  0.80831429033E+02 0.  0.
         25    2    1    2    0    0  0.38878119437E+02 -0.44032123922E+02 -0.73981918708E+02  0.15675177204E+03  0.12508979829E+03 0.  0.
        -24    2    1    2    0    0  0.10396472013E+02  0.23663498834E+02  0.53853754989E+03  0.54526627796E+03  0.81391482531E+02 0.  0.
        -13    1    3    3    0    0  0.16838688223E+01 -0.23571839290E+02 -0.19459343007E+03  0.19602313651E+03  0.00000000000E+00 0.  1.
         14    1    3    3    0    0 -0.50958460272E+02  0.43940464378E+02 -0.24204179902E+03  0.25122054366E+03  0.00000000000E+00 0. -1.
         11    1    5    5    0    0 -0.25137975988E+01  0.39320837096E+02  0.12136843934E+03  0.12760386152E+03  0.00000000000E+00 0. -1.
        -12    1    5    5    0    0  0.12910269611E+02 -0.15657338262E+02  0.41716911055E+03  0.41766241643E+03  0.00000000000E+00 0.  1.
          5    1    4    4  501    0  0.76426051183E+02 -0.27411352385E+01 -0.64197643286E+02  0.99936304341E+02  0.41800000000E+01 0.  1.
         -5    1    4    4    0  501 -0.37547931746E+02 -0.41290988684E+02 -0.97842754222E+01  0.56815467704E+02  0.41800000000E+01 0.  1.
</event>
<event>
11    1  0.5813833E-009  0.1335213E+03  0.7561462E-02  0.1115017E+00
         22   -1    0    0    0    0  0.00000000000E+00  0.00000000000E+00  0.41414371331E+03  0.41414371331E+03  0.00000000000E+00 0.  1.
         22   -1    0    0    0    0 -0.00000000000E+00 -0.00000000000E+00 -0.37145400799E+03  0.37145400799E+03  0.00000000000E+00 0. -1.
         24    2    1    2    0    0 -0.11923157285E+02  0.43773222963E+02 -0.30994822205E+03  0.32362062169E+03  0.81265919717E+02 0.  0.
         25    2    1    2    0    0 -0.22224946646E+01 -0.70154534114E+02  0.57702441842E+02  0.15460677530E+03  0.12508830895E+03 0.  0.
        -24    2    1    2    0    0  0.14145651949E+02  0.26381311151E+02  0.29493548552E+03  0.30737032431E+03  0.81200385474E+02 0.  0.
        -13    1    3    3    0    0 -0.20670452456E+01 -0.87484285646E+01  0.11106948426E+00  0.89899952630E+01  0.00000000000E+00 0.  1.
         14    1    3    3    0    0 -0.98561120390E+01  0.52521651527E+02 -0.31005929153E+03  0.31463062643E+03  0.00000000000E+00 0. -1.
         13    1    5    5    0    0 -0.49959236572E+01 -0.20432792011E+02  0.24701182658E+02  0.32443900309E+02  0.00000000000E+00 0. -1.
        -14    1    5    5    0    0  0.19141575606E+02  0.46814103162E+02  0.27023430286E+03  0.27492642400E+03  0.00000000000E+00 0.  1.
          5    1    4    4  501    0  0.54942869880E+02 -0.62633430601E+02  0.47207836088E+02  0.95852583521E+02  0.41800000000E+01 0.  1.
         -5    1    4    4    0  501 -0.57165364545E+02 -0.75211035123E+01  0.10494605754E+02  0.58754191778E+02  0.41800000000E+01 0.  1.
</event>
<event>
11    1  0.5813833E-009  0.1770116E+03  0.7561462E-02  0.1072086E+00
         22   -1    0    0    0    0  0.00000000000E+00  0.00000000000E+00  0.38542889041E+02  0.38542889041E+02  0.00000000000E+00 0. -1.
         22   -1    0    0    0    0 -0.00000000000E+00 -0.00000000000E+00 -0.35126628857E+04  0.35126628857E+04  0.00000000000E+00 0.  1.
         24    2    1    2    0    0 -0.34673047432E+02  0.13458516338E+01 -0.27807172295E+04  0.27822038512E+04  0.84059071365E+02 0.  0.
         25    2    1    2    0    0 -0.76721640933E+02  0.76896561969E+02 -0.43777989294E+03  0.46807966572E+03  0.12509215549E+03 0.  0.
        -24    2    1    2    0    0  0.11139468836E+03 -0.78242413603E+02 -0.25562287420E+03  0.30092225784E+03  0.81734323060E+02 0.  0.
        -11    1    3    3    0    0 -0.33444273409E+02 -0.77880481228E+01 -0.27479676895E+04  0.27481822348E+04  0.00000000000E+00 0.  1.
         12    1    3    3    0    0 -0.12287740227E+01  0.91338997567E+01 -0.32749540040E+02  0.34021616411E+02  0.00000000000E+00 0. -1.
         13    1    5    5    0    0  0.11311633502E+03 -0.58934706663E+02 -0.16663256610E+03  0.20984522149E+03  0.00000000000E+00 0. -1.
        -14    1    5    5    0    0 -0.17216466501E+01 -0.19307706940E+02 -0.88990308100E+02  0.91077036350E+02  0.00000000000E+00 0.  1.
          5    1    4    4  501    0 -0.21524766261E+02  0.30532676628E+01 -0.15478672023E+01  0.22192482937E+02  0.41800000000E+01 0.  1.
         -5    1    4    4    0  501 -0.55196874672E+02  0.73843294306E+02 -0.43623202574E+03  0.44588718278E+03  0.41800000000E+01 0.  1.
</event>
<event>
11    1  0.5813833E-009  0.1368488E+03  0.7561462E-02  0.1111129E+00
         22   -1    0    0    0    0  0.00000000000E+00  0.00000000000E+00  0.71903826026E+03  0.71903826026E+03  0.00000000000E+00 0.  1.
         22   -1    0    0    0    0 -0.00000000000E+00 -0.00000000000E+00 -0.24212202101E+03  0.24212202101E+03  0.00000000000E+00 0. -1.
        -24    2    1    2    0    0 -0.18862234285E+02 -0.34605370032E+02 -0.19920885399E+03  0.21957482544E+03  0.83520182842E+02 0.  0.
         25    2    1    2    0    0  0.71747474120E+02  0.31824368184E+02  0.16464862368E+03  0.22117338551E+03  0.12509199304E+03 0.  0.
         24    2    1    2    0    0 -0.52885239835E+02  0.27810018480E+01  0.51147646955E+03  0.52041207032E+03  0.80099697014E+02 0.  0.
        -13    1    5    5    0    0  0.14794128890E+02  0.21218231409E+02  0.14137019714E+03  0.14371712575E+03  0.00000000000E+00 0.  1.
         14    1    5    5    0    0 -0.67679368725E+02 -0.18437229561E+02  0.37010627241E+03  0.37669494457E+03  0.00000000000E+00 0. -1.
         11    1    3    3    0    0  0.56233261523E+01 -0.57035220448E+02 -0.10406799297E+03  0.11880566202E+03  0.00000000000E+00 0. -1.
        -12    1    3    3    0    0 -0.24485560437E+02  0.22429850416E+02 -0.95140861023E+02  0.10076916342E+03  0.00000000000E+00 0.  1.
          5    1    4    4  501    0  0.82731673875E+02  0.14809331076E+02  0.17777085758E+03  0.19668196753E+03  0.41800000000E+01 0.  1.
         -5    1    4    4    0  501 -0.10984199755E+02  0.17015037108E+02 -0.13122233893E+02  0.24491417974E+02  0.41800000000E+01 0.  1.
</event>
<event>
11    1  0.5813833E-009  0.1358310E+03  0.7561462E-02  0.1112305E+00
         22   -1    0    0    0    0  0.00000000000E+00  0.00000000000E+00  0.12364647732E+03  0.12364647732E+03  0.00000000000E+00 0. -1.
         22   -1    0    0    0    0 -0.00000000000E+00 -0.00000000000E+00 -0.11450597498E+04  0.11450597498E+04  0.00000000000E+00 0.  1.
        -24    2    1    2    0    0  0.96321686396E+01 -0.50906273198E+02 -0.97988958397E+03  0.98476250324E+03  0.83002190900E+02 0.  0.
         25    2    1    2    0    0  0.25271496272E+02  0.76577726434E+02 -0.97206555699E+02  0.17776644242E+03  0.12509595066E+03 0.  0.
         24    2    1    2    0    0 -0.34903664912E+02 -0.25671453235E+02  0.55682867238E+02  0.10617728141E+03  0.79345724830E+02 0.  0.
        -13    1    5    5    0    0 -0.10751735299E+02 -0.21351869204E+02 -0.17085526272E+02  0.29383963967E+02  0.00000000000E+00 0.  1.
         14    1    5    5    0    0 -0.24151929613E+02 -0.43195840317E+01  0.72768393510E+02  0.76793317445E+02  0.00000000000E+00 0. -1.
         11    1    3    3    0    0 -0.24069562989E+02  0.88629651101E+01 -0.40121760664E+03  0.40203664496E+03  0.00000000000E+00 0. -1.
        -12    1    3    3    0    0  0.33701731628E+02 -0.59769238308E+02 -0.57867197733E+03  0.58272585828E+03  0.00000000000E+00 0.  1.
          5    1    4    4  501    0  0.68371383220E+02  0.80008028789E+02 -0.71313859296E+02  0.12719697183E+03  0.41800000000E+01 0.  1.
         -5    1    4    4    0  501 -0.43099886948E+02 -0.34303023554E+01 -0.25892696403E+02  0.50569470595E+02  0.41800000000E+01 0.  1.
</event>
<event>
11    1  0.5813833E-009  0.1321150E+03  0.7561462E-02  0.1116697E+00
         22   -1    0    0    0    0  0.00000000000E+00  0.00000000000E+00  0.68750538272E+03  0.68750538272E+03  0.00000000000E+00 0.  1.
         22   -1    0    0    0    0 -0.00000000000E+00 -0.00000000000E+00 -0.12836137403E+03  0.12836137403E+03  0.00000000000E+00 0.  1.
        -24    2    1    2    0    0 -0.41522205847E+01 -0.15114480086E+02 -0.82724952825E+02  0.11629831382E+03  0.80225878209E+02 0.  0.
         25    2    1    2    0    0 -0.36318731082E+02  0.27699694640E+02  0.15336431552E+03  0.20311140645E+03  0.12508919555E+03 0.  0.
         24    2    1    2    0    0  0.40470951667E+02 -0.12585214554E+02  0.48850464600E+03  0.49645703648E+03  0.77695008567E+02 0.  0.
        -11    1    5    5    0    0  0.63838284249E+02 -0.55561940349E+01  0.35866050075E+03  0.36433988613E+03  0.00000000000E+00 0.  1.
         12    1    5    5    0    0 -0.23367332582E+02 -0.70290205188E+01  0.12984414525E+03  0.13211715035E+03  0.00000000000E+00 0. -1.
         13    1    3    3    0    0 -0.41487637158E+02 -0.12682253942E+02 -0.35552545299E+02  0.56089634330E+02  0.00000000000E+00 0. -1.
        -14    1    3    3    0    0  0.37335416573E+02 -0.24322261442E+01 -0.47172407525E+02  0.60208679494E+02  0.00000000000E+00 0.  1.
          5    1    4    4  501    0 -0.52425717473E+02  0.48484652582E+02  0.16035283318E+03  0.17558394259E+03  0.41800000000E+01 0. -1.
         -5    1    4    4    0  501  0.16106986390E+02 -0.20784957942E+02 -0.69885176588E+01  0.27527463855E+02  0.41800000000E+01 0. -1.
</event>
<event>
11    1  0.5813833E-009  0.1396776E+03  0.7561462E-02  0.1107919E+00
         22   -1    0    0    0    0  0.00000000000E+00  0.00000000000E+00  0.93679354878E+03  0.93679354878E+03  0.00000000000E+00 0.  1.
         22   -1    0    0    0    0 -0.00000000000E+00 -0.00000000000E+00 -0.35514741917E+03  0.35514741917E+03  0.00000000000E+00 0.  1.
        -24    2    1    2    0    0  0.61093993755E+02 -0.10923327145E+02 -0.33056899686E+03  0.34572409617E+03  0.79984334966E+02 0.  0.
         25    2    1    2    0    0 -0.66218038177E+02  0.56797824192E+01  0.32984588550E+03  0.35897407461E+03  0.12508792730E+03 0.  0.
         24    2    1    2    0    0  0.51240444216E+01  0.52435447259E+01  0.58236924096E+03  0.58724279717E+03  0.75142660447E+02 0.  0.
        -13    1    5    5    0    0 -0.11756668381E+02  0.67821118961E+01  0.55420430834E+03  0.55437048233E+03  0.00000000000E+00 0.  1.
         14    1    5    5    0    0  0.16880712803E+02 -0.15385671702E+01  0.28164932625E+02  0.32872314848E+02  0.00000000000E+00 0. -1.
         13    1    3    3    0    0  0.18310186697E+02 -0.24233669071E+02 -0.33196323903E+02  0.44994772743E+02  0.00000000000E+00 0. -1.
        -14    1    3    3    0    0  0.42783807058E+02  0.13310341926E+02 -0.29737267295E+03  0.30072932343E+03  0.00000000000E+00 0.  1.
          5    1    4    4  501    0 -0.21606051705E+02  0.15733809035E+02  0.30606880469E+03  0.30726203771E+03  0.41800000000E+01 0.  1.
         -5    1    4    4    0  501 -0.44611986472E+02 -0.10054026616E+02  0.23777080808E+02  0.51712036896E+02  0.41800000000E+01 0.  1.
</event>
<event>
11    1  0.5813833E-009  0.1780227E+03  0.7561462E-02  0.1071254E+00
         22   -1    0    0    0    0  0.00000000000E+00  0.00000000000E+00  0.86740494368E+03  0.86740494368E+03  0.00000000000E+00 0.  1.
         22   -1    0    0    0    0 -0.00000000000E+00 -0.00000000000E+00 -0.30247731913E+03  0.30247731913E+03  0.00000000000E+00 0. -1.
        -24    2    1    2    0    0  0.17648080906E+02 -0.41606087698E+01 -0.21152144366E+03  0.22623831049E+03  0.78190067012E+02 0.  0.
         25    2    1    2    0    0 -0.70901350599E+02  0.11798459133E+03  0.37333667893E+02  0.18970568758E+03  0.12508828815E+03 0.  0.
         24    2    1    2    0    0  0.53253269693E+02 -0.11382398256E+03  0.73911540031E+03  0.75393826474E+03  0.79621117296E+02 0.  0.
        -13    1    5    5    0    0  0.37790606644E+02 -0.11124637434E+03  0.71848470377E+03  0.72802757867E+03  0.00000000000E+00 0.  1.
         14    1    5    5    0    0  0.15462663049E+02 -0.25776082174E+01  0.20630696547E+02  0.25910686072E+02  0.00000000000E+00 0. -1.
         11    1    3    3    0    0  0.12778954591E+02 -0.41071823866E+02 -0.11086059697E+03  0.11891286035E+03  0.00000000000E+00 0. -1.
        -12    1    3    3    0    0  0.48691263146E+01  0.36911215096E+02 -0.10066084669E+03  0.10732545014E+03  0.00000000000E+00 0.  1.
          5    1    4    4  501    0 -0.97319858278E+02  0.44386961791E+02  0.29324845879E+02  0.11098998233E+03  0.41800000000E+01 0. -1.
         -5    1    4    4    0  501  0.26418507680E+02  0.73597629541E+02  0.80088220141E+01  0.78715705245E+02  0.41800000000E+01 0. -1.
</event>
<event>
11    1  0.5813833E-009  0.1546130E+03  0.7561462E-02  0.1092256E+00
         22   -1    0    0    0    0  0.00000000000E+00  0.00000000000E+00  0.57286754285E+03  0.57286754285E+03  0.00000000000E+00 0. -1.
         22   -1    0    0    0    0 -0.00000000000E+00 -0.00000000000E+00 -0.49675491542E+03  0.49675491542E+03  0.00000000000E+00 0. -1.
        -24    2    1    2    0    0  0.10917088265E+02 -0.89458841629E+02 -0.43616948617E+03  0.45277784885E+03  0.81497807249E+02 0.  0.
         25    2    1    2    0    0  0.18215938292E+02  0.10654663389E+03  0.95607727284E+02  0.19097618484E+03  0.12508820911E+03 0.  0.
         24    2    1    2    0    0 -0.29133026557E+02 -0.17087792263E+02  0.41667438632E+03  0.42586842458E+03  0.81275118936E+02 0.  0.
        -13    1    5    5    0    0 -0.33807468363E+02 -0.25215810189E+02  0.93659660200E+02  0.10271764186E+03  0.00000000000E+00 0.  1.
         14    1    5    5    0    0  0.46744418063E+01  0.81280179265E+01  0.32301472612E+03  0.32315078272E+03  0.00000000000E+00 0. -1.
         11    1    3    3    0    0  0.10813475181E+02 -0.83705265335E+02 -0.43851517986E+03  0.44656361883E+03  0.00000000000E+00 0. -1.
        -12    1    3    3    0    0  0.10361308435E+00 -0.57535762933E+01  0.23456936988E+01  0.62142300217E+01  0.00000000000E+00 0.  1.
          5    1    4    4  501    0  0.51916036639E+01 -0.28467405588E+02  0.22029614912E+02  0.36607680378E+02  0.41800000000E+01 0.  1.
         -5    1    4    4    0  501  0.13024334628E+02  0.13501403948E+03  0.73578112372E+02  0.15436850446E+03  0.41800000000E+01 0.  1.
</event>
<event>
11    1  0.5813833E-009  0.1455004E+03  0.7561462E-02  0.1101567E+00
         22   -1    0    0    0    0  0.00000000000E+00  0.00000000000E+00  0.25876064715E+03  0.25876064715E+03  0.00000000000E+00 0. -1.
         22   -1    0    0    0    0 -0.00000000000E+00 -0.00000000000E+00 -0.38891020064E+03  0.38891020064E+03  0.00000000000E+00 0.  1.
         24    2    1    2    0    0  0.41395949166E+02  0.62845686784E+02 -0.31198463332E+03  0.33080218657E+03  0.80202682343E+02 0.  0.
         25    2    1    2    0    0 -0.64483588817E+02 -0.34194530152E+02  0.40539538014E+02  0.15039516022E+03  0.12509137043E+03 0.  0.
        -24    2    1    2    0    0  0.23087639651E+02 -0.28651156632E+02  0.14129554181E+03  0.16647350101E+03  0.79969172314E+02 0.  0.
        -11    1    3    3    0    0  0.63611043083E+02  0.35519234639E+02 -0.23727029015E+03  0.24820389083E+03  0.00000000000E+00 0.  1.
         12    1    3    3    0    0 -0.22215093917E+02  0.27326452145E+02 -0.74714343167E+02  0.82598295742E+02  0.00000000000E+00 0. -1.
         13    1    5    5    0    0 -0.16396993091E+02 -0.35129785667E+02  0.10688823451E+03  0.11370161784E+03  0.00000000000E+00 0. -1.
        -14    1    5    5    0    0  0.39484632742E+02  0.64786290344E+01  0.34407307303E+02  0.52771883165E+02  0.00000000000E+00 0.  1.
          5    1    4    4  501    0 -0.59806591813E+02 -0.53625627945E+02 -0.22996238116E+02  0.83659044725E+02  0.41800000000E+01 0. -1.
         -5    1    4    4    0  501 -0.46769970037E+01  0.19431097792E+02  0.63535776130E+02  0.66736115491E+02  0.41800000000E+01 0. -1.
</event>
<event>
11    1  0.5813833E-009  0.1350141E+03  0.7561462E-02  0.1113257E+00
         22   -1    0    0    0    0  0.00000000000E+00  0.00000000000E+00  0.25881091689E+04  0.25881091689E+04  0.00000000000E+00 0. -1.
         22   -1    0    0    0    0 -0.00000000000E+00 -0.00000000000E+00 -0.12813738428E+03  0.12813738428E+03  0.00000000000E+00 0.  1.
         24    2    1    2    0    0 -0.48935393273E+02  0.14843413690E+02 -0.94783979459E+02  0.13364979181E+03  0.79140788745E+02 0.  0.
         25    2    1    2    0    0  0.12355909968E+02  0.25128349170E+02  0.30713739454E+03  0.33281413039E+03  0.12509102214E+03 0.  0.
        -24    2    1    2    0    0  0.36579483305E+02 -0.39971762860E+02  0.22476183696E+04  0.22497826310E+04  0.82448475614E+02 0.  0.
        -11    1    3    3    0    0 -0.36497620834E+02 -0.20739555864E+02 -0.84853492728E+02  0.94669534340E+02  0.00000000000E+00 0.  1.
         12    1    3    3    0    0 -0.12437772439E+02  0.35582969553E+02 -0.99304867304E+01  0.38980257467E+02  0.00000000000E+00 0. -1.
         13    1    5    5    0    0  0.31462234420E+02 -0.56811066087E+02  0.21155765281E+04  0.21165730358E+04  0.00000000000E+00 0. -1.
        -14    1    5    5    0    0  0.51172488846E+01  0.16839303228E+02  0.13204184143E+03  0.13320959521E+03  0.00000000000E+00 0.  1.
          5    1    4    4  501    0  0.52166394647E+02  0.55772918316E+02  0.20756447622E+03  0.22120677055E+03  0.41800000000E+01 0.  1.
         -5    1    4    4    0  501 -0.39810484679E+02 -0.30644569146E+02  0.99572918313E+02  0.11160735984E+03  0.41800000000E+01 0.  1.
</event>
<event>
11    1  0.5813833E-009  0.1412804E+03  0.7561462E-02  0.1106137E+00
         22   -1    0    0    0    0  0.00000000000E+00  0.00000000000E+00  0.10350208046E+04  0.10350208046E+04  0.00000000000E+00 0.  1.
         22   -1    0    0    0    0 -0.00000000000E+00 -0.00000000000E+00 -0.22547353474E+03  0.22547353474E+03  0.00000000000E+00 0. -1.
         24    2    1    2    0    0 -0.61867006467E+02  0.24853566202E+02 -0.17410632118E+03  0.20071067550E+03  0.74340688355E+02 0.  0.
         25    2    1    2    0    0  0.53487125802E+02 -0.16907134519E+02  0.93786460734E+02  0.16610048194E+03  0.12508695400E+03 0.  0.
        -24    2    1    2    0    0  0.83798806652E+01 -0.79464316831E+01  0.88986713029E+03  0.89368318188E+03  0.81686913419E+02 0.  0.
        -13    1    3    3    0    0  0.26419987123E+01 -0.12699129195E+02 -0.20124295347E+01  0.13126229929E+02  0.00000000000E+00 0.  1.
         14    1    3    3    0    0 -0.64509005179E+02  0.37552695398E+02 -0.17209389164E+03  0.18758444557E+03  0.00000000000E+00 0. -1.
         13    1    5    5    0    0 -0.24335668497E+02 -0.77783257487E+01  0.10247945730E+03  0.10561612699E+03  0.00000000000E+00 0. -1.
        -14    1    5    5    0    0  0.32715549162E+02 -0.16810593436E+00  0.78738767299E+03  0.78806705489E+03  0.00000000000E+00 0.  1.
          5    1    4    4  501    0  0.62427813961E+02 -0.49689991417E+02  0.16519854543E+02  0.81588633995E+02  0.41800000000E+01 0. -1.
         -5    1    4    4    0  501 -0.89406881594E+01  0.32782856898E+02  0.77266606191E+02  0.84511847947E+02  0.41800000000E+01 0. -1.
</event>
<event>
11    1  0.5813833E-009  0.1279372E+03  0.7561462E-02  0.1121830E+00
         22   -1    0    0    0    0  0.00000000000E+00  0.00000000000E+00  0.28522099164E+03  0.28522099164E+03  0.00000000000E+00 0. -1.
         22   -1    0    0    0    0 -0.00000000000E+00 -0.00000000000E+00 -0.25841465648E+03  0.25841465648E+03  0.00000000000E+00 0. -1.
        -24    2    1    2    0    0  0.91692809618E+01  0.23987077306E+02 -0.18443051875E+03  0.20287428615E+03  0.80522693355E+02 0.  0.
         25    2    1    2    0    0 -0.13292145795E+02  0.56461290047E+01  0.15364763440E+02  0.12685453622E+03  0.12508971777E+03 0.  0.
         24    2    1    2    0    0  0.41228648335E+01 -0.29633206311E+02  0.19587209047E+03  0.21390682574E+03  0.80592365307E+02 0.  0.
        -11    1    5    5    0    0 -0.40272090890E+01 -0.87297826277E+01 -0.56422751547E+01  0.11147321952E+02  0.00000000000E+00 0.  1.
         12    1    5    5    0    0  0.81500739226E+01 -0.20903423683E+02  0.20151436562E+03  0.20275950379E+03  0.00000000000E+00 0. -1.
         13    1    3    3    0    0  0.50288160988E+01 -0.11933164111E+02 -0.15688678108E+03  0.15742030197E+03  0.00000000000E+00 0. -1.
        -14    1    3    3    0    0  0.41404648630E+01  0.35920241417E+02 -0.27543737671E+02  0.45453984178E+02  0.00000000000E+00 0.  1.
          5    1    4    4  501    0  0.54481683807E+02 -0.11457304588E+02  0.47608711014E+01  0.56032686822E+02  0.41800000000E+01 0. -1.
         -5    1    4    4    0  501 -0.67773829602E+02  0.17103433592E+02  0.10603892339E+02  0.70821849399E+02  0.41800000000E+01 0. -1.
</event>
<event>
11    1  0.5813833E-009  0.1410641E+03  0.7561462E-02  0.1106376E+00
         22   -1    0    0    0    0  0.00000000000E+00  0.00000000000E+00  0.11383359300E+04  0.11383359300E+04  0.00000000000E+00 0.  1.
         22   -1    0    0    0    0 -0.00000000000E+00 -0.00000000000E+00 -0.16211467324E+03  0.16211467324E+03  0.00000000000E+00 0.  1.
        -24    2    1    2    0    0 -0.45494139674E+01  0.30659319432E+02 -0.13023176361E+03  0.15642026301E+03  0.80909179905E+02 0.  0.
         25    2    1    2    0    0  0.51188092208E+02  0.19555612872E+02  0.28719510856E+03  0.31801332668E+03  0.12509517492E+03 0.  0.
         24    2    1    2    0    0 -0.46638678240E+02 -0.50214932304E+02  0.81925791179E+03  0.82601701353E+03  0.80149079000E+02 0.  0.
        -11    1    5    5    0    0 -0.16002701784E+02 -0.59363835604E+02  0.69490258489E+03  0.69761719727E+03  0.00000000000E+00 0.  1.
         12    1    5    5    0    0 -0.30635976456E+02  0.91489033004E+01  0.12435532691E+03  0.12839981626E+03  0.00000000000E+00 0. -1.
         11    1    3    3    0    0 -0.17597915352E+02  0.27590733317E+02 -0.83098778743E+01  0.33763726986E+02  0.00000000000E+00 0. -1.
        -12    1    3    3    0    0  0.13048501384E+02  0.30685861151E+01 -0.12192188573E+03  0.12265653603E+03  0.00000000000E+00 0.  1.
          5    1    4    4  501    0  0.63147626045E+02  0.24621181024E+01  0.28974357658E+03  0.29658472191E+03  0.41800000000E+01 0.  1.
         -5    1    4    4    0  501 -0.11959533838E+02  0.17093494770E+02 -0.25484680229E+01  0.21428604769E+02  0.41800000000E+01 0.  1.
</event>
<event>
11    1  0.5813833E-009  0.1589670E+03  0.7561462E-02  0.1088053E+00
         22   -1    0    0    0    0  0.00000000000E+00  0.00000000000E+00  0.12919308078E+04  0.12919308078E+04  0.00000000000E+00 0.  1.
         22   -1    0    0    0    0 -0.00000000000E+00 -0.00000000000E+00 -0.69157251571E+02  0.69157251571E+02  0.00000000000E+00 0.  1.
         24    2    1    2    0    0  0.90876514822E+02  0.25464949148E+02  0.33689613732E+02  0.12852870096E+03  0.80483739449E+02 0.  0.
         25    2    1    2    0    0 -0.12274983946E+03  0.11701728596E+02  0.38682162416E+03  0.42483263174E+03  0.12508933821E+03 0.  0.
        -24    2    1    2    0    0  0.31873324634E+02 -0.37166677743E+02  0.80226231835E+03  0.80772672669E+03  0.80002292480E+02 0.  0.
        -13    1    3    3    0    0  0.22197118495E+02 -0.68101989675E+01 -0.23857740429E+02  0.33290879499E+02  0.00000000000E+00 0.  1.
         14    1    3    3    0    0  0.68679396327E+02  0.32275148115E+02  0.57547354161E+02  0.95237821461E+02  0.00000000000E+00 0. -1.
         11    1    5    5    0    0 -0.92035675460E+01  0.14639132467E+02  0.57715272831E+02  0.60250000605E+02  0.00000000000E+00 0. -1.
        -12    1    5    5    0    0  0.41076892180E+02 -0.51805810210E+02  0.74454704552E+03  0.74747672608E+03  0.00000000000E+00 0.  1.
          5    1    4    4  501    0 -0.75822550479E+02 -0.30874550220E+02  0.32863482117E+03  0.33870431810E+03  0.41800000000E+01 0.  1.
         -5    1    4    4    0  501 -0.46927288977E+02  0.42576278816E+02  0.58186802992E+02  0.86128313643E+02  0.41800000000E+01 0.  1.
</event>
<event>
11    1  0.5813833E-009  0.1481530E+03  0.7561462E-02  0.1098781E+00
         22   -1    0    0    0    0  0.00000000000E+00  0.00000000000E+00  0.26793619012E+03  0.26793619012E+03  0.00000000000E+00 0. -1.
         22   -1    0    0    0    0 -0.00000000000E+00 -0.00000000000E+00 -0.51530917440E+03  0.51530917440E+03  0.00000000000E+00 0.  1.
         24    2    1    2    0    0 -0.59009032840E+02  0.53672302063E+02 -0.45968462662E+03  0.47340168768E+03  0.80227301995E+02 0.  0.
         25    2    1    2    0    0  0.45375366362E+02 -0.53720299948E+02  0.14401308742E+03  0.20330211954E+03  0.12508872036E+03 0.  0.
        -24    2    1    2    0    0  0.13633666477E+02  0.47997885532E-01  0.68298554913E+02  0.10654155731E+03  0.80625874662E+02 0.  0.
        -11    1    3    3    0    0 -0.60076071455E+02  0.47677813907E+02 -0.46086192639E+03  0.46720019637E+03  0.00000000000E+00 0.  1.
         12    1    3    3    0    0  0.10670386152E+01  0.59944881551E+01  0.11772997704E+01  0.62014913043E+01  0.00000000000E+00 0. -1.
         13    1    5    5    0    0  0.42022017053E+02  0.20520759868E+02  0.39654268303E+02  0.61314048124E+02  0.00000000000E+00 0. -1.
        -14    1    5    5    0    0 -0.28388350576E+02 -0.20472761982E+02  0.28644286610E+02  0.45227509184E+02  0.00000000000E+00 0.  1.
          5    1    4    4  501    0  0.14199716992E+02  0.34804193918E+02  0.83193242206E+02  0.91386825231E+02  0.41800000000E+01 0.  1.
         -5    1    4    4    0  501  0.31175649370E+02 -0.88524493866E+02  0.60819845218E+02  0.11191529431E+03  0.41800000000E+01 0.  1.
</event>
<event>
11    1  0.5813833E-009  0.2122259E+03  0.7561462E-02  0.1046200E+00
         22   -1    0    0    0    0  0.00000000000E+00  0.00000000000E+00  0.28318384568E+04  0.28318384568E+04  0.00000000000E+00 0. -1.
         22   -1    0    0    0    0 -0.00000000000E+00 -0.00000000000E+00 -0.17126421100E+03  0.17126421100E+03  0.00000000000E+00 0. -1.
        -24    2    1    2    0    0  0.39950807527E+01 -0.99791508455E+02 -0.72857364697E+02  0.14637003606E+03  0.78368909872E+02 0.  0.
         25    2    1    2    0    0 -0.42165752620E+02 -0.72994266030E+02  0.39733481061E+02  0.15599023689E+03  0.12509232959E+03 0.  0.
         24    2    1    2    0    0  0.38170671868E+02  0.17278577448E+03  0.26936981294E+04  0.27007423948E+04  0.81779867401E+02 0.  0.
        -11    1    5    5    0    0 -0.10773129868E+02  0.33858235533E+02  0.10064436157E+04  0.10070705993E+04  0.00000000000E+00 0.  1.
         12    1    5    5    0    0  0.48943801735E+02  0.13892753895E+03  0.16872545137E+04  0.16936717955E+04  0.00000000000E+00 0. -1.
         11    1    3    3    0    0  0.26113556473E+02 -0.82773255218E+02 -0.79479382623E+02  0.11768730549E+03  0.00000000000E+00 0. -1.
        -12    1    3    3    0    0 -0.22118475720E+02 -0.17018253237E+02  0.66220179252E+01  0.28682730568E+02  0.00000000000E+00 0.  1.
          5    1    4    4  501    0 -0.51792959333E+02 -0.40834415381E+02 -0.34399466701E+02  0.74503394724E+02  0.41800000000E+01 0. -1.
         -5    1    4    4    0  501  0.96272067130E+01 -0.32159850649E+02  0.74132947762E+02  0.81486842169E+02  0.41800000000E+01 0. -1.
</event>
<event>
11    1  0.5813833E-009  0.1430608E+03  0.7561462E-02  0.1104188E+00
         22   -1    0    0    0    0  0.00000000000E+00  0.00000000000E+00  0.92171690605E+02  0.92171690605E+02  0.00000000000E+00 0. -1.
         22   -1    0    0    0    0 -0.00000000000E+00 -0.00000000000E+00 -0.10392500811E+04  0.10392500811E+04  0.00000000000E+00 0. -1.
         24    2    1    2    0    0  0.26475436144E+02  0.18011322143E+02 -0.85460391754E+03  0.85900393698E+03  0.80712771150E+02 0.  0.
         25    2    1    2    0    0 -0.63467379111E+02 -0.63719029991E+02 -0.70206975372E+02  0.16931111355E+03  0.12509600627E+03 0.  0.
        -24    2    1    2    0    0  0.36991942968E+02  0.45707707848E+02 -0.22267497574E+02  0.10310672117E+03  0.81716314776E+02 0.  0.
        -11    1    3    3    0    0  0.90234831240E+01 -0.11073683608E+02 -0.25673965601E+02  0.29380303368E+02  0.00000000000E+00 0.  1.
         12    1    3    3    0    0  0.17451953020E+02  0.29085005751E+02 -0.82892995194E+03  0.82962363361E+03  0.00000000000E+00 0. -1.
         11    1    5    5    0    0  0.22145944611E+02  0.29657057414E+02  0.29227952412E+02  0.47162030484E+02  0.00000000000E+00 0. -1.
        -12    1    5    5    0    0  0.14845998357E+02  0.16050650434E+02 -0.51495449985E+02  0.55944690684E+02  0.00000000000E+00 0.  1.
          5    1    4    4  501    0  0.31007901109E+02 -0.14183147280E+02 -0.49992884315E+02  0.60658160869E+02  0.41800000000E+01 0.  1.
         -5    1    4    4    0  501 -0.94475280220E+02 -0.49535882712E+02 -0.20214091057E+02  0.10865295268E+03  0.41800000000E+01 0.  1.
</event>
<event>
11    1  0.5813833E-009  0.1347468E+03  0.7561462E-02  0.1113570E+00
         22   -1    0    0    0    0  0.00000000000E+00  0.00000000000E+00  0.19713159614E+03  0.19713159614E+03  0.00000000000E+00 0.  1.
         22   -1    0    0    0    0 -0.00000000000E+00 -0.00000000000E+00 -0.20363866368E+04  0.20363866368E+04  0.00000000000E+00 0.  1.
        -24    2    1    2    0    0  0.42956188133E+02 -0.27799507145E+02 -0.17456471393E+04  0.17480929296E+04  0.76986418689E+02 0.  0.
         25    2    1    2    0    0 -0.12639861091E+02  0.45636737511E+02 -0.26290948656E+03  0.29497560012E+03  0.12508688436E+03 0.  0.
         24    2    1    2    0    0 -0.30316327042E+02 -0.17837230367E+02  0.16930158518E+03  0.19044970330E+03  0.79817393267E+02 0.  0.
        -11    1    5    5    0    0 -0.28317107560E+02 -0.48412062183E+02  0.99479770703E+02  0.11420074923E+03  0.00000000000E+00 0.  1.
         12    1    5    5    0    0 -0.19992194815E+01  0.30574831816E+02  0.69821814481E+02  0.76248954069E+02  0.00000000000E+00 0. -1.
         11    1    3    3    0    0  0.70715734906E+01 -0.43612717528E+02 -0.53866151457E+03  0.54047044652E+03  0.00000000000E+00 0. -1.
        -12    1    3    3    0    0  0.35884614642E+02  0.15813210383E+02 -0.12069856248E+04  0.12076224830E+04  0.00000000000E+00 0.  1.
          5    1    4    4  501    0 -0.39130385833E+02  0.70052227355E+02 -0.10104153294E+03  0.12909440512E+03  0.41800000000E+01 0. -1.
         -5    1    4    4    0  501  0.26490524742E+02 -0.24415489844E+02 -0.16186795362E+03  0.16588119500E+03  0.41800000000E+01 0. -1.
</event>
<event>
11    1  0.5813833E-009  0.1448158E+03  0.7561462E-02  0.1102297E+00
         22   -1    0    0    0    0  0.00000000000E+00  0.00000000000E+00  0.38854601831E+03  0.38854601831E+03  0.00000000000E+00 0.  1.
         22   -1    0    0    0    0 -0.00000000000E+00 -0.00000000000E+00 -0.13159831937E+03  0.13159831937E+03  0.00000000000E+00 0.  1.
        -24    2    1    2    0    0 -0.71334226234E+02 -0.15584906665E+02 -0.53434004342E+02  0.12145436844E+03  0.81021661582E+02 0.  0.
         25    2    1    2    0    0  0.70351104338E+02  0.18776744553E+02  0.10559192256E+03  0.17916222038E+03  0.12509037967E+03 0.  0.
         24    2    1    2    0    0  0.98312189606E+00 -0.31918378874E+01  0.20478978071E+03  0.21952774885E+03  0.79009011343E+02 0.  0.
        -13    1    5    5    0    0 -0.18823459905E+02 -0.20996777704E+02  0.24723474396E+02  0.37502499956E+02  0.00000000000E+00 0.  1.
         14    1    5    5    0    0  0.19806581801E+02  0.17804939817E+02  0.18006630632E+03  0.18202524890E+03  0.00000000000E+00 0. -1.
         13    1    3    3    0    0 -0.11095077049E+02  0.30957994910E+02 -0.14318805574E+02  0.35868180560E+02  0.00000000000E+00 0. -1.
        -14    1    3    3    0    0 -0.60239149185E+02 -0.46542901575E+02 -0.39115198768E+02  0.85586187882E+02  0.00000000000E+00 0.  1.
          5    1    4    4  501    0  0.53760491966E+02 -0.77277373519E+00 -0.14861940964E+02  0.55938692914E+02  0.41800000000E+01 0. -1.
         -5    1    4    4    0  501  0.16590612372E+02  0.19549518288E+02  0.12045386352E+03  0.12322352747E+03  0.41800000000E+01 0. -1.
</event>
<event>
11    1  0.5813833E-009  0.1351986E+03  0.7561462E-02  0.1113042E+00
         22   -1    0    0    0    0  0.00000000000E+00  0.00000000000E+00  0.25186958999E+03  0.25186958999E+03  0.00000000000E+00 0.  1.
         22   -1    0    0    0    0 -0.00000000000E+00 -0.00000000000E+00 -0.22629565027E+03  0.22629565027E+03  0.00000000000E+00 0.  1.
        -24    2    1    2    0    0 -0.56927598891E+02 -0.42520807851E+01 -0.11850164772E+03  0.15380155096E+03  0.79708499279E+02 0.  0.
         25    2    1    2    0    0  0.93831658565E+01  0.38069756495E+02 -0.17590479519E+02  0.13226379258E+03  0.12508771202E+03 0.  0.
         24    2    1    2    0    0  0.47544433035E+02 -0.33817675710E+02  0.16166606696E+03  0.19209989672E+03  0.85804107203E+02 0.  0.
        -11    1    5    5    0    0  0.15052080985E+02 -0.16194510570E+02  0.15239582981E+03  0.15399128630E+03  0.00000000000E+00 0.  1.
         12    1    5    5    0    0  0.32492352050E+02 -0.17623165141E+02  0.92702371481E+01  0.38108610419E+02  0.00000000000E+00 0. -1.
         13    1    3    3    0    0  0.19798761496E+02 -0.61546876446E+00 -0.14685176415E+02  0.24658146015E+02  0.00000000000E+00 0. -1.
        -14    1    3    3    0    0 -0.76726360387E+02 -0.36366120206E+01 -0.10381647131E+03  0.12914340494E+03  0.00000000000E+00 0.  1.
          5    1    4    4  501    0  0.17698446688E+01  0.37868681733E+02 -0.69690520296E+02  0.79444385739E+02  0.41800000000E+01 0. -1.
         -5    1    4    4    0  501  0.76133211877E+01  0.20107476192E+00  0.52100040776E+02  0.52819406845E+02  0.41800000000E+01 0. -1.
</event>
<event>
11    1  0.5813833E-009  0.1253687E+03  0.7561462E-02  0.1125094E+00
         22   -1    0    0    0    0  0.00000000000E+00  0.00000000000E+00  0.24532992231E+03  0.24532992231E+03  0.00000000000E+00 0.  1.
         22   -1    0    0    0    0 -0.00000000000E+00 -0.00000000000E+00 -0.52972975927E+03  0.52972975927E+03  0.00000000000E+00 0. -1.
         24    2    1    2    0    0  0.40562163292E+00 -0.89213107417E+01 -0.44125252600E+03  0.44866179257E+03  0.80708476004E+02 0.  0.
         25    2    1    2    0    0 -0.13529130568E+02 -0.16089679412E+01 -0.24766752523E+02  0.12824643786E+03  0.12509248835E+03 0.  0.
        -24    2    1    2    0    0  0.13123508935E+02  0.10530278683E+02  0.18161944156E+03  0.19815145115E+03  0.77429082289E+02 0.  0.
        -13    1    3    3    0    0  0.36868043649E+02  0.15350645794E+01 -0.13095849577E+03  0.13605784314E+03  0.00000000000E+00 0.  1.
         14    1    3    3    0    0 -0.36462422016E+02 -0.10456375321E+02 -0.31029403023E+03  0.31260394943E+03  0.00000000000E+00 0. -1.
         13    1    5    5    0    0 -0.20860284628E+02 -0.23279202855E+02  0.74812003413E+02  0.81079643654E+02  0.00000000000E+00 0. -1.
        -14    1    5    5    0    0  0.33983793563E+02  0.33809481537E+02  0.10680743814E+03  0.11707180749E+03  0.00000000000E+00 0.  1.
          5    1    4    4  501    0  0.15674614867E+02 -0.20007288127E+02  0.44116818731E+02  0.51085724272E+02  0.41800000000E+01 0.  1.
         -5    1    4    4    0  501 -0.29203745435E+02  0.18398320186E+02 -0.68883571254E+02  0.77160713591E+02  0.41800000000E+01 0.  1.
</event>
<event>
11    1  0.5813833E-009  0.1287003E+03  0.7561462E-02  0.1120876E+00
         22   -1    0    0    0    0  0.00000000000E+00  0.00000000000E+00  0.76621664107E+02  0.76621664107E+02  0.00000000000E+00 0. -1.
         22   -1    0    0    0    0 -0.00000000000E+00 -0.00000000000E+00 -0.28751998658E+04  0.28751998658E+04  0.00000000000E+00 0.  1.
         24    2    1    2    0    0 -0.14275664827E+01 -0.25164464605E+02 -0.24496893301E+04  0.24511494079E+04  0.80748483195E+02 0.  0.
         25    2    1    2    0    0 -0.20718946775E+02  0.44150157772E+02 -0.38378338389E+03  0.40659043473E+03  0.12509030609E+03 0.  0.
        -24    2    1    2    0    0  0.22146513258E+02 -0.18985693167E+02  0.34894512320E+02  0.94081687269E+02  0.82357830804E+02 0.  0.
        -11    1    3    3    0    0 -0.24102704749E+02 -0.42728949081E+02 -0.19649037965E+04  0.19655161238E+04  0.00000000000E+00 0.  1.
         12    1    3    3    0    0  0.22675138266E+02  0.17564484476E+02 -0.48478553362E+03  0.48563328409E+03  0.00000000000E+00 0. -1.
         13    1    5    5    0    0  0.53556371542E+02 -0.15486683434E+02  0.23148669183E+02  0.60365413786E+02  0.00000000000E+00 0. -1.
        -14    1    5    5    0    0 -0.31409858285E+02 -0.34990097325E+01  0.11745843137E+02  0.33716273483E+02  0.00000000000E+00 0.  1.
          5    1    4    4  501    0 -0.57663106317E+02  0.62955229117E+02 -0.18942797322E+03  0.20781921024E+03  0.41800000000E+01 0. -1.
         -5    1    4    4    0  501  0.36944159542E+02 -0.18805071345E+02 -0.19435541067E+03  0.19877122450E+03  0.41800000000E+01 0. -1.
</event>
<event>
11    1  0.5813833E-009  0.1575050E+03  0.7561462E-02  0.1089448E+00
         22   -1    0    0    0    0  0.00000000000E+00  0.00000000000E+00  0.10040331255E+04  0.10040331255E+04  0.00000000000E+00 0. -1.
         22   -1    0    0    0    0 -0.00000000000E+00 -0.00000000000E+00 -0.21461489984E+03  0.21461489984E+03  0.00000000000E+00 0. -1.
        -24    2    1    2    0    0  0.45164796349E+02 -0.79960501053E+02 -0.12185770630E+03  0.17256420575E+03  0.80595061650E+02 0.  0.
         25    2    1    2    0    0  0.46599007179E+01  0.13029406784E+03  0.63426444459E+02  0.19149047795E+03  0.12508968982E+03 0.  0.
         24    2    1    2    0    0 -0.49824697067E+02 -0.50333566787E+02  0.84784948754E+03  0.85459334169E+03  0.80405582856E+02 0.  0.
        -13    1    5    5    0    0 -0.44075772614E+02 -0.62383866238E+02  0.44394062153E+03  0.45046386752E+03  0.00000000000E+00 0.  1.
         14    1    5    5    0    0 -0.57489244529E+01  0.12050299452E+02  0.40390886601E+03  0.40412947416E+03  0.00000000000E+00 0. -1.
         13    1    3    3    0    0 -0.17045400273E+02  0.24165125323E+01 -0.83417801669E+01  0.19130355450E+02  0.00000000000E+00 0. -1.
        -14    1    3    3    0    0  0.62210196622E+02 -0.82377013585E+02 -0.11351592613E+03  0.15343385030E+03  0.00000000000E+00 0.  1.
          5    1    4    4  501    0  0.43261538051E+02  0.11975652410E+03  0.77201782500E+02  0.14896567846E+03  0.41800000000E+01 0.  1.
         -5    1    4    4    0  501 -0.38601637333E+02  0.10537543742E+02 -0.13775338041E+02  0.42524799483E+02  0.41800000000E+01 0.  1.
</event>
<event>
11    1  0.5813833E-009  0.1339118E+03  0.7561462E-02  0.1114554E+00
         22   -1    0    0    0    0  0.00000000000E+00  0.00000000000E+00  0.49893594280E+03  0.49893594280E+03  0.00000000000E+00 0. -1.
         22   -1    0    0    0    0 -0.00000000000E+00 -0.00000000000E+00 -0.13815828350E+04  0.13815828350E+04  0.00000000000E+00 0.  1.
         24    2    1    2    0    0 -0.17809070154E+02 -0.21756762361E+02 -0.10360075111E+04  0.10395807809E+04  0.81400966915E+02 0.  0.
         25    2    1    2    0    0  0.91565105178E+01  0.68530637121E+02 -0.32427995896E+03  0.35437968964E+03  0.12508869949E+03 0.  0.
        -24    2    1    2    0    0  0.86525596363E+01 -0.46773874760E+02  0.47764057779E+03  0.48655830726E+03  0.79597755400E+02 0.  0.
        -11    1    3    3    0    0  0.11509086531E+02 -0.59579322157E+01 -0.87827734723E+03  0.87837295876E+03  0.00000000000E+00 0.  1.
         12    1    3    3    0    0 -0.29318156685E+02 -0.15798830145E+02 -0.15773016382E+03  0.16120782216E+03  0.00000000000E+00 0. -1.
         11    1    5    5    0    0 -0.26867809055E+02 -0.41402300043E+02  0.36515397385E+03  0.36847449604E+03  0.00000000000E+00 0. -1.
        -12    1    5    5    0    0  0.35520368691E+02 -0.53715747171E+01  0.11248660394E+03  0.11808381122E+03  0.00000000000E+00 0.  1.
          5    1    4    4  501    0 -0.37674680610E+02  0.72292290092E+02 -0.12281678075E+03  0.14746860954E+03  0.41800000000E+01 0. -1.
         -5    1    4    4    0  501  0.46831191128E+02 -0.37616529708E+01 -0.20146317821E+03  0.20691108010E+03  0.41800000000E+01 0. -1.
</event>
<event>
11    1  0.5813833E-009  0.2029412E+03  0.7561462E-02  0.1052463E+00
         22   -1    0    0    0    0  0.00000000000E+00  0.00000000000E+00  0.42877297257E+03  0.42877297257E+03  0.00000000000E+00 0. -1.
         22   -1    0    0    0    0 -0.00000000000E+00 -0.00000000000E+00 -0.92388421437E+03  0.92388421437E+03  0.00000000000E+00 0.  1.
         24    2    1    2    0    0  0.15829142519E+03 -0.30568574773E+01 -0.81858215462E+03  0.84005669179E+03  0.10272770758E+03 0.  0.
         25    2    1    2    0    0 -0.18145244430E+03  0.91652645301E+02  0.99669792226E+02  0.25866363299E+03  0.12509040977E+03 0.  0.
        -24    2    1    2    0    0  0.23161019109E+02 -0.88595787823E+02  0.22380112058E+03  0.25393686215E+03  0.77532844397E+02 0.  0.
        -11    1    3    3    0    0  0.13337765042E+03  0.26980122689E+02 -0.73896438342E+03  0.75138930297E+03  0.00000000000E+00 0.  1.
         12    1    3    3    0    0  0.24913774769E+02 -0.30036980167E+02 -0.79617771198E+02  0.88667388826E+02  0.00000000000E+00 0. -1.
         11    1    5    5    0    0  0.48431361611E+02 -0.62043230369E+02  0.11691403809E+03  0.14093917669E+03  0.00000000000E+00 0. -1.
        -12    1    5    5    0    0 -0.25270342502E+02 -0.26552557454E+02  0.10688708249E+03  0.11299768547E+03  0.00000000000E+00 0.  1.
          5    1    4    4  501    0 -0.16955488716E+03  0.11756302511E+03  0.71598731060E+02  0.21843483083E+03  0.41800000000E+01 0. -1.
         -5    1    4    4    0  501 -0.11897557141E+02 -0.25910379811E+02  0.28071061166E+02  0.40228802156E+02  0.41800000000E+01 0. -1.
</event>
<event>
11    1  0.5813833E-009  0.3349652E+03  0.7561462E-02  0.9863908E-01
         22   -1    0    0    0    0  0.00000000000E+00  0.00000000000E+00  0.79132176108E+03  0.79132176108E+03  0.00000000000E+00 0. -1.
         22   -1    0    0    0    0 -0.00000000000E+00 -0.00000000000E+00 -0.80204745429E+03  0.80204745429E+03  0.00000000000E+00 0.  1.
        -24    2    1    2    0    0  0.72285290079E+02  0.72582124621E+02 -0.56727875696E+03  0.58162130204E+03  0.77361637150E+02 0.  0.
         25    2    1    2    0    0  0.10439734694E+03 -0.32358510220E+03 -0.98662144794E+01  0.36242778833E+03  0.12510169922E+03 0.  0.
         24    2    1    2    0    0 -0.17668263702E+03  0.25100297758E+03  0.56641927823E+03  0.64932012500E+03  0.81034418604E+02 0.  0.
        -11    1    5    5    0    0 -0.34183199675E+01 -0.55967598332E+01  0.22661661802E+02  0.23591514315E+02  0.00000000000E+00 0.  1.
         12    1    5    5    0    0 -0.17326431705E+03  0.25659973742E+03  0.54375761643E+03  0.62572861069E+03  0.00000000000E+00 0. -1.
         13    1    3    3    0    0  0.78645580982E+02  0.84040483988E+02 -0.49984228210E+03  0.51292322752E+03  0.00000000000E+00 0. -1.
        -14    1    3    3    0    0 -0.63602909028E+01 -0.11458359367E+02 -0.67436474864E+02  0.68698074513E+02  0.00000000000E+00 0.  1.
          5    1    4    4  501    0  0.84262656534E+02 -0.10001139839E+03 -0.37763506210E+02  0.13618380923E+03  0.41800000000E+01 0.  1.
         -5    1    4    4    0  501  0.20134690403E+02 -0.22357370381E+03  0.27897291730E+02  0.22624397910E+03  0.41800000000E+01 0.  1.
</event>
<event>
11    1  0.5813833E-009  0.1730141E+03  0.7561462E-02  0.1075438E+00
         22   -1    0    0    0    0  0.00000000000E+00  0.00000000000E+00  0.20659262770E+03  0.20659262770E+03  0.00000000000E+00 0.  1.
         22   -1    0    0    0    0 -0.00000000000E+00 -0.00000000000E+00 -0.21332362962E+04  0.21332362962E+04  0.00000000000E+00 0. -1.
        -24    2    1    2    0    0 -0.21114130433E+02  0.56071003101E+02 -0.19688983999E+04  0.19714519946E+04  0.80450566516E+02 0.  0.
         25    2    1    2    0    0 -0.82307810516E+02  0.28683085602E+02 -0.68088691317E+02  0.16697662236E+03  0.12509127650E+03 0.  0.
         24    2    1    2    0    0  0.10342194095E+03 -0.84754088703E+02  0.11034342277E+03  0.20140030698E+03  0.10250394765E+03 0.  0.
        -13    1    5    5    0    0 -0.69254937841E+01 -0.51303900673E+02  0.46569656730E+02  0.69633222074E+02  0.00000000000E+00 0.  1.
         14    1    5    5    0    0  0.11034743473E+03 -0.33450188030E+02  0.63773766036E+02  0.13176708491E+03  0.00000000000E+00 0. -1.
         13    1    3    3    0    0  0.13453937817E+02  0.61504118675E+02 -0.14565444919E+04  0.14579045311E+04  0.00000000000E+00 0. -1.
        -14    1    3    3    0    0 -0.34568068250E+02 -0.54331155738E+01 -0.51235390805E+03  0.51354746342E+03  0.00000000000E+00 0.  1.
          5    1    4    4  501    0 -0.70351896192E+02  0.24207788942E+02  0.20571158117E+02  0.77304924096E+02  0.41800000000E+01 0.  1.
         -5    1    4    4    0  501 -0.11955914324E+02  0.44752966607E+01 -0.88659849434E+02  0.89671698262E+02  0.41800000000E+01 0.  1.
</event>
<event>
11    1  0.5813833E-009  0.1763643E+03  0.7561462E-02  0.1072622E+00
         22   -1    0    0    0    0  0.00000000000E+00  0.00000000000E+00  0.10099148258E+04  0.10099148258E+04  0.00000000000E+00 0. -1.
         22   -1    0    0    0    0 -0.00000000000E+00 -0.00000000000E+00 -0.10937758509E+04  0.10937758509E+04  0.00000000000E+00 0. -1.
         24    2    1    2    0    0  0.91699911584E+02 -0.84042203578E+02 -0.10674922837E+04  0.10777648697E+04  0.81026989176E+02 0.  0.
         25    2    1    2    0    0 -0.59957812177E+02  0.11034181129E+03  0.44124035342E+03  0.47551132092E+03  0.12509081610E+03 0.  0.
        -24    2    1    2    0    0 -0.31742099408E+02 -0.26299607711E+02  0.54239090517E+03  0.55041448606E+03  0.84077239520E+02 0.  0.
        -13    1    3    3    0    0  0.13108613669E+02  0.97840528922E+01 -0.43320787945E+02  0.46306091516E+02  0.00000000000E+00 0.  1.
         14    1    3    3    0    0  0.78591297916E+02 -0.93826256470E+02 -0.10241714957E+04  0.10314587782E+04  0.00000000000E+00 0. -1.
         13    1    5    5    0    0 -0.48641144449E+02 -0.45476691518E+02  0.34418646021E+03  0.35056869483E+03  0.00000000000E+00 0. -1.
        -14    1    5    5    0    0  0.16899045041E+02  0.19177083807E+02  0.19820444496E+03  0.19984579123E+03  0.00000000000E+00 0.  1.
          5    1    4    4  501    0 -0.21149610299E+02 -0.13287970434E+01  0.32692685153E+01  0.21845645654E+02  0.41800000000E+01 0.  1.
         -5    1    4    4    0  501 -0.38808201877E+02  0.11167060833E+03  0.43797108490E+03  0.45366567526E+03  0.41800000000E+01 0.  1.
</event>
<event>
11    1  0.5813833E-009  0.1569272E+03  0.7561462E-02  0.1090003E+00
         22   -1    0    0    0    0  0.00000000000E+00  0.00000000000E+00  0.98112750770E+02  0.98112750770E+02  0.00000000000E+00 0. -1.
         22   -1    0    0    0    0 -0.00000000000E+00 -0.00000000000E+00 -0.27796434974E+04  0.27796434974E+04  0.00000000000E+00 0.  1.
         24    2    1    2    0    0  0.26396920379E+01 -0.58224846893E+01 -0.21689106262E+04  0.21704484095E+04  0.81437856487E+02 0.  0.
         25    2    1    2    0    0 -0.72398452637E+02  0.69328438782E+02 -0.55437626268E+03  0.57708518684E+03  0.12508518648E+03 0.  0.
        -24    2    1    2    0    0  0.69758760599E+02 -0.63505954092E+02  0.41756142235E+02  0.13022265187E+03  0.79467432065E+02 0.  0.
        -11    1    3    3    0    0  0.33003355416E+02  0.61292318395E+01 -0.17303217862E+04  0.17306473565E+04  0.00000000000E+00 0.  1.
         12    1    3    3    0    0 -0.30363663378E+02 -0.11951716529E+02 -0.43858884001E+03  0.43980105294E+03  0.00000000000E+00 0. -1.
         13    1    5    5    0    0  0.71279482961E+02 -0.64334574190E+02  0.59128149982E+02  0.11276453453E+03  0.00000000000E+00 0. -1.
        -14    1    5    5    0    0 -0.15207223622E+01  0.82862009708E+00 -0.17372007747E+02  0.17458117336E+02  0.00000000000E+00 0.  1.
          5    1    4    4  501    0 -0.93492217725E+02  0.22720953589E+02 -0.45669908804E+03  0.46674250495E+03  0.41800000000E+01 0. -1.
         -5    1    4    4    0  501  0.21093765088E+02  0.46607485193E+02 -0.97677174644E+02  0.11034268190E+03  0.41800000000E+01 0. -1.
</event>
<event>
11    1  0.5813833E-009  0.1512683E+03  0.7561462E-02  0.1095590E+00
         22   -1    0    0    0    0  0.00000000000E+00  0.00000000000E+00  0.11789386479E+03  0.11789386479E+03  0.00000000000E+00 0.  1.
         22   -1    0    0    0    0 -0.00000000000E+00 -0.00000000000E+00 -0.79639143556E+03  0.79639143556E+03  0.00000000000E+00 0.  1.
        -24    2    1    2    0    0  0.72934133767E+02  0.39805717040E+02 -0.58761232687E+03  0.59887421527E+03  0.80362902129E+02 0.  0.
         25    2    1    2    0    0 -0.83022302585E+02 -0.50347912902E+02 -0.14907049823E+03  0.21747859244E+03  0.12508920685E+03 0.  0.
         24    2    1    2    0    0  0.10088168818E+02  0.10542195862E+02  0.58185254326E+02  0.97932492637E+02  0.77410207657E+02 0.  0.
        -11    1    5    5    0    0 -0.22447878461E+02  0.18288307112E+02  0.57615858136E+02  0.64482218737E+02  0.00000000000E+00 0.  1.
         12    1    5    5    0    0  0.32536047279E+02 -0.77461112499E+01  0.56939618932E+00  0.33450273901E+02  0.00000000000E+00 0. -1.
         13    1    3    3    0    0  0.45664399885E+02  0.53718239468E+01 -0.10967967157E+03  0.11892739073E+03  0.00000000000E+00 0. -1.
        -14    1    3    3    0    0  0.27269733883E+02  0.34433893093E+02 -0.47793265530E+03  0.47994682454E+03  0.00000000000E+00 0.  1.
          5    1    4    4  501    0  0.10009717441E+02 -0.61254644187E+02 -0.41498405700E+02  0.74779114420E+02  0.41800000000E+01 0.  1.
         -5    1    4    4    0  501 -0.93032020027E+02  0.10906731285E+02 -0.10757209253E+03  0.14269947802E+03  0.41800000000E+01 0.  1.
</event>
<event>
11    1  0.5813833E-009  0.1382663E+03  0.7561462E-02  0.1109510E+00
         22   -1    0    0    0    0  0.00000000000E+00  0.00000000000E+00  0.60474588250E+03  0.60474588250E+03  0.00000000000E+00 0. -1.
         22   -1    0    0    0    0 -0.00000000000E+00 -0.00000000000E+00 -0.18729900671E+03  0.18729900671E+03  0.00000000000E+00 0.  1.
        -24    2    1    2    0    0  0.38230768724E+02  0.47604175259E+02 -0.14309416033E+03  0.17497266366E+03  0.80073373404E+02 0.  0.
         25    2    1    2    0    0 -0.38879765433E+02 -0.12023956544E+02  0.16065377418E+03  0.20763798499E+03  0.12509071094E+03 0.  0.
         24    2    1    2    0    0  0.64899670887E+00 -0.35580218715E+02  0.39988726194E+03  0.40943424056E+03  0.80375381303E+02 0.  0.
        -13    1    5    5    0    0  0.65966356457E+01  0.16915379242E+02  0.25305091242E+02  0.31144715435E+02  0.00000000000E+00 0.  1.
         14    1    5    5    0    0 -0.59476389368E+01 -0.52495597957E+02  0.37458217070E+03  0.37828952512E+03  0.00000000000E+00 0. -1.
         13    1    3    3    0    0  0.29723402488E+02  0.53381661024E+02 -0.43870958471E+02  0.75217972495E+02  0.00000000000E+00 0. -1.
        -14    1    3    3    0    0  0.85073662357E+01 -0.57774857648E+01 -0.99223201861E+02  0.99754691166E+02  0.00000000000E+00 0.  1.
          5    1    4    4  501    0  0.11450317409E+02 -0.16816580950E+01  0.15532523619E+03  0.15581187098E+03  0.41800000000E+01 0.  1.
         -5    1    4    4    0  501 -0.50330082841E+02 -0.10342298449E+02  0.53285379907E+01  0.51826114008E+02  0.41800000000E+01 0.  1.
</event>
<event>
11    1  0.5813833E-009  0.1425929E+03  0.7561462E-02  0.1104697E+00
         22   -1    0    0    0    0  0.00000000000E+00  0.00000000000E+00  0.10965765538E+03  0.10965765538E+03  0.00000000000E+00 0.  1.
         22   -1    0    0    0    0 -0.00000000000E+00 -0.00000000000E+00 -0.12715074753E+04  0.12715074753E+04  0.00000000000E+00 0. -1.
        -24    2    1    2    0    0 -0.62562524869E+02  0.26038643222E+02 -0.86597466160E+03  0.87219695048E+03  0.78888056335E+02 0.  0.
         25    2    1    2    0    0  0.58841588760E+02 -0.43189248297E+02 -0.37068548735E+03  0.39797741248E+03  0.12510254424E+03 0.  0.
         24    2    1    2    0    0  0.37209361095E+01  0.17150605075E+02  0.74810329054E+02  0.11099076769E+03  0.80089803089E+02 0.  0.
        -11    1    5    5    0    0 -0.33427758444E+02 -0.89461917485E+00  0.56848550437E+02  0.65954325596E+02  0.00000000000E+00 0.  1.
         12    1    5    5    0    0  0.37148694553E+02  0.18045224250E+02  0.17961778618E+02  0.45036442092E+02  0.00000000000E+00 0. -1.
         11    1    3    3    0    0 -0.31170297209E+02  0.32448068089E+02 -0.76362800064E+03  0.76495240892E+03  0.00000000000E+00 0. -1.
        -12    1    3    3    0    0 -0.31392227660E+02 -0.64094248673E+01 -0.10234666097E+03  0.10724454157E+03  0.00000000000E+00 0.  1.
          5    1    4    4  501    0  0.94918755703E+02 -0.35668619626E+02 -0.21233108868E+03  0.23533759630E+03  0.41800000000E+01 0. -1.
         -5    1    4    4    0  501 -0.36077166943E+02 -0.75206286705E+01 -0.15835439867E+03  0.16263981619E+03  0.41800000000E+01 0. -1.
</event>
<event>
11    1  0.5813833E-009  0.1763858E+03  0.7561462E-02  0.1072604E+00
         22   -1    0    0    0    0  0.00000000000E+00  0.00000000000E+00  0.11477422242E+03  0.11477422242E+03  0.00000000000E+00 0. -1.
         22   -1    0    0    0    0 -0.00000000000E+00 -0.00000000000E+00 -0.77219453572E+03  0.77219453572E+03  0.00000000000E+00 0.  1.
         24    2    1    2    0    0  0.13990686326E+03 -0.25599787112E+02 -0.38522142417E+03  0.41854541969E+03  0.80965691639E+02 0.  0.
         25    2    1    2    0    0 -0.10543142116E+03 -0.14952693324E+02 -0.32089104601E+03  0.36049714984E+03  0.12509102296E+03 0.  0.
        -24    2    1    2    0    0 -0.34475442102E+02  0.40552480436E+02  0.48692156881E+02  0.10792618861E+03  0.80275004013E+02 0.  0.
        -11    1    3    3    0    0  0.12280388664E+03  0.69208279220E+01 -0.25301170653E+03  0.28132475197E+03  0.00000000000E+00 0.  1.
         12    1    3    3    0    0  0.17102976619E+02 -0.32520615034E+02 -0.13220971764E+03  0.13722066772E+03  0.00000000000E+00 0. -1.
         11    1    5    5    0    0  0.13751362967E+02  0.22370388826E+02  0.49882587536E+02  0.56372039337E+02  0.00000000000E+00 0. -1.
        -12    1    5    5    0    0 -0.48226805069E+02  0.18182091610E+02 -0.11904306552E+01  0.51554149276E+02  0.00000000000E+00 0.  1.
          5    1    4    4  501    0 -0.60142688602E+02 -0.70222856411E+02 -0.18850395079E+03  0.20999905814E+03  0.41800000000E+01 0.  1.
         -5    1    4    4    0  501 -0.45288732555E+02  0.55270163088E+02 -0.13238709522E+03  0.15049809170E+03  0.41800000000E+01 0.  1.
</event>
<event>
11    1  0.5813833E-009  0.1646528E+03  0.7561462E-02  0.1082781E+00
         22   -1    0    0    0    0  0.00000000000E+00  0.00000000000E+00  0.48367654999E+03  0.48367654999E+03  0.00000000000E+00 0.  1.
         22   -1    0    0    0    0 -0.00000000000E+00 -0.00000000000E+00 -0.22483444641E+03  0.22483444641E+03  0.00000000000E+00 0.  1.
         24    2    1    2    0    0 -0.19664276307E+02  0.11375486807E+02 -0.11483230155E+03  0.14321764389E+03  0.82515153638E+02 0.  0.
         25    2    1    2    0    0 -0.87745492839E+02 -0.30861172596E+02 -0.12099320119E+02  0.15633911678E+03  0.12507534689E+03 0.  0.
        -24    2    1    2    0    0  0.10740976915E+03  0.19485685789E+02  0.38577372525E+03  0.40895423573E+03  0.80657605782E+02 0.  0.
        -13    1    3    3    0    0  0.19468139354E+02  0.14072903830E+02 -0.97355063702E+02  0.10027493954E+03  0.00000000000E+00 0.  1.
         14    1    3    3    0    0 -0.39132415661E+02 -0.26974170222E+01 -0.17477237851E+02  0.42942704350E+02  0.00000000000E+00 0. -1.
         13    1    5    5    0    0  0.58083099265E+02 -0.16052319615E+02  0.99737274590E+02  0.11652831127E+03  0.00000000000E+00 0. -1.
        -14    1    5    5    0    0  0.49326669881E+02  0.35538005404E+02  0.28603645066E+03  0.29242592446E+03  0.00000000000E+00 0.  1.
          5    1    4    4  501    0  0.16085722459E+02 -0.23916049794E+01 -0.41404961904E+02  0.44680124347E+02  0.41800000000E+01 0.  1.
         -5    1    4    4    0  501 -0.10383121530E+03 -0.28469567617E+02  0.29305641785E+02  0.11165899243E+03  0.41800000000E+01 0.  1.
</event>
<event>
11    1  0.5813833E-009  0.1290100E+03  0.7561462E-02  0.1120491E+00
         22   -1    0    0    0    0  0.00000000000E+00  0.00000000000E+00  0.80164235014E+03  0.80164235014E+03  0.00000000000E+00 0.  1.
         22   -1    0    0    0    0 -0.00000000000E+00 -0.00000000000E+00 -0.13752684622E+03  0.13752684622E+03  0.00000000000E+00 0. -1.
         24    2    1    2    0    0 -0.21029823347E+02 -0.23774775641E+02 -0.77245652143E+02  0.11535262583E+03  0.79572885363E+02 0.  0.
         25    2    1    2    0    0  0.25712608576E+02  0.17781510583E+02  0.68856250392E+02  0.14617295101E+03  0.12509207820E+03 0.  0.
        -24    2    1    2    0    0 -0.46827852291E+01  0.59932650583E+01  0.67250490568E+03  0.67764361952E+03  0.82946845690E+02 0.  0.
        -11    1    3    3    0    0  0.20845015684E+02  0.12893098509E+02 -0.65403225000E+01  0.25367745001E+02  0.00000000000E+00 0.  1.
         12    1    3    3    0    0 -0.41874839031E+02 -0.36667874150E+02 -0.70705329643E+02  0.89984880833E+02  0.00000000000E+00 0. -1.
         13    1    5    5    0    0 -0.11373265393E+02 -0.14449969521E+02  0.33004883549E+02  0.37781941758E+02  0.00000000000E+00 0. -1.
        -14    1    5    5    0    0  0.66904801638E+01  0.20443234579E+02  0.63950002213E+03  0.63986167776E+03  0.00000000000E+00 0.  1.
          5    1    4    4  501    0  0.52244073502E+02  0.47221869931E+02  0.78119627458E+02  0.10525918872E+03  0.41800000000E+01 0.  1.
         -5    1    4    4    0  501 -0.26531464926E+02 -0.29440359349E+02 -0.92633770659E+01  0.40913762286E+02  0.41800000000E+01 0.  1.
</event>
<event>
11    1  0.5813833E-009  0.1465310E+03  0.7561462E-02  0.1100477E+00
         22   -1    0    0    0    0  0.00000000000E+00  0.00000000000E+00  0.19590279748E+03  0.19590279748E+03  0.00000000000E+00 0.  1.
         22   -1    0    0    0    0 -0.00000000000E+00 -0.00000000000E+00 -0.46601922035E+03  0.46601922035E+03  0.00000000000E+00 0.  1.
        -24    2    1    2    0    0  0.69646755372E+02 -0.46240003610E+02 -0.33831744077E+03  0.35873976998E+03  0.85127688616E+02 0.  0.
         25    2    1    2    0    0 -0.44889088586E+02  0.14758700600E+02 -0.61457370147E+02  0.14716265337E+03  0.12508792381E+03 0.  0.
         24    2    1    2    0    0 -0.24757666786E+02  0.31481303011E+02  0.12965838805E+03  0.15601959449E+03  0.76985724451E+02 0.  0.
        -11    1    5    5    0    0  0.29108091239E+01  0.28312184406E+02  0.12448071637E+03  0.12769299646E+03  0.00000000000E+00 0.  1.
         12    1    5    5    0    0 -0.27668475910E+02  0.31691186046E+01  0.51776716722E+01  0.28326598029E+02  0.00000000000E+00 0. -1.
         13    1    3    3    0    0  0.75967156624E+02 -0.14236858025E+02 -0.16278305898E+03  0.18019994812E+03  0.00000000000E+00 0. -1.
        -14    1    3    3    0    0 -0.63204012518E+01 -0.32003145585E+02 -0.17553438179E+03  0.17853982186E+03  0.00000000000E+00 0.  1.
          5    1    4    4  501    0  0.27948036168E+02 -0.23724790870E+02 -0.52533817682E+02  0.64196828798E+02  0.41800000000E+01 0.  1.
         -5    1    4    4    0  501 -0.72837124754E+02  0.38483491469E+02 -0.89235524653E+01  0.82965824571E+02  0.41800000000E+01 0.  1.
</event>
<event>
11    1  0.5813833E-009  0.1516676E+03  0.7561462E-02  0.1095187E+00
         22   -1    0    0    0    0  0.00000000000E+00  0.00000000000E+00  0.78136293822E+02  0.78136293822E+02  0.00000000000E+00 0. -1.
         22   -1    0    0    0    0 -0.00000000000E+00 -0.00000000000E+00 -0.12184839074E+04  0.12184839074E+04  0.00000000000E+00 0. -1.
        -24    2    1    2    0    0  0.60019643896E+02 -0.60014345079E+02 -0.99703255361E+03  0.10038761503E+04  0.80556396329E+02 0.  0.
         25    2    1    2    0    0 -0.51697562618E+02  0.84984611368E+02 -0.10679850949E+03  0.19221836593E+03  0.12508779485E+03 0.  0.
         24    2    1    2    0    0 -0.83220812783E+01 -0.24970266289E+02 -0.36516550534E+02  0.10052568501E+03  0.89884279210E+02 0.  0.
        -11    1    5    5    0    0 -0.67734806419E+01 -0.16129167442E+02 -0.66741547387E+02  0.68996117500E+02  0.00000000000E+00 0.  1.
         12    1    5    5    0    0 -0.15486006364E+01 -0.88410988472E+01  0.30224996854E+02  0.31529567513E+02  0.00000000000E+00 0. -1.
         11    1    3    3    0    0  0.47921948926E+02 -0.72491880871E+02 -0.94564177197E+03  0.94962621430E+03  0.00000000000E+00 0. -1.
        -12    1    3    3    0    0  0.12097694970E+02  0.12477535792E+02 -0.51390781632E+02  0.54249936035E+02  0.00000000000E+00 0.  1.
          5    1    4    4  501    0 -0.40530749751E+02  0.11176677819E+03 -0.11087470779E+03  0.16261988688E+03  0.41800000000E+01 0. -1.
         -5    1    4    4    0  501 -0.11166812867E+02 -0.26782166821E+02  0.40761982996E+01  0.29598479045E+02  0.41800000000E+01 0. -1.
</event>
<event>
11    1  0.5813833E-009  0.1992968E+03  0.7561462E-02  0.1055022E+00
         22   -1    0    0    0    0  0.00000000000E+00  0.00000000000E+00  0.15211373995E+03  0.15211373995E+03  0.00000000000E+00 0.  1.
         22   -1    0    0    0    0 -0.00000000000E+00 -0.00000000000E+00 -0.31255174400E+04  0.31255174400E+04  0.00000000000E+00 0.  1.
        -24    2    1    2    0    0  0.11934285020E+03 -0.10875475824E+03 -0.29107028426E+04  0.29162538246E+04  0.79215011831E+02 0.  0.
         25    2    1    2    0    0 -0.71844197693E+02  0.45066252495E+02 -0.14984343331E+03  0.21282269103E+03  0.12509151632E+03 0.  0.
         24    2    1    2    0    0 -0.47498652503E+02  0.63688505744E+02  0.87142575922E+02  0.14855466428E+03  0.90345514489E+02 0.  0.
        -13    1    5    5    0    0  0.71656152012E+01  0.24057370347E+02  0.76107077253E+02  0.80139817302E+02  0.00000000000E+00 0.  1.
         14    1    5    5    0    0 -0.54664267704E+02  0.39631135397E+02  0.11035498670E+02  0.68414846981E+02  0.00000000000E+00 0. -1.
         13    1    3    3    0    0  0.73308327682E+02 -0.96957478469E+02 -0.15654879980E+04  0.15701998394E+04  0.00000000000E+00 0. -1.
        -14    1    3    3    0    0  0.46034522514E+02 -0.11797279770E+02 -0.13452148446E+04  0.13460539853E+04  0.00000000000E+00 0.  1.
          5    1    4    4  501    0  0.23122524905E+02 -0.23490804136E+02 -0.42010399518E+02  0.53561320975E+02  0.41800000000E+01 0. -1.
         -5    1    4    4    0  501 -0.94966722599E+02  0.68557056630E+02 -0.10783303379E+03  0.15926137006E+03  0.41800000000E+01 0. -1.
</event>
<event>
11    1  0.5813833E-009  0.1287915E+03  0.7561462E-02  0.1120763E+00
         22   -1    0    0    0    0  0.00000000000E+00  0.00000000000E+00  0.15432293563E+03  0.15432293563E+03  0.00000000000E+00 0.  1.
         22   -1    0    0    0    0 -0.00000000000E+00 -0.00000000000E+00 -0.80236782214E+03  0.80236782214E+03  0.00000000000E+00 0. -1.
         24    2    1    2    0    0  0.32943470745E+02  0.10768062186E+02 -0.62711895445E+03  0.63318830535E+03  0.80299586396E+02 0.  0.
         25    2    1    2    0    0 -0.26006782340E+02 -0.40039977049E+02 -0.12369457101E+03  0.18228511204E+03  0.12509181702E+03 0.  0.
        -24    2    1    2    0    0 -0.69366884051E+01  0.29271914863E+02  0.10276863896E+03  0.14121734038E+03  0.92065093409E+02 0.  0.
        -11    1    3    3    0    0 -0.70421505169E+00  0.26049650683E+02 -0.67578676210E+02  0.72428983825E+02  0.00000000000E+00 0.  1.
         12    1    3    3    0    0  0.33647685797E+02 -0.15281588497E+02 -0.55954027824E+03  0.56075932153E+03  0.00000000000E+00 0. -1.
         11    1    5    5    0    0  0.41183360833E+02  0.29351607904E+01  0.52698182304E+02  0.66946118607E+02  0.00000000000E+00 0. -1.
        -12    1    5    5    0    0 -0.48120049238E+02  0.26336754073E+02  0.50070456653E+02  0.74271221770E+02  0.00000000000E+00 0.  1.
          5    1    4    4  501    0  0.13356355240E+02 -0.27788829971E+02 -0.13563831700E+03  0.13916118976E+03  0.41800000000E+01 0. -1.
         -5    1    4    4    0  501 -0.39363137580E+02 -0.12251147078E+02  0.11943745987E+02  0.43123922283E+02  0.41800000000E+01 0. -1.
</event>
<event>
11    1  0.5813833E-009  0.1768266E+03  0.7561462E-02  0.1072239E+00
         22   -1    0    0    0    0  0.00000000000E+00  0.00000000000E+00  0.13601890417E+03  0.13601890417E+03  0.00000000000E+00 0.  1.
         22   -1    0    0    0    0 -0.00000000000E+00 -0.00000000000E+00 -0.15525042824E+04  0.15525042824E+04  0.00000000000E+00 0. -1.
         24    2    1    2    0    0 -0.99064092765E+02  0.59314467109E+02 -0.10005100389E+04  0.10100873119E+04  0.76968430559E+02 0.  0.
         25    2    1    2    0    0  0.15429908666E+03 -0.64888910922E+02 -0.50630385748E+03  0.54773206536E+03  0.12509212774E+03 0.  0.
        -24    2    1    2    0    0 -0.55234993891E+02  0.55744438135E+01  0.90328518140E+02  0.13070380929E+03  0.76434714629E+02 0.  0.
        -11    1    3    3    0    0 -0.25571783269E+02 -0.54600503102E+01 -0.75409175037E+02  0.79813983290E+02  0.00000000000E+00 0.  1.
         12    1    3    3    0    0 -0.73492309497E+02  0.64774517419E+02 -0.92510086384E+03  0.93027332862E+03  0.00000000000E+00 0. -1.
         13    1    5    5    0    0  0.73811802948E+01 -0.12992070600E+02  0.53874117694E+02  0.55907926793E+02  0.00000000000E+00 0. -1.
        -14    1    5    5    0    0 -0.62616174185E+02  0.18566514413E+02  0.36454400446E+02  0.74795882500E+02  0.00000000000E+00 0.  1.
          5    1    4    4  501    0  0.81621303607E+02 -0.69487238521E+02 -0.42576347101E+03  0.43907006180E+03  0.41800000000E+01 0.  1.
         -5    1    4    4    0  501  0.72677783049E+02  0.45983275990E+01 -0.80540386465E+02  0.10866200356E+03  0.41800000000E+01 0.  1.
</event>
<event>
11    1  0.5813833E-009  0.1946934E+03  0.7561462E-02  0.1058341E+00
         22   -1    0    0    0    0  0.00000000000E+00  0.00000000000E+00  0.53982809220E+03  0.53982809220E+03  0.00000000000E+00 0.  1.
         22   -1    0    0    0    0 -0.00000000000E+00 -0.00000000000E+00 -0.10406860353E+04  0.10406860353E+04  0.00000000000E+00 0.  1.
        -24    2    1    2    0    0  0.66971129017E+02 -0.12725847829E+03 -0.80571314376E+03  0.82224128548E+03  0.78912667540E+02 0.  0.
         25    2    1    2    0    0  0.34239100206E+01  0.22139977650E+03 -0.14057822672E+03  0.29058413769E+03  0.12508924438E+03 0.  0.
         24    2    1    2    0    0 -0.70395039037E+02 -0.94141298210E+02  0.44543342743E+03  0.46768870428E+03  0.80645770445E+02 0.  0.
        -11    1    5    5    0    0 -0.87702545972E+02 -0.86710003969E+02  0.37378731724E+03  0.39360807904E+03  0.00000000000E+00 0.  1.
         12    1    5    5    0    0  0.17307506935E+02 -0.74312942409E+01  0.71646110191E+02  0.74080625239E+02  0.00000000000E+00 0. -1.
         13    1    3    3    0    0 -0.10160943954E+02  0.46800646720E+01 -0.52095530728E+02  0.53283131563E+02  0.00000000000E+00 0. -1.
        -14    1    3    3    0    0  0.77132072970E+02 -0.13193854296E+03 -0.75361761303E+03  0.76895815392E+03  0.00000000000E+00 0.  1.
          5    1    4    4  501    0  0.41769241285E+02  0.20632459719E+03 -0.13132377705E+03  0.24814897893E+03  0.41800000000E+01 0. -1.
         -5    1    4    4    0  501 -0.38345331264E+02  0.15075179304E+02 -0.92544496696E+01  0.42435158766E+02  0.41800000000E+01 0. -1.
</event>
<event>
11    1  0.1026001E-008  0.1760769E+03  0.7561462E-02  0.1072861E+00
         22   -1    0    0    0    0  0.00000000000E+00  0.00000000000E+00  0.12919329538E+04  0.12919329538E+04  0.00000000000E+00 0. -1.
         22   -1    0    0    0    0 -0.00000000000E+00 -0.00000000000E+00 -0.25739622668E+03  0.25739622668E+03  0.00000000000E+00 0.  1.
         24    2    1    2    0    0 -0.63879683159E+01  0.51858204902E+02 -0.13868820286E+03  0.16859023994E+03  0.80362751540E+02 0.  0.
         25    2    1    2    0    0 -0.94446191521E+02 -0.12197500076E+03  0.31247430809E+00  0.19861051812E+03  0.12509219146E+03 0.  0.
        -24    2    1    2    0    0  0.10083415984E+03  0.70116795856E+02  0.11729124557E+04  0.11821284224E+04  0.81363908353E+02 0.  0.
        -13    1    3    3    0    0 -0.22620449981E+02  0.63748877027E+02 -0.13025695343E+03  0.14677356027E+03  0.00000000000E+00 0.  1.
         14    1    3    3    0    0  0.16232481666E+02 -0.11890672126E+02 -0.84312494374E+01  0.21816679667E+02  0.00000000000E+00 0. -1.
         13    1    5    5    0    0 -0.69252062958E+01  0.56006180166E+01  0.30957352502E+03  0.30970161898E+03  0.00000000000E+00 0. -1.
        -14    1    5    5    0    0  0.10775936613E+03  0.64516177839E+02  0.86333893064E+03  0.87242680344E+03  0.00000000000E+00 0.  1.
          5    1    4    4  501    0  0.18312938124E+02 -0.55396159424E+02 -0.27563522220E+02  0.64663114206E+02  0.41800000000E+01 0.  1.
         -5    1    4    4    0  501 -0.11275912965E+03 -0.66578841334E+02  0.27875996528E+02  0.13394740391E+03  0.41800000000E+01 0.  1.
</event>
<event>
11    1  0.5813833E-009  0.1451643E+03  0.7561462E-02  0.1101925E+00
         22   -1    0    0    0    0  0.00000000000E+00  0.00000000000E+00  0.13202889149E+04  0.13202889149E+04  0.00000000000E+00 0.  1.
         22   -1    0    0    0    0 -0.00000000000E+00 -0.00000000000E+00 -0.29925754489E+03  0.29925754489E+03  0.00000000000E+00 0. -1.
        -24    2    1    2    0    0  0.81100125524E+01 -0.35542316952E+02 -0.27554276035E+03  0.28885505684E+03  0.78640972034E+02 0.  0.
         25    2    1    2    0    0  0.22198978609E+02 -0.39028368607E+02  0.30599224465E+03  0.33361017799E+03  0.12509392019E+03 0.  0.
         24    2    1    2    0    0 -0.30308991161E+02  0.74570685559E+02  0.99058188574E+03  0.99708122499E+03  0.80243845760E+02 0.  0.
        -13    1    5    5    0    0 -0.38425209447E+02  0.88172525482E+02  0.78068237294E+03  0.78658493400E+03  0.00000000000E+00 0.  1.
         14    1    5    5    0    0  0.81162182861E+01 -0.13601839923E+02  0.20989951280E+03  0.21049629100E+03  0.00000000000E+00 0. -1.
         13    1    3    3    0    0 -0.67149182186E+01 -0.56794442832E+02 -0.22373398232E+03  0.23092768069E+03  0.00000000000E+00 0. -1.
        -14    1    3    3    0    0  0.14824930771E+02  0.21252125880E+02 -0.51808778029E+02  0.57927376150E+02  0.00000000000E+00 0.  1.
          5    1    4    4  501    0 -0.24127348690E+02 -0.40064623343E+02  0.34772164409E+02  0.58428407613E+02  0.41800000000E+01 0.  1.
         -5    1    4    4    0  501  0.46326327299E+02  0.10362547358E+01  0.27122008024E+03  0.27518177038E+03  0.41800000000E+01 0.  1.
</event>
<event>
11    1  0.5813833E-009  0.2279557E+03  0.7561462E-02  0.1036345E+00
         22   -1    0    0    0    0  0.00000000000E+00  0.00000000000E+00  0.87134510915E+03  0.87134510915E+03  0.00000000000E+00 0.  1.
         22   -1    0    0    0    0 -0.00000000000E+00 -0.00000000000E+00 -0.20345272303E+04  0.20345272303E+04  0.00000000000E+00 0. -1.
         24    2    1    2    0    0 -0.17480391500E+02  0.19262152329E+03 -0.16331758123E+04  0.16465247865E+04  0.79824953739E+02 0.  0.
         25    2    1    2    0    0  0.71308141797E+02 -0.16984124198E+03 -0.36004733078E+03  0.42334059941E+03  0.12510908895E+03 0.  0.
        -24    2    1    2    0    0 -0.53827750298E+02 -0.22780281307E+02  0.83004102199E+03  0.83600695352E+03  0.80766083456E+02 0.  0.
        -13    1    3    3    0    0 -0.17799504741E+02  0.17402530488E+03 -0.11729180479E+04  0.11858913846E+04  0.00000000000E+00 0.  1.
         14    1    3    3    0    0  0.31911324145E+00  0.18596218408E+02 -0.46025776446E+03  0.46063340187E+03  0.00000000000E+00 0. -1.
         13    1    5    5    0    0 -0.19450829947E+02 -0.28431629656E+02  0.11333479234E+03  0.11845449550E+03  0.00000000000E+00 0. -1.
        -14    1    5    5    0    0 -0.34376920351E+02  0.56513483489E+01  0.71670622965E+03  0.71755245802E+03  0.00000000000E+00 0.  1.
          5    1    4    4  501    0  0.96374553808E+02 -0.16016159355E+03 -0.26388867235E+03  0.32341072101E+03  0.41800000000E+01 0. -1.
         -5    1    4    4    0  501 -0.25066412011E+02 -0.96796484324E+01 -0.96158658435E+02  0.99929878399E+02  0.41800000000E+01 0. -1.
</event>
<event>
11    1  0.5813833E-009  0.1368755E+03  0.7561462E-02  0.1111098E+00
         22   -1    0    0    0    0  0.00000000000E+00  0.00000000000E+00  0.71867115804E+03  0.71867115804E+03  0.00000000000E+00 0.  1.
         22   -1    0    0    0    0 -0.00000000000E+00 -0.00000000000E+00 -0.49937600600E+03  0.49937600600E+03  0.00000000000E+00 0.  1.
         24    2    1    2    0    0 -0.34895421129E+02 -0.10781529190E+02 -0.43585342544E+03  0.44477959607E+03  0.80788296310E+02 0.  0.
         25    2    1    2    0    0 -0.10559827396E+02  0.45002050026E+02  0.25117262286E+02  0.13570228894E+03  0.12509012710E+03 0.  0.
        -24    2    1    2    0    0  0.45455248525E+02 -0.34220520836E+02  0.63003131520E+03  0.63756527903E+03  0.79453151180E+02 0.  0.
        -11    1    3    3    0    0 -0.23705513479E+02 -0.45629924577E+02 -0.28037427019E+03  0.28505047408E+03  0.00000000000E+00 0.  1.
         12    1    3    3    0    0 -0.11189907650E+02  0.34848395387E+02 -0.15547915525E+03  0.15972912199E+03  0.00000000000E+00 0. -1.
         11    1    5    5    0    0  0.36129039655E+02 -0.40788058162E+02  0.19735916233E+03  0.20474279511E+03  0.00000000000E+00 0. -1.
        -12    1    5    5    0    0  0.93262088694E+01  0.65675373262E+01  0.43267215287E+03  0.43282248392E+03  0.00000000000E+00 0.  1.
          5    1    4    4  501    0 -0.66010952940E+02  0.91124872627E+01  0.17899484743E+02  0.69125590675E+02  0.41800000000E+01 0. -1.
         -5    1    4    4    0  501  0.55451125544E+02  0.35889562764E+02  0.72177775429E+01  0.66576698267E+02  0.41800000000E+01 0. -1.
</event>
<event>
11    1  0.5813833E-009  0.1675796E+03  0.7561462E-02  0.1080157E+00
         22   -1    0    0    0    0  0.00000000000E+00  0.00000000000E+00  0.65213637315E+03  0.65213637315E+03  0.00000000000E+00 0.  1.
         22   -1    0    0    0    0 -0.00000000000E+00 -0.00000000000E+00 -0.27176118678E+04  0.27176118678E+04  0.00000000000E+00 0. -1.
        -24    2    1    2    0    0 -0.14021237399E+02 -0.17232569976E+02 -0.22434039797E+04  0.22449355806E+04  0.79879835793E+02 0.  0.
         25    2    1    2    0    0 -0.32559244437E+02  0.11839798320E+03 -0.44947895988E+03  0.48244551567E+03  0.12507659012E+03 0.  0.
         24    2    1    2    0    0  0.46580481836E+02 -0.10116541322E+03  0.62740744492E+03  0.64236714473E+03  0.81186603432E+02 0.  0.
        -13    1    5    5    0    0  0.53870887335E+02 -0.28052716704E+02  0.35820029936E+03  0.36331320080E+03  0.00000000000E+00 0.  1.
         14    1    5    5    0    0 -0.72904054988E+01 -0.73112696518E+02  0.26920714556E+03  0.27905394393E+03  0.00000000000E+00 0. -1.
         13    1    3    3    0    0  0.52387558426E+01  0.22270901073E+02 -0.15345366605E+04  0.15347072033E+04  0.00000000000E+00 0. -1.
        -14    1    3    3    0    0 -0.19259993242E+02 -0.39503471049E+02 -0.70886731922E+03  0.71022837723E+03  0.00000000000E+00 0.  1.
          5    1    4    4  501    0  0.41097711729E+02  0.22183483360E+02 -0.71556441905E+02  0.85550719585E+02  0.41800000000E+01 0. -1.
         -5    1    4    4    0  501 -0.73656956166E+02  0.96214499838E+02 -0.37792251797E+03  0.39689479609E+03  0.41800000000E+01 0. -1.
</event>
<event>
11    1  0.5813833E-009  0.1397698E+03  0.7561462E-02  0.1107816E+00
         22   -1    0    0    0    0  0.00000000000E+00  0.00000000000E+00  0.36341913137E+04  0.36341913137E+04  0.00000000000E+00 0.  1.
         22   -1    0    0    0    0 -0.00000000000E+00 -0.00000000000E+00 -0.93459680021E+02  0.93459680021E+02  0.00000000000E+00 0.  1.
        -24    2    1    2    0    0  0.72882839339E+01 -0.64469780757E+02 -0.43355481908E+02  0.11134694607E+03  0.79429043017E+02 0.  0.
         25    2    1    2    0    0  0.12556208555E+02  0.42731653123E+02  0.26873578296E+03  0.29974844612E+03  0.12508619970E+03 0.  0.
         24    2    1    2    0    0 -0.19844492489E+02  0.21738127634E+02  0.33153513326E+04  0.33165556016E+04  0.84381569226E+02 0.  0.
        -13    1    5    5    0    0 -0.16643551032E+02  0.38323566509E+02  0.75944968025E+03  0.76059813329E+03  0.00000000000E+00 0.  1.
         14    1    5    5    0    0 -0.32009414574E+01 -0.16585438875E+02  0.25559016524E+04  0.25559574683E+04  0.00000000000E+00 0. -1.
         13    1    3    3    0    0  0.32225800968E+02 -0.23646403386E+02  0.84274406813E+01  0.40849435707E+02  0.00000000000E+00 0. -1.
        -14    1    3    3    0    0 -0.24937517034E+02 -0.40823377370E+02 -0.51782922589E+02  0.70497510365E+02  0.00000000000E+00 0.  1.
          5    1    4    4  501    0  0.12113733195E+02 -0.48241220513E+01 -0.99989061396E+01  0.16954799010E+02  0.41800000000E+01 0. -1.
         -5    1    4    4    0  501  0.44247536015E+00  0.47555775174E+02  0.27873468910E+03  0.28279364711E+03  0.41800000000E+01 0. -1.
</event>
<event>
11    1  0.5813833E-009  0.1365625E+03  0.7561462E-02  0.1111459E+00
         22   -1    0    0    0    0  0.00000000000E+00  0.00000000000E+00  0.18540906463E+04  0.18540906463E+04  0.00000000000E+00 0.  1.
         22   -1    0    0    0    0 -0.00000000000E+00 -0.00000000000E+00 -0.92107868842E+02  0.92107868842E+02  0.00000000000E+00 0. -1.
         24    2    1    2    0    0 -0.83362467057E+01 -0.54599895924E+02 -0.56161540211E+02  0.11358208216E+03  0.81829879292E+02 0.  0.
         25    2    1    2    0    0  0.41197217747E+02  0.29388529985E+02  0.12475218581E+04  0.12547983728E+04  0.12508906176E+03 0.  0.
        -24    2    1    2    0    0 -0.32860971041E+02  0.25211365939E+02  0.57062245960E+03  0.57781806026E+03  0.80921338201E+02 0.  0.
        -11    1    3    3    0    0  0.28219267692E+02 -0.27983312385E+02  0.21408282397E+01  0.39799195804E+02  0.00000000000E+00 0.  1.
         12    1    3    3    0    0 -0.36555514397E+02 -0.26616583540E+02 -0.58302368451E+02  0.73782886357E+02  0.00000000000E+00 0. -1.
         11    1    5    5    0    0  0.17284878338E+01  0.46648431549E+02  0.22380671811E+03  0.22862307606E+03  0.00000000000E+00 0. -1.
        -12    1    5    5    0    0 -0.34589458875E+02 -0.21437065610E+02  0.34681574149E+03  0.34919498421E+03  0.00000000000E+00 0.  1.
          5    1    4    4  501    0 -0.34592158629E+02 -0.21599327755E+02  0.50644665093E+03  0.50810316967E+03  0.41800000000E+01 0.  1.
         -5    1    4    4    0  501  0.75789376376E+02  0.50987857740E+02  0.74107520718E+03  0.74669520308E+03  0.41800000000E+01 0.  1.
</event>
<event>
11    1  0.5813833E-009  0.1287481E+03  0.7561462E-02  0.1120817E+00
         22   -1    0    0    0    0  0.00000000000E+00  0.00000000000E+00  0.10006894141E+04  0.10006894141E+04  0.00000000000E+00 0. -1.
         22   -1    0    0    0    0 -0.00000000000E+00 -0.00000000000E+00 -0.28600280753E+03  0.28600280753E+03  0.00000000000E+00 0. -1.
         24    2    1    2    0    0 -0.30357693770E+02  0.17895081397E+01 -0.24817480690E+03  0.26249472380E+03  0.79924672857E+02 0.  0.
         25    2    1    2    0    0  0.32609305524E+02  0.19927571758E+02  0.12027110020E+03  0.17768846884E+03  0.12509028536E+03 0.  0.
        -24    2    1    2    0    0 -0.22516117545E+01 -0.21717079898E+02  0.84259031331E+03  0.84650902904E+03  0.78373457520E+02 0.  0.
        -11    1    3    3    0    0  0.68923832131E+01  0.31342680153E+02 -0.15021192571E+03  0.15360172907E+03  0.00000000000E+00 0.  1.
         12    1    3    3    0    0 -0.37250076983E+02 -0.29553172013E+02 -0.97962881190E+02  0.10889299473E+03  0.00000000000E+00 0. -1.
         11    1    5    5    0    0 -0.41286699939E+01 -0.83139688549E+01  0.82083539591E+03  0.82088788222E+03  0.00000000000E+00 0. -1.
        -12    1    5    5    0    0  0.18770582394E+01 -0.13403111043E+02  0.21754917400E+02  0.25621146820E+02  0.00000000000E+00 0.  1.
          5    1    4    4  501    0 -0.22355589906E+02 -0.32080260874E+02  0.85899645385E+02  0.94472943296E+02  0.41800000000E+01 0. -1.
         -5    1    4    4    0  501  0.54964895430E+02  0.52007832632E+02  0.34371454818E+02  0.83215525541E+02  0.41800000000E+01 0. -1.
</event>
<event>
11    1  0.5813833E-009  0.1384940E+03  0.7561462E-02  0.1109252E+00
         22   -1    0    0    0    0  0.00000000000E+00  0.00000000000E+00  0.64751858646E+03  0.64751858646E+03  0.00000000000E+00 0.  1.
         22   -1    0    0    0    0 -0.00000000000E+00 -0.00000000000E+00 -0.24094869360E+04  0.24094869360E+04  0.00000000000E+00 0.  1.
        -24    2    1    2    0    0 -0.46777527589E+02 -0.90589460327E+01 -0.20878244058E+04  0.20899181567E+04  0.80479505001E+02 0.  0.
         25    2    1    2    0    0 -0.29261177900E+01 -0.24536758344E+02 -0.30376871420E+03  0.32944334743E+03  0.12508746046E+03 0.  0.
         24    2    1    2    0    0  0.49703645379E+02  0.33595704377E+02  0.62962477048E+03  0.63764401829E+03  0.81014929166E+02 0.  0.
        -13    1    5    5    0    0  0.81145439663E+01  0.53590082153E+02  0.30943629079E+03  0.31414735521E+03  0.00000000000E+00 0.  1.
         14    1    5    5    0    0  0.41589101413E+02 -0.19994377776E+02  0.32018847969E+03  0.32349666308E+03  0.00000000000E+00 0. -1.
         11    1    3    3    0    0  0.53045682492E+01 -0.34757136010E+02 -0.70924384214E+03  0.71011479675E+03  0.00000000000E+00 0. -1.
        -12    1    3    3    0    0 -0.52082095838E+02  0.25698189978E+02 -0.13785805636E+04  0.13798033599E+04  0.00000000000E+00 0.  1.
          5    1    4    4  501    0  0.23836554161E+02  0.41016220142E+01 -0.14743035635E+01  0.24589643926E+02  0.41800000000E+01 0. -1.
         -5    1    4    4    0  501 -0.26762671951E+02 -0.28638380358E+02 -0.30229441063E+03  0.30485370350E+03  0.41800000000E+01 0. -1.
</event>
<event>
11    1  0.5813833E-009  0.2259820E+03  0.7561462E-02  0.1037534E+00
         22   -1    0    0    0    0  0.00000000000E+00  0.00000000000E+00  0.51013106134E+03  0.51013106134E+03  0.00000000000E+00 0. -1.
         22   -1    0    0    0    0 -0.00000000000E+00 -0.00000000000E+00 -0.83502095702E+03  0.83502095702E+03  0.00000000000E+00 0. -1.
         24    2    1    2    0    0  0.37492037342E+02  0.18533592293E+03 -0.74439331223E+03  0.77229082478E+03  0.80973190388E+02 0.  0.
         25    2    1    2    0    0 -0.13770092441E+02 -0.17820103467E+03  0.95359703158E+02  0.23809526239E+03  0.12510258503E+03 0.  0.
        -24    2    1    2    0    0 -0.23721944902E+02 -0.71348882586E+01  0.32414371339E+03  0.33476593119E+03  0.79908976071E+02 0.  0.
        -13    1    3    3    0    0 -0.52024577011E+01 -0.40257005755E+01 -0.63355110412E+01  0.91329366257E+01  0.00000000000E+00 0.  1.
         14    1    3    3    0    0  0.42694495043E+02  0.18936162351E+03 -0.73805780118E+03  0.76315788816E+03  0.00000000000E+00 0. -1.
         11    1    5    5    0    0  0.18209811122E+02  0.24238868727E+02  0.95283247250E+02  0.99990085433E+02  0.00000000000E+00 0. -1.
        -12    1    5    5    0    0 -0.41931756024E+02 -0.31373756986E+02  0.22886046614E+03  0.23477584576E+03  0.00000000000E+00 0.  1.
          5    1    4    4  501    0 -0.45121717222E+02 -0.11596678645E+03  0.59340886713E+01  0.12464730536E+03  0.41800000000E+01 0.  1.
         -5    1    4    4    0  501  0.31351624782E+02 -0.62234248228E+02  0.89425614486E+02  0.11344795703E+03  0.41800000000E+01 0.  1.
</event>
<event>
11    1  0.5813833E-009  0.1633328E+03  0.7561462E-02  0.1083984E+00
         22   -1    0    0    0    0  0.00000000000E+00  0.00000000000E+00  0.98366665117E+03  0.98366665117E+03  0.00000000000E+00 0.  1.
         22   -1    0    0    0    0 -0.00000000000E+00 -0.00000000000E+00 -0.75911139055E+02  0.75911139055E+02  0.00000000000E+00 0.  1.
        -24    2    1    2    0    0  0.34021070466E+02 -0.35748175003E+02 -0.47769477654E+01  0.94123088895E+02  0.80006070904E+02 0.  0.
         25    2    1    2    0    0 -0.71242153251E+02 -0.70616129718E+02  0.39566506731E+03  0.42691937504E+03  0.12508886888E+03 0.  0.
         24    2    1    2    0    0  0.37221082784E+02  0.10636430472E+03  0.51686739256E+03  0.53853532628E+03  0.10084454293E+03 0.  0.
        -13    1    5    5    0    0  0.17158375420E+02  0.49098663506E+01  0.27380518516E+03  0.27438621696E+03  0.00000000000E+00 0.  1.
         14    1    5    5    0    0  0.20062707364E+02  0.10145443837E+03  0.24306220740E+03  0.26414910933E+03  0.00000000000E+00 0. -1.
         11    1    3    3    0    0  0.13038212658E+02 -0.45931406049E+01  0.36071589056E+02  0.38629670811E+02  0.00000000000E+00 0. -1.
        -12    1    3    3    0    0  0.20982857808E+02 -0.31155034398E+02 -0.40848536822E+02  0.55493418084E+02  0.00000000000E+00 0.  1.
          5    1    4    4  501    0 -0.75671344710E+02 -0.19426880275E+02  0.34807943750E+03  0.35676367991E+03  0.41800000000E+01 0. -1.
         -5    1    4    4    0  501  0.44291914593E+01 -0.51189249443E+02  0.47585629811E+02  0.70155695136E+02  0.41800000000E+01 0. -1.
</event>
<event>
11    1  0.5813833E-009  0.1613145E+03  0.7561462E-02  0.1085847E+00
         22   -1    0    0    0    0  0.00000000000E+00  0.00000000000E+00  0.19033294989E+04  0.19033294989E+04  0.00000000000E+00 0. -1.
         22   -1    0    0    0    0 -0.00000000000E+00 -0.00000000000E+00 -0.12958791211E+04  0.12958791211E+04  0.00000000000E+00 0.  1.
        -24    2    1    2    0    0  0.39783902394E+02  0.93916964491E+02 -0.12696623124E+04  0.12761656047E+04  0.78441749928E+02 0.  0.
         25    2    1    2    0    0 -0.15281696406E+02 -0.91192949975E+02  0.25463313131E+03  0.29838810605E+03  0.12509095053E+03 0.  0.
         24    2    1    2    0    0 -0.24502205988E+02 -0.27240145161E+01  0.16224795589E+04  0.16246549092E+04  0.80348470512E+02 0.  0.
        -13    1    5    5    0    0  0.19012399792E+02 -0.15662906597E+02  0.20902422707E+03  0.21047072359E+03  0.00000000000E+00 0.  1.
         14    1    5    5    0    0 -0.43514605779E+02  0.12938892081E+02  0.14134553318E+04  0.14141841856E+04  0.00000000000E+00 0. -1.
         13    1    3    3    0    0  0.18055123845E+02 -0.53341708623E+01 -0.80562958449E+02  0.82733494728E+02  0.00000000000E+00 0. -1.
        -14    1    3    3    0    0  0.21728778549E+02  0.99251135354E+02 -0.11890993539E+04  0.11934321100E+04  0.00000000000E+00 0.  1.
          5    1    4    4  501    0 -0.21976713408E+02 -0.11644757084E+03  0.15415506086E+03  0.19448462118E+03  0.41800000000E+01 0.  1.
         -5    1    4    4    0  501  0.66950170013E+01  0.25254620865E+02  0.10047807045E+03  0.10390348487E+03  0.41800000000E+01 0.  1.
</event>
<event>
11    1  0.5813833E-009  0.1591524E+03  0.7561462E-02  0.1087877E+00
         22   -1    0    0    0    0  0.00000000000E+00  0.00000000000E+00  0.79852265005E+03  0.79852265005E+03  0.00000000000E+00 0. -1.
         22   -1    0    0    0    0 -0.00000000000E+00 -0.00000000000E+00 -0.40899413985E+03  0.40899413985E+03  0.00000000000E+00 0. -1.
        -24    2    1    2    0    0 -0.54150034711E+02  0.80829601892E+02 -0.36197661099E+03  0.38324084865E+03  0.79880099973E+02 0.  0.
         25    2    1    2    0    0  0.11656249217E+03 -0.73674261511E+02  0.24459398975E+03  0.30739472036E+03  0.12510228973E+03 0.  0.
         24    2    1    2    0    0 -0.62412457455E+02 -0.71553403812E+01  0.50691113144E+03  0.51688122088E+03  0.79125138759E+02 0.  0.
        -11    1    5    5    0    0 -0.51782767903E+02 -0.21982022280E+02  0.16202953314E+03  0.17151744508E+03  0.00000000000E+00 0.  1.
         12    1    5    5    0    0 -0.10629689552E+02  0.14826681899E+02  0.34488159830E+03  0.34536377581E+03  0.00000000000E+00 0. -1.
         13    1    3    3    0    0 -0.60501467773E+02  0.19277616751E+02 -0.20046206929E+03  0.21027861360E+03  0.00000000000E+00 0. -1.
        -14    1    3    3    0    0  0.63514330622E+01  0.61551985142E+02 -0.16151454170E+03  0.17296223506E+03  0.00000000000E+00 0.  1.
          5    1    4    4  501    0 -0.17464670363E+02  0.14860038945E+02  0.17245950472E+02  0.28995356111E+02  0.41800000000E+01 0.  1.
         -5    1    4    4    0  501  0.13402716253E+03 -0.88534300456E+02  0.22734803928E+03  0.27839936425E+03  0.41800000000E+01 0.  1.
</event>
<event>
11    1  0.5813833E-009  0.1723651E+03  0.7561462E-02  0.1075992E+00
         22   -1    0    0    0    0  0.00000000000E+00  0.00000000000E+00  0.14143728396E+03  0.14143728396E+03  0.00000000000E+00 0. -1.
         22   -1    0    0    0    0 -0.00000000000E+00 -0.00000000000E+00 -0.12914408237E+04  0.12914408237E+04  0.00000000000E+00 0. -1.
        -24    2    1    2    0    0 -0.20954991417E+02 -0.57545159686E+02 -0.95032242071E+03  0.95586879025E+03  0.82594695941E+02 0.  0.
         25    2    1    2    0    0  0.12745425119E+03  0.38386070844E+01 -0.26529705823E+03  0.31982629954E+03  0.12508801591E+03 0.  0.
         24    2    1    2    0    0 -0.10649925977E+03  0.53706552602E+02  0.65615939216E+02  0.15718301786E+03  0.78578390787E+02 0.  0.
        -11    1    5    5    0    0  0.41584864637E+01  0.28109814569E+02  0.65409068235E+01  0.29158843372E+02  0.00000000000E+00 0.  1.
         12    1    5    5    0    0 -0.11065774624E+03  0.25596738033E+02  0.59075032393E+02  0.12802417448E+03  0.00000000000E+00 0. -1.
         11    1    3    3    0    0 -0.22620951462E+02 -0.78496820781E+02 -0.77334806271E+03  0.77765074707E+03  0.00000000000E+00 0. -1.
        -12    1    3    3    0    0  0.16659600454E+01  0.20951661095E+02 -0.17697435800E+03  0.17821804318E+03  0.00000000000E+00 0.  1.
          5    1    4    4  501    0  0.11867156873E+03  0.51786955425E+02 -0.18658376359E+03  0.22714709598E+03  0.41800000000E+01 0. -1.
         -5    1    4    4    0  501  0.87826824564E+01 -0.47948348341E+02 -0.78713294641E+02  0.92679203562E+02  0.41800000000E+01 0. -1.
</event>
<event>
11    1  0.5813833E-009  0.1482466E+03  0.7561462E-02  0.1098684E+00
         22   -1    0    0    0    0  0.00000000000E+00  0.00000000000E+00  0.11355078030E+03  0.11355078030E+03  0.00000000000E+00 0. -1.
         22   -1    0    0    0    0 -0.00000000000E+00 -0.00000000000E+00 -0.10627012386E+04  0.10627012386E+04  0.00000000000E+00 0.  1.
         24    2    1    2    0    0 -0.69945154661E+02  0.43948934902E+02 -0.87234720537E+03  0.87995023501E+03  0.80615977622E+02 0.  0.
         25    2    1    2    0    0  0.32186562138E+02 -0.51871267520E+02 -0.13063681764E+03  0.19089500422E+03  0.12509325057E+03 0.  0.
        -24    2    1    2    0    0  0.37758592523E+02  0.79223326178E+01  0.53833564656E+02  0.10540677971E+03  0.82000377200E+02 0.  0.
        -13    1    3    3    0    0 -0.76502080355E+02  0.57069523356E+02 -0.63311232937E+03  0.64026613248E+03  0.00000000000E+00 0.  1.
         14    1    3    3    0    0  0.65569256932E+01 -0.13120588454E+02 -0.23923487599E+03  0.23968410253E+03  0.00000000000E+00 0. -1.
         11    1    5    5    0    0  0.87783471609E+01  0.34832505982E+02 -0.31334229790E+01  0.36058025341E+02  0.00000000000E+00 0. -1.
        -12    1    5    5    0    0  0.28980245363E+02 -0.26910173365E+02  0.56966987635E+02  0.69348754365E+02  0.00000000000E+00 0.  1.
          5    1    4    4  501    0 -0.32031972652E+02 -0.24008331421E+02  0.25975431873E+01  0.40331958547E+02  0.41800000000E+01 0.  1.
         -5    1    4    4    0  501  0.64218534790E+02 -0.27862936099E+02 -0.13323436082E+03  0.15056304567E+03  0.41800000000E+01 0.  1.
</event>
<event>
11    1  0.5813833E-009  0.1929927E+03  0.7561462E-02  0.1059593E+00
         22   -1    0    0    0    0  0.00000000000E+00  0.00000000000E+00  0.85973857840E+03  0.85973857840E+03  0.00000000000E+00 0. -1.
         22   -1    0    0    0    0 -0.00000000000E+00 -0.00000000000E+00 -0.13420688473E+04  0.13420688473E+04  0.00000000000E+00 0. -1.
         24    2    1    2    0    0  0.24374832629E+02  0.57764143255E+02 -0.12995729585E+04  0.13035930511E+04  0.80834025521E+02 0.  0.
         25    2    1    2    0    0 -0.12011126208E+03 -0.14091178910E+03  0.44998764391E+03  0.50241249646E+03  0.12508632758E+03 0.  0.
        -24    2    1    2    0    0  0.95736429450E+02  0.83147645841E+02  0.36725504568E+03  0.39580187815E+03  0.75523924955E+02 0.  0.
        -13    1    3    3    0    0  0.48932970155E+02  0.59329309108E+02 -0.10486999582E+04  0.10515160507E+04  0.00000000000E+00 0.  1.
         14    1    3    3    0    0 -0.24558137526E+02 -0.15651658533E+01 -0.25087300032E+03  0.25207700044E+03  0.00000000000E+00 0. -1.
         13    1    5    5    0    0  0.53201512214E+02  0.89692741112E+02  0.24879627290E+03  0.26976800055E+03  0.00000000000E+00 0. -1.
        -14    1    5    5    0    0  0.42534917235E+02 -0.65450952713E+01  0.11845877277E+03  0.12603387760E+03  0.00000000000E+00 0.  1.
          5    1    4    4  501    0  0.21922368988E+02 -0.23478733923E+00  0.62700940786E+02  0.66554682499E+02  0.41800000000E+01 0. -1.
         -5    1    4    4    0  501 -0.14203363107E+03 -0.14067700176E+03  0.38728670313E+03  0.43585781397E+03  0.41800000000E+01 0. -1.
</event>
<event>
11    1  0.5813833E-009  0.1347000E+03  0.7561462E-02  0.1113625E+00
         22   -1    0    0    0    0  0.00000000000E+00  0.00000000000E+00  0.18199286632E+04  0.18199286632E+04  0.00000000000E+00 0.  1.
         22   -1    0    0    0    0 -0.00000000000E+00 -0.00000000000E+00 -0.28571612038E+03  0.28571612038E+03  0.00000000000E+00 0. -1.
        -24    2    1    2    0    0  0.62813582443E+00  0.46084377012E+02 -0.21349983943E+03  0.23360554983E+03  0.82856545398E+02 0.  0.
         25    2    1    2    0    0  0.20054649788E+02 -0.87347850345E+02  0.36343815940E+02  0.15811382512E+03  0.12508905947E+03 0.  0.
         24    2    1    2    0    0 -0.20682785613E+02  0.41263473333E+02  0.17113685664E+04  0.17139254087E+04  0.81409365126E+02 0.  0.
        -11    1    5    5    0    0 -0.44527576213E+02  0.40881256968E+02  0.14996843035E+04  0.15009020595E+04  0.00000000000E+00 0.  1.
         12    1    5    5    0    0  0.23844790601E+02  0.38221636519E+00  0.21168426289E+03  0.21302334915E+03  0.00000000000E+00 0. -1.
         11    1    3    3    0    0  0.68621771884E+01 -0.23248474784E+02 -0.70736998742E+02  0.74775022879E+02  0.00000000000E+00 0. -1.
        -12    1    3    3    0    0 -0.62340413639E+01  0.69332851797E+02 -0.14276284069E+03  0.15883052695E+03  0.00000000000E+00 0.  1.
          5    1    4    4  501    0  0.48771063527E+02 -0.33834726450E+02  0.67288274563E+02  0.89825328528E+02  0.41800000000E+01 0.  1.
         -5    1    4    4    0  501 -0.28716413738E+02 -0.53513123895E+02 -0.30944458623E+02  0.68288496590E+02  0.41800000000E+01 0.  1.
</event>
<event>
11    1  0.5813833E-009  0.1946996E+03  0.7561462E-02  0.1058336E+00
         22   -1    0    0    0    0  0.00000000000E+00  0.00000000000E+00  0.98444583314E+03  0.98444583314E+03  0.00000000000E+00 0. -1.
         22   -1    0    0    0    0 -0.00000000000E+00 -0.00000000000E+00 -0.40240549495E+03  0.40240549495E+03  0.00000000000E+00 0. -1.
        -24    2    1    2    0    0 -0.56141825675E+02 -0.12888604125E+03 -0.21449268547E+03  0.26913025134E+03  0.81611664916E+02 0.  0.
         25    2    1    2    0    0  0.99388282400E+02  0.14331564405E+03 -0.85708756698E+02  0.23110704715E+03  0.12508825588E+03 0.  0.
         24    2    1    2    0    0 -0.43246456725E+02 -0.14429602805E+02  0.88224178036E+03  0.88661402959E+03  0.75202453411E+02 0.  0.
        -11    1    5    5    0    0 -0.38665337274E+01 -0.28455156958E+02  0.65040175220E+03  0.65103539481E+03  0.00000000000E+00 0.  1.
         12    1    5    5    0    0 -0.39379922998E+02  0.14025554153E+02  0.23184002816E+03  0.23557863477E+03  0.00000000000E+00 0. -1.
         11    1    3    3    0    0 -0.91467153277E+01 -0.41676200656E+02 -0.13660046616E+03  0.14310924309E+03  0.00000000000E+00 0. -1.
        -12    1    3    3    0    0 -0.46995110347E+02 -0.87209840592E+02 -0.77892219307E+02  0.12602100825E+03  0.00000000000E+00 0.  1.
          5    1    4    4  501    0  0.11529560699E+03  0.92808359334E+02 -0.24528464740E+02  0.15008526422E+03  0.41800000000E+01 0.  1.
         -5    1    4    4    0  501 -0.15907324588E+02  0.50507284719E+02 -0.61180291958E+02  0.81021782930E+02  0.41800000000E+01 0.  1.
</event>
<event>
11    1  0.5813833E-009  0.1410858E+03  0.7561462E-02  0.1106352E+00
         22   -1    0    0    0    0  0.00000000000E+00  0.00000000000E+00  0.21784030987E+03  0.21784030987E+03  0.00000000000E+00 0.  1.
         22   -1    0    0    0    0 -0.00000000000E+00 -0.00000000000E+00 -0.11348163716E+04  0.11348163716E+04  0.00000000000E+00 0. -1.
         24    2    1    2    0    0  0.60478539428E+02 -0.21368731681E+02 -0.10290596864E+04  0.10342986320E+04  0.81826313278E+02 0.  0.
         25    2    1    2    0    0 -0.97900128393E+02  0.89064704336E+01 -0.17606204600E+02  0.16006573471E+03  0.12508917072E+03 0.  0.
        -24    2    1    2    0    0  0.37421588966E+02  0.12462261247E+02  0.12968982919E+03  0.15829231484E+03  0.81739353217E+02 0.  0.
        -13    1    3    3    0    0 -0.18003308798E+02  0.85878053063E+01 -0.18981008468E+03  0.19085527965E+03  0.00000000000E+00 0.  1.
         14    1    3    3    0    0  0.78481848226E+02 -0.29956536987E+02 -0.83924960169E+03  0.84344335230E+03  0.00000000000E+00 0. -1.
         11    1    5    5    0    0 -0.10546378511E+02 -0.17404105513E+02  0.43581866365E+01  0.20811602033E+02  0.00000000000E+00 0. -1.
        -12    1    5    5    0    0  0.47967967476E+02  0.29866366761E+02  0.12533164256E+03  0.13748071281E+03  0.00000000000E+00 0.  1.
          5    1    4    4  501    0 -0.59850757276E+02 -0.30592458566E+01 -0.71180735450E+02  0.93143124442E+02  0.41800000000E+01 0.  1.
         -5    1    4    4    0  501 -0.38049371118E+02  0.11965716290E+02  0.53574530850E+02  0.66922610265E+02  0.41800000000E+01 0.  1.
</event>
<event>
11    1  0.5813833E-009  0.1428439E+03  0.7561462E-02  0.1104424E+00
         22   -1    0    0    0    0  0.00000000000E+00  0.00000000000E+00  0.83474739967E+03  0.83474739967E+03  0.00000000000E+00 0. -1.
         22   -1    0    0    0    0 -0.00000000000E+00 -0.00000000000E+00 -0.49230986489E+03  0.49230986489E+03  0.00000000000E+00 0. -1.
        -24    2    1    2    0    0 -0.35199676653E+02  0.86618459383E+01 -0.35004358589E+03  0.36131233754E+03  0.81866039500E+02 0.  0.
         25    2    1    2    0    0 -0.24575711937E+02  0.27535715664E+02 -0.10106248205E+03  0.16499523644E+03  0.12509045333E+03 0.  0.
         24    2    1    2    0    0  0.59775388591E+02 -0.36197561602E+02  0.79354360272E+03  0.80074969058E+03  0.81272732172E+02 0.  0.
        -13    1    5    5    0    0 -0.67455187169E+01 -0.34384539002E+02  0.16416624767E+03  0.16786409806E+03  0.00000000000E+00 0.  1.
         14    1    5    5    0    0  0.66520907308E+02 -0.18130226008E+01  0.62937735506E+03  0.63288559252E+03  0.00000000000E+00 0. -1.
         13    1    3    3    0    0 -0.30855575780E+02 -0.34287661618E+02 -0.16766406675E+03  0.17389350067E+03  0.00000000000E+00 0. -1.
        -14    1    3    3    0    0 -0.43441008736E+01  0.42949507556E+02 -0.18237951914E+03  0.18741883687E+03  0.00000000000E+00 0.  1.
          5    1    4    4  501    0 -0.23296672184E+01  0.11134199948E+02  0.29280076793E+02  0.31689005267E+02  0.41800000000E+01 0.  1.
         -5    1    4    4    0  501 -0.22246044719E+02  0.16401515716E+02 -0.13034255884E+03  0.13330623117E+03  0.41800000000E+01 0.  1.
</event>
<event>
11    1  0.5813833E-009  0.1633265E+03  0.7561462E-02  0.1083990E+00
         22   -1    0    0    0    0  0.00000000000E+00  0.00000000000E+00  0.37271047460E+03  0.37271047460E+03  0.00000000000E+00 0.  1.
         22   -1    0    0    0    0 -0.00000000000E+00 -0.00000000000E+00 -0.17154213029E+03  0.17154213029E+03  0.00000000000E+00 0.  1.
         24    2    1    2    0    0 -0.40695621812E+02  0.97446769480E+02 -0.85135112816E+02  0.15739704923E+03  0.79836314763E+02 0.  0.
         25    2    1    2    0    0  0.40808919429E+02 -0.93941322373E+02  0.11828342538E+03  0.20032233486E+03  0.12509088364E+03 0.  0.
        -24    2    1    2    0    0 -0.11329761673E+00 -0.35054471077E+01  0.16802003175E+03  0.18653322081E+03  0.80942018760E+02 0.  0.
        -13    1    3    3    0    0 -0.45635861319E+02  0.65911690245E+02 -0.94698274941E+02  0.12407556579E+03  0.00000000000E+00 0.  1.
         14    1    3    3    0    0  0.49402395072E+01  0.31535079236E+02  0.95631621243E+01  0.33321483440E+02  0.00000000000E+00 0. -1.
         13    1    5    5    0    0  0.31783608046E+02  0.33682583321E+01  0.27158451910E+02  0.41941917157E+02  0.00000000000E+00 0. -1.
        -14    1    5    5    0    0 -0.31896905663E+02 -0.68737054398E+01  0.14086157984E+03  0.14459130365E+03  0.00000000000E+00 0.  1.
          5    1    4    4  501    0 -0.16708776756E+02 -0.17261863533E+02  0.99642578940E+02  0.10258299611E+03  0.41800000000E+01 0. -1.
         -5    1    4    4    0  501  0.57517696185E+02 -0.76679458840E+02  0.18640846436E+02  0.97739338744E+02  0.41800000000E+01 0. -1.
</event>
<event>
11    1  0.5813833E-009  0.2730678E+03  0.7561462E-02  0.1012281E+00
         22   -1    0    0    0    0  0.00000000000E+00  0.00000000000E+00  0.79968498078E+03  0.79968498078E+03  0.00000000000E+00 0.  1.
         22   -1    0    0    0    0 -0.00000000000E+00 -0.00000000000E+00 -0.84731376026E+03  0.84731376026E+03  0.00000000000E+00 0.  1.
         24    2    1    2    0    0  0.97949954503E+02 -0.26949665232E+01 -0.49835253228E+03  0.51417230774E+03  0.80102803884E+02 0.  0.
         25    2    1    2    0    0  0.22794329311E+02  0.21662818705E+03 -0.26930280032E+03  0.36826478855E+03  0.12509038074E+03 0.  0.
        -24    2    1    2    0    0 -0.12074428381E+03 -0.21393322053E+03  0.72002655311E+03  0.76456164474E+03  0.75958320857E+02 0.  0.
        -11    1    3    3    0    0  0.95274477273E+02 -0.12966296751E+02 -0.49299226430E+03  0.50228151820E+03  0.00000000000E+00 0.  1.
         12    1    3    3    0    0  0.26754772308E+01  0.10271330228E+02 -0.53602679804E+01  0.11890789540E+02  0.00000000000E+00 0. -1.
         13    1    5    5    0    0 -0.20450904476E+01 -0.51460647550E+02  0.21135363193E+03  0.21753790100E+03  0.00000000000E+00 0. -1.
        -14    1    5    5    0    0 -0.11869919337E+03 -0.16247257298E+03  0.50867292118E+03  0.54702374374E+03  0.00000000000E+00 0.  1.
          5    1    4    4  501    0 -0.41164697192E+02  0.15093964859E+03 -0.14198879737E+03  0.21131871850E+03  0.41800000000E+01 0. -1.
         -5    1    4    4    0  501  0.63959026503E+02  0.65688538462E+02 -0.12731400296E+03  0.15694607005E+03  0.41800000000E+01 0. -1.
</event>
<event>
11    1  0.5813833E-009  0.1462102E+03  0.7561462E-02  0.1100815E+00
         22   -1    0    0    0    0  0.00000000000E+00  0.00000000000E+00  0.55861914786E+03  0.55861914786E+03  0.00000000000E+00 0. -1.
         22   -1    0    0    0    0 -0.00000000000E+00 -0.00000000000E+00 -0.15885285923E+03  0.15885285923E+03  0.00000000000E+00 0. -1.
        -24    2    1    2    0    0 -0.33800158669E+02 -0.19354039438E+02 -0.74814379208E+02  0.11665458983E+03  0.80585807834E+02 0.  0.
         25    2    1    2    0    0  0.84954419013E+02 -0.34927807513E+02  0.50959217361E+02  0.16334329989E+03  0.12508791603E+03 0.  0.
         24    2    1    2    0    0 -0.51154260344E+02  0.54281846951E+02  0.42362145047E+03  0.43747411737E+03  0.79782158439E+02 0.  0.
        -13    1    5    5    0    0 -0.42214439531E+02 -0.81161539379E+01  0.12244235338E+03  0.12976925969E+03  0.00000000000E+00 0.  1.
         14    1    5    5    0    0 -0.89398208132E+01  0.62398000889E+02  0.30117909709E+03  0.30770485768E+03  0.00000000000E+00 0. -1.
         11    1    3    3    0    0 -0.15604772139E+02 -0.45303450461E+02 -0.69655248227E+02  0.84544456606E+02  0.00000000000E+00 0. -1.
        -12    1    3    3    0    0 -0.18195386530E+02  0.25949411023E+02 -0.51591309807E+01  0.32110133228E+02  0.00000000000E+00 0.  1.
          5    1    4    4  501    0  0.22947980850E+00 -0.42025223528E+02 -0.25151126577E+02  0.49155097819E+02  0.41800000000E+01 0.  1.
         -5    1    4    4    0  501  0.84724939205E+02  0.70974160144E+01  0.76110343938E+02  0.11418820207E+03  0.41800000000E+01 0.  1.
</event>
<event>
11    1  0.5813833E-009  0.2089757E+03  0.7561462E-02  0.1048352E+00
         22   -1    0    0    0    0  0.00000000000E+00  0.00000000000E+00  0.46849195875E+03  0.46849195875E+03  0.00000000000E+00 0. -1.
         22   -1    0    0    0    0 -0.00000000000E+00 -0.00000000000E+00 -0.15290020817E+04  0.15290020817E+04  0.00000000000E+00 0.  1.
        -24    2    1    2    0    0 -0.42589642156E+01 -0.15836712541E+03 -0.10570086491E+04  0.10719163309E+04  0.81480372350E+02 0.  0.
         25    2    1    2    0    0 -0.13029633006E+03  0.21642806071E+03 -0.40343750016E+03  0.49216645062E+03  0.12509100483E+03 0.  0.
         24    2    1    2    0    0  0.13455529428E+03 -0.58060935298E+02  0.39993602629E+03  0.43341125891E+03  0.80126742078E+02 0.  0.
        -11    1    5    5    0    0  0.50138242330E+00 -0.15047706209E+02  0.81986232688E+01  0.17143578097E+02  0.00000000000E+00 0.  1.
         12    1    5    5    0    0  0.13405391185E+03 -0.43013229090E+02  0.39173740302E+03  0.41626768081E+03  0.00000000000E+00 0. -1.
         13    1    3    3    0    0  0.21129813273E+02 -0.14580388083E+03 -0.81006016964E+03  0.82334847975E+03  0.00000000000E+00 0. -1.
        -14    1    3    3    0    0 -0.25388777489E+02 -0.12563244581E+02 -0.24694847943E+03  0.24856785116E+03  0.00000000000E+00 0.  1.
          5    1    4    4  501    0 -0.27600973895E+02  0.22662767575E+02 -0.36218980457E+01  0.36138695875E+02  0.41800000000E+01 0.  1.
         -5    1    4    4    0  501 -0.10269535617E+03  0.19376529313E+03 -0.39981560211E+03  0.45602775474E+03  0.41800000000E+01 0.  1.
</event>
<event>
11    1  0.5813833E-009  0.1387316E+03  0.7561462E-02  0.1108983E+00
         22   -1    0    0    0    0  0.00000000000E+00  0.00000000000E+00  0.22857760235E+03  0.22857760235E+03  0.00000000000E+00 0. -1.
         22   -1    0    0    0    0 -0.00000000000E+00 -0.00000000000E+00 -0.90875691138E+03  0.90875691138E+03  0.00000000000E+00 0. -1.
         24    2    1    2    0    0  0.33328877457E+02  0.49952114751E+02 -0.83834625595E+03  0.84437505220E+03  0.80862575215E+02 0.  0.
         25    2    1    2    0    0 -0.62738269786E+02 -0.27747897526E+02  0.43367845990E+02  0.14911004629E+03  0.12508796715E+03 0.  0.
        -24    2    1    2    0    0  0.29409392329E+02 -0.22204217224E+02  0.11479910093E+03  0.14384941524E+03  0.78459423095E+02 0.  0.
        -13    1    3    3    0    0 -0.47985104521E+01  0.18586965740E+01 -0.16112814995E+01  0.53922799986E+01  0.00000000000E+00 0.  1.
         14    1    3    3    0    0  0.38127387909E+02  0.48093418177E+02 -0.83673497445E+03  0.83898277220E+03  0.00000000000E+00 0. -1.
         11    1    5    5    0    0  0.29678680775E+01  0.26538704910E+02  0.60993610392E+02  0.66583268228E+02  0.00000000000E+00 0. -1.
        -12    1    5    5    0    0  0.26441524251E+02 -0.48742922134E+02  0.53805490534E+02  0.77266147015E+02  0.00000000000E+00 0.  1.
          5    1    4    4  501    0 -0.90636375958E+02 -0.46638847863E+02  0.11706492499E+02  0.10268714206E+03  0.41800000000E+01 0.  1.
         -5    1    4    4    0  501  0.27898106172E+02  0.18890950337E+02  0.31661353490E+02  0.46422904233E+02  0.41800000000E+01 0.  1.
</event>
<event>
11    1  0.5813833E-009  0.1359302E+03  0.7561462E-02  0.1112190E+00
         22   -1    0    0    0    0  0.00000000000E+00  0.00000000000E+00  0.11944898627E+03  0.11944898627E+03  0.00000000000E+00 0. -1.
         22   -1    0    0    0    0 -0.00000000000E+00 -0.00000000000E+00 -0.32819425946E+03  0.32819425946E+03  0.00000000000E+00 0. -1.
         24    2    1    2    0    0 -0.51418744216E+02 -0.29072202346E+02 -0.18123591331E+03  0.20674049594E+03  0.80038092068E+02 0.  0.
         25    2    1    2    0    0  0.51095936562E+01  0.49194448315E+02 -0.52145233048E+02  0.14426482234E+03  0.12508801678E+03 0.  0.
        -24    2    1    2    0    0  0.46309150560E+02 -0.20122245969E+02  0.24635873172E+02  0.96637927451E+02  0.78629005887E+02 0.  0.
        -13    1    3    3    0    0 -0.31161064908E+02  0.15268975070E+02 -0.24184701585E+02  0.42297202704E+02  0.00000000000E+00 0.  1.
         14    1    3    3    0    0 -0.20257679309E+02 -0.44341177415E+02 -0.15705121173E+03  0.16444329324E+03  0.00000000000E+00 0. -1.
         11    1    5    5    0    0  0.22158839925E+02 -0.16851528973E+01  0.51494365713E+02  0.56084967926E+02  0.00000000000E+00 0. -1.
        -12    1    5    5    0    0  0.24150310635E+02 -0.18437093072E+02 -0.26858492541E+02  0.40552959525E+02  0.00000000000E+00 0.  1.
          5    1    4    4  501    0 -0.46849926384E+02  0.71177754509E+01 -0.60271364028E+02  0.76783383953E+02  0.41800000000E+01 0. -1.
         -5    1    4    4    0  501  0.51959520040E+02  0.42076672864E+02  0.81261309799E+01  0.67481438387E+02  0.41800000000E+01 0. -1.
</event>
<event>
11    1  0.5813833E-009  0.2334841E+03  0.7561462E-02  0.1033085E+00
         22   -1    0    0    0    0  0.00000000000E+00  0.00000000000E+00  0.17447248544E+04  0.17447248544E+04  0.00000000000E+00 0. -1.
         22   -1    0    0    0    0 -0.00000000000E+00 -0.00000000000E+00 -0.14046003435E+03  0.14046003435E+03  0.00000000000E+00 0. -1.
         24    2    1    2    0    0 -0.19446267746E+03  0.57191526268E+01 -0.93627494887E+01  0.21168346194E+03  0.82908294813E+02 0.  0.
         25    2    1    2    0    0  0.21038902891E+03 -0.12895090868E+02  0.49813671709E+03  0.55517312229E+03  0.12508868834E+03 0.  0.
        -24    2    1    2    0    0 -0.15926351454E+02  0.71759382415E+01  0.11154908525E+04  0.11183283046E+04  0.77673753779E+02 0.  0.
        -13    1    3    3    0    0 -0.13864414697E+03 -0.31302282843E+02  0.84206373884E+01  0.14238307320E+03  0.00000000000E+00 0.  1.
         14    1    3    3    0    0 -0.55818530486E+02  0.37021435470E+02 -0.17783386877E+02  0.69300388734E+02  0.00000000000E+00 0. -1.
         11    1    5    5    0    0 -0.47517854765E+02  0.46418232432E+01  0.70642021285E+03  0.70803178612E+03  0.00000000000E+00 0. -1.
        -12    1    5    5    0    0  0.31591503311E+02  0.25341149983E+01  0.40907063965E+03  0.41029651844E+03  0.00000000000E+00 0.  1.
          5    1    4    4  501    0  0.13491138057E+03 -0.57915812400E+02  0.38350130254E+03  0.41066536667E+03  0.41800000000E+01 0. -1.
         -5    1    4    4    0  501  0.75477648346E+02  0.45020721531E+02  0.11463541455E+03  0.14450775563E+03  0.41800000000E+01 0. -1.
</event>
<event>
11    1  0.5813833E-009  0.1938323E+03  0.7561462E-02  0.1058973E+00
         22   -1    0    0    0    0  0.00000000000E+00  0.00000000000E+00  0.11994754310E+04  0.11994754310E+04  0.00000000000E+00 0.  1.
         22   -1    0    0    0    0 -0.00000000000E+00 -0.00000000000E+00 -0.23273508426E+04  0.23273508426E+04  0.00000000000E+00 0. -1.
         24    2    1    2    0    0  0.14319331589E+03 -0.34456296014E+02 -0.21884712124E+04  0.21946491114E+04  0.73395591140E+02 0.  0.
         25    2    1    2    0    0 -0.15038648900E+03  0.10768461306E+03 -0.39370094518E+02  0.22673583214E+03  0.12508821396E+03 0.  0.
        -24    2    1    2    0    0  0.71931731079E+01 -0.73228317044E+02  0.10999658953E+04  0.11054413300E+04  0.81617614446E+02 0.  0.
        -13    1    3    3    0    0  0.29730171007E+02 -0.34276149993E+02 -0.39612433600E+03  0.39871446813E+03  0.00000000000E+00 0.  1.
         14    1    3    3    0    0  0.11346314488E+03 -0.18014602106E+00 -0.17923468764E+04  0.17959346433E+04  0.00000000000E+00 0. -1.
         11    1    5    5    0    0  0.89759583166E+01 -0.24504598630E+01  0.12050451958E+02  0.15224518831E+02  0.00000000000E+00 0. -1.
        -12    1    5    5    0    0 -0.17827852087E+01 -0.70777857181E+02  0.10879154434E+04  0.10902168112E+04  0.00000000000E+00 0.  1.
          5    1    4    4  501    0 -0.12231958151E+03  0.16243143772E+02 -0.43501047680E+02  0.13090352665E+03  0.41800000000E+01 0.  1.
         -5    1    4    4    0  501 -0.28066907484E+02  0.91441469286E+02  0.41309531613E+01  0.95832305487E+02  0.41800000000E+01 0.  1.
</event>
<event>
11    1  0.5813833E-009  0.1676481E+03  0.7561462E-02  0.1080097E+00
         22   -1    0    0    0    0  0.00000000000E+00  0.00000000000E+00  0.20841902996E+03  0.20841902996E+03  0.00000000000E+00 0. -1.
         22   -1    0    0    0    0 -0.00000000000E+00 -0.00000000000E+00 -0.15916039761E+04  0.15916039761E+04  0.00000000000E+00 0. -1.
        -24    2    1    2    0    0  0.72006030311E+02 -0.94000825096E+02 -0.14507214742E+04  0.14577346412E+04  0.79852769395E+02 0.  0.
         25    2    1    2    0    0 -0.40723780700E+02  0.18121140989E+02 -0.80624121655E+02  0.15534753788E+03  0.12508319818E+03 0.  0.
         24    2    1    2    0    0 -0.31282249611E+02  0.75879684107E+02  0.14816064979E+03  0.18694082696E+03  0.79113772747E+02 0.  0.
        -13    1    5    5    0    0  0.59471118671E+01 -0.48095743762E+00 -0.75140909516E+01  0.95948435342E+01  0.00000000000E+00 0.  1.
         14    1    5    5    0    0 -0.37229361478E+02  0.76360641545E+02  0.15567474074E+03  0.17734598343E+03  0.00000000000E+00 0. -1.
         13    1    3    3    0    0  0.74568908677E+02 -0.80821056246E+02 -0.14194420354E+04  0.14236952824E+04  0.00000000000E+00 0. -1.
        -14    1    3    3    0    0 -0.25628783653E+01 -0.13179768850E+02 -0.31279438845E+02  0.34039358791E+02  0.00000000000E+00 0.  1.
          5    1    4    4  501    0  0.11567998909E+02 -0.11630806862E+02  0.27064004277E+02  0.31922202219E+02  0.41800000000E+01 0. -1.
         -5    1    4    4    0  501 -0.52291779609E+02  0.29751947851E+02 -0.10768812593E+03  0.12342533566E+03  0.41800000000E+01 0. -1.
</event>
<event>
11    1  0.5813833E-009  0.1631898E+03  0.7561462E-02  0.1084115E+00
         22   -1    0    0    0    0  0.00000000000E+00  0.00000000000E+00  0.14286106044E+04  0.14286106044E+04  0.00000000000E+00 0. -1.
         22   -1    0    0    0    0 -0.00000000000E+00 -0.00000000000E+00 -0.95460976181E+03  0.95460976181E+03  0.00000000000E+00 0.  1.
        -24    2    1    2    0    0  0.98271123450E+02 -0.93181989858E+01 -0.90593705089E+03  0.91442274282E+03  0.75518010228E+02 0.  0.
         25    2    1    2    0    0 -0.65199006826E+01 -0.54490419190E+02  0.73546500127E+02  0.15514028155E+03  0.12509078460E+03 0.  0.
         24    2    1    2    0    0 -0.91751222768E+02  0.63808618175E+02  0.13063913933E+04  0.13136573418E+04  0.80915465111E+02 0.  0.
        -11    1    5    5    0    0 -0.60372403016E+02  0.29678341674E+02  0.36648801082E+03  0.37261118218E+03  0.00000000000E+00 0.  1.
         12    1    5    5    0    0 -0.31378819751E+02  0.34130276501E+02  0.93990338250E+03  0.94104615962E+03  0.00000000000E+00 0. -1.
         13    1    3    3    0    0  0.29027340885E+02 -0.39041147874E+02 -0.38596833682E+03  0.38902230627E+03  0.00000000000E+00 0. -1.
        -14    1    3    3    0    0  0.69243782565E+02  0.29722948888E+02 -0.51996871407E+03  0.52540043655E+03  0.00000000000E+00 0.  1.
          5    1    4    4  501    0  0.10772265206E+02 -0.73567497122E+02  0.95460571222E+02  0.12107192651E+03  0.41800000000E+01 0.  1.
         -5    1    4    4    0  501 -0.17292165889E+02  0.19077077933E+02 -0.21914071095E+02  0.34068355046E+02  0.41800000000E+01 0.  1.
</event>
<event>
11    1  0.5813833E-009  0.1308834E+03  0.7561462E-02  0.1118188E+00
         22   -1    0    0    0    0  0.00000000000E+00  0.00000000000E+00  0.18060646087E+03  0.18060646087E+03  0.00000000000E+00 0.  1.
         22   -1    0    0    0    0 -0.00000000000E+00 -0.00000000000E+00 -0.55152335872E+03  0.55152335872E+03  0.00000000000E+00 0.  1.
         24    2    1    2    0    0  0.21095388705E+02  0.10310639971E+02 -0.26511727603E+03  0.27737742866E+03  0.78100852460E+02 0.  0.
         25    2    1    2    0    0 -0.49788364102E+02 -0.34448981454E+02 -0.24962242575E+03  0.28569822378E+03  0.12508599487E+03 0.  0.
        -24    2    1    2    0    0  0.28692975397E+02  0.24138341483E+02  0.14382280394E+03  0.16905416715E+03  0.80550394979E+02 0.  0.
        -11    1    3    3    0    0  0.33767020685E+02  0.15672753230E+02 -0.26007092006E+03  0.26272177363E+03  0.00000000000E+00 0.  1.
         12    1    3    3    0    0 -0.12671631979E+02 -0.53621132586E+01 -0.50463559771E+01  0.14655655027E+02  0.00000000000E+00 0. -1.
         13    1    5    5    0    0  0.10493726820E+02 -0.27970854101E+02  0.75669034107E+02  0.81352871519E+02  0.00000000000E+00 0. -1.
        -14    1    5    5    0    0  0.18199248577E+02  0.52109195583E+02  0.68153769833E+02  0.87701295632E+02  0.00000000000E+00 0.  1.
          5    1    4    4  501    0 -0.11670051287E+01 -0.15656623730E+02  0.11168815169E+02  0.19715643532E+02  0.41800000000E+01 0. -1.
         -5    1    4    4    0  501 -0.48621358973E+02 -0.18792357723E+02 -0.26079124092E+03  0.26598258025E+03  0.41800000000E+01 0. -1.
</event>
<event>
11    1  0.5813833E-009  0.1730528E+03  0.7561462E-02  0.1075405E+00
         22   -1    0    0    0    0  0.00000000000E+00  0.00000000000E+00  0.59632820857E+03  0.59632820857E+03  0.00000000000E+00 0. -1.
         22   -1    0    0    0    0 -0.00000000000E+00 -0.00000000000E+00 -0.97272801483E+03  0.97272801483E+03  0.00000000000E+00 0. -1.
         24    2    1    2    0    0 -0.37464655950E+01  0.50361052283E+02 -0.87526004025E+03  0.88045872755E+03  0.81099699609E+02 0.  0.
         25    2    1    2    0    0 -0.67442967494E+02 -0.14128683565E+03  0.34084295573E+02  0.20327361085E+03  0.12509155795E+03 0.  0.
        -24    2    1    2    0    0  0.71189433089E+02  0.90925783369E+02  0.46477593842E+03  0.48532388500E+03  0.78658546592E+02 0.  0.
        -13    1    3    3    0    0  0.11493028480E+02  0.13366845074E+02 -0.34460157847E+02  0.38707424736E+02  0.00000000000E+00 0.  1.
         14    1    3    3    0    0 -0.15239494075E+02  0.36994207208E+02 -0.84079988240E+03  0.84175130281E+03  0.00000000000E+00 0. -1.
         11    1    5    5    0    0  0.54997622881E+02  0.94297193204E+02  0.45030456351E+03  0.46334749281E+03  0.00000000000E+00 0. -1.
        -12    1    5    5    0    0  0.16191810208E+02 -0.33714098357E+01  0.14471374902E+02  0.21976392189E+02  0.00000000000E+00 0.  1.
          5    1    4    4  501    0 -0.43751102296E+02 -0.19033509981E+01 -0.24295812277E+02  0.50254756903E+02  0.41800000000E+01 0.  1.
         -5    1    4    4    0  501 -0.23691865198E+02 -0.13938348465E+03  0.58380107850E+02  0.15301885395E+03  0.41800000000E+01 0.  1.
</event>
<event>
11    1  0.5813833E-009  0.1619535E+03  0.7561462E-02  0.1085254E+00
         22   -1    0    0    0    0  0.00000000000E+00  0.00000000000E+00  0.29136379400E+03  0.29136379400E+03  0.00000000000E+00 0. -1.
         22   -1    0    0    0    0 -0.00000000000E+00 -0.00000000000E+00 -0.19224359098E+04  0.19224359098E+04  0.00000000000E+00 0. -1.
         24    2    1    2    0    0  0.10307017018E+02  0.10180503966E+03 -0.18101014792E+04  0.18153385489E+04  0.92283158315E+02 0.  0.
         25    2    1    2    0    0  0.52216440559E+01 -0.11950241671E+03 -0.23490001273E+02  0.17466467172E+03  0.12509146343E+03 0.  0.
        -24    2    1    2    0    0 -0.15528661074E+02  0.17697377048E+02  0.20251936473E+03  0.22379648317E+03  0.92284539977E+02 0.  0.
        -11    1    3    3    0    0 -0.40322208501E+02  0.48668359565E+02 -0.71971745882E+03  0.72248716961E+03  0.00000000000E+00 0.  1.
         12    1    3    3    0    0  0.50629225519E+02  0.53136680094E+02 -0.10903840204E+04  0.10928513793E+04  0.00000000000E+00 0. -1.
         11    1    5    5    0    0 -0.51499773603E+02  0.21548528716E+02  0.14974680623E+03  0.15981449166E+03  0.00000000000E+00 0. -1.
        -12    1    5    5    0    0  0.35971112529E+02 -0.38511516684E+01  0.52772558500E+02  0.63981991501E+02  0.00000000000E+00 0.  1.
          5    1    4    4  501    0 -0.54239010785E+02 -0.31578266153E+02  0.90935584088E+01  0.63554876986E+02  0.41800000000E+01 0.  1.
         -5    1    4    4    0  501  0.59460654840E+02 -0.87924150554E+02 -0.32583559681E+02  0.11110979474E+03  0.41800000000E+01 0.  1.
</event>
<event>
11    1  0.5813833E-009  0.1369281E+03  0.7561462E-02  0.1111038E+00
         22   -1    0    0    0    0  0.00000000000E+00  0.00000000000E+00  0.23888540226E+03  0.23888540226E+03  0.00000000000E+00 0.  1.
         22   -1    0    0    0    0 -0.00000000000E+00 -0.00000000000E+00 -0.27912362183E+04  0.27912362183E+04  0.00000000000E+00 0.  1.
         24    2    1    2    0    0  0.28868534368E+02 -0.43150639058E+02 -0.19925859423E+04  0.19948858829E+04  0.80470979938E+02 0.  0.
         25    2    1    2    0    0 -0.21445430734E+02  0.79736120789E+02 -0.78180579341E+03  0.79604367495E+03  0.12508988114E+03 0.  0.
        -24    2    1    2    0    0 -0.74231036342E+01 -0.36585481731E+02  0.22204091962E+03  0.23919206270E+03  0.80728389868E+02 0.  0.
        -13    1    3    3    0    0  0.47889252210E+02 -0.39115352373E+02 -0.18435793533E+04  0.18446160096E+04  0.00000000000E+00 0.  1.
         14    1    3    3    0    0 -0.19020717842E+02 -0.40352866855E+01 -0.14900658901E+03  0.15026987328E+03  0.00000000000E+00 0. -1.
         13    1    5    5    0    0  0.15559491883E+02 -0.26208702423E+02  0.22053569433E+02  0.37621188114E+02  0.00000000000E+00 0. -1.
        -14    1    5    5    0    0 -0.22982595517E+02 -0.10376779308E+02  0.19998735019E+03  0.20157087459E+03  0.00000000000E+00 0.  1.
          5    1    4    4  501    0  0.26092443228E+02  0.12573992256E+02 -0.53598519331E+03  0.53678349520E+03  0.41800000000E+01 0.  1.
         -5    1    4    4    0  501 -0.47537873962E+02  0.67162128533E+02 -0.24582060011E+03  0.25926017975E+03  0.41800000000E+01 0.  1.
</event>
<event>
11    1  0.5813833E-009  0.1673695E+03  0.7561462E-02  0.1080344E+00
         22   -1    0    0    0    0  0.00000000000E+00  0.00000000000E+00  0.44968994781E+03  0.44968994781E+03  0.00000000000E+00 0.  1.
         22   -1    0    0    0    0 -0.00000000000E+00 -0.00000000000E+00 -0.20965003934E+04  0.20965003934E+04  0.00000000000E+00 0. -1.
        -24    2    1    2    0    0 -0.55117735161E+02 -0.12343835942E+01 -0.19813744352E+04  0.19837621813E+04  0.80176374262E+02 0.  0.
         25    2    1    2    0    0  0.13131235668E+03  0.75822074441E+02 -0.57755734172E+01  0.19665433252E+03  0.12509055624E+03 0.  0.
         24    2    1    2    0    0 -0.76194621518E+02 -0.74587690847E+02  0.34033956302E+03  0.36577382741E+03  0.81182083519E+02 0.  0.
        -13    1    5    5    0    0 -0.37282228749E+02 -0.83566858243E+02  0.20148675092E+03  0.22129232967E+03  0.00000000000E+00 0.  1.
         14    1    5    5    0    0 -0.38912392769E+02  0.89791673961E+01  0.13885281211E+03  0.14448149774E+03  0.00000000000E+00 0. -1.
         13    1    3    3    0    0 -0.24522474655E+02  0.33779945406E+02 -0.13642655410E+04  0.13649039904E+04  0.00000000000E+00 0. -1.
        -14    1    3    3    0    0 -0.30595260506E+02 -0.35014329000E+02 -0.61710889420E+03  0.61885819095E+03  0.00000000000E+00 0.  1.
          5    1    4    4  501    0  0.15296993940E+03  0.69848129393E+02  0.10588989530E+02  0.16854721190E+03  0.41800000000E+01 0. -1.
         -5    1    4    4    0  501 -0.21657582725E+02  0.59739450488E+01 -0.16364562947E+02  0.28107120617E+02  0.41800000000E+01 0. -1.
</event>
<event>
11    1  0.5813833E-009  0.1445526E+03  0.7561462E-02  0.1102579E+00
         22   -1    0    0    0    0  0.00000000000E+00  0.00000000000E+00  0.14386297387E+03  0.14386297387E+03  0.00000000000E+00 0.  1.
         22   -1    0    0    0    0 -0.00000000000E+00 -0.00000000000E+00 -0.75425012065E+03  0.75425012065E+03  0.00000000000E+00 0.  1.
        -24    2    1    2    0    0 -0.20127089971E+02 -0.63177508362E+02 -0.52208437284E+03  0.53287428854E+03  0.83584793516E+02 0.  0.
         25    2    1    2    0    0  0.61436880593E+02  0.98040366823E+02 -0.16847683206E+03  0.23962488882E+03  0.12509692472E+03 0.  0.
         24    2    1    2    0    0 -0.41309790622E+02 -0.34862858461E+02  0.80174058121E+02  0.12561391716E+03  0.80181412362E+02 0.  0.
        -13    1    5    5    0    0 -0.64588029323E+02 -0.29406262882E+02  0.69833628476E+02  0.99564438906E+02  0.00000000000E+00 0.  1.
         14    1    5    5    0    0  0.23278238700E+02 -0.54565955790E+01  0.10340429645E+02  0.26049478259E+02  0.00000000000E+00 0. -1.
         13    1    3    3    0    0  0.28189574001E+02 -0.51304639462E+01 -0.97413854366E+02  0.10154030119E+03  0.00000000000E+00 0. -1.
        -14    1    3    3    0    0 -0.48316663972E+02 -0.58047044416E+02 -0.42467051847E+03  0.43133398735E+03  0.00000000000E+00 0.  1.
          5    1    4    4  501    0 -0.26201861317E+02  0.62289669085E+02 -0.35783197851E+02  0.76579697438E+02  0.41800000000E+01 0.  1.
         -5    1    4    4    0  501  0.87638741910E+02  0.35750697738E+02 -0.13269363421E+03  0.16304519138E+03  0.41800000000E+01 0.  1.
</event>
<event>
11    1  0.5813833E-009  0.1798525E+03  0.7561462E-02  0.1069762E+00
         22   -1    0    0    0    0  0.00000000000E+00  0.00000000000E+00  0.92553959627E+03  0.92553959627E+03  0.00000000000E+00 0. -1.
         22   -1    0    0    0    0 -0.00000000000E+00 -0.00000000000E+00 -0.24548825037E+03  0.24548825037E+03  0.00000000000E+00 0.  1.
        -24    2    1    2    0    0  0.91497775427E+02 -0.11832940168E+03 -0.16466655398E+03  0.23764798416E+03  0.83593062877E+02 0.  0.
         25    2    1    2    0    0  0.60696636497E+02  0.96640429202E+02  0.18364558709E+03  0.24979172072E+03  0.12508696113E+03 0.  0.
         24    2    1    2    0    0 -0.15219441192E+03  0.21688972481E+02  0.66107231280E+03  0.68358814176E+03  0.81502111997E+02 0.  0.
        -13    1    5    5    0    0 -0.67966513862E+01 -0.14594602983E+02  0.22493734702E+02  0.27661616134E+02  0.00000000000E+00 0.  1.
         14    1    5    5    0    0 -0.14539776054E+03  0.36283575464E+02  0.63857857810E+03  0.65592652563E+03  0.00000000000E+00 0. -1.
         11    1    3    3    0    0  0.33931561544E+02 -0.65449874587E+02 -0.25457480227E+02  0.77994360384E+02  0.00000000000E+00 0. -1.
        -12    1    3    3    0    0  0.57566213883E+02 -0.52879527096E+02 -0.13920907376E+03  0.15965362377E+03  0.00000000000E+00 0.  1.
          5    1    4    4  501    0  0.17372360010E+02  0.11663833042E+03  0.15181647877E+03  0.19228108238E+03  0.41800000000E+01 0. -1.
         -5    1    4    4    0  501  0.43324276487E+02 -0.19997901213E+02  0.31829108324E+02  0.57510638344E+02  0.41800000000E+01 0. -1.
</event>
<event>
11    1  0.5813833E-009  0.1371853E+03  0.7561462E-02  0.1110743E+00
         22   -1    0    0    0    0  0.00000000000E+00  0.00000000000E+00  0.11680806145E+03  0.11680806145E+03  0.00000000000E+00 0. -1.
         22   -1    0    0    0    0 -0.00000000000E+00 -0.00000000000E+00 -0.11475693250E+04  0.11475693250E+04  0.00000000000E+00 0.  1.
         24    2    1    2    0    0 -0.37062565315E+01  0.47339889382E+01 -0.80915689476E+03  0.81324384074E+03  0.81206632537E+02 0.  0.
         25    2    1    2    0    0  0.54161559564E+02  0.20095419963E+02 -0.29716296256E+03  0.32755241463E+03  0.12508979803E+03 0.  0.
        -24    2    1    2    0    0 -0.50455303033E+02 -0.24829408901E+02  0.75558593750E+02  0.12358113111E+03  0.80005985564E+02 0.  0.
        -13    1    3    3    0    0 -0.38485876185E+02 -0.86796900920E+01 -0.55085940518E+03  0.55227039026E+03  0.00000000000E+00 0.  1.
         14    1    3    3    0    0  0.34779619653E+02  0.13413679030E+02 -0.25829748958E+03  0.26097345047E+03  0.00000000000E+00 0. -1.
         13    1    5    5    0    0 -0.10502783802E+02 -0.44293470908E+02  0.62386012231E+02  0.77228456897E+02  0.00000000000E+00 0. -1.
        -14    1    5    5    0    0 -0.39952519231E+02  0.19464062007E+02  0.13172581520E+02  0.46352674212E+02  0.00000000000E+00 0.  1.
          5    1    4    4  501    0 -0.13821342310E+02  0.45936288004E+02 -0.48125061599E+02  0.68078381390E+02  0.41800000000E+01 0. -1.
         -5    1    4    4    0  501  0.67982901874E+02 -0.25840868041E+02 -0.24903790096E+03  0.25947403324E+03  0.41800000000E+01 0. -1.
</event>
<event>
11    1  0.5813833E-009  0.1776272E+03  0.7561462E-02  0.1071578E+00
         22   -1    0    0    0    0  0.00000000000E+00  0.00000000000E+00  0.35636070866E+03  0.35636070866E+03  0.00000000000E+00 0. -1.
         22   -1    0    0    0    0 -0.00000000000E+00 -0.00000000000E+00 -0.33418368789E+03  0.33418368789E+03  0.00000000000E+00 0. -1.
         24    2    1    2    0    0  0.12239092471E+03  0.27693174018E+02 -0.25448466003E+03  0.29498806095E+03  0.80678767791E+02 0.  0.
         25    2    1    2    0    0 -0.13981925766E+03  0.17841489517E+02  0.19096128598E+03  0.26829457024E+03  0.12509204657E+03 0.  0.
        -24    2    1    2    0    0  0.17428332951E+02 -0.45534663536E+02  0.85700394824E+02  0.12726176536E+03  0.80460219219E+02 0.  0.
        -11    1    3    3    0    0  0.28910977991E+02 -0.27094436888E+02 -0.52469674923E+02  0.65749676388E+02  0.00000000000E+00 0.  1.
         12    1    3    3    0    0  0.93479946718E+02  0.54787610906E+02 -0.20201498511E+03  0.22923838456E+03  0.00000000000E+00 0. -1.
         11    1    5    5    0    0  0.23882793029E+02 -0.45292072688E+02  0.11112981405E+02  0.52395209771E+02  0.00000000000E+00 0. -1.
        -12    1    5    5    0    0 -0.64544600775E+01 -0.24259084736E+00  0.74587413418E+02  0.74866555588E+02  0.00000000000E+00 0.  1.
          5    1    4    4  501    0 -0.73032521240E+02  0.15512482404E+02  0.10126198487E+02  0.75461238824E+02  0.41800000000E+01 0.  1.
         -5    1    4    4    0  501 -0.66786736420E+02  0.23290071139E+01  0.18083508749E+03  0.19283333141E+03  0.41800000000E+01 0.  1.
</event>
<event>
11    1  0.5813833E-009  0.1400875E+03  0.7561462E-02  0.1107461E+00
         22   -1    0    0    0    0  0.00000000000E+00  0.00000000000E+00  0.10382366487E+03  0.10382366487E+03  0.00000000000E+00 0. -1.
         22   -1    0    0    0    0 -0.00000000000E+00 -0.00000000000E+00 -0.54549546739E+03  0.54549546739E+03  0.00000000000E+00 0.  1.
         24    2    1    2    0    0  0.29266970465E+02 -0.66227602363E+01 -0.23395409785E+03  0.24900721031E+03  0.79810114465E+02 0.  0.
         25    2    1    2    0    0  0.33509292352E+02 -0.15104993878E+02 -0.25387868394E+03  0.28540057490E+03  0.12509223987E+03 0.  0.
        -24    2    1    2    0    0 -0.62776262817E+02  0.21727754115E+02  0.46160979271E+02  0.11491134706E+03  0.81613890991E+02 0.  0.
        -11    1    3    3    0    0  0.19722984126E+02 -0.13424467737E+02 -0.23592042355E+03  0.23712372021E+03  0.00000000000E+00 0.  1.
         12    1    3    3    0    0  0.95439863386E+01  0.68017075004E+01  0.19663257017E+01  0.11883490098E+02  0.00000000000E+00 0. -1.
         13    1    5    5    0    0 -0.25622876444E+02 -0.30578974641E+02  0.26160789986E+02  0.47707362326E+02  0.00000000000E+00 0. -1.
        -14    1    5    5    0    0 -0.37153386373E+02  0.52306728756E+02  0.20000189285E+02  0.67203984730E+02  0.00000000000E+00 0.  1.
          5    1    4    4  501    0 -0.12634844256E+02  0.72264536316E+01 -0.22674157492E+03  0.22724672741E+03  0.41800000000E+01 0.  1.
         -5    1    4    4    0  501  0.46144136608E+02 -0.22331447510E+02 -0.27137109022E+02  0.58153847484E+02  0.41800000000E+01 0.  1.
</event>
<event>
11    1  0.5813833E-009  0.1704763E+03  0.7561462E-02  0.1077618E+00
         22   -1    0    0    0    0  0.00000000000E+00  0.00000000000E+00  0.28562972046E+04  0.28562972046E+04  0.00000000000E+00 0. -1.
         22   -1    0    0    0    0 -0.00000000000E+00 -0.00000000000E+00 -0.12131355267E+03  0.12131355267E+03  0.00000000000E+00 0.  1.
         24    2    1    2    0    0  0.10937265503E+03  0.56113672397E+02 -0.27568240478E+02  0.14922301164E+03  0.79977355680E+02 0.  0.
         25    2    1    2    0    0 -0.85730837406E+02 -0.38037800806E+02  0.15748807096E+03  0.22191469794E+03  0.12508792865E+03 0.  0.
        -24    2    1    2    0    0 -0.23641817621E+02 -0.18075871591E+02  0.26050638214E+04  0.26064730477E+04  0.80365178007E+02 0.  0.
        -11    1    3    3    0    0  0.38677034339E+02  0.82594128635E+01 -0.47247039214E+02  0.61615043623E+02  0.00000000000E+00 0.  1.
         12    1    3    3    0    0  0.70695620688E+02  0.47854259533E+02  0.19678798737E+02  0.87607968015E+02  0.00000000000E+00 0. -1.
         11    1    5    5    0    0  0.12444012546E+02 -0.22595096425E+02  0.20762167162E+04  0.20763769515E+04  0.00000000000E+00 0. -1.
        -12    1    5    5    0    0 -0.36085830167E+02  0.45192248343E+01  0.52884710519E+03  0.53009609620E+03  0.00000000000E+00 0.  1.
          5    1    4    4  501    0 -0.10448762084E+03 -0.22764729080E+02  0.62776018144E+02  0.12407335191E+03  0.41800000000E+01 0.  1.
         -5    1    4    4    0  501  0.18756783437E+02 -0.15273071726E+02  0.94712052811E+02  0.97841346028E+02  0.41800000000E+01 0.  1.
</event>
<event>
11    1  0.5813833E-009  0.1806570E+03  0.7561462E-02  0.1069113E+00
         22   -1    0    0    0    0  0.00000000000E+00  0.00000000000E+00  0.17118403150E+03  0.17118403150E+03  0.00000000000E+00 0. -1.
         22   -1    0    0    0    0 -0.00000000000E+00 -0.00000000000E+00 -0.12079721455E+04  0.12079721455E+04  0.00000000000E+00 0.  1.
         24    2    1    2    0    0  0.12211642930E+03 -0.44540107707E+02 -0.95922031367E+03  0.97135795065E+03  0.80848096017E+02 0.  0.
         25    2    1    2    0    0 -0.10868516640E+03  0.86132583571E+02 -0.18757060670E+03  0.26469158186E+03  0.12509042193E+03 0.  0.
        -24    2    1    2    0    0 -0.13431262899E+02 -0.41592475863E+02  0.11000280638E+03  0.14310664448E+03  0.80427367304E+02 0.  0.
        -13    1    3    3    0    0  0.12763065961E+03 -0.36295280388E+02 -0.94339585958E+03  0.95268183593E+03  0.00000000000E+00 0.  1.
         14    1    3    3    0    0 -0.55142303124E+01 -0.82448273197E+01 -0.15824454096E+02  0.18676114716E+02  0.00000000000E+00 0. -1.
         13    1    5    5    0    0  0.13766065403E+02  0.19746750168E+02  0.34896206467E+02  0.42393206115E+02  0.00000000000E+00 0. -1.
        -14    1    5    5    0    0 -0.27197328302E+02 -0.61339226031E+02  0.75106599914E+02  0.10071343837E+03  0.00000000000E+00 0.  1.
          5    1    4    4  501    0  0.11454304159E+02  0.33893319590E+02 -0.10196601400E+03  0.10814110508E+03  0.41800000000E+01 0.  1.
         -5    1    4    4    0  501 -0.12013947056E+03  0.52239263980E+02 -0.85604592696E+02  0.15655047678E+03  0.41800000000E+01 0.  1.
</event>
<event>
11    1  0.5813833E-009  0.1557680E+03  0.7561462E-02  0.1091127E+00
         22   -1    0    0    0    0  0.00000000000E+00  0.00000000000E+00  0.53554478859E+03  0.53554478859E+03  0.00000000000E+00 0.  1.
         22   -1    0    0    0    0 -0.00000000000E+00 -0.00000000000E+00 -0.12128109607E+03  0.12128109607E+03  0.00000000000E+00 0.  1.
         24    2    1    2    0    0 -0.81438399521E+01 -0.29247748813E+02 -0.31429750146E+02  0.93767438632E+02  0.82962343346E+02 0.  0.
         25    2    1    2    0    0  0.93815086934E+02 -0.79492858778E+01  0.77632117835E+02  0.17475377893E+03  0.12509067052E+03 0.  0.
        -24    2    1    2    0    0 -0.85671246982E+02  0.37197034691E+02  0.36806132483E+03  0.38830466709E+03  0.81167688732E+02 0.  0.
        -11    1    3    3    0    0 -0.44012976989E+02 -0.65646720401E+01 -0.77534204043E+01  0.45170262235E+02  0.00000000000E+00 0.  1.
         12    1    3    3    0    0  0.35869137037E+02 -0.22683076773E+02 -0.23676329742E+02  0.48597176396E+02  0.00000000000E+00 0. -1.
         11    1    5    5    0    0 -0.29066258979E+01 -0.19467942545E+02  0.10375535508E+03  0.10560597980E+03  0.00000000000E+00 0. -1.
        -12    1    5    5    0    0 -0.82764621084E+02  0.56664977236E+02  0.26430596975E+03  0.28269868729E+03  0.00000000000E+00 0.  1.
          5    1    4    4  501    0  0.26897368052E+02 -0.89991589653E+01 -0.34034478088E+02  0.44500240100E+02  0.41800000000E+01 0.  1.
         -5    1    4    4    0  501  0.66917718882E+02  0.10498730875E+01  0.11166659592E+03  0.13025353884E+03  0.41800000000E+01 0.  1.
</event>
<event>
11    1  0.5813833E-009  0.1759619E+03  0.7561462E-02  0.1072957E+00
         22   -1    0    0    0    0  0.00000000000E+00  0.00000000000E+00  0.23140647239E+03  0.23140647239E+03  0.00000000000E+00 0. -1.
         22   -1    0    0    0    0 -0.00000000000E+00 -0.00000000000E+00 -0.69757060664E+03  0.69757060664E+03  0.00000000000E+00 0.  1.
         24    2    1    2    0    0 -0.55736703939E+02 -0.16969567470E+02 -0.43202425347E+03  0.44370840445E+03  0.82690061097E+02 0.  0.
         25    2    1    2    0    0  0.15329661040E+03 -0.52301360771E+02 -0.18514992181E+03  0.27597591895E+03  0.12508769401E+03 0.  0.
        -24    2    1    2    0    0 -0.97559906461E+02  0.69270928241E+02  0.15101004104E+03  0.20929275563E+03  0.81749790316E+02 0.  0.
        -13    1    3    3    0    0 -0.71513760846E+02 -0.32203847620E+02 -0.35870626612E+03  0.36718046128E+03  0.00000000000E+00 0.  1.
         14    1    3    3    0    0  0.15777056907E+02  0.15234280150E+02 -0.73317987356E+02  0.76527943173E+02  0.00000000000E+00 0. -1.
         13    1    5    5    0    0 -0.69773395945E+02  0.12697884223E+02  0.11917569991E+03  0.13868096659E+03  0.00000000000E+00 0. -1.
        -14    1    5    5    0    0 -0.27786510516E+02  0.56573044018E+02  0.31834341125E+02  0.70611789037E+02  0.00000000000E+00 0.  1.
          5    1    4    4  501    0  0.14745179274E+03  0.42001266573E+01 -0.13784706859E+03  0.20193800773E+03  0.41800000000E+01 0.  1.
         -5    1    4    4    0  501  0.58448176625E+01 -0.56501487428E+02 -0.47302853219E+02  0.74037911220E+02  0.41800000000E+01 0.  1.
</event>
<event>
11    1  0.6152917E-009  0.2856376E+03  0.7561462E-02  0.1006460E+00
         22   -1    0    0    0    0  0.00000000000E+00  0.00000000000E+00  0.86513639919E+03  0.86513639919E+03  0.00000000000E+00 0.  1.
         22   -1    0    0    0    0 -0.00000000000E+00 -0.00000000000E+00 -0.11373285045E+04  0.11373285045E+04  0.00000000000E+00 0. -1.
         24    2    1    2    0    0  0.18202313721E+03 -0.20043735193E+03 -0.90401392916E+03  0.94745617963E+03  0.84406597404E+02 0.  0.
         25    2    1    2    0    0 -0.80290638396E+02  0.20356996554E+03 -0.12906637482E+03  0.28318463063E+03  0.12509231965E+03 0.  0.
        -24    2    1    2    0    0 -0.10173249881E+03 -0.31326136088E+01  0.76088819862E+03  0.77182409348E+03  0.80014160579E+02 0.  0.
        -11    1    3    3    0    0  0.29850800997E+02 -0.28535091211E+01 -0.55899382493E+02  0.63434641936E+02  0.00000000000E+00 0.  1.
         12    1    3    3    0    0  0.15217233621E+03 -0.19758384281E+03 -0.84811454666E+03  0.88402153769E+03  0.00000000000E+00 0. -1.
         13    1    5    5    0    0 -0.88041224602E+01 -0.12108035721E+02  0.19516031855E+02  0.24596597340E+02  0.00000000000E+00 0. -1.
        -14    1    5    5    0    0 -0.92928376351E+02  0.89754221122E+01  0.74137216676E+03  0.74722749614E+03  0.00000000000E+00 0.  1.
          5    1    4    4  501    0 -0.75477591529E+02  0.11217423639E+03 -0.13839907940E+02  0.13597404747E+03  0.41800000000E+01 0. -1.
         -5    1    4    4    0  501 -0.48130468670E+01  0.91395729145E+02 -0.11522646688E+03  0.14721058317E+03  0.41800000000E+01 0. -1.
</event>
<event>
11    1  0.5813833E-009  0.1543920E+03  0.7561462E-02  0.1092474E+00
         22   -1    0    0    0    0  0.00000000000E+00  0.00000000000E+00  0.33657399935E+03  0.33657399935E+03  0.00000000000E+00 0. -1.
         22   -1    0    0    0    0 -0.00000000000E+00 -0.00000000000E+00 -0.51257114593E+03  0.51257114593E+03  0.00000000000E+00 0. -1.
        -24    2    1    2    0    0 -0.34453850174E+02  0.62678508284E+01 -0.42072890067E+03  0.42981766207E+03  0.80647758954E+02 0.  0.
         25    2    1    2    0    0  0.79796507288E+02 -0.79903470234E+02  0.24961351644E+02  0.17036051172E+03  0.12509031836E+03 0.  0.
         24    2    1    2    0    0 -0.45342657114E+02  0.73635619405E+02  0.21977040244E+03  0.24896697148E+03  0.78786814247E+02 0.  0.
        -13    1    5    5    0    0  0.31321773625E+01  0.11094940903E+02 -0.35336899567E+01  0.12057993755E+02  0.00000000000E+00 0.  1.
         14    1    5    5    0    0 -0.48474834476E+02  0.62540678502E+02  0.22330409240E+03  0.23690897773E+03  0.00000000000E+00 0. -1.
         13    1    3    3    0    0 -0.58819157588E+02  0.10948582139E+02 -0.34438272353E+03  0.34954116355E+03  0.00000000000E+00 0. -1.
        -14    1    3    3    0    0  0.24365307414E+02 -0.46807313107E+01 -0.76346177138E+02  0.80276498520E+02  0.00000000000E+00 0.  1.
          5    1    4    4  501    0 -0.30678157002E+02  0.18604822388E+01  0.46259241983E+01  0.31360521136E+02  0.41800000000E+01 0.  1.
         -5    1    4    4    0  501  0.11047466429E+03 -0.81763952472E+02  0.20335427446E+02  0.13899999059E+03  0.41800000000E+01 0.  1.
</event>
<event>
11    1  0.5813833E-009  0.1776621E+03  0.7561462E-02  0.1071550E+00
         22   -1    0    0    0    0  0.00000000000E+00  0.00000000000E+00  0.36430912190E+03  0.36430912190E+03  0.00000000000E+00 0.  1.
         22   -1    0    0    0    0 -0.00000000000E+00 -0.00000000000E+00 -0.76487719691E+03  0.76487719691E+03  0.00000000000E+00 0.  1.
         24    2    1    2    0    0 -0.47942956113E+02 -0.39454471492E+02 -0.26880395747E+03  0.28683648546E+03  0.78513817105E+02 0.  0.
         25    2    1    2    0    0  0.24429223696E+02  0.16234946013E+03 -0.44768943474E+03  0.49297830798E+03  0.12509055915E+03 0.  0.
        -24    2    1    2    0    0  0.23513732417E+02 -0.12289498864E+03  0.31592531719E+03  0.34937152537E+03  0.81213193823E+02 0.  0.
        -11    1    3    3    0    0 -0.39818999100E+02 -0.62880655046E+02 -0.21689468109E+03  0.22930946808E+03  0.00000000000E+00 0.  1.
         12    1    3    3    0    0 -0.81239570133E+01  0.23426183554E+02 -0.51909276385E+02  0.57527017377E+02  0.00000000000E+00 0. -1.
         13    1    5    5    0    0  0.12754338316E+02  0.96857536782E+01  0.29518086501E+02  0.33582799181E+02  0.00000000000E+00 0. -1.
        -14    1    5    5    0    0  0.10759394102E+02 -0.13258074232E+03  0.28640723069E+03  0.31578872619E+03  0.00000000000E+00 0.  1.
          5    1    4    4  501    0 -0.76960775333E+01 -0.19594901138E+02 -0.52219509061E+02  0.56458296880E+02  0.41800000000E+01 0. -1.
         -5    1    4    4    0  501  0.32125301229E+02  0.18194436127E+03 -0.39546992568E+03  0.43652001110E+03  0.41800000000E+01 0. -1.
</event>
<event>
11    1  0.5813833E-009  0.2433680E+03  0.7561462E-02  0.1027493E+00
         22   -1    0    0    0    0  0.00000000000E+00  0.00000000000E+00  0.73458121083E+03  0.73458121083E+03  0.00000000000E+00 0.  1.
         22   -1    0    0    0    0 -0.00000000000E+00 -0.00000000000E+00 -0.26926299206E+03  0.26926299206E+03  0.00000000000E+00 0.  1.
         24    2    1    2    0    0 -0.54369128431E+02  0.18773642567E+03 -0.61228598173E+02  0.21970411588E+03  0.79498362568E+02 0.  0.
         25    2    1    2    0    0  0.13593257037E+03 -0.19966475970E+03  0.29837110147E+02  0.27364629414E+03  0.12509340991E+03 0.  0.
        -24    2    1    2    0    0 -0.81563441941E+02  0.11928334030E+02  0.49670970680E+03  0.51049379287E+03  0.84193227221E+02 0.  0.
        -13    1    3    3    0    0 -0.33021776903E+02  0.18058205023E+03 -0.68658254326E+02  0.19599558797E+03  0.00000000000E+00 0.  1.
         14    1    3    3    0    0 -0.21347351528E+02  0.71543754354E+01  0.74296561533E+01  0.23708527910E+02  0.00000000000E+00 0. -1.
         11    1    5    5    0    0 -0.24373453174E+02 -0.27649091628E+02  0.29144884898E+03  0.29377026579E+03  0.00000000000E+00 0. -1.
        -12    1    5    5    0    0 -0.57189988767E+02  0.39577425658E+02  0.20526085782E+03  0.21672352708E+03  0.00000000000E+00 0.  1.
          5    1    4    4  501    0  0.50704524809E+02 -0.60767032611E+02 -0.48363850054E+02  0.92844577012E+02  0.41800000000E+01 0. -1.
         -5    1    4    4    0  501  0.85228045562E+02 -0.13889772709E+03  0.78200960201E+02  0.18080171713E+03  0.41800000000E+01 0. -1.
</event>
<event>
11    1  0.5813833E-009  0.1915633E+03  0.7561462E-02  0.1060655E+00
         22   -1    0    0    0    0  0.00000000000E+00  0.00000000000E+00  0.13093472667E+03  0.13093472667E+03  0.00000000000E+00 0.  1.
         22   -1    0    0    0    0 -0.00000000000E+00 -0.00000000000E+00 -0.18544103406E+04  0.18544103406E+04  0.00000000000E+00 0. -1.
        -24    2    1    2    0    0 -0.12264827883E+02 -0.20497976453E+02 -0.83873490234E+03  0.84289232955E+03  0.80128957176E+02 0.  0.
         25    2    1    2    0    0 -0.12056417677E+03 -0.40554783244E+02 -0.94837385226E+03  0.96500804314E+03  0.12508856260E+03 0.  0.
         24    2    1    2    0    0  0.13282900465E+03  0.61052759698E+02  0.63633140674E+02  0.17744469458E+03  0.77887477163E+02 0.  0.
        -11    1    5    5    0    0  0.99055749545E+02  0.78845925720E+02  0.56367307167E+02  0.13858569492E+03  0.00000000000E+00 0.  1.
         12    1    5    5    0    0  0.33773255108E+02 -0.17793166022E+02  0.72658335069E+01  0.38858999655E+02  0.00000000000E+00 0. -1.
         11    1    3    3    0    0  0.29619087245E+01  0.29921763787E+02 -0.36580959883E+03  0.36704325010E+03  0.00000000000E+00 0. -1.
        -12    1    3    3    0    0 -0.15226736608E+02 -0.50419740241E+02 -0.47292530351E+03  0.47584907945E+03  0.00000000000E+00 0.  1.
          5    1    4    4  501    0 -0.50716659922E+02 -0.38374556793E+02 -0.14255986751E+03  0.15615881156E+03  0.41800000000E+01 0.  1.
         -5    1    4    4    0  501 -0.69847516847E+02 -0.21802264515E+01 -0.80581398476E+03  0.80884923158E+03  0.41800000000E+01 0.  1.
</event>
<event>
11    1  0.5813833E-009  0.1530755E+03  0.7561462E-02  0.1093777E+00
         22   -1    0    0    0    0  0.00000000000E+00  0.00000000000E+00  0.25761098000E+04  0.25761098000E+04  0.00000000000E+00 0. -1.
         22   -1    0    0    0    0 -0.00000000000E+00 -0.00000000000E+00 -0.33322569188E+03  0.33322569188E+03  0.00000000000E+00 0. -1.
        -24    2    1    2    0    0  0.19583578531E+02 -0.86546305002E+02 -0.30896796669E+03  0.33205867643E+03  0.83234492237E+02 0.  0.
         25    2    1    2    0    0  0.28294946457E+01  0.73567799688E+02  0.43133000153E+03  0.45508572899E+03  0.12504888372E+03 0.  0.
         24    2    1    2    0    0 -0.22413073176E+02  0.12978505314E+02  0.21205220733E+04  0.21221910865E+04  0.80064703133E+02 0.  0.
        -11    1    5    5    0    0  0.26101693562E+02 -0.12049375002E+02  0.59796110794E+03  0.59865179567E+03  0.00000000000E+00 0.  1.
         12    1    5    5    0    0 -0.48514766739E+02  0.25027880315E+02  0.15225609654E+04  0.15235392908E+04  0.00000000000E+00 0. -1.
         13    1    3    3    0    0  0.28629791384E+02 -0.43083344342E+02 -0.26343355059E+03  0.26846429016E+03  0.00000000000E+00 0. -1.
        -14    1    3    3    0    0 -0.90462128531E+01 -0.43462960660E+02 -0.45534416101E+02  0.63594386277E+02  0.00000000000E+00 0.  1.
          5    1    4    4  501    0 -0.51108615520E+02  0.64593756934E+02  0.32677369925E+03  0.33702072182E+03  0.41800000000E+01 0. -1.
         -5    1    4    4    0  501  0.53938110166E+02  0.89740427541E+01  0.10455630228E+03  0.11806500717E+03  0.41800000000E+01 0. -1.
</event>
<event>
11    1  0.5813833E-009  0.2437718E+03  0.7561462E-02  0.1027270E+00
         22   -1    0    0    0    0  0.00000000000E+00  0.00000000000E+00  0.31762175264E+03  0.31762175264E+03  0.00000000000E+00 0.  1.
         22   -1    0    0    0    0 -0.00000000000E+00 -0.00000000000E+00 -0.16229246928E+04  0.16229246928E+04  0.00000000000E+00 0. -1.
        -24    2    1    2    0    0 -0.39953523392E+02 -0.61720224196E+02 -0.10623546506E+04  0.10683880576E+04  0.86313196514E+02 0.  0.
         25    2    1    2    0    0  0.33788055285E+02 -0.15241152489E+03 -0.49358476448E+03  0.53258261793E+03  0.12508964620E+03 0.  0.
         24    2    1    2    0    0  0.61654681063E+01  0.21413174909E+03  0.25063647490E+03  0.33957576991E+03  0.81256642789E+02 0.  0.
        -13    1    5    5    0    0  0.43141615908E+02  0.12397242272E+03  0.13383867008E+03  0.18746506402E+03  0.00000000000E+00 0.  1.
         14    1    5    5    0    0 -0.36976147802E+02  0.90159326367E+02  0.11679780482E+03  0.15211070589E+03  0.00000000000E+00 0. -1.
         11    1    3    3    0    0 -0.79928710737E+01 -0.49070313341E+02 -0.93952523993E+03  0.94083976218E+03  0.00000000000E+00 0. -1.
        -12    1    3    3    0    0 -0.31960652318E+02 -0.12649910855E+02 -0.12282941063E+03  0.12754829539E+03  0.00000000000E+00 0.  1.
          5    1    4    4  501    0 -0.25419743791E+02  0.11593910279E+01 -0.14244365059E+03  0.14475901891E+03  0.41800000000E+01 0.  1.
         -5    1    4    4    0  501  0.59207799076E+02 -0.15357091592E+03 -0.35114111389E+03  0.38782359901E+03  0.41800000000E+01 0.  1.
</event>
<event>
11    1  0.5813833E-009  0.1384153E+03  0.7561462E-02  0.1109341E+00
         22   -1    0    0    0    0  0.00000000000E+00  0.00000000000E+00  0.65663806971E+03  0.65663806971E+03  0.00000000000E+00 0. -1.
         22   -1    0    0    0    0 -0.00000000000E+00 -0.00000000000E+00 -0.29110963147E+03  0.29110963147E+03  0.00000000000E+00 0. -1.
        -24    2    1    2    0    0  0.12149964529E+02  0.15627762490E+02 -0.24921071764E+03  0.26266054268E+03  0.80577480071E+02 0.  0.
         25    2    1    2    0    0 -0.82865680693E+01 -0.72600525149E+02  0.14459575351E+03  0.20467235483E+03  0.12507332824E+03 0.  0.
         24    2    1    2    0    0 -0.38633964597E+01  0.56972762658E+02  0.47014340238E+03  0.48041480367E+03  0.80639588701E+02 0.  0.
        -11    1    5    5    0    0 -0.85823298558E+01 -0.26407921182E+01  0.30117605741E+01  0.94710543511E+01  0.00000000000E+00 0.  1.
         12    1    5    5    0    0  0.47189333961E+01  0.59613554776E+02  0.46713164180E+03  0.47094374932E+03  0.00000000000E+00 0. -1.
         11    1    3    3    0    0  0.10136472279E+02  0.81234563227E+01 -0.25346817677E+03  0.25380081806E+03  0.00000000000E+00 0. -1.
        -12    1    3    3    0    0  0.20134922497E+01  0.75043061677E+01  0.42574591283E+01  0.88597246191E+01  0.00000000000E+00 0.  1.
          5    1    4    4  501    0 -0.64725651825E+02 -0.35793636120E+02  0.53927008593E+02  0.91630721086E+02  0.41800000000E+01 0. -1.
         -5    1    4    4    0  501  0.56439083756E+02 -0.36806889029E+02  0.90668744918E+02  0.11304163375E+03  0.41800000000E+01 0. -1.
</event>
<event>
11    1  0.5813833E-009  0.1529892E+03  0.7561462E-02  0.1093863E+00
         22   -1    0    0    0    0  0.00000000000E+00  0.00000000000E+00  0.11931195993E+03  0.11931195993E+03  0.00000000000E+00 0. -1.
         22   -1    0    0    0    0 -0.00000000000E+00 -0.00000000000E+00 -0.87304286882E+03  0.87304286882E+03  0.00000000000E+00 0.  1.
         24    2    1    2    0    0  0.81492148381E+02 -0.35502183429E+02 -0.59765318897E+03  0.60965296530E+03  0.81154350014E+02 0.  0.
         25    2    1    2    0    0 -0.87865341533E+02  0.88054007014E+01 -0.22620490601E+03  0.27315569737E+03  0.12509005627E+03 0.  0.
        -24    2    1    2    0    0  0.63731931525E+01  0.26696782728E+02  0.70127186094E+02  0.10954616608E+03  0.79556297519E+02 0.  0.
        -13    1    3    3    0    0  0.55925716940E+02 -0.26993579822E+02 -0.55954827644E+03  0.56298367013E+03  0.00000000000E+00 0.  1.
         14    1    3    3    0    0  0.25566431441E+02 -0.85086036066E+01 -0.38104912537E+02  0.46669295167E+02  0.00000000000E+00 0. -1.
         13    1    5    5    0    0  0.35777807533E+02  0.11399487305E+02  0.66280332298E+02  0.76177964479E+02  0.00000000000E+00 0. -1.
        -14    1    5    5    0    0 -0.29404614380E+02  0.15297295423E+02  0.38468537958E+01  0.33368201603E+02  0.00000000000E+00 0.  1.
          5    1    4    4  501    0 -0.80009947387E+02 -0.46322931992E+02 -0.10667348349E+03  0.14122361768E+03  0.41800000000E+01 0.  1.
         -5    1    4    4    0  501 -0.78553941461E+01  0.55128332694E+02 -0.11953142252E+03  0.13193207969E+03  0.41800000000E+01 0.  1.
</event>
<event>
11    1  0.5813833E-009  0.1595301E+03  0.7561462E-02  0.1087520E+00
         22   -1    0    0    0    0  0.00000000000E+00  0.00000000000E+00  0.72389789784E+03  0.72389789784E+03  0.00000000000E+00 0.  1.
         22   -1    0    0    0    0 -0.00000000000E+00 -0.00000000000E+00 -0.17506663839E+04  0.17506663839E+04  0.00000000000E+00 0. -1.
        -24    2    1    2    0    0  0.53994070286E+02 -0.19890302278E+02 -0.17140596032E+04  0.17171931401E+04  0.86261075207E+02 0.  0.
         25    2    1    2    0    0  0.53969912902E+02  0.43664022456E+02  0.16670677399E+03  0.21967543604E+03  0.12508737087E+03 0.  0.
         24    2    1    2    0    0 -0.10796398319E+03 -0.23773720178E+02  0.52058434320E+03  0.53769570563E+03  0.76728104533E+02 0.  0.
        -13    1    5    5    0    0 -0.10961404879E+03 -0.67206474057E-01  0.45235672436E+03  0.46544801029E+03  0.00000000000E+00 0.  1.
         14    1    5    5    0    0  0.16500656063E+01 -0.23706513704E+02  0.68227618844E+02  0.72247695338E+02  0.00000000000E+00 0. -1.
         11    1    3    3    0    0  0.32675075936E+02 -0.13222327357E+02 -0.16247551667E+04  0.16251374841E+04  0.00000000000E+00 0. -1.
        -12    1    3    3    0    0  0.21318994350E+02 -0.66679749204E+01 -0.89304436588E+02  0.92055656013E+02  0.00000000000E+00 0.  1.
          5    1    4    4  501    0 -0.88242158850E+01  0.72774819554E+02  0.78704366969E+02  0.10763777649E+03  0.41800000000E+01 0.  1.
         -5    1    4    4    0  501  0.62794128787E+02 -0.29110797098E+02  0.88002407016E+02  0.11203765955E+03  0.41800000000E+01 0.  1.
</event>
<event>
11    1  0.5813833E-009  0.1693639E+03  0.7561462E-02  0.1078587E+00
         22   -1    0    0    0    0  0.00000000000E+00  0.00000000000E+00  0.26412463695E+04  0.26412463695E+04  0.00000000000E+00 0.  1.
         22   -1    0    0    0    0 -0.00000000000E+00 -0.00000000000E+00 -0.11078264361E+04  0.11078264361E+04  0.00000000000E+00 0.  1.
         24    2    1    2    0    0 -0.45179449335E+02  0.10500166014E+03 -0.10955580655E+04  0.11044420124E+04  0.80486971459E+02 0.  0.
         25    2    1    2    0    0  0.17247018827E+02 -0.88889309260E+02  0.87803226120E+03  0.89150799881E+03  0.12508833389E+03 0.  0.
        -24    2    1    2    0    0  0.27932430508E+02 -0.16112350876E+02  0.17509457377E+04  0.17531227944E+04  0.81170974537E+02 0.  0.
        -13    1    3    3    0    0 -0.60708091488E+02  0.10607447506E+03 -0.89918328691E+03  0.90745129351E+03  0.00000000000E+00 0.  1.
         14    1    3    3    0    0  0.15528642153E+02 -0.10728149225E+01 -0.19637477863E+03  0.19699071892E+03  0.00000000000E+00 0. -1.
         13    1    5    5    0    0  0.18768485122E+02  0.15166277357E+02  0.15697310648E+03  0.15881696433E+03  0.00000000000E+00 0. -1.
        -14    1    5    5    0    0  0.91639453860E+01 -0.31278628234E+02  0.15939726313E+04  0.15943058300E+04  0.00000000000E+00 0.  1.
          5    1    4    4  501    0 -0.50430346335E+02 -0.52717923400E+02  0.32184883003E+03  0.33004021129E+03  0.41800000000E+01 0. -1.
         -5    1    4    4    0  501  0.67677365162E+02 -0.36171385861E+02  0.55618343117E+03  0.56146778752E+03  0.41800000000E+01 0. -1.
</event>
<event>
11    1  0.5813833E-009  0.1391238E+03  0.7561462E-02  0.1108541E+00
         22   -1    0    0    0    0  0.00000000000E+00  0.00000000000E+00  0.32870710513E+03  0.32870710513E+03  0.00000000000E+00 0.  1.
         22   -1    0    0    0    0 -0.00000000000E+00 -0.00000000000E+00 -0.55205035921E+03  0.55205035921E+03  0.00000000000E+00 0.  1.
         24    2    1    2    0    0  0.16214738814E+02  0.56905135303E+02 -0.42981063744E+03  0.44092801676E+03  0.78608013135E+02 0.  0.
         25    2    1    2    0    0 -0.14752931297E+02  0.81191263359E+01 -0.71411749369E+02  0.14501826427E+03  0.12508832811E+03 0.  0.
        -24    2    1    2    0    0 -0.14618075168E+01 -0.65024261639E+02  0.27787913272E+03  0.29481118332E+03  0.73935985310E+02 0.  0.
        -13    1    3    3    0    0  0.13392188950E+02 -0.30791157047E+01 -0.26770104203E+03  0.26805350134E+03  0.00000000000E+00 0.  1.
         14    1    3    3    0    0  0.28225498644E+01  0.59984251007E+02 -0.16210959541E+03  0.17287451541E+03  0.00000000000E+00 0. -1.
         11    1    5    5    0    0 -0.51947892790E+01 -0.53785832362E+02  0.79774121579E+02  0.96352540559E+02  0.00000000000E+00 0. -1.
        -12    1    5    5    0    0  0.37329817622E+01 -0.11238429277E+02  0.19810501114E+03  0.19845864276E+03  0.00000000000E+00 0.  1.
          5    1    4    4  501    0  0.41444211402E+02  0.26589403491E+02  0.34223494474E+01  0.49535885099E+02  0.41800000000E+01 0.  1.
         -5    1    4    4    0  501 -0.56197142699E+02 -0.18470277155E+02 -0.74834098816E+02  0.95482379167E+02  0.41800000000E+01 0.  1.
</event>
<event>
11    1  0.5813833E-009  0.1341602E+03  0.7561462E-02  0.1114261E+00
         22   -1    0    0    0    0  0.00000000000E+00  0.00000000000E+00  0.56361699480E+03  0.56361699480E+03  0.00000000000E+00 0. -1.
         22   -1    0    0    0    0 -0.00000000000E+00 -0.00000000000E+00 -0.20084786863E+03  0.20084786863E+03  0.00000000000E+00 0.  1.
         24    2    1    2    0    0 -0.45669662423E+02 -0.14597450357E+02 -0.16062729857E+03  0.18560018611E+03  0.79671176822E+02 0.  0.
         25    2    1    2    0    0  0.55486465287E+02  0.14920445981E+02  0.18298133272E+03  0.22897945202E+03  0.12509218115E+03 0.  0.
        -24    2    1    2    0    0 -0.98168028635E+01 -0.32299562410E+00  0.34041509202E+03  0.34988522529E+03  0.80254358496E+02 0.  0.
        -13    1    3    3    0    0 -0.70361943091E+01  0.70516851320E+01 -0.13306603057E+03  0.13343838572E+03  0.00000000000E+00 0.  1.
         14    1    3    3    0    0 -0.38633468114E+02 -0.21649135489E+02 -0.27561268004E+02  0.52161800390E+02  0.00000000000E+00 0. -1.
         13    1    5    5    0    0  0.37843421642E+01 -0.10387795661E+02  0.32964026462E+03  0.32982560786E+03  0.00000000000E+00 0. -1.
        -14    1    5    5    0    0 -0.13601145028E+02  0.10064800036E+02  0.10774827401E+02  0.20059617428E+02  0.00000000000E+00 0.  1.
          5    1    4    4  501    0 -0.48296761184E+01  0.19469995158E+02  0.16424571532E+03  0.16551898345E+03  0.41800000000E+01 0. -1.
         -5    1    4    4    0  501  0.60316141405E+02 -0.45495491771E+01  0.18735617408E+02  0.63460468572E+02  0.41800000000E+01 0. -1.
</event>
<event>
11    1  0.5813833E-009  0.1459370E+03  0.7561462E-02  0.1101104E+00
         22   -1    0    0    0    0  0.00000000000E+00  0.00000000000E+00  0.20911533982E+03  0.20911533982E+03  0.00000000000E+00 0.  1.
         22   -1    0    0    0    0 -0.00000000000E+00 -0.00000000000E+00 -0.41097318162E+03  0.41097318162E+03  0.00000000000E+00 0. -1.
         24    2    1    2    0    0  0.83836600674E+02 -0.26621551527E+02 -0.18254388231E+03  0.21824992307E+03  0.81076984000E+02 0.  0.
         25    2    1    2    0    0 -0.61164847120E+02 -0.49462736683E+02 -0.16229235235E+03  0.21948537845E+03  0.12508925964E+03 0.  0.
        -24    2    1    2    0    0 -0.22671753554E+02  0.76084288210E+02  0.14297839285E+03  0.18235321992E+03  0.80666279637E+02 0.  0.
        -13    1    3    3    0    0 -0.17029658260E+01 -0.10499528178E+02  0.48013799369E+01  0.11670194252E+02  0.00000000000E+00 0.  1.
         14    1    3    3    0    0  0.85539566500E+02 -0.16122023349E+02 -0.18734526225E+03  0.20657972882E+03  0.00000000000E+00 0. -1.
         13    1    5    5    0    0 -0.10764398475E+02  0.29431104104E+02 -0.15516323089E+00  0.31338255200E+02  0.00000000000E+00 0. -1.
        -14    1    5    5    0    0 -0.11907355080E+02  0.46653184106E+02  0.14313355608E+03  0.15101496472E+03  0.00000000000E+00 0.  1.
          5    1    4    4  501    0 -0.37356725772E+02  0.36519262863E+02 -0.31629112746E+02  0.61213190519E+02  0.41800000000E+01 0. -1.
         -5    1    4    4    0  501 -0.23808121348E+02 -0.85981999546E+02 -0.13066323960E+03  0.15827218793E+03  0.41800000000E+01 0. -1.
</event>
<event>
11    1  0.5813833E-009  0.1379211E+03  0.7561462E-02  0.1109902E+00
         22   -1    0    0    0    0  0.00000000000E+00  0.00000000000E+00  0.61677869333E+03  0.61677869333E+03  0.00000000000E+00 0.  1.
         22   -1    0    0    0    0 -0.00000000000E+00 -0.00000000000E+00 -0.36640114343E+03  0.36640114343E+03  0.00000000000E+00 0.  1.
         24    2    1    2    0    0 -0.42557333303E+02 -0.24877615179E+02 -0.31889549809E+03  0.33255372555E+03  0.80421510286E+02 0.  0.
         25    2    1    2    0    0 -0.15185976655E+02 -0.35767087745E+01  0.76486440262E+02  0.14744782921E+03  0.12508908850E+03 0.  0.
        -24    2    1    2    0    0  0.57743309958E+02  0.28454323953E+02  0.49278660773E+03  0.50317828200E+03  0.78776927638E+02 0.  0.
        -13    1    3    3    0    0 -0.38718689129E+02  0.21853328040E+02 -0.11402990077E+03  0.12239086201E+03  0.00000000000E+00 0.  1.
         14    1    3    3    0    0 -0.38386441742E+01 -0.46730943219E+02 -0.20486559732E+03  0.21016286354E+03  0.00000000000E+00 0. -1.
         13    1    5    5    0    0  0.31438887723E+02 -0.13253227508E+02  0.73856838986E+02  0.81356526264E+02  0.00000000000E+00 0. -1.
        -14    1    5    5    0    0  0.26304422235E+02  0.41707551461E+02  0.41892976874E+03  0.42182175574E+03  0.00000000000E+00 0.  1.
          5    1    4    4  501    0 -0.46090345907E+02  0.30369950141E+02  0.84144074369E+02  0.10071917151E+03  0.41800000000E+01 0. -1.
         -5    1    4    4    0  501  0.30904369252E+02 -0.33946658915E+02 -0.76576341067E+01  0.46728657700E+02  0.41800000000E+01 0. -1.
</event>
<event>
11    1  0.5813833E-009  0.1364017E+03  0.7561462E-02  0.1111644E+00
         22   -1    0    0    0    0  0.00000000000E+00  0.00000000000E+00  0.12576600459E+04  0.12576600459E+04  0.00000000000E+00 0.  1.
         22   -1    0    0    0    0 -0.00000000000E+00 -0.00000000000E+00 -0.89096160491E+02  0.89096160491E+02  0.00000000000E+00 0. -1.
        -24    2    1    2    0    0  0.73415031355E+01 -0.49216582977E+01 -0.42503327136E+02  0.90642848474E+02  0.79570552173E+02 0.  0.
         25    2    1    2    0    0 -0.38388274726E+02  0.48520699960E+02  0.22092547827E+03  0.26131256823E+03  0.12509305897E+03 0.  0.
         24    2    1    2    0    0  0.31046771591E+02 -0.43599041662E+02  0.99014173423E+03  0.99480078965E+03  0.79894798086E+02 0.  0.
        -13    1    5    5    0    0  0.43535618989E+02 -0.48920249767E+02  0.95314616138E+03  0.95539318917E+03  0.00000000000E+00 0.  1.
         14    1    5    5    0    0 -0.12488847398E+02  0.53212081044E+01  0.36995572854E+02  0.39407600483E+02  0.00000000000E+00 0. -1.
         11    1    3    3    0    0  0.88016781139E+01  0.16017816223E+02 -0.60371373683E+02  0.63077275896E+02  0.00000000000E+00 0. -1.
        -12    1    3    3    0    0 -0.14601749784E+01 -0.20939474520E+02  0.17868046546E+02  0.27565572578E+02  0.00000000000E+00 0.  1.
          5    1    4    4  501    0 -0.19668078779E+01  0.82109771322E+02  0.93453080420E+02  0.12448627844E+03  0.41800000000E+01 0.  1.
         -5    1    4    4    0  501 -0.36421466848E+02 -0.33589071362E+02  0.12747239785E+03  0.13682628979E+03  0.41800000000E+01 0.  1.
</event>
<event>
11    1  0.5813833E-009  0.1442497E+03  0.7561462E-02  0.1102904E+00
         22   -1    0    0    0    0  0.00000000000E+00  0.00000000000E+00  0.22251888226E+03  0.22251888226E+03  0.00000000000E+00 0. -1.
         22   -1    0    0    0    0 -0.00000000000E+00 -0.00000000000E+00 -0.53690539153E+03  0.53690539153E+03  0.00000000000E+00 0. -1.
        -24    2    1    2    0    0  0.64634211357E+01  0.77971295455E+02 -0.44100444936E+03  0.45573277541E+03  0.84179210629E+02 0.  0.
         25    2    1    2    0    0  0.18086023132E+02 -0.22748931183E+02 -0.13127924808E+02  0.12908722243E+03  0.12508617222E+03 0.  0.
         24    2    1    2    0    0 -0.24549444267E+02 -0.55222364273E+02  0.13974586490E+03  0.17460427596E+03  0.85472578620E+02 0.  0.
        -11    1    5    5    0    0 -0.28027954287E+02 -0.52505512437E+02  0.33561846816E+02  0.68328563716E+02  0.00000000000E+00 0.  1.
         12    1    5    5    0    0  0.34785100191E+01 -0.27168518358E+01  0.10618401808E+03  0.10627571224E+03  0.00000000000E+00 0. -1.
         11    1    3    3    0    0 -0.89024352950E+00  0.69671028878E+02 -0.16004321857E+03  0.17455279032E+03  0.00000000000E+00 0. -1.
        -12    1    3    3    0    0  0.73536646652E+01  0.83002665775E+01 -0.28096123079E+03  0.28117998509E+03  0.00000000000E+00 0.  1.
          5    1    4    4  501    0  0.25226464900E+02 -0.47537831039E+02 -0.56696052637E+02  0.78282403488E+02  0.41800000000E+01 0.  1.
         -5    1    4    4    0  501 -0.71404417679E+01  0.24788899856E+02  0.43568127829E+02  0.50804818937E+02  0.41800000000E+01 0.  1.
</event>
<event>
11    1  0.5813833E-009  0.1837284E+03  0.7561462E-02  0.1066666E+00
         22   -1    0    0    0    0  0.00000000000E+00  0.00000000000E+00  0.37656489272E+03  0.37656489272E+03  0.00000000000E+00 0.  1.
         22   -1    0    0    0    0 -0.00000000000E+00 -0.00000000000E+00 -0.38727132376E+04  0.38727132376E+04  0.00000000000E+00 0. -1.
         24    2    1    2    0    0  0.20667128174E+02 -0.13309995770E+03 -0.37755950440E+04  0.37786684836E+04  0.71237936590E+02 0.  0.
         25    2    1    2    0    0  0.23853676176E+01  0.12914981008E+03 -0.88845165632E-01  0.17981188890E+03  0.12508774550E+03 0.  0.
        -24    2    1    2    0    0 -0.23052495792E+02  0.39501476284E+01  0.27953554425E+03  0.29079775789E+03  0.76656338733E+02 0.  0.
        -13    1    3    3    0    0  0.26210064081E+02 -0.14783766924E+02 -0.47752456285E+03  0.47847177069E+03  0.00000000000E+00 0.  1.
         14    1    3    3    0    0 -0.55429359068E+01 -0.11831619078E+03 -0.32980704811E+04  0.33001967129E+04  0.00000000000E+00 0. -1.
         11    1    5    5    0    0 -0.17255543612E+02 -0.49077417986E+01  0.90285227737E+01  0.20083673428E+02  0.00000000000E+00 0. -1.
        -12    1    5    5    0    0 -0.57969521801E+01  0.88578894270E+01  0.27050702147E+03  0.27071408446E+03  0.00000000000E+00 0.  1.
          5    1    4    4  501    0 -0.34058961446E+02  0.10507117281E+02  0.35652613993E+02  0.50586496745E+02  0.41800000000E+01 0.  1.
         -5    1    4    4    0  501  0.36444329064E+02  0.11864269279E+03 -0.35741459158E+02  0.12922539215E+03  0.41800000000E+01 0.  1.
</event>
<event>
11    1  0.5813833E-009  0.2558930E+03  0.7561462E-02  0.1020806E+00
         22   -1    0    0    0    0  0.00000000000E+00  0.00000000000E+00  0.22063913052E+04  0.22063913052E+04  0.00000000000E+00 0. -1.
         22   -1    0    0    0    0 -0.00000000000E+00 -0.00000000000E+00 -0.56513916468E+03  0.56513916468E+03  0.00000000000E+00 0. -1.
        -24    2    1    2    0    0 -0.63962695107E+02 -0.27518064290E+02 -0.42679501953E+03  0.44479825719E+03  0.10412987408E+03 0.  0.
         25    2    1    2    0    0 -0.63967344750E+02  0.21130797446E+03  0.86376587059E+01  0.25389991642E+03  0.12509067568E+03 0.  0.
         24    2    1    2    0    0  0.12793003986E+03 -0.18378991018E+03  0.20594095013E+04  0.20728322962E+04  0.72947981902E+02 0.  0.
        -11    1    5    5    0    0  0.89871929363E+02 -0.11322950243E+03  0.10001577996E+04  0.10105510912E+04  0.00000000000E+00 0.  1.
         12    1    5    5    0    0  0.38058110494E+02 -0.70560407748E+02  0.10592517017E+04  0.10622812050E+04  0.00000000000E+00 0. -1.
         13    1    3    3    0    0 -0.43803971296E+02 -0.49986791570E+02 -0.39649780979E+03  0.40202982527E+03  0.00000000000E+00 0. -1.
        -14    1    3    3    0    0 -0.20158723811E+02  0.22468727281E+02 -0.30297209736E+02  0.42768431922E+02  0.00000000000E+00 0.  1.
          5    1    4    4  501    0 -0.19385651727E+02 -0.11396513226E+02  0.13738084900E+02  0.26681292759E+02  0.41800000000E+01 0.  1.
         -5    1    4    4    0  501 -0.44581693024E+02  0.22270448769E+03 -0.51004261943E+01  0.22721862366E+03  0.41800000000E+01 0.  1.
</event>
<event>
11    1  0.5813833E-009  0.1410915E+03  0.7561462E-02  0.1106346E+00
         22   -1    0    0    0    0  0.00000000000E+00  0.00000000000E+00  0.14428847337E+04  0.14428847337E+04  0.00000000000E+00 0.  1.
         22   -1    0    0    0    0 -0.00000000000E+00 -0.00000000000E+00 -0.38055909233E+03  0.38055909233E+03  0.00000000000E+00 0.  1.
         24    2    1    2    0    0 -0.38161007731E+02  0.30891537363E+02 -0.33847282200E+03  0.35169219060E+03  0.81932875636E+02 0.  0.
         25    2    1    2    0    0 -0.25956174657E+02 -0.49742722270E+02  0.10712788606E+03  0.17398831353E+03  0.12508991907E+03 0.  0.
        -24    2    1    2    0    0  0.64117182388E+02  0.18851184907E+02  0.12936705773E+04  0.12977633219E+04  0.78356217563E+02 0.  0.
        -13    1    3    3    0    0 -0.16334301903E+02  0.29006021285E+02 -0.32337922344E+03  0.32508811243E+03  0.00000000000E+00 0.  1.
         14    1    3    3    0    0 -0.21826705828E+02  0.18855160783E+01 -0.15093598555E+02  0.26604078174E+02  0.00000000000E+00 0. -1.
         13    1    5    5    0    0  0.60350248961E+02  0.17858709933E+02  0.48298306598E+03  0.48706645141E+03  0.00000000000E+00 0. -1.
        -14    1    5    5    0    0  0.37669334265E+01  0.99247497329E+00  0.81068751135E+03  0.81069687051E+03  0.00000000000E+00 0.  1.
          5    1    4    4  501    0  0.10539957567E+02  0.38838145096E+02  0.23757400713E+02  0.46918852380E+02  0.41800000000E+01 0.  1.
         -5    1    4    4    0  501 -0.36496132224E+02 -0.88580867365E+02  0.83370485347E+02  0.12706946115E+03  0.41800000000E+01 0.  1.
</event>
<event>
11    1  0.5813833E-009  0.1365668E+03  0.7561462E-02  0.1111454E+00
         22   -1    0    0    0    0  0.00000000000E+00  0.00000000000E+00  0.20469770899E+04  0.20469770899E+04  0.00000000000E+00 0.  1.
         22   -1    0    0    0    0 -0.00000000000E+00 -0.00000000000E+00 -0.10418303922E+03  0.10418303922E+03  0.00000000000E+00 0. -1.
        -24    2    1    2    0    0 -0.42819506007E+02 -0.32464476842E+02 -0.68345002881E+02  0.11942853862E+03  0.81882135206E+02 0.  0.
         25    2    1    2    0    0  0.62776568680E+02  0.49926192626E+02  0.60424379093E+03  0.62224780042E+03  0.12509294134E+03 0.  0.
         24    2    1    2    0    0 -0.19957062673E+02 -0.17461715783E+02  0.14068952627E+04  0.14094837901E+04  0.81160819518E+02 0.  0.
        -13    1    5    5    0    0  0.22217101402E+02 -0.51254731040E+01  0.99315096878E+03  0.99341266192E+03  0.00000000000E+00 0.  1.
         14    1    5    5    0    0 -0.42174164075E+02 -0.12336242679E+02  0.41374429388E+03  0.41607112820E+03  0.00000000000E+00 0. -1.
         11    1    3    3    0    0 -0.11759983332E+02 -0.17613570711E+02 -0.80252575181E+02  0.83000065689E+02  0.00000000000E+00 0. -1.
        -12    1    3    3    0    0 -0.31059522675E+02 -0.14850906131E+02  0.11907572300E+02  0.36428472927E+02  0.00000000000E+00 0.  1.
          5    1    4    4  501    0  0.49437510128E+02  0.41629102909E+02  0.10937294665E+03  0.12711004475E+03  0.41800000000E+01 0. -1.
         -5    1    4    4    0  501  0.13339058552E+02  0.82970897169E+01  0.49487084427E+03  0.49513775567E+03  0.41800000000E+01 0. -1.
</event>
<event>
11    1  0.5813833E-009  0.2353259E+03  0.7561462E-02  0.1032020E+00
         22   -1    0    0    0    0  0.00000000000E+00  0.00000000000E+00  0.11001881942E+04  0.11001881942E+04  0.00000000000E+00 0.  1.
         22   -1    0    0    0    0 -0.00000000000E+00 -0.00000000000E+00 -0.23144431093E+04  0.23144431093E+04  0.00000000000E+00 0.  1.
         24    2    1    2    0    0  0.11004165114E+03  0.64470915189E+01 -0.22520792114E+04  0.22561813248E+04  0.79640855800E+02 0.  0.
         25    2    1    2    0    0 -0.25817915907E+02  0.18653096600E+03  0.24039541943E+03  0.32999701062E+03  0.12509078013E+03 0.  0.
        -24    2    1    2    0    0 -0.84223735234E+02 -0.19297805752E+03  0.79742887685E+03  0.82845296813E+03  0.78149462660E+02 0.  0.
        -13    1    3    3    0    0  0.10360147615E+03  0.31944894602E+02 -0.16766486705E+04  0.16801501440E+04  0.00000000000E+00 0.  1.
         14    1    3    3    0    0  0.64401749909E+01 -0.25497803083E+02 -0.57543054093E+03  0.57603118080E+03  0.00000000000E+00 0. -1.
         13    1    5    5    0    0 -0.20110789824E+02 -0.42529158677E+02  0.32791212048E+03  0.33126957597E+03  0.00000000000E+00 0. -1.
        -14    1    5    5    0    0 -0.64112945410E+02 -0.15044889884E+03  0.46951675637E+03  0.49718339217E+03  0.00000000000E+00 0.  1.
          5    1    4    4  501    0  0.48273347455E+02  0.56056399472E+02  0.10008655302E+03  0.12452881792E+03  0.41800000000E+01 0. -1.
         -5    1    4    4    0  501 -0.74091263362E+02  0.13047456653E+03  0.14030886641E+03  0.20546819270E+03  0.41800000000E+01 0. -1.
</event>
<event>
11    1  0.5813833E-009  0.1577264E+03  0.7561462E-02  0.1089235E+00
         22   -1    0    0    0    0  0.00000000000E+00  0.00000000000E+00  0.91805947086E+03  0.91805947086E+03  0.00000000000E+00 0. -1.
         22   -1    0    0    0    0 -0.00000000000E+00 -0.00000000000E+00 -0.59425635824E+03  0.59425635824E+03  0.00000000000E+00 0. -1.
         24    2    1    2    0    0 -0.94879216284E+02  0.24338094000E+02 -0.53896590095E+03  0.55292655917E+03  0.75160687534E+02 0.  0.
         25    2    1    2    0    0  0.69686453672E+02  0.73792595197E+01  0.66502782808E+02  0.15805392114E+03  0.12509103314E+03 0.  0.
        -24    2    1    2    0    0  0.25192762612E+02 -0.31717353520E+02  0.79626623076E+03  0.80133534879E+03  0.80360221283E+02 0.  0.
        -11    1    3    3    0    0 -0.97762752121E+02  0.39623792537E+02 -0.42459016724E+03  0.43749789800E+03  0.00000000000E+00 0.  1.
         12    1    3    3    0    0  0.28835358379E+01 -0.15285698537E+02 -0.11437573371E+03  0.11542866117E+03  0.00000000000E+00 0. -1.
         13    1    5    5    0    0  0.10635989246E+02 -0.43700965214E+02  0.75037511492E+03  0.75172183134E+03  0.00000000000E+00 0. -1.
        -14    1    5    5    0    0  0.14556773366E+02  0.11983611694E+02  0.45891115845E+02  0.49613517448E+02  0.00000000000E+00 0.  1.
          5    1    4    4  501    0  0.72321304756E+02 -0.20334632665E+02  0.92841476158E+02  0.11950263806E+03  0.41800000000E+01 0. -1.
         -5    1    4    4    0  501 -0.26348510847E+01  0.27713892185E+02 -0.26338693349E+02  0.38551283087E+02  0.41800000000E+01 0. -1.
</event>
<event>
11    1  0.5813833E-009  0.2525470E+03  0.7561462E-02  0.1022551E+00
         22   -1    0    0    0    0  0.00000000000E+00  0.00000000000E+00  0.32104549680E+03  0.32104549680E+03  0.00000000000E+00 0. -1.
         22   -1    0    0    0    0 -0.00000000000E+00 -0.00000000000E+00 -0.11437458146E+04  0.11437458146E+04  0.00000000000E+00 0. -1.
        -24    2    1    2    0    0 -0.19184051514E+02  0.20709726950E+01 -0.85911135809E+03  0.86447812730E+03  0.94222026167E+02 0.  0.
         25    2    1    2    0    0 -0.17225143141E+02  0.21536839290E+03 -0.15155332180E+03  0.29205535676E+03  0.12509065450E+03 0.  0.
         24    2    1    2    0    0  0.36409194655E+02 -0.21743936560E+03  0.18796436207E+03  0.30825782736E+03  0.10529377738E+03 0.  0.
        -13    1    5    5    0    0 -0.28281433141E+02 -0.91446985532E+02  0.40924762120E+02  0.10410200180E+03  0.00000000000E+00 0.  1.
         14    1    5    5    0    0  0.64690627796E+02 -0.12599238007E+03  0.14703959995E+03  0.20415582557E+03  0.00000000000E+00 0. -1.
         13    1    3    3    0    0 -0.55239413059E+02 -0.23615443486E+00 -0.64291236343E+03  0.64528114460E+03  0.00000000000E+00 0. -1.
        -14    1    3    3    0    0  0.36055361546E+02  0.23071271299E+01 -0.21619899467E+03  0.21919698270E+03  0.00000000000E+00 0.  1.
          5    1    4    4  501    0 -0.53730773325E+02  0.10855982942E+03 -0.12875303491E+03  0.17682491048E+03  0.41800000000E+01 0.  1.
         -5    1    4    4    0  501  0.36505630184E+02  0.10680856348E+03 -0.22800286893E+02  0.11523044628E+03  0.41800000000E+01 0.  1.
</event>
<event>
11    1  0.5813833E-009  0.1904320E+03  0.7561462E-02  0.1061504E+00
         22   -1    0    0    0    0  0.00000000000E+00  0.00000000000E+00  0.23286816087E+03  0.23286816087E+03  0.00000000000E+00 0. -1.
         22   -1    0    0    0    0 -0.00000000000E+00 -0.00000000000E+00 -0.23234973542E+04  0.23234973542E+04  0.00000000000E+00 0. -1.
         24    2    1    2    0    0 -0.99291756341E+01  0.44269300817E+02 -0.21205828101E+04  0.21226214256E+04  0.81190530707E+02 0.  0.
         25    2    1    2    0    0 -0.11877512717E+03 -0.10311216421E+03 -0.10081560747E+03  0.22483284818E+03  0.12508546546E+03 0.  0.
        -24    2    1    2    0    0  0.12870430280E+03  0.58842863390E+02  0.13076922422E+03  0.20891124134E+03  0.80721971136E+02 0.  0.
        -11    1    3    3    0    0  0.24300512828E+02  0.30480631744E+02 -0.46614518863E+03  0.46777229580E+03  0.00000000000E+00 0.  1.
         12    1    3    3    0    0 -0.34229688462E+02  0.13788669073E+02 -0.16544376215E+04  0.16548491298E+04  0.00000000000E+00 0. -1.
         11    1    5    5    0    0  0.11566061700E+03  0.18014826429E+02  0.76832795543E+02  0.14001853723E+03  0.00000000000E+00 0. -1.
        -12    1    5    5    0    0  0.13043685797E+02  0.40828036961E+02  0.53936428679E+02  0.68892704112E+02  0.00000000000E+00 0.  1.
          5    1    4    4  501    0 -0.12078309295E+03 -0.89127449982E+02 -0.12575437485E+03  0.19586702907E+03  0.41800000000E+01 0.  1.
         -5    1    4    4    0  501  0.20079657788E+01 -0.13984714224E+02  0.24938767378E+02  0.28965819112E+02  0.41800000000E+01 0.  1.
</event>
<event>
11    1  0.5813833E-009  0.1465585E+03  0.7561462E-02  0.1100448E+00
         22   -1    0    0    0    0  0.00000000000E+00  0.00000000000E+00  0.56764685267E+03  0.56764685267E+03  0.00000000000E+00 0.  1.
         22   -1    0    0    0    0 -0.00000000000E+00 -0.00000000000E+00 -0.21780363589E+04  0.21780363589E+04  0.00000000000E+00 0. -1.
         24    2    1    2    0    0  0.71258121343E+02 -0.18843206244E+02 -0.21224618213E+04  0.21252670606E+04  0.80517760250E+02 0.  0.
         25    2    1    2    0    0 -0.44426523883E+02  0.90740621982E+02  0.89633361615E+02  0.18408013293E+03  0.12507509473E+03 0.  0.
        -24    2    1    2    0    0 -0.26831597460E+02 -0.71897415738E+02  0.42243895342E+03  0.43633601808E+03  0.77751387701E+02 0.  0.
        -11    1    3    3    0    0 -0.12653487602E+02  0.20058144125E+01 -0.83905640035E+02  0.84878091812E+02  0.00000000000E+00 0.  1.
         12    1    3    3    0    0  0.83911608945E+02 -0.20849020657E+02 -0.20385561812E+04  0.20403889688E+04  0.00000000000E+00 0. -1.
         13    1    5    5    0    0  0.37404327292E+01  0.41612903806E+01 -0.41423077884E+00  0.56105937094E+01  0.00000000000E+00 0. -1.
        -14    1    5    5    0    0 -0.30572030190E+02 -0.76058706118E+02  0.42285318420E+03  0.43072542437E+03  0.00000000000E+00 0.  1.
          5    1    4    4  501    0  0.19646474238E+02 -0.22140050219E+02  0.90019212935E+01  0.31219749530E+02  0.41800000000E+01 0. -1.
         -5    1    4    4    0  501 -0.64072998121E+02  0.11288067220E+03  0.80631440321E+02  0.15286038340E+03  0.41800000000E+01 0. -1.
</event>
<event>
11    1  0.5813833E-009  0.2495146E+03  0.7561462E-02  0.1024158E+00
         22   -1    0    0    0    0  0.00000000000E+00  0.00000000000E+00  0.29462463269E+03  0.29462463269E+03  0.00000000000E+00 0. -1.
         22   -1    0    0    0    0 -0.00000000000E+00 -0.00000000000E+00 -0.35160442667E+04  0.35160442667E+04  0.00000000000E+00 0. -1.
        -24    2    1    2    0    0  0.14493406607E+03  0.16652891181E+03 -0.26576705141E+04  0.26679396396E+04  0.77146597124E+02 0.  0.
         25    2    1    2    0    0 -0.27026010888E+02 -0.22676644486E+03 -0.80929969250E+03  0.85015709889E+03  0.12509066606E+03 0.  0.
         24    2    1    2    0    0 -0.11790805519E+03  0.60237533047E+02  0.24555057250E+03  0.29257216092E+03  0.88161872836E+02 0.  0.
        -11    1    5    5    0    0  0.44725850440E+01 -0.12526760786E+02  0.77156934372E+01  0.15377115398E+02  0.00000000000E+00 0.  1.
         12    1    5    5    0    0 -0.12238064023E+03  0.72764293832E+02  0.23783487907E+03  0.27719504552E+03  0.00000000000E+00 0. -1.
         11    1    3    3    0    0  0.78409258542E+02  0.11502814523E+03 -0.12433199242E+04  0.12510890935E+04  0.00000000000E+00 0. -1.
        -12    1    3    3    0    0  0.66524807532E+02  0.51500766578E+02 -0.14143505899E+04  0.14168505461E+04  0.00000000000E+00 0.  1.
          5    1    4    4  501    0 -0.23755476936E+02 -0.23721237128E+03 -0.80116584185E+03  0.83589365970E+03  0.41800000000E+01 0.  1.
         -5    1    4    4    0  501 -0.32705339529E+01  0.10445926423E+02 -0.81338506426E+01  0.14263439187E+02  0.41800000000E+01 0.  1.
</event>
<event>
11    1  0.5813833E-009  0.2356533E+03  0.7561462E-02  0.1031832E+00
         22   -1    0    0    0    0  0.00000000000E+00  0.00000000000E+00  0.52714030612E+03  0.52714030612E+03  0.00000000000E+00 0. -1.
         22   -1    0    0    0    0 -0.00000000000E+00 -0.00000000000E+00 -0.13171562063E+04  0.13171562063E+04  0.00000000000E+00 0.  1.
         24    2    1    2    0    0 -0.54048427944E+02 -0.36602982639E+02 -0.96263298644E+03  0.96834022391E+03  0.82216249991E+02 0.  0.
         25    2    1    2    0    0  0.24595949521E+03 -0.61010527639E+01 -0.26933981537E+03  0.38564867292E+03  0.12509063377E+03 0.  0.
        -24    2    1    2    0    0 -0.19191106726E+03  0.42704035402E+02  0.44195690160E+03  0.49030761562E+03  0.80138397081E+02 0.  0.
        -11    1    3    3    0    0 -0.26645743274E+02 -0.54490568869E+02 -0.80847490697E+03  0.81074712021E+03  0.00000000000E+00 0.  1.
         12    1    3    3    0    0 -0.27402684670E+02  0.17887586231E+02 -0.15415807947E+03  0.15759310370E+03  0.00000000000E+00 0. -1.
         13    1    5    5    0    0 -0.17046386687E+03  0.54480653238E+02  0.32691198042E+03  0.37268956845E+03  0.00000000000E+00 0. -1.
        -14    1    5    5    0    0 -0.21447200392E+02 -0.11776617835E+02  0.11504492118E+03  0.11761804717E+03  0.00000000000E+00 0.  1.
          5    1    4    4  501    0  0.10872420761E+03  0.51324534665E+02 -0.78537848657E+02  0.14366915901E+03  0.41800000000E+01 0. -1.
         -5    1    4    4    0  501  0.13723528760E+03 -0.57425587429E+02 -0.19080196671E+03  0.24197951391E+03  0.41800000000E+01 0. -1.
</event>
<event>
11    1  0.5813833E-009  0.1577113E+03  0.7561462E-02  0.1089250E+00
         22   -1    0    0    0    0  0.00000000000E+00  0.00000000000E+00  0.14597611027E+04  0.14597611027E+04  0.00000000000E+00 0.  1.
         22   -1    0    0    0    0 -0.00000000000E+00 -0.00000000000E+00 -0.36854660047E+03  0.36854660047E+03  0.00000000000E+00 0.  1.
         24    2    1    2    0    0 -0.31378450482E+02  0.67387112680E+02 -0.32258770065E+03  0.34042879125E+03  0.79393369942E+02 0.  0.
         25    2    1    2    0    0 -0.52664033376E+02 -0.11264567955E+03  0.19632575099E+03  0.26391885830E+03  0.12508722449E+03 0.  0.
        -24    2    1    2    0    0  0.84042483858E+02  0.45258566871E+02  0.12174764519E+04  0.12239600536E+04  0.81962338783E+02 0.  0.
        -13    1    3    3    0    0 -0.13583024708E+01  0.54768437134E+02 -0.28703434191E+03  0.29221591354E+03  0.00000000000E+00 0.  1.
         14    1    3    3    0    0 -0.30020148011E+02  0.12618675546E+02 -0.35553358742E+02  0.48212877709E+02  0.00000000000E+00 0. -1.
         13    1    5    5    0    0 -0.44468092258E+01  0.17518283458E+02  0.57292425867E+02  0.60075672525E+02  0.00000000000E+00 0. -1.
        -14    1    5    5    0    0  0.88489293084E+02  0.27740283413E+02  0.11601840260E+04  0.11638843811E+04  0.00000000000E+00 0.  1.
          5    1    4    4  501    0 -0.83956634351E+02 -0.90448541269E+02  0.18720860848E+03  0.22426366303E+03  0.41800000000E+01 0.  1.
         -5    1    4    4    0  501  0.31292600975E+02 -0.22197138283E+02  0.91171425106E+01  0.39655195262E+02  0.41800000000E+01 0.  1.
</event>
<event>
11    1  0.5813833E-009  0.1456531E+03  0.7561462E-02  0.1101405E+00
         22   -1    0    0    0    0  0.00000000000E+00  0.00000000000E+00  0.28402237357E+03  0.28402237357E+03  0.00000000000E+00 0. -1.
         22   -1    0    0    0    0 -0.00000000000E+00 -0.00000000000E+00 -0.80035084197E+03  0.80035084197E+03  0.00000000000E+00 0. -1.
         24    2    1    2    0    0  0.74449260860E+01  0.15409215084E+02 -0.59598947871E+03  0.60167252689E+03  0.80706257799E+02 0.  0.
         25    2    1    2    0    0 -0.37011154052E+02 -0.82844112443E+02 -0.15852599534E+03  0.22138463644E+03  0.12509074132E+03 0.  0.
        -24    2    1    2    0    0  0.29566227966E+02  0.67434897359E+02  0.23818700564E+03  0.26131605221E+03  0.78303271116E+02 0.  0.
        -13    1    3    3    0    0  0.29305138303E+02 -0.10100886100E-01 -0.83642455907E+02  0.88627601023E+02  0.00000000000E+00 0.  1.
         14    1    3    3    0    0 -0.21860212217E+02  0.15419315970E+02 -0.51234702280E+03  0.51304492587E+03  0.00000000000E+00 0. -1.
         13    1    5    5    0    0  0.34855515270E+02  0.82190636088E+02  0.17816717743E+03  0.19928309190E+03  0.00000000000E+00 0. -1.
        -14    1    5    5    0    0 -0.52892873044E+01 -0.14755738729E+02  0.60019828214E+02  0.62032960307E+02  0.00000000000E+00 0.  1.
          5    1    4    4  501    0 -0.23975108519E+02  0.29956585937E+02 -0.58018525134E+02  0.69683746514E+02  0.41800000000E+01 0.  1.
         -5    1    4    4    0  501 -0.13036045532E+02 -0.11280069838E+03 -0.10050747020E+03  0.15170088993E+03  0.41800000000E+01 0.  1.
</event>
<event>
11    1  0.5813833E-009  0.2015589E+03  0.7561462E-02  0.1053427E+00
         22   -1    0    0    0    0  0.00000000000E+00  0.00000000000E+00  0.15573048425E+04  0.15573048425E+04  0.00000000000E+00 0. -1.
         22   -1    0    0    0    0 -0.00000000000E+00 -0.00000000000E+00 -0.12672646133E+04  0.12672646133E+04  0.00000000000E+00 0. -1.
        -24    2    1    2    0    0 -0.29376590113E+02 -0.21205905214E+02 -0.12314826571E+04  0.12346668591E+04  0.80870535656E+02 0.  0.
         25    2    1    2    0    0  0.15461275924E+03  0.10549306184E+03  0.43329092186E+03  0.48828475157E+03  0.12508830576E+03 0.  0.
         24    2    1    2    0    0 -0.12523616912E+03 -0.84287156631E+02  0.10882319645E+04  0.11016178452E+04  0.80775277012E+02 0.  0.
        -11    1    5    5    0    0 -0.10835744906E+02  0.14745030973E+02  0.78022126898E+02  0.80139138951E+02  0.00000000000E+00 0.  1.
         12    1    5    5    0    0 -0.11440042422E+03 -0.99032187603E+02  0.10102098376E+04  0.10214787062E+04  0.00000000000E+00 0. -1.
         13    1    3    3    0    0 -0.18102688517E+02 -0.51970319100E+02 -0.68806111064E+03  0.69025843955E+03  0.00000000000E+00 0. -1.
        -14    1    3    3    0    0 -0.11273901595E+02  0.30764413886E+02 -0.54342154651E+03  0.54440841951E+03  0.00000000000E+00 0.  1.
          5    1    4    4  501    0  0.70932215165E+02  0.69543951650E+02  0.93526655692E+02  0.13650072558E+03  0.41800000000E+01 0. -1.
         -5    1    4    4    0  501  0.83680544070E+02  0.35949110194E+02  0.33976426617E+03  0.35178402599E+03  0.41800000000E+01 0. -1.
</event>
<event>
11    1  0.5813833E-009  0.1474478E+03  0.7561462E-02  0.1099516E+00
         22   -1    0    0    0    0  0.00000000000E+00  0.00000000000E+00  0.26128693898E+03  0.26128693898E+03  0.00000000000E+00 0. -1.
         22   -1    0    0    0    0 -0.00000000000E+00 -0.00000000000E+00 -0.30980533565E+04  0.30980533565E+04  0.00000000000E+00 0. -1.
        -24    2    1    2    0    0  0.55921158184E+02 -0.56075654817E+02 -0.29340526216E+04  0.29362279494E+04  0.80610975462E+02 0.  0.
         25    2    1    2    0    0 -0.52556735501E+02  0.12671318830E+02 -0.12142779817E+03  0.18252323027E+03  0.12508895496E+03 0.  0.
         24    2    1    2    0    0 -0.33644226834E+01  0.43404335987E+02  0.21871400227E+03  0.24058911583E+03  0.90288715483E+02 0.  0.
        -11    1    5    5    0    0 -0.38176853382E+02  0.16061429529E+02  0.44302819684E+02  0.60648013031E+02  0.00000000000E+00 0.  1.
         12    1    5    5    0    0  0.34812430699E+02  0.27342906459E+02  0.17441118259E+03  0.17994110280E+03  0.00000000000E+00 0. -1.
         11    1    3    3    0    0 -0.48625291326E+01 -0.50194067081E+02 -0.10928665364E+04  0.10940294123E+04  0.00000000000E+00 0. -1.
        -12    1    3    3    0    0  0.60783687317E+02 -0.58815877363E+01 -0.18411860852E+04  0.18421985371E+04  0.00000000000E+00 0.  1.
          5    1    4    4  501    0  0.28678842137E+02 -0.17635298695E+02 -0.83341194251E+00  0.33935920819E+02  0.41800000000E+01 0. -1.
         -5    1    4    4    0  501 -0.81235577637E+02  0.30306617525E+02 -0.12059438623E+03  0.14858730945E+03  0.41800000000E+01 0. -1.
</event>
<event>
11    1  0.5813833E-009  0.1436689E+03  0.7561462E-02  0.1103529E+00
         22   -1    0    0    0    0  0.00000000000E+00  0.00000000000E+00  0.68092759980E+03  0.68092759980E+03  0.00000000000E+00 0. -1.
         22   -1    0    0    0    0 -0.00000000000E+00 -0.00000000000E+00 -0.19372232724E+04  0.19372232724E+04  0.00000000000E+00 0. -1.
        -24    2    1    2    0    0 -0.46055339002E+02 -0.46865524444E+02 -0.17112612316E+04  0.17143051167E+04  0.78163666242E+02 0.  0.
         25    2    1    2    0    0  0.79330375196E+02  0.10764861414E+03 -0.18139767346E+03  0.25774699892E+03  0.12508743726E+03 0.  0.
         24    2    1    2    0    0 -0.33275036194E+02 -0.60783089692E+02  0.63636323248E+03  0.64609875655E+03  0.87656303454E+02 0.  0.
        -13    1    5    5    0    0  0.11050422037E+02  0.14505714639E+02  0.49191253954E+02  0.52462434655E+02  0.00000000000E+00 0.  1.
         14    1    5    5    0    0 -0.44325458231E+02 -0.75288804331E+02  0.58717197853E+03  0.59363632190E+03  0.00000000000E+00 0. -1.
         13    1    3    3    0    0 -0.52727510536E+02 -0.50800216952E+02 -0.16914423504E+04  0.16930263073E+04  0.00000000000E+00 0. -1.
        -14    1    3    3    0    0  0.66721715339E+01  0.39346925075E+01 -0.19818881164E+02  0.21278809382E+02  0.00000000000E+00 0.  1.
          5    1    4    4  501    0  0.60091384396E+02  0.64927001422E+02 -0.19027443373E+03  0.20987692233E+03  0.41800000000E+01 0.  1.
         -5    1    4    4    0  501  0.19238990800E+02  0.42721612715E+02  0.88767602767E+01  0.47870076592E+02  0.41800000000E+01 0.  1.
</event>
<event>
11    1  0.5813833E-009  0.1674866E+03  0.7561462E-02  0.1080240E+00
         22   -1    0    0    0    0  0.00000000000E+00  0.00000000000E+00  0.37239007379E+03  0.37239007379E+03  0.00000000000E+00 0. -1.
         22   -1    0    0    0    0 -0.00000000000E+00 -0.00000000000E+00 -0.47136178452E+03  0.47136178452E+03  0.00000000000E+00 0.  1.
         24    2    1    2    0    0  0.17839071448E+02 -0.17048259036E+02 -0.39004468031E+03  0.39890878112E+03  0.79902987493E+02 0.  0.
         25    2    1    2    0    0 -0.11676270016E+03 -0.28471635419E+02  0.74340677221E+02  0.18872769347E+03  0.12508974306E+03 0.  0.
        -24    2    1    2    0    0  0.98923628716E+02  0.45519894455E+02  0.21673229236E+03  0.25611538372E+03  0.82245109990E+02 0.  0.
        -13    1    3    3    0    0 -0.46998624104E+01 -0.40989478007E+02 -0.30414891678E+03  0.30693450375E+03  0.00000000000E+00 0.  1.
         14    1    3    3    0    0  0.22538933858E+02  0.23941218970E+02 -0.85895763525E+02  0.91974277365E+02  0.00000000000E+00 0. -1.
         11    1    5    5    0    0  0.10922013210E+03  0.22900353299E+02  0.17576025328E+03  0.20819493286E+03  0.00000000000E+00 0. -1.
        -12    1    5    5    0    0 -0.10296503383E+02  0.22619541156E+02  0.40972039078E+02  0.47920450856E+02  0.00000000000E+00 0.  1.
          5    1    4    4  501    0 -0.11393770501E+03 -0.64542713294E+01  0.10193028564E+03  0.15307094359E+03  0.41800000000E+01 0.  1.
         -5    1    4    4    0  501 -0.28249951539E+01 -0.22017364089E+02 -0.27589608420E+02  0.35656749877E+02  0.41800000000E+01 0.  1.
</event>
<event>
11    1  0.5813833E-009  0.1557457E+03  0.7561462E-02  0.1091148E+00
         22   -1    0    0    0    0  0.00000000000E+00  0.00000000000E+00  0.95132328308E+03  0.95132328308E+03  0.00000000000E+00 0.  1.
         22   -1    0    0    0    0 -0.00000000000E+00 -0.00000000000E+00 -0.77060455354E+02  0.77060455354E+02  0.00000000000E+00 0.  1.
         24    2    1    2    0    0  0.11474455357E+02 -0.10892698531E+01  0.72630751645E+01  0.83724726210E+02  0.82608885016E+02 0.  0.
         25    2    1    2    0    0  0.49921245663E+02  0.71845037772E+02  0.13978020829E+03  0.20697800985E+03  0.12509016631E+03 0.  0.
        -24    2    1    2    0    0 -0.61395701020E+02 -0.70755767919E+02  0.72721954427E+03  0.73768100238E+03  0.80927034448E+02 0.  0.
        -11    1    3    3    0    0 -0.94426329751E+01  0.19427759247E+02 -0.29595080532E+02  0.36639731693E+02  0.00000000000E+00 0.  1.
         12    1    3    3    0    0  0.20917088332E+02 -0.20517029100E+02  0.36858155696E+02  0.47084994517E+02  0.00000000000E+00 0. -1.
         11    1    5    5    0    0  0.86877084295E+01 -0.45575189376E+02  0.36077649515E+03  0.36374751355E+03  0.00000000000E+00 0. -1.
        -12    1    5    5    0    0 -0.70083409449E+02 -0.25180578544E+02  0.36644304912E+03  0.37393348882E+03  0.00000000000E+00 0.  1.
          5    1    4    4  501    0  0.53586239232E+02  0.10023216296E+03  0.13679244773E+03  0.17789777313E+03  0.41800000000E+01 0.  1.
         -5    1    4    4    0  501 -0.36649935687E+01 -0.28387125190E+02  0.29877605596E+01  0.29080236718E+02  0.41800000000E+01 0.  1.
</event>
<event>
11    1  0.5813833E-009  0.1574766E+03  0.7561462E-02  0.1089475E+00
         22   -1    0    0    0    0  0.00000000000E+00  0.00000000000E+00  0.72538545974E+03  0.72538545974E+03  0.00000000000E+00 0.  1.
         22   -1    0    0    0    0 -0.00000000000E+00 -0.00000000000E+00 -0.54342550043E+03  0.54342550043E+03  0.00000000000E+00 0. -1.
         24    2    1    2    0    0  0.21623011923E+02 -0.68732546542E+01 -0.50112176684E+03  0.50828399765E+03  0.81943888020E+02 0.  0.
         25    2    1    2    0    0  0.44947580764E+02 -0.66960989235E+02  0.14595239686E+03  0.20845621657E+03  0.12509129858E+03 0.  0.
        -24    2    1    2    0    0 -0.66570592687E+02  0.73834243889E+02  0.53712932929E+03  0.55207074596E+03  0.79944060255E+02 0.  0.
        -11    1    3    3    0    0  0.47293956607E+02 -0.77704791632E+01 -0.18455478283E+03  0.19067660198E+03  0.00000000000E+00 0.  1.
         12    1    3    3    0    0 -0.25670944684E+02  0.89722450902E+00 -0.31656698401E+03  0.31760739566E+03  0.00000000000E+00 0. -1.
         11    1    5    5    0    0 -0.23019818904E+02 -0.51405064703E+00  0.30763101223E+02  0.38425833853E+02  0.00000000000E+00 0. -1.
        -12    1    5    5    0    0 -0.43550773783E+02  0.74348294536E+02  0.50636622807E+03  0.51364491210E+03  0.00000000000E+00 0.  1.
          5    1    4    4  501    0  0.64791510335E+02 -0.28039687671E+02  0.17701421830E+02  0.72903886254E+02  0.41800000000E+01 0.  1.
         -5    1    4    4    0  501 -0.19843929571E+02 -0.38921301564E+02  0.12825097503E+03  0.13555233031E+03  0.41800000000E+01 0.  1.
</event>
<event>
11    1  0.5813833E-009  0.1500633E+03  0.7561462E-02  0.1096814E+00
         22   -1    0    0    0    0  0.00000000000E+00  0.00000000000E+00  0.20425879721E+04  0.20425879721E+04  0.00000000000E+00 0.  1.
         22   -1    0    0    0    0 -0.00000000000E+00 -0.00000000000E+00 -0.30043282593E+02  0.30043282593E+02  0.00000000000E+00 0. -1.
        -24    2    1    2    0    0  0.78514558322E+02 -0.31356719912E+02  0.17981536907E+03  0.21814093717E+03  0.90022895792E+02 0.  0.
         25    2    1    2    0    0 -0.79543978629E+02  0.96414010567E+01  0.57101825189E+03  0.59002442470E+03  0.12508707608E+03 0.  0.
         24    2    1    2    0    0  0.10294203073E+01  0.21715318855E+02  0.12617110686E+04  0.12644658929E+04  0.80539175665E+02 0.  0.
        -11    1    5    5    0    0  0.38214730694E+02  0.22055858613E+02  0.82284992399E+03  0.82403205274E+03  0.00000000000E+00 0.  1.
         12    1    5    5    0    0 -0.37185310387E+02 -0.34053975793E+00  0.43886114461E+03  0.44043384012E+03  0.00000000000E+00 0. -1.
         11    1    3    3    0    0  0.48923375243E+02 -0.14246800126E+02  0.20047356738E+02  0.54757323448E+02  0.00000000000E+00 0. -1.
        -12    1    3    3    0    0  0.29591183079E+02 -0.17109919785E+02  0.15976801233E+03  0.16338361373E+03  0.00000000000E+00 0.  1.
          5    1    4    4  501    0 -0.37402595314E+02  0.34747069990E+02  0.70785072014E+02  0.87374549092E+02  0.41800000000E+01 0.  1.
         -5    1    4    4    0  501 -0.42141383315E+02 -0.25105668933E+02  0.50023317987E+03  0.50264987561E+03  0.41800000000E+01 0.  1.
</event>
<event>
11    1  0.5813833E-009  0.1273775E+03  0.7561462E-02  0.1122534E+00
         22   -1    0    0    0    0  0.00000000000E+00  0.00000000000E+00  0.20356587461E+03  0.20356587461E+03  0.00000000000E+00 0.  1.
         22   -1    0    0    0    0 -0.00000000000E+00 -0.00000000000E+00 -0.42320664607E+03  0.42320664607E+03  0.00000000000E+00 0. -1.
         24    2    1    2    0    0  0.11692740654E+02  0.86660596819E+00 -0.29385698250E+03  0.30521213638E+03  0.81639762640E+02 0.  0.
         25    2    1    2    0    0 -0.22720948049E+02  0.19942218783E+02 -0.74620911262E+02  0.14876095451E+03  0.12509039779E+03 0.  0.
        -24    2    1    2    0    0  0.11028207395E+02 -0.20808824751E+02  0.14883712230E+03  0.17279942978E+03  0.84572604380E+02 0.  0.
        -13    1    3    3    0    0 -0.92269748009E+00  0.19597468246E+02 -0.13196239583E+02  0.23644298920E+02  0.00000000000E+00 0.  1.
         14    1    3    3    0    0  0.12615438134E+02 -0.18730862278E+02 -0.28066074291E+03  0.28156783746E+03  0.00000000000E+00 0. -1.
         11    1    5    5    0    0  0.30008731260E+02 -0.16617448685E+02  0.14798130837E+02  0.37358375620E+02  0.00000000000E+00 0. -1.
        -12    1    5    5    0    0 -0.18980523865E+02 -0.41913760659E+01  0.13403899147E+03  0.13544105416E+03  0.00000000000E+00 0.  1.
          5    1    4    4  501    0  0.18564146625E+02 -0.25132228742E+02  0.19050353657E+02  0.36832659908E+02  0.41800000000E+01 0.  1.
         -5    1    4    4    0  501 -0.41285094673E+02  0.45074447525E+02 -0.93671264919E+02  0.11192829461E+03  0.41800000000E+01 0.  1.
</event>
<event>
11    1  0.5813833E-009  0.1691629E+03  0.7561462E-02  0.1078762E+00
         22   -1    0    0    0    0  0.00000000000E+00  0.00000000000E+00  0.36236342628E+04  0.36236342628E+04  0.00000000000E+00 0.  1.
         22   -1    0    0    0    0 -0.00000000000E+00 -0.00000000000E+00 -0.76049375965E+02  0.76049375965E+02  0.00000000000E+00 0.  1.
         24    2    1    2    0    0  0.98810998434E-01 -0.74716620010E+02 -0.24346386113E+02  0.11175225816E+03  0.79455884722E+02 0.  0.
         25    2    1    2    0    0  0.13956674114E+02 -0.59275624031E+02  0.83531258599E+03  0.84681959567E+03  0.12509165815E+03 0.  0.
        -24    2    1    2    0    0 -0.14055485112E+02  0.13399224404E+03  0.27366186869E+04  0.27411117849E+04  0.80377245608E+02 0.  0.
        -13    1    3    3    0    0 -0.13574517144E+02 -0.40809623846E+02 -0.50847856641E+02  0.66597278016E+02  0.00000000000E+00 0.  1.
         14    1    3    3    0    0  0.13673328142E+02 -0.33906996164E+02  0.26501470528E+02  0.45154980140E+02  0.00000000000E+00 0. -1.
         11    1    5    5    0    0 -0.20607645659E+02  0.10185450600E+02  0.91006258926E+03  0.91035286281E+03  0.00000000000E+00 0. -1.
        -12    1    5    5    0    0  0.65521605463E+01  0.12380679344E+03  0.18265560977E+04  0.18307589221E+04  0.00000000000E+00 0.  1.
          5    1    4    4  501    0  0.41431833268E+02 -0.71045906645E+02  0.77514010264E+03  0.77950225707E+03  0.41800000000E+01 0.  1.
         -5    1    4    4    0  501 -0.27475159154E+02  0.11770282614E+02  0.60172483360E+02  0.67317338606E+02  0.41800000000E+01 0.  1.
</event>
<event>
11    1  0.5813833E-009  0.1789212E+03  0.7561462E-02  0.1070519E+00
         22   -1    0    0    0    0  0.00000000000E+00  0.00000000000E+00  0.16943813421E+03  0.16943813421E+03  0.00000000000E+00 0. -1.
         22   -1    0    0    0    0 -0.00000000000E+00 -0.00000000000E+00 -0.44786778067E+03  0.44786778067E+03  0.00000000000E+00 0. -1.
         24    2    1    2    0    0  0.77218543443E+02 -0.10749529021E+03 -0.24330740465E+03  0.28851515355E+03  0.80774747294E+02 0.  0.
         25    2    1    2    0    0 -0.56987384003E+02  0.10527038909E+03 -0.11991474624E+03  0.21060968643E+03  0.12508987528E+03 0.  0.
        -24    2    1    2    0    0 -0.20231159440E+02  0.22249011215E+01  0.84792504432E+02  0.11818107490E+03  0.79766833072E+02 0.  0.
        -11    1    3    3    0    0 -0.36002546262E+01 -0.59507928405E+02 -0.75757164987E+02  0.96401781224E+02  0.00000000000E+00 0.  1.
         12    1    3    3    0    0  0.80818798069E+02 -0.47987361807E+02 -0.16755023967E+03  0.19211337233E+03  0.00000000000E+00 0. -1.
         13    1    5    5    0    0 -0.26692710565E+02  0.22325992981E+02  0.89949618772E+02  0.96446278711E+02  0.00000000000E+00 0. -1.
        -14    1    5    5    0    0  0.64615511257E+01 -0.20101091859E+02 -0.51571143404E+01  0.21734796185E+02  0.00000000000E+00 0.  1.
          5    1    4    4  501    0 -0.50029964151E+01  0.87934931646E+01 -0.98202199527E+02  0.98810423980E+02  0.41800000000E+01 0.  1.
         -5    1    4    4    0  501 -0.51984387588E+02  0.96476895926E+02 -0.21712546718E+02  0.11179926245E+03  0.41800000000E+01 0.  1.
</event>
<event>
11    1  0.5813833E-009  0.1480338E+03  0.7561462E-02  0.1098905E+00
         22   -1    0    0    0    0  0.00000000000E+00  0.00000000000E+00  0.85319643077E+02  0.85319643077E+02  0.00000000000E+00 0.  1.
         22   -1    0    0    0    0 -0.00000000000E+00 -0.00000000000E+00 -0.62101982424E+03  0.62101982424E+03  0.00000000000E+00 0.  1.
         24    2    1    2    0    0 -0.44488864259E+01  0.36399256430E+01 -0.36278505902E+03  0.37153975173E+03  0.79973410719E+02 0.  0.
         25    2    1    2    0    0 -0.74292699489E+02 -0.17955049030E+02 -0.16611862518E+03  0.22155178653E+03  0.12509199615E+03 0.  0.
        -24    2    1    2    0    0  0.78741585915E+02  0.14315123387E+02 -0.67964969679E+01  0.11324792905E+03  0.79835712273E+02 0.  0.
        -11    1    3    3    0    0 -0.26298367344E+02  0.26002216636E+02 -0.28966163023E+03  0.29201297818E+03  0.00000000000E+00 0.  1.
         12    1    3    3    0    0  0.21849480918E+02 -0.22362290993E+02 -0.73123428784E+02  0.79526773554E+02  0.00000000000E+00 0. -1.
         11    1    5    5    0    0 -0.80684924479E+01 -0.14290816104E+02 -0.13987962440E+02  0.21563652021E+02  0.00000000000E+00 0. -1.
        -12    1    5    5    0    0  0.86810078363E+02  0.28605939490E+02  0.71914654717E+01  0.91684277033E+02  0.00000000000E+00 0.  1.
          5    1    4    4  501    0 -0.98797247677E+02 -0.46048175128E+02 -0.12372251784E+03  0.16494260942E+03  0.41800000000E+01 0.  1.
         -5    1    4    4    0  501  0.24504548188E+02  0.28093126098E+02 -0.42396107339E+02  0.56609177113E+02  0.41800000000E+01 0.  1.
</event>
<event>
11    1  0.5813833E-009  0.1281275E+03  0.7561462E-02  0.1121591E+00
         22   -1    0    0    0    0  0.00000000000E+00  0.00000000000E+00  0.18663497832E+03  0.18663497832E+03  0.00000000000E+00 0. -1.
         22   -1    0    0    0    0 -0.00000000000E+00 -0.00000000000E+00 -0.14105832066E+04  0.14105832066E+04  0.00000000000E+00 0. -1.
         24    2    1    2    0    0 -0.16336367927E+02  0.14716972098E+02 -0.12171507591E+04  0.12198542583E+04  0.78134339239E+02 0.  0.
         25    2    1    2    0    0  0.37617690486E+01  0.11335400645E+02 -0.15883417781E+03  0.20253127905E+03  0.12509188918E+03 0.  0.
        -24    2    1    2    0    0  0.12574598878E+02 -0.26052372743E+02  0.15203670863E+03  0.17483264756E+03  0.81329251918E+02 0.  0.
        -13    1    3    3    0    0  0.16977423484E+02 -0.23054024495E+02 -0.31486625749E+03  0.31616527491E+03  0.00000000000E+00 0.  1.
         14    1    3    3    0    0 -0.33313791411E+02  0.37770996594E+02 -0.90228450159E+03  0.90368898338E+03  0.00000000000E+00 0. -1.
         13    1    5    5    0    0  0.22114852703E+01 -0.42102200848E+02  0.14977352037E+03  0.15559432313E+03  0.00000000000E+00 0. -1.
        -14    1    5    5    0    0  0.10363113608E+02  0.16049828104E+02  0.22631882562E+01  0.19238324431E+02  0.00000000000E+00 0.  1.
          5    1    4    4  501    0 -0.27174150111E+02  0.60562393097E+02 -0.72780975023E+02  0.98594019175E+02  0.41800000000E+01 0. -1.
         -5    1    4    4    0  501  0.30935919160E+02 -0.49226992451E+02 -0.86053202783E+02  0.10393725987E+03  0.41800000000E+01 0. -1.
</event>
<event>
11    1  0.5813833E-009  0.1357273E+03  0.7561462E-02  0.1112426E+00
         22   -1    0    0    0    0  0.00000000000E+00  0.00000000000E+00  0.10051206350E+04  0.10051206350E+04  0.00000000000E+00 0. -1.
         22   -1    0    0    0    0 -0.00000000000E+00 -0.00000000000E+00 -0.36824199358E+03  0.36824199358E+03  0.00000000000E+00 0. -1.
         24    2    1    2    0    0  0.34296981726E+02 -0.99017011583E+01 -0.28719834900E+03  0.30138349799E+03  0.84111797929E+02 0.  0.
         25    2    1    2    0    0 -0.64872867267E+02 -0.32437205012E+02  0.19709313095E+01  0.14461187179E+03  0.12509215689E+03 0.  0.
        -24    2    1    2    0    0  0.30575885542E+02  0.42338906170E+02  0.92210605911E+03  0.92736725881E+03  0.83683813956E+02 0.  0.
        -13    1    3    3    0    0  0.12120263982E+02 -0.29850572482E+02 -0.35562767636E+02  0.47986122144E+02  0.00000000000E+00 0.  1.
         14    1    3    3    0    0  0.22176717743E+02  0.19948871324E+02 -0.25163558136E+03  0.25339737584E+03  0.00000000000E+00 0. -1.
         11    1    5    5    0    0 -0.16045252544E+01  0.24285090201E+02  0.78516480428E+03  0.78554192122E+03  0.00000000000E+00 0. -1.
        -12    1    5    5    0    0  0.32180410796E+02  0.18053815969E+02  0.13694125483E+03  0.14182533759E+03  0.00000000000E+00 0.  1.
          5    1    4    4  501    0 -0.56954693138E+02 -0.78781573309E+02 -0.11212296165E+01  0.97309315686E+02  0.41800000000E+01 0.  1.
         -5    1    4    4    0  501 -0.79181741297E+01  0.46344368298E+02  0.30921609260E+01  0.47302556100E+02  0.41800000000E+01 0.  1.
</event>
<event>
11    1  0.5813833E-009  0.1333229E+03  0.7561462E-02  0.1115252E+00
         22   -1    0    0    0    0  0.00000000000E+00  0.00000000000E+00  0.10954118635E+04  0.10954118635E+04  0.00000000000E+00 0.  1.
         22   -1    0    0    0    0 -0.00000000000E+00 -0.00000000000E+00 -0.58310326512E+03  0.58310326512E+03  0.00000000000E+00 0.  1.
         24    2    1    2    0    0 -0.25655455331E+01 -0.41901765982E+02 -0.55144213622E+03  0.55879126562E+03  0.79980678410E+02 0.  0.
         25    2    1    2    0    0  0.39971836496E+02  0.64331381040E+02  0.18711244095E+03  0.23747567693E+03  0.12508939713E+03 0.  0.
        -24    2    1    2    0    0 -0.37406290963E+02 -0.22429615058E+02  0.87663829368E+03  0.88224818612E+03  0.89245984365E+02 0.  0.
        -11    1    3    3    0    0  0.10770901699E+02 -0.35129392553E+01 -0.44040663876E+03  0.44055233574E+03  0.00000000000E+00 0.  1.
         12    1    3    3    0    0 -0.13336447232E+02 -0.38388826727E+02 -0.11103549746E+03  0.11823892988E+03  0.00000000000E+00 0. -1.
         13    1    5    5    0    0 -0.43695878546E+02 -0.48992377674E+02  0.45307836380E+03  0.45780955278E+03  0.00000000000E+00 0. -1.
        -14    1    5    5    0    0  0.62895875832E+01  0.26562762617E+02  0.42355992988E+03  0.42443863333E+03  0.00000000000E+00 0.  1.
          5    1    4    4  501    0 -0.21106080999E+02  0.22988065203E+02 -0.47870546728E+01  0.31848172465E+02  0.41800000000E+01 0.  1.
         -5    1    4    4    0  501  0.61077917495E+02  0.41343315837E+02  0.19189949563E+03  0.20562750446E+03  0.41800000000E+01 0.  1.
</event>
<event>
11    1  0.5813833E-009  0.1355426E+03  0.7561462E-02  0.1112640E+00
         22   -1    0    0    0    0  0.00000000000E+00  0.00000000000E+00  0.33995330833E+02  0.33995330833E+02  0.00000000000E+00 0. -1.
         22   -1    0    0    0    0 -0.00000000000E+00 -0.00000000000E+00 -0.21537808783E+04  0.21537808783E+04  0.00000000000E+00 0. -1.
         24    2    1    2    0    0  0.41495426974E+01 -0.20444237704E+02 -0.16806597291E+04  0.16827360463E+04  0.80921510716E+02 0.  0.
         25    2    1    2    0    0  0.28277116654E+02 -0.26400633853E+02 -0.34306518530E+03  0.36719295935E+03  0.12506142187E+03 0.  0.
        -24    2    1    2    0    0 -0.32426659352E+02  0.46844871557E+02 -0.96060633088E+02  0.13784720351E+03  0.80797747861E+02 0.  0.
        -13    1    3    3    0    0 -0.76402725446E+01 -0.41441876290E+02 -0.48316082569E+03  0.48499503745E+03  0.00000000000E+00 0.  1.
         14    1    3    3    0    0  0.11789815242E+02  0.20997638586E+02 -0.11974989034E+04  0.11977410088E+04  0.00000000000E+00 0. -1.
         11    1    5    5    0    0 -0.57070752068E+02  0.28611869265E+02 -0.44356045691E+02  0.77737819585E+02  0.00000000000E+00 0. -1.
        -12    1    5    5    0    0  0.24644092717E+02  0.18233002292E+02 -0.51704587397E+02  0.60109383929E+02  0.00000000000E+00 0.  1.
          5    1    4    4  501    0 -0.23634902914E+02  0.37121702817E+02 -0.77578226809E+02  0.89288762622E+02  0.41800000000E+01 0.  1.
         -5    1    4    4    0  501  0.51912019569E+02 -0.63522336670E+02 -0.26548695849E+03  0.27790419673E+03  0.41800000000E+01 0.  1.
</event>
<event>
11    1  0.5813833E-009  0.1581001E+03  0.7561462E-02  0.1088878E+00
         22   -1    0    0    0    0  0.00000000000E+00  0.00000000000E+00  0.21682753988E+04  0.21682753988E+04  0.00000000000E+00 0.  1.
         22   -1    0    0    0    0 -0.00000000000E+00 -0.00000000000E+00 -0.86427778199E+02  0.86427778199E+02  0.00000000000E+00 0. -1.
         24    2    1    2    0    0  0.69287176571E+02 -0.63997290752E+02 -0.19783536622E+02  0.12543002289E+03  0.80280360365E+02 0.  0.
         25    2    1    2    0    0 -0.60918426467E+02  0.12260415049E+03  0.70574572561E+03  0.72970398955E+03  0.12509216900E+03 0.  0.
        -24    2    1    2    0    0 -0.83687501039E+01 -0.58606859743E+02  0.13958854316E+04  0.13995691645E+04  0.82419101007E+02 0.  0.
        -11    1    3    3    0    0  0.31591751302E+02  0.14449574717E+02 -0.16177928379E+02  0.38321721341E+02  0.00000000000E+00 0.  1.
         12    1    3    3    0    0  0.37695425269E+02 -0.78446865469E+02 -0.36056082426E+01  0.87108301550E+02  0.00000000000E+00 0. -1.
         11    1    5    5    0    0  0.28281221211E+02 -0.31018646493E+02  0.32470916087E+03  0.32741109183E+03  0.00000000000E+00 0. -1.
        -12    1    5    5    0    0 -0.36649971314E+02 -0.27588213250E+02  0.10711762707E+04  0.10721580727E+04  0.00000000000E+00 0.  1.
          5    1    4    4  501    0  0.51945931503E+01  0.12917245918E+02  0.37078806148E+03  0.37107290116E+03  0.41800000000E+01 0.  1.
         -5    1    4    4    0  501 -0.66113019618E+02  0.10968690458E+03  0.33495766413E+03  0.35863108839E+03  0.41800000000E+01 0.  1.
</event>
<event>
11    1  0.5931992E-009  0.1818168E+03  0.7561462E-02  0.1068183E+00
         22   -1    0    0    0    0  0.00000000000E+00  0.00000000000E+00  0.60856485176E+03  0.60856485176E+03  0.00000000000E+00 0.  1.
         22   -1    0    0    0    0 -0.00000000000E+00 -0.00000000000E+00 -0.22092678252E+04  0.22092678252E+04  0.00000000000E+00 0. -1.
         24    2    1    2    0    0  0.23823239845E+02  0.49340382458E+02 -0.18392829345E+04  0.18417678808E+04  0.78391285136E+02 0.  0.
         25    2    1    2    0    0 -0.15387673482E+03 -0.29999418944E+02 -0.33039925591E+03  0.38650883068E+03  0.12508954088E+03 0.  0.
        -24    2    1    2    0    0  0.13005349497E+03 -0.19340963514E+02  0.56897921702E+03  0.58955596541E+03  0.80937645946E+02 0.  0.
        -13    1    3    3    0    0 -0.16958783651E+02  0.16176939335E+02 -0.16459767497E+03  0.16625789700E+03  0.00000000000E+00 0.  1.
         14    1    3    3    0    0  0.40782023497E+02  0.33163443123E+02 -0.16746852595E+04  0.16755099838E+04  0.00000000000E+00 0. -1.
         13    1    5    5    0    0 -0.46952722165E+01  0.14662045221E+02  0.53340002083E+02  0.55517357407E+02  0.00000000000E+00 0. -1.
        -14    1    5    5    0    0  0.13474876719E+03 -0.34003008735E+02  0.51563921493E+03  0.53403860800E+03  0.00000000000E+00 0.  1.
          5    1    4    4  501    0 -0.29401181915E+02 -0.64727592821E+02 -0.12153971161E+03  0.14086683310E+03  0.41800000000E+01 0.  1.
         -5    1    4    4    0  501 -0.12447555290E+03  0.34728173877E+02 -0.20885954430E+03  0.24564199758E+03  0.41800000000E+01 0.  1.
</event>
<event>
11    1  0.5813833E-009  0.1356451E+03  0.7561462E-02  0.1112521E+00
         22   -1    0    0    0    0  0.00000000000E+00  0.00000000000E+00  0.38416887114E+03  0.38416887114E+03  0.00000000000E+00 0.  1.
         22   -1    0    0    0    0 -0.00000000000E+00 -0.00000000000E+00 -0.48067684571E+03  0.48067684571E+03  0.00000000000E+00 0.  1.
        -24    2    1    2    0    0  0.80939611529E+01  0.42923362734E+02 -0.41109495107E+03  0.42116025037E+03  0.80429910000E+02 0.  0.
         25    2    1    2    0    0  0.63144653716E+01 -0.88372392817E+02  0.47110777024E+02  0.16036315428E+03  0.12508942263E+03 0.  0.
         24    2    1    2    0    0 -0.14408426524E+02  0.45449030083E+02  0.26747619947E+03  0.28332231220E+03  0.80341758835E+02 0.  0.
        -11    1    5    5    0    0 -0.41805569657E+02  0.21199267547E+02  0.21015978328E+03  0.21532359162E+03  0.00000000000E+00 0.  1.
         12    1    5    5    0    0  0.27397143132E+02  0.24249762537E+02  0.57316416189E+02  0.67998720574E+02  0.00000000000E+00 0. -1.
         13    1    3    3    0    0  0.22412681591E+01  0.23615839225E+02 -0.24727150810E+02  0.34266063860E+02  0.00000000000E+00 0. -1.
        -14    1    3    3    0    0  0.58526929938E+01  0.19307523509E+02 -0.38636780026E+03  0.38689418651E+03  0.00000000000E+00 0.  1.
          5    1    4    4  501    0  0.45770018578E+02 -0.83639932994E+02  0.66131525055E+02  0.11610936223E+03  0.41800000000E+01 0.  1.
         -5    1    4    4    0  501 -0.39455553207E+02 -0.47324598232E+01 -0.19020748031E+02  0.44253792047E+02  0.41800000000E+01 0.  1.
</event>
<event>
11    1  0.5813833E-009  0.1900128E+03  0.7561462E-02  0.1061820E+00
         22   -1    0    0    0    0  0.00000000000E+00  0.00000000000E+00  0.34232340448E+04  0.34232340448E+04  0.00000000000E+00 0. -1.
         22   -1    0    0    0    0 -0.00000000000E+00 -0.00000000000E+00 -0.43155440696E+03  0.43155440696E+03  0.00000000000E+00 0.  1.
         24    2    1    2    0    0  0.43954009464E+02 -0.99271338050E+01 -0.41477227437E+03  0.42524680904E+03  0.82269715454E+02 0.  0.
         25    2    1    2    0    0 -0.10867808083E+03 -0.11390817516E+03  0.11580873555E+04  0.11754148148E+04  0.12509063197E+03 0.  0.
        -24    2    1    2    0    0  0.64724071365E+02  0.12383530897E+03  0.22483645567E+04  0.22541268279E+04  0.80126072256E+02 0.  0.
        -13    1    3    3    0    0  0.40943317346E+02 -0.12940624166E+02 -0.41781263044E+03  0.42001334401E+03  0.00000000000E+00 0.  1.
         14    1    3    3    0    0  0.30106921182E+01  0.30134903613E+01  0.30403560730E+01  0.52334650318E+01  0.00000000000E+00 0. -1.
         11    1    5    5    0    0  0.67963579013E+02  0.71212684014E+02  0.17968732551E+04  0.17995676673E+04  0.00000000000E+00 0. -1.
        -12    1    5    5    0    0 -0.32395076477E+01  0.52622624955E+02  0.45149130164E+03  0.45455916065E+03  0.00000000000E+00 0.  1.
          5    1    4    4  501    0 -0.53750902202E+02  0.18486391788E+02  0.37499281021E+03  0.37929933598E+03  0.41800000000E+01 0. -1.
         -5    1    4    4    0  501 -0.54927178627E+02 -0.13239456695E+03  0.78309454528E+03  0.79611547878E+03  0.41800000000E+01 0. -1.
</event>
<event>
11    1  0.9328183E-009  0.1553760E+03  0.7561462E-02  0.1091509E+00
         22   -1    0    0    0    0  0.00000000000E+00  0.00000000000E+00  0.13085715887E+04  0.13085715887E+04  0.00000000000E+00 0. -1.
         22   -1    0    0    0    0 -0.00000000000E+00 -0.00000000000E+00 -0.30512527585E+03  0.30512527585E+03  0.00000000000E+00 0. -1.
         24    2    1    2    0    0  0.14801358463E+02  0.60176263618E+02 -0.21639009968E+03  0.23695781942E+03  0.74054507159E+02 0.  0.
         25    2    1    2    0    0 -0.10349453299E+03 -0.34922350248E+02  0.16086538235E+02  0.16684498463E+03  0.12509109991E+03 0.  0.
        -24    2    1    2    0    0  0.88693174529E+02 -0.25253913370E+02  0.12037498743E+04  0.12098940605E+04  0.79533882321E+02 0.  0.
        -13    1    3    3    0    0 -0.13831682930E+02  0.93508689794E+00 -0.37372371634E+01  0.14358160809E+02  0.00000000000E+00 0.  1.
         14    1    3    3    0    0  0.28633041393E+02  0.59241176720E+02 -0.21265286252E+03  0.22259965861E+03  0.00000000000E+00 0. -1.
         11    1    5    5    0    0  0.77343973748E+02  0.10437924088E+02  0.61135898600E+03  0.61632041204E+03  0.00000000000E+00 0. -1.
        -12    1    5    5    0    0  0.11349200781E+02 -0.35691837458E+02  0.59239088832E+03  0.59357364849E+03  0.00000000000E+00 0.  1.
          5    1    4    4  501    0 -0.13055066949E+03 -0.15962101619E+02  0.20760784599E+02  0.13321692299E+03  0.41800000000E+01 0. -1.
         -5    1    4    4    0  501  0.27056136501E+02 -0.18960248629E+02 -0.46742463641E+01  0.33628061638E+02  0.41800000000E+01 0. -1.
</event>
<event>
11    1  0.5813833E-009  0.1445628E+03  0.7561462E-02  0.1102568E+00
         22   -1    0    0    0    0  0.00000000000E+00  0.00000000000E+00  0.16602811709E+04  0.16602811709E+04  0.00000000000E+00 0.  1.
         22   -1    0    0    0    0 -0.00000000000E+00 -0.00000000000E+00 -0.52619312791E+02  0.52619312791E+02  0.00000000000E+00 0.  1.
        -24    2    1    2    0    0  0.17425905796E+02  0.39709041274E+01  0.17922028552E+02  0.79828614064E+02  0.75709829240E+02 0.  0.
         25    2    1    2    0    0 -0.19227063400E+02  0.68814317455E+02  0.24722701291E+03  0.28613464480E+03  0.12508696490E+03 0.  0.
         24    2    1    2    0    0  0.18011576035E+01 -0.72785221583E+02  0.13425128166E+04  0.13469372248E+04  0.81229872076E+02 0.  0.
        -11    1    5    5    0    0 -0.35527091047E+02 -0.54448154872E+02  0.95160708333E+03  0.95382535970E+03  0.00000000000E+00 0.  1.
         12    1    5    5    0    0  0.37328248651E+02 -0.18337066710E+02  0.39090573331E+03  0.39311186512E+03  0.00000000000E+00 0. -1.
         11    1    3    3    0    0  0.47325042704E+02 -0.10189795297E+01  0.85651781759E+01  0.48104680265E+02  0.00000000000E+00 0. -1.
        -12    1    3    3    0    0 -0.29899136908E+02  0.49898836571E+01  0.93568503765E+01  0.31723933799E+02  0.00000000000E+00 0.  1.
          5    1    4    4  501    0  0.31488490986E+02 -0.10856464691E+02  0.13637695963E+03  0.14044762514E+03  0.41800000000E+01 0. -1.
         -5    1    4    4    0  501 -0.50715554385E+02  0.79670782146E+02  0.11085005328E+03  0.14568701966E+03  0.41800000000E+01 0. -1.
</event>
<event>
11    1  0.5813833E-009  0.1731291E+03  0.7561462E-02  0.1075340E+00
         22   -1    0    0    0    0  0.00000000000E+00  0.00000000000E+00  0.21800048645E+03  0.21800048645E+03  0.00000000000E+00 0.  1.
         22   -1    0    0    0    0 -0.00000000000E+00 -0.00000000000E+00 -0.17324198465E+04  0.17324198465E+04  0.00000000000E+00 0. -1.
         24    2    1    2    0    0  0.70630378121E+02  0.96762073045E+02 -0.15497300283E+04  0.15564032868E+04  0.79852873915E+02 0.  0.
         25    2    1    2    0    0 -0.77426528510E+02 -0.90036737060E+02 -0.12619683063E+03  0.21371239050E+03  0.12508342997E+03 0.  0.
        -24    2    1    2    0    0  0.67961503887E+01 -0.67253359846E+01  0.16150749888E+03  0.18030465563E+03  0.79584413314E+02 0.  0.
        -11    1    3    3    0    0  0.52296075609E+01  0.38763971460E+02 -0.19663748098E+03  0.20049013244E+03  0.00000000000E+00 0.  1.
         12    1    3    3    0    0  0.65400770560E+02  0.57998101585E+02 -0.13530925473E+04  0.13559131543E+04  0.00000000000E+00 0. -1.
         11    1    5    5    0    0  0.22979698771E+02 -0.56536588294E+00  0.58934576819E+01  0.23730129322E+02  0.00000000000E+00 0. -1.
        -12    1    5    5    0    0 -0.16183548382E+02 -0.61599701017E+01  0.15561404120E+03  0.15657452631E+03  0.00000000000E+00 0.  1.
          5    1    4    4  501    0 -0.79838158977E+02 -0.27535502600E+01 -0.86139390825E+02  0.11755501146E+03  0.41800000000E+01 0.  1.
         -5    1    4    4    0  501  0.24116304669E+01 -0.87283186800E+02 -0.40057439801E+02  0.96157379035E+02  0.41800000000E+01 0.  1.
</event>
<event>
11    1  0.5813833E-009  0.2974092E+03  0.7561462E-02  0.1001294E+00
         22   -1    0    0    0    0  0.00000000000E+00  0.00000000000E+00  0.47720313732E+03  0.47720313732E+03  0.00000000000E+00 0.  1.
         22   -1    0    0    0    0 -0.00000000000E+00 -0.00000000000E+00 -0.17804995136E+04  0.17804995136E+04  0.00000000000E+00 0.  1.
        -24    2    1    2    0    0  0.25043640780E+03  0.77100788473E+02 -0.72096300594E+03  0.77133670404E+03  0.80682892492E+02 0.  0.
         25    2    1    2    0    0 -0.24491882103E+03 -0.13475865451E+03 -0.10058572354E+04  0.10514477832E+04  0.12509411995E+03 0.  0.
         24    2    1    2    0    0 -0.55175867628E+01  0.57657866041E+02  0.42352386509E+03  0.43491816367E+03  0.80165276204E+02 0.  0.
        -13    1    5    5    0    0 -0.32358555870E+02  0.84521267715E+01  0.25807070296E+03  0.26022874997E+03  0.00000000000E+00 0.  1.
         14    1    5    5    0    0  0.26840969108E+02  0.49205739269E+02  0.16545316213E+03  0.17468941370E+03  0.00000000000E+00 0. -1.
         11    1    3    3    0    0  0.10241028226E+03 -0.74970297546E+01 -0.23980982301E+03  0.26086935922E+03  0.00000000000E+00 0. -1.
        -12    1    3    3    0    0  0.14802612554E+03  0.84597818227E+02 -0.48115318293E+03  0.51046734482E+03  0.00000000000E+00 0.  1.
          5    1    4    4  501    0 -0.85713834464E+02 -0.79690260493E+02 -0.23718638198E+03  0.26452268567E+03  0.41800000000E+01 0.  1.
         -5    1    4    4    0  501 -0.15920498657E+03 -0.55068394021E+02 -0.76867085345E+03  0.78692509752E+03  0.41800000000E+01 0.  1.
</event>
<event>
11    1  0.5813833E-009  0.1653900E+03  0.7561462E-02  0.1082115E+00
         22   -1    0    0    0    0  0.00000000000E+00  0.00000000000E+00  0.22725385580E+04  0.22725385580E+04  0.00000000000E+00 0.  1.
         22   -1    0    0    0    0 -0.00000000000E+00 -0.00000000000E+00 -0.43793551931E+02  0.43793551931E+02  0.00000000000E+00 0. -1.
        -24    2    1    2    0    0  0.74729757800E+02 -0.69718734405E+01  0.60359011858E+02  0.12533820684E+03  0.80207930168E+02 0.  0.
         25    2    1    2    0    0  0.52908889172E+02  0.42505856215E+02  0.68426127314E+03  0.69890383014E+03  0.12508787116E+03 0.  0.
         24    2    1    2    0    0 -0.12763864697E+03 -0.35533982775E+02  0.14841247211E+04  0.14920900729E+04  0.78436661959E+02 0.  0.
        -11    1    5    5    0    0 -0.10602824507E+03 -0.37437260153E+02  0.14189783670E+04  0.14234265500E+04  0.00000000000E+00 0.  1.
         12    1    5    5    0    0 -0.21610401904E+02  0.19032773783E+01  0.65146354063E+02  0.68663522943E+02  0.00000000000E+00 0. -1.
         11    1    3    3    0    0  0.62617259496E+02 -0.18911116598E+02  0.29655746183E+01  0.65477829459E+02  0.00000000000E+00 0. -1.
        -12    1    3    3    0    0  0.12112498304E+02  0.11939243157E+02  0.57393437240E+02  0.59860377384E+02  0.00000000000E+00 0.  1.
          5    1    4    4  501    0  0.67803063549E+02  0.63630455365E+02  0.30860476810E+03  0.32233595141E+03  0.41800000000E+01 0.  1.
         -5    1    4    4    0  501 -0.14894174377E+02 -0.21124599150E+02  0.37565650504E+03  0.37656787874E+03  0.41800000000E+01 0.  1.
</event>
<event>
11    1  0.5813833E-009  0.1330655E+03  0.7561462E-02  0.1115559E+00
         22   -1    0    0    0    0  0.00000000000E+00  0.00000000000E+00  0.75915660767E+03  0.75915660767E+03  0.00000000000E+00 0.  1.
         22   -1    0    0    0    0 -0.00000000000E+00 -0.00000000000E+00 -0.39078965321E+02  0.39078965321E+02  0.00000000000E+00 0. -1.
         24    2    1    2    0    0 -0.26600575799E+02  0.22700565209E+02  0.90598449175E+02  0.12559504217E+03  0.79643765180E+02 0.  0.
         25    2    1    2    0    0 -0.18881558159E+02 -0.41478546979E+02  0.27983822535E+03  0.30989466411E+03  0.12509311485E+03 0.  0.
        -24    2    1    2    0    0  0.45482133958E+02  0.18777981770E+02  0.34964096783E+03  0.36274586670E+03  0.83153594747E+02 0.  0.
        -13    1    3    3    0    0 -0.30801589468E+02 -0.20921856051E+02  0.19389363581E+02  0.41981059949E+02  0.00000000000E+00 0.  1.
         14    1    3    3    0    0  0.42010136685E+01  0.43622421260E+02  0.71209085594E+02  0.83613982225E+02  0.00000000000E+00 0. -1.
         13    1    5    5    0    0  0.27225486517E+02 -0.32235134718E+02  0.16602516294E+03  0.17130290645E+03  0.00000000000E+00 0. -1.
        -14    1    5    5    0    0  0.18256647441E+02  0.51013116487E+02  0.18361580488E+03  0.19144296026E+03  0.00000000000E+00 0.  1.
          5    1    4    4  501    0 -0.69448061506E+00 -0.19528617260E+02 -0.73298924591E+01  0.21284945828E+02  0.41800000000E+01 0. -1.
         -5    1    4    4    0  501 -0.18187077544E+02 -0.21949929719E+02  0.28716811780E+03  0.28860971828E+03  0.41800000000E+01 0. -1.
</event>
<event>
11    1  0.5813833E-009  0.1513005E+03  0.7561462E-02  0.1095557E+00
         22   -1    0    0    0    0  0.00000000000E+00  0.00000000000E+00  0.39974622768E+03  0.39974622768E+03  0.00000000000E+00 0. -1.
         22   -1    0    0    0    0 -0.00000000000E+00 -0.00000000000E+00 -0.15895151014E+04  0.15895151014E+04  0.00000000000E+00 0. -1.
         24    2    1    2    0    0 -0.81329539887E+02 -0.21915695597E+02 -0.15172551430E+04  0.15217361444E+04  0.80764673092E+02 0.  0.
         25    2    1    2    0    0  0.14619870511E+03  0.29653133402E+02  0.10377563361E+03  0.22061417778E+03  0.12509142100E+03 0.  0.
        -24    2    1    2    0    0 -0.64869165226E+02 -0.77374378050E+01  0.22371063567E+03  0.24691100690E+03  0.81551948341E+02 0.  0.
        -13    1    3    3    0    0  0.11541804073E+02 -0.10990115612E+02 -0.88459850381E+02  0.89884042031E+02  0.00000000000E+00 0.  1.
         14    1    3    3    0    0 -0.92871343960E+02 -0.10925579985E+02 -0.14287952926E+04  0.14318521024E+04  0.00000000000E+00 0. -1.
         13    1    5    5    0    0 -0.16403876046E+02  0.16664192563E+02  0.16622208824E+03  0.16785876528E+03  0.00000000000E+00 0. -1.
        -14    1    5    5    0    0 -0.48465289180E+02 -0.24401630368E+02  0.57488547426E+02  0.79052241619E+02  0.00000000000E+00 0.  1.
          5    1    4    4  501    0  0.95527935260E+02  0.19731655257E+02 -0.74492514813E+01  0.97917763362E+02  0.41800000000E+01 0. -1.
         -5    1    4    4    0  501  0.50670769853E+02  0.99214781445E+01  0.11122488510E+03  0.12269641442E+03  0.41800000000E+01 0. -1.
</event>
<event>
11    1  0.5813833E-009  0.1572850E+03  0.7561462E-02  0.1089659E+00
         22   -1    0    0    0    0  0.00000000000E+00  0.00000000000E+00  0.33441873527E+03  0.33441873527E+03  0.00000000000E+00 0.  1.
         22   -1    0    0    0    0 -0.00000000000E+00 -0.00000000000E+00 -0.21898224739E+04  0.21898224739E+04  0.00000000000E+00 0.  1.
         24    2    1    2    0    0  0.47203871434E+02  0.51819975057E+02 -0.20754814353E+04  0.20781926154E+04  0.79673350292E+02 0.  0.
         25    2    1    2    0    0  0.22041065679E+02 -0.11653417371E+03 -0.22129005039E+02  0.17378720776E+03  0.12508508504E+03 0.  0.
        -24    2    1    2    0    0 -0.69244937112E+02  0.64714198653E+02  0.24220670177E+03  0.27226138604E+03  0.80494640341E+02 0.  0.
        -11    1    3    3    0    0  0.51191875238E+01  0.58842588305E+02 -0.14836323552E+04  0.14848076043E+04  0.00000000000E+00 0.  1.
         12    1    3    3    0    0  0.42084683910E+02 -0.70226132481E+01 -0.59184908011E+03  0.59338501105E+03  0.00000000000E+00 0. -1.
         13    1    5    5    0    0 -0.44615018838E+02  0.34714568447E+02  0.47836872956E+02  0.74053815449E+02  0.00000000000E+00 0. -1.
        -14    1    5    5    0    0 -0.24629918274E+02  0.29999630206E+02  0.19436982881E+03  0.19820757059E+03  0.00000000000E+00 0.  1.
          5    1    4    4  501    0 -0.28124687948E+02  0.11063844628E+02 -0.20224928212E+02  0.36605011287E+02  0.41800000000E+01 0. -1.
         -5    1    4    4    0  501  0.50165753627E+02 -0.12759801834E+03 -0.19040768268E+01  0.13718219647E+03  0.41800000000E+01 0. -1.
</event>
<event>
11    1  0.5813833E-009  0.1419601E+03  0.7561462E-02  0.1105389E+00
         22   -1    0    0    0    0  0.00000000000E+00  0.00000000000E+00  0.44895787438E+03  0.44895787438E+03  0.00000000000E+00 0.  1.
         22   -1    0    0    0    0 -0.00000000000E+00 -0.00000000000E+00 -0.19317185289E+04  0.19317185289E+04  0.00000000000E+00 0.  1.
        -24    2    1    2    0    0  0.30484805538E+02  0.24837991511E+02 -0.82921885947E+03  0.83383790226E+03  0.78329312175E+02 0.  0.
         25    2    1    2    0    0 -0.81306962265E+02 -0.68334519153E+02 -0.10878290980E+04  0.11001366712E+04  0.12509244692E+03 0.  0.
         24    2    1    2    0    0  0.50822156727E+02  0.43496527642E+02  0.43428730292E+03  0.44670182983E+03  0.80387957832E+02 0.  0.
        -11    1    5    5    0    0  0.67727236285E+02  0.19102682212E+02  0.35788139774E+03  0.36473413036E+03  0.00000000000E+00 0.  1.
         12    1    5    5    0    0 -0.16905079558E+02  0.24393845430E+02  0.76405905183E+02  0.81967699470E+02  0.00000000000E+00 0. -1.
         13    1    3    3    0    0  0.34876315920E+02  0.30074615190E+02 -0.22923661792E+03  0.23381673782E+03  0.00000000000E+00 0. -1.
        -14    1    3    3    0    0 -0.43915103820E+01 -0.52366236788E+01 -0.59998224155E+03  0.60002116443E+03  0.00000000000E+00 0.  1.
          5    1    4    4  501    0 -0.41332917890E+01  0.31559927253E+02 -0.36014867293E+03  0.36157661999E+03  0.41800000000E+01 0.  1.
         -5    1    4    4    0  501 -0.77173670476E+02 -0.99894446406E+02 -0.72768042504E+03  0.73856005119E+03  0.41800000000E+01 0.  1.
</event>
<event>
11    1  0.5813833E-009  0.1763077E+03  0.7561462E-02  0.1072669E+00
         22   -1    0    0    0    0  0.00000000000E+00  0.00000000000E+00  0.10012654357E+04  0.10012654357E+04  0.00000000000E+00 0. -1.
         22   -1    0    0    0    0 -0.00000000000E+00 -0.00000000000E+00 -0.62514508136E+03  0.62514508136E+03  0.00000000000E+00 0. -1.
        -24    2    1    2    0    0  0.66974871857E+02 -0.10474579433E+03 -0.59830067938E+03  0.61603771792E+03  0.77983665379E+02 0.  0.
         25    2    1    2    0    0 -0.58891106979E+02  0.10145497480E+03  0.76417514350E+03  0.78318075118E+03  0.12508862731E+03 0.  0.
         24    2    1    2    0    0 -0.80837648773E+01  0.32908195296E+01  0.21024589019E+03  0.22719204793E+03  0.85654629470E+02 0.  0.
        -11    1    5    5    0    0 -0.31176273697E+02  0.34756916627E+02  0.12501351699E+03  0.13344805253E+03  0.00000000000E+00 0.  1.
         12    1    5    5    0    0  0.23092508819E+02 -0.31466097097E+02  0.85232373208E+02  0.93743995396E+02  0.00000000000E+00 0. -1.
         11    1    3    3    0    0  0.41873825124E+02 -0.42552121336E+02 -0.44118719926E+03  0.44520809185E+03  0.00000000000E+00 0. -1.
        -12    1    3    3    0    0  0.25101046733E+02 -0.62193672992E+02 -0.15711348012E+03  0.17082962607E+03  0.00000000000E+00 0.  1.
          5    1    4    4  501    0 -0.30832867033E+01  0.47712420240E+01  0.44436323474E+03  0.44441920322E+03  0.41800000000E+01 0. -1.
         -5    1    4    4    0  501 -0.55807820276E+02  0.96683732774E+02  0.31981190876E+03  0.33876154796E+03  0.41800000000E+01 0. -1.
</event>
<event>
11    1  0.5813833E-009  0.2923810E+03  0.7561462E-02  0.1003468E+00
         22   -1    0    0    0    0  0.00000000000E+00  0.00000000000E+00  0.87095644323E+03  0.87095644323E+03  0.00000000000E+00 0. -1.
         22   -1    0    0    0    0 -0.00000000000E+00 -0.00000000000E+00 -0.70778226463E+03  0.70778226463E+03  0.00000000000E+00 0. -1.
         24    2    1    2    0    0  0.11799823096E+03  0.23078775452E+03 -0.55728196654E+03  0.61938130417E+03  0.76703582590E+02 0.  0.
         25    2    1    2    0    0 -0.14203763529E+03 -0.26640008897E+03  0.11424929376E+03  0.34618327397E+03  0.12508501431E+03 0.  0.
        -24    2    1    2    0    0  0.24039404333E+02  0.35612334451E+02  0.60620685137E+03  0.61317412973E+03  0.81545296580E+02 0.  0.
        -13    1    3    3    0    0  0.20346937981E+02  0.17997277166E+01 -0.57756774076E+02  0.61262401656E+02  0.00000000000E+00 0.  1.
         14    1    3    3    0    0  0.97651292976E+02  0.22898802680E+03 -0.49952519246E+03  0.55811890251E+03  0.00000000000E+00 0. -1.
         13    1    5    5    0    0 -0.23996679402E+02 -0.44265120416E+01  0.27756796333E+03  0.27863849142E+03  0.00000000000E+00 0. -1.
        -14    1    5    5    0    0  0.48036083735E+02  0.40038846493E+02  0.32863888804E+03  0.33453563831E+03  0.00000000000E+00 0.  1.
          5    1    4    4  501    0 -0.15549030150E+03 -0.19091301619E+03  0.10873672718E+03  0.26919539716E+03  0.41800000000E+01 0. -1.
         -5    1    4    4    0  501  0.13452666214E+02 -0.75487072776E+02  0.55125665805E+01  0.76987876804E+02  0.41800000000E+01 0. -1.
</event>
<event>
11    1  0.5813833E-009  0.1443156E+03  0.7561462E-02  0.1102833E+00
         22   -1    0    0    0    0  0.00000000000E+00  0.00000000000E+00  0.16091188724E+04  0.16091188724E+04  0.00000000000E+00 0.  1.
         22   -1    0    0    0    0 -0.00000000000E+00 -0.00000000000E+00 -0.13975872306E+03  0.13975872306E+03  0.00000000000E+00 0. -1.
        -24    2    1    2    0    0  0.70049119162E+02 -0.11548671924E+02 -0.62863697248E+02  0.12333793732E+03  0.78867936649E+02 0.  0.
         25    2    1    2    0    0 -0.67556637180E+02  0.46507181527E+02  0.78141670049E+02  0.16876607419E+03  0.12509616317E+03 0.  0.
         24    2    1    2    0    0 -0.24924819819E+01 -0.34958509603E+02  0.14540821766E+04  0.14567735840E+04  0.81277234762E+02 0.  0.
        -11    1    5    5    0    0  0.19014094755E+02 -0.23414491300E+02  0.13284389420E+04  0.13287813202E+04  0.00000000000E+00 0.  1.
         12    1    5    5    0    0 -0.21506576737E+02 -0.11544018303E+02  0.12564323453E+03  0.12799226377E+03  0.00000000000E+00 0. -1.
         13    1    3    3    0    0  0.49629798392E+02 -0.43413252211E+02 -0.51966962345E+02  0.83954705236E+02  0.00000000000E+00 0. -1.
        -14    1    3    3    0    0  0.20419320770E+02  0.31864580287E+02 -0.10896734903E+02  0.39383232081E+02  0.00000000000E+00 0.  1.
          5    1    4    4  501    0  0.33049279197E+02 -0.60628604268E+01  0.65203774825E+01  0.34481891690E+02  0.41800000000E+01 0. -1.
         -5    1    4    4    0  501 -0.10060591638E+03  0.52570041954E+02  0.71621292566E+02  0.13428418250E+03  0.41800000000E+01 0. -1.
</event>
<event>
11    1  0.5813833E-009  0.1274065E+03  0.7561462E-02  0.1122497E+00
         22   -1    0    0    0    0  0.00000000000E+00  0.00000000000E+00  0.15781785828E+04  0.15781785828E+04  0.00000000000E+00 0.  1.
         22   -1    0    0    0    0 -0.00000000000E+00 -0.00000000000E+00 -0.16265744979E+03  0.16265744979E+03  0.00000000000E+00 0. -1.
        -24    2    1    2    0    0  0.17172829631E+01  0.87550577557E+01 -0.12123177673E+03  0.14647891771E+03  0.81727165288E+02 0.  0.
         25    2    1    2    0    0 -0.11023175831E+02  0.13926412845E+02  0.11744542383E+03  0.17249999632E+03  0.12508943109E+03 0.  0.
         24    2    1    2    0    0  0.93058928682E+01 -0.22681470601E+02  0.14193074859E+04  0.14218571186E+04  0.81503848362E+02 0.  0.
        -11    1    5    5    0    0  0.39915320054E+02 -0.15477502450E+02  0.11366317169E+04  0.11374376667E+04  0.00000000000E+00 0.  1.
         12    1    5    5    0    0 -0.30609427186E+02 -0.72039681514E+01  0.28267576903E+03  0.28441945184E+03  0.00000000000E+00 0. -1.
         11    1    3    3    0    0  0.36179269541E+02  0.20893341254E+02 -0.86532829617E+02  0.96090591916E+02  0.00000000000E+00 0. -1.
        -12    1    3    3    0    0 -0.34461986578E+02 -0.12138283499E+02 -0.34698947117E+02  0.50388325793E+02  0.00000000000E+00 0.  1.
          5    1    4    4  501    0 -0.65906044874E+02 -0.77219912492E+01  0.53003207480E+02  0.85029690714E+02  0.41800000000E+01 0. -1.
         -5    1    4    4    0  501  0.54882869043E+02  0.21648404095E+02  0.64442216348E+02  0.87470305602E+02  0.41800000000E+01 0. -1.
</event>
<event>
11    1  0.5813833E-009  0.1404032E+03  0.7561462E-02  0.1107109E+00
         22   -1    0    0    0    0  0.00000000000E+00  0.00000000000E+00  0.24263563753E+03  0.24263563753E+03  0.00000000000E+00 0.  1.
         22   -1    0    0    0    0 -0.00000000000E+00 -0.00000000000E+00 -0.91759407710E+03  0.91759407710E+03  0.00000000000E+00 0.  1.
         24    2    1    2    0    0  0.13323162404E+02  0.63380830571E+02 -0.72389343082E+03  0.73154150223E+03  0.83286457258E+02 0.  0.
         25    2    1    2    0    0 -0.33206463889E+02 -0.50515393629E+02 -0.15537284433E+03  0.20843089876E+03  0.12509294372E+03 0.  0.
        -24    2    1    2    0    0  0.19883301485E+02 -0.12865436942E+02  0.20430783557E+03  0.22025731364E+03  0.78808168295E+02 0.  0.
        -13    1    3    3    0    0 -0.13510146379E+02  0.27890133969E+02 -0.58225618608E+03  0.58308031167E+03  0.00000000000E+00 0.  1.
         14    1    3    3    0    0  0.26833308783E+02  0.35490696602E+02 -0.14163724473E+03  0.14846119055E+03  0.00000000000E+00 0. -1.
         13    1    5    5    0    0  0.34640726806E+02  0.50429429179E+01  0.18955302044E+03  0.19275829110E+03  0.00000000000E+00 0. -1.
        -14    1    5    5    0    0 -0.14757425321E+02 -0.17908379860E+02  0.14754815124E+02  0.27499022540E+02  0.00000000000E+00 0.  1.
          5    1    4    4  501    0 -0.61232664686E+02 -0.28314945075E+02 -0.23229181086E+02  0.71471970681E+02  0.41800000000E+01 0. -1.
         -5    1    4    4    0  501  0.28026200797E+02 -0.22200448554E+02 -0.13214366324E+03  0.13695892808E+03  0.41800000000E+01 0. -1.
</event>
<event>
11    1  0.5813833E-009  0.1531084E+03  0.7561462E-02  0.1093744E+00
         22   -1    0    0    0    0  0.00000000000E+00  0.00000000000E+00  0.42285101151E+03  0.42285101151E+03  0.00000000000E+00 0.  1.
         22   -1    0    0    0    0 -0.00000000000E+00 -0.00000000000E+00 -0.15927778033E+03  0.15927778033E+03  0.00000000000E+00 0. -1.
        -24    2    1    2    0    0 -0.25296219258E+01 -0.64984998517E+02 -0.79673651740E+02  0.13120599949E+03  0.81471924613E+02 0.  0.
         25    2    1    2    0    0 -0.56703579531E+02  0.11106552125E+03  0.17249323007E+03  0.24688485214E+03  0.12508944742E+03 0.  0.
         24    2    1    2    0    0  0.59233201457E+02 -0.46080522738E+02  0.17075365284E+03  0.20403794021E+03  0.82720519555E+02 0.  0.
        -11    1    5    5    0    0  0.68687782878E+01 -0.25465531056E+02  0.13457586617E+03  0.13713619925E+03  0.00000000000E+00 0.  1.
         12    1    5    5    0    0  0.52364423169E+02 -0.20614991681E+02  0.36177786670E+02  0.66901740965E+02  0.00000000000E+00 0. -1.
         13    1    3    3    0    0  0.27769004195E+01 -0.84037178517E+02 -0.59886147237E+02  0.10322940075E+03  0.00000000000E+00 0. -1.
        -14    1    3    3    0    0 -0.53065223453E+01  0.19052180000E+02 -0.19787504502E+02  0.27976598732E+02  0.00000000000E+00 0.  1.
          5    1    4    4  501    0  0.93615601383E+00  0.87612679002E+02  0.32354405962E+02  0.93494052726E+02  0.41800000000E+01 0. -1.
         -5    1    4    4    0  501 -0.57639735545E+02  0.23452842252E+02  0.14013882411E+03  0.15339079942E+03  0.41800000000E+01 0. -1.
</event>
<event>
11    1  0.5813833E-009  0.1660188E+03  0.7561462E-02  0.1081549E+00
         22   -1    0    0    0    0  0.00000000000E+00  0.00000000000E+00  0.15721688740E+04  0.15721688740E+04  0.00000000000E+00 0.  1.
         22   -1    0    0    0    0 -0.00000000000E+00 -0.00000000000E+00 -0.84369494581E+02  0.84369494581E+02  0.00000000000E+00 0. -1.
        -24    2    1    2    0    0 -0.15652394114E+02  0.49842211599E+02 -0.26567758105E+02  0.97427739291E+02  0.77827213198E+02 0.  0.
         25    2    1    2    0    0  0.69634758034E+02  0.52490358736E+02  0.30008002474E+03  0.33660113909E+03  0.12509223919E+03 0.  0.
         24    2    1    2    0    0 -0.53982363921E+02 -0.10233257033E+03  0.12142871127E+04  0.12225094902E+04  0.81548824492E+02 0.  0.
        -13    1    5    5    0    0 -0.55399073203E+02 -0.20434705222E+02  0.56458686442E+03  0.56766624170E+03  0.00000000000E+00 0.  1.
         14    1    5    5    0    0  0.14167092827E+01 -0.81897865112E+02  0.64970024831E+03  0.65484324845E+03  0.00000000000E+00 0. -1.
         11    1    3    3    0    0 -0.31049308496E+02  0.60766484101E+02 -0.35068980525E+02  0.76723259466E+02  0.00000000000E+00 0. -1.
        -12    1    3    3    0    0  0.15396914382E+02 -0.10924272502E+02  0.85012224206E+01  0.20704479825E+02  0.00000000000E+00 0.  1.
          5    1    4    4  501    0  0.19858256526E+02  0.57868476606E+02  0.27244620877E+03  0.27926245722E+03  0.41800000000E+01 0. -1.
         -5    1    4    4    0  501  0.49776501508E+02 -0.53781178706E+01  0.27633815962E+02  0.57338681872E+02  0.41800000000E+01 0. -1.
</event>
<event>
11    1  0.5813833E-009  0.1268201E+03  0.7561462E-02  0.1123239E+00
         22   -1    0    0    0    0  0.00000000000E+00  0.00000000000E+00  0.21328520306E+03  0.21328520306E+03  0.00000000000E+00 0.  1.
         22   -1    0    0    0    0 -0.00000000000E+00 -0.00000000000E+00 -0.99605061506E+03  0.99605061506E+03  0.00000000000E+00 0. -1.
        -24    2    1    2    0    0  0.21141734110E+02 -0.69857287251E+01 -0.89877364881E+03  0.90225587828E+03  0.75998847103E+02 0.  0.
         25    2    1    2    0    0 -0.17003675235E+02 -0.14583364620E+02 -0.37448865961E+02  0.13248331780E+03  0.12509041706E+03 0.  0.
         24    2    1    2    0    0 -0.41380588751E+01  0.21569093346E+02  0.15345710277E+03  0.17459662203E+03  0.80327758059E+02 0.  0.
        -13    1    5    5    0    0  0.19296072090E+02  0.10713498867E+02  0.14607915192E+03  0.14773705047E+03  0.00000000000E+00 0.  1.
         14    1    5    5    0    0 -0.23434130965E+02  0.10855594479E+02  0.73779508484E+01  0.26859571558E+02  0.00000000000E+00 0. -1.
         11    1    3    3    0    0  0.96647320611E+01  0.87476179776E+01 -0.84438770808E+03  0.84448832403E+03  0.00000000000E+00 0. -1.
        -12    1    3    3    0    0  0.11477002049E+02 -0.15733346703E+02 -0.54385940734E+02  0.57767554250E+02  0.00000000000E+00 0.  1.
          5    1    4    4  501    0  0.32314007060E+02  0.33154287392E+02  0.11730200000E+02  0.47942380175E+02  0.41800000000E+01 0. -1.
         -5    1    4    4    0  501 -0.49317682295E+02 -0.47737652013E+02 -0.49179065960E+02  0.84540937630E+02  0.41800000000E+01 0. -1.
</event>
<event>
11    1  0.5813833E-009  0.1500697E+03  0.7561462E-02  0.1096808E+00
         22   -1    0    0    0    0  0.00000000000E+00  0.00000000000E+00  0.26768719917E+03  0.26768719917E+03  0.00000000000E+00 0. -1.
         22   -1    0    0    0    0 -0.00000000000E+00 -0.00000000000E+00 -0.43895398593E+03  0.43895398593E+03  0.00000000000E+00 0. -1.
         24    2    1    2    0    0 -0.75409677741E+02  0.80306839136E+01 -0.26249291287E+03  0.28602040847E+03  0.84581519084E+02 0.  0.
         25    2    1    2    0    0  0.11167473448E+03  0.14174464159E+02 -0.10925477708E+03  0.20063885549E+03  0.12508869758E+03 0.  0.
        -24    2    1    2    0    0 -0.36265056739E+02 -0.22205148073E+02  0.20048090318E+03  0.21998192114E+03  0.79945169611E+02 0.  0.
        -13    1    3    3    0    0 -0.55291561594E+02  0.88530233400E+01 -0.58294907235E+02  0.80832103865E+02  0.00000000000E+00 0.  1.
         14    1    3    3    0    0 -0.20118116148E+02 -0.82233942639E+00 -0.20419800564E+03  0.20518830460E+03  0.00000000000E+00 0. -1.
         13    1    5    5    0    0 -0.68400132254E+01 -0.37215708201E+02  0.17277052155E+03  0.17686562084E+03  0.00000000000E+00 0. -1.
        -14    1    5    5    0    0 -0.29425043513E+02  0.15010560129E+02  0.27710381636E+02  0.43116300300E+02  0.00000000000E+00 0.  1.
          5    1    4    4  501    0  0.83997482588E+02  0.52332260751E+02 -0.22137287347E+02  0.10149765755E+03  0.41800000000E+01 0.  1.
         -5    1    4    4    0  501  0.27677251892E+02 -0.38157796591E+02 -0.87117489729E+02  0.99141197943E+02  0.41800000000E+01 0.  1.
</event>
<event>
11    1  0.5813833E-009  0.1328072E+03  0.7561462E-02  0.1115867E+00
         22   -1    0    0    0    0  0.00000000000E+00  0.00000000000E+00  0.28678374248E+03  0.28678374248E+03  0.00000000000E+00 0.  1.
         22   -1    0    0    0    0 -0.00000000000E+00 -0.00000000000E+00 -0.29125479354E+04  0.29125479354E+04  0.00000000000E+00 0. -1.
        -24    2    1    2    0    0  0.91635934820E+01 -0.23219287506E+02 -0.26342613720E+04  0.26355924882E+04  0.79947989931E+02 0.  0.
         25    2    1    2    0    0 -0.13486069638E+02  0.66898832622E+02 -0.25035959353E+03  0.28806947864E+03  0.12508705197E+03 0.  0.
         24    2    1    2    0    0  0.43224761564E+01 -0.43679545116E+02  0.25885677263E+03  0.27566971102E+03  0.84026033897E+02 0.  0.
        -11    1    5    5    0    0 -0.27145193188E+02  0.12861789665E+02  0.77815414230E+02  0.83411784769E+02  0.00000000000E+00 0.  1.
         12    1    5    5    0    0  0.31467669344E+02 -0.56541334781E+02  0.18104135840E+03  0.19225792625E+03  0.00000000000E+00 0. -1.
         11    1    3    3    0    0  0.47285716637E+01 -0.68797530535E+01 -0.25261198522E+04  0.25261336461E+04  0.00000000000E+00 0. -1.
        -12    1    3    3    0    0  0.44350218183E+01 -0.16339534452E+02 -0.10814151980E+03  0.10945884208E+03  0.00000000000E+00 0.  1.
          5    1    4    4  501    0 -0.21438064457E+02 -0.66094799590E+01  0.39831718315E+01  0.23164928034E+02  0.41800000000E+01 0. -1.
         -5    1    4    4    0  501  0.79519948184E+01  0.73508312581E+02 -0.25434276536E+03  0.26490455060E+03  0.41800000000E+01 0. -1.
</event>
<event>
11    1  0.5813833E-009  0.3901594E+03  0.7561462E-02  0.9679248E-01
         22   -1    0    0    0    0  0.00000000000E+00  0.00000000000E+00  0.72810479949E+03  0.72810479949E+03  0.00000000000E+00 0. -1.
         22   -1    0    0    0    0 -0.00000000000E+00 -0.00000000000E+00 -0.70041416511E+03  0.70041416511E+03  0.00000000000E+00 0. -1.
        -24    2    1    2    0    0 -0.17112154650E+02  0.35302287230E+03 -0.43782081793E+03  0.56856194017E+03  0.81594344143E+02 0.  0.
         25    2    1    2    0    0 -0.11564261822E+03 -0.46330479117E+03  0.20640078931E+03  0.53504401579E+03  0.12508504443E+03 0.  0.
         24    2    1    2    0    0  0.13275477287E+03  0.11028191887E+03  0.25911066300E+03  0.32491300863E+03  0.92974169242E+02 0.  0.
        -11    1    5    5    0    0  0.28080354844E+02  0.29657590426E+02  0.86635036557E+01  0.41750871771E+02  0.00000000000E+00 0.  1.
         12    1    5    5    0    0  0.10467441803E+03  0.80624328448E+02  0.25044715934E+03  0.28316213686E+03  0.00000000000E+00 0. -1.
         13    1    3    3    0    0 -0.17581890310E+02  0.32647986465E+03 -0.43131204893E+03  0.54122851776E+03  0.00000000000E+00 0. -1.
        -14    1    3    3    0    0  0.46973565997E+00  0.26543007651E+02 -0.65087690016E+01  0.27333422410E+02  0.00000000000E+00 0.  1.
          5    1    4    4  501    0 -0.80523162801E+02 -0.25389410043E+03  0.49389241304E+02  0.27092981294E+03  0.41800000000E+01 0.  1.
         -5    1    4    4    0  501 -0.35119455420E+02 -0.20941069074E+03  0.15701154800E+03  0.26411420286E+03  0.41800000000E+01 0.  1.
</event>
<event>
11    1  0.5813833E-009  0.2138502E+03  0.7561462E-02  0.1045140E+00
         22   -1    0    0    0    0  0.00000000000E+00  0.00000000000E+00  0.12790330889E+04  0.12790330889E+04  0.00000000000E+00 0.  1.
         22   -1    0    0    0    0 -0.00000000000E+00 -0.00000000000E+00 -0.13422198140E+04  0.13422198140E+04  0.00000000000E+00 0.  1.
         24    2    1    2    0    0 -0.15105549203E+02 -0.19376485504E+02 -0.12303580845E+04  0.12333886386E+04  0.82842572001E+02 0.  0.
         25    2    1    2    0    0 -0.14713675536E+03 -0.46122214962E+02 -0.62757846300E+01  0.19865410849E+03  0.12509031080E+03 0.  0.
        -24    2    1    2    0    0  0.16224230456E+03  0.65498700466E+02  0.11734471441E+04  0.11892101559E+04  0.81424503401E+02 0.  0.
        -11    1    3    3    0    0 -0.28433616936E+02  0.93674722692E+01 -0.10385471516E+04  0.10389785399E+04  0.00000000000E+00 0.  1.
         12    1    3    3    0    0  0.13328067732E+02 -0.28743957773E+02 -0.19181093290E+03  0.19441009871E+03  0.00000000000E+00 0. -1.
         11    1    5    5    0    0  0.10772284888E+02  0.30348875044E+02  0.11583339717E+03  0.12022675342E+03  0.00000000000E+00 0. -1.
        -12    1    5    5    0    0  0.15147001968E+03  0.35149825422E+02  0.10576137469E+04  0.10689834025E+04  0.00000000000E+00 0.  1.
          5    1    4    4  501    0  0.85328583185E+01 -0.19118741385E+02 -0.32056837634E+02  0.38515570647E+02  0.41800000000E+01 0. -1.
         -5    1    4    4    0  501 -0.15566961368E+03 -0.27003473577E+02  0.25781053004E+02  0.16013853784E+03  0.41800000000E+01 0. -1.
</event>
<event>
11    1  0.6763848E-009  0.1846660E+03  0.7561462E-02  0.1065930E+00
         22   -1    0    0    0    0  0.00000000000E+00  0.00000000000E+00  0.41141912446E+03  0.41141912446E+03  0.00000000000E+00 0. -1.
         22   -1    0    0    0    0 -0.00000000000E+00 -0.00000000000E+00 -0.16443191908E+04  0.16443191908E+04  0.00000000000E+00 0.  1.
         24    2    1    2    0    0  0.34639698223E+02  0.72704373784E+01 -0.10472968142E+04  0.10510438359E+04  0.81300430320E+02 0.  0.
         25    2    1    2    0    0 -0.12883701563E+03  0.89909703217E+02 -0.56232300986E+03  0.59711045779E+03  0.12510395699E+03 0.  0.
        -24    2    1    2    0    0  0.94197317409E+02 -0.97180140595E+02  0.37671975773E+03  0.40758402157E+03  0.76745321974E+02 0.  0.
        -11    1    3    3    0    0  0.53562990432E+02 -0.15526226175E+02 -0.80754962840E+03  0.80947295197E+03  0.00000000000E+00 0.  1.
         12    1    3    3    0    0 -0.18923292209E+02  0.22796663554E+02 -0.23974718583E+03  0.24157088394E+03  0.00000000000E+00 0. -1.
         13    1    5    5    0    0  0.39290284608E+02 -0.91795728616E+02  0.22564004164E+03  0.24674604484E+03  0.00000000000E+00 0. -1.
        -14    1    5    5    0    0  0.54907032801E+02 -0.53844119786E+01  0.15107971609E+03  0.16083797673E+03  0.00000000000E+00 0.  1.
          5    1    4    4  501    0  0.17756735265E+02  0.34174294520E+02 -0.17466218928E+03  0.17890650301E+03  0.41800000000E+01 0. -1.
         -5    1    4    4    0  501 -0.14659375090E+03  0.55735408697E+02 -0.38766082057E+03  0.41820395478E+03  0.41800000000E+01 0. -1.
</event>
<event>
11    1  0.5813833E-009  0.1326574E+03  0.7561462E-02  0.1116046E+00
         22   -1    0    0    0    0  0.00000000000E+00  0.00000000000E+00  0.58450140341E+03  0.58450140341E+03  0.00000000000E+00 0.  1.
         22   -1    0    0    0    0 -0.00000000000E+00 -0.00000000000E+00 -0.20179237338E+03  0.20179237338E+03  0.00000000000E+00 0. -1.
         24    2    1    2    0    0  0.39824141753E+02 -0.16800853773E+02 -0.16450865130E+03  0.18810648067E+03  0.80328828963E+02 0.  0.
         25    2    1    2    0    0 -0.49043337358E+02  0.55431685359E+02  0.27349001279E+03  0.30971445396E+03  0.12509330605E+03 0.  0.
        -24    2    1    2    0    0  0.92191956047E+01 -0.38630831585E+02  0.27372766854E+03  0.28847284215E+03  0.81929295241E+02 0.  0.
        -13    1    3    3    0    0 -0.31048084335E+01  0.15051473056E+02 -0.25190857597E+00  0.15370430524E+02  0.00000000000E+00 0.  1.
         14    1    3    3    0    0  0.42928950187E+02 -0.31852326830E+02 -0.16425674273E+03  0.17273605014E+03  0.00000000000E+00 0. -1.
         13    1    5    5    0    0 -0.33283288779E+01 -0.59716081849E+02  0.13590566798E+03  0.14848379977E+03  0.00000000000E+00 0. -1.
        -14    1    5    5    0    0  0.12547524483E+02  0.21085250264E+02  0.13782200056E+03  0.13998904238E+03  0.00000000000E+00 0.  1.
          5    1    4    4  501    0 -0.44931759452E+02 -0.27805359039E+02  0.57685940125E+02  0.78339907371E+02  0.41800000000E+01 0. -1.
         -5    1    4    4    0  501 -0.41115779056E+01  0.83237044398E+02  0.21580407266E+03  0.23137454659E+03  0.41800000000E+01 0. -1.
</event>
<event>
11    1  0.5813833E-009  0.1506440E+03  0.7561462E-02  0.1096223E+00
         22   -1    0    0    0    0  0.00000000000E+00  0.00000000000E+00  0.28149565175E+03  0.28149565175E+03  0.00000000000E+00 0.  1.
         22   -1    0    0    0    0 -0.00000000000E+00 -0.00000000000E+00 -0.31539698535E+03  0.31539698535E+03  0.00000000000E+00 0. -1.
        -24    2    1    2    0    0 -0.34125385794E+01 -0.70758135803E+02 -0.17795464409E+03  0.20756738827E+03  0.79987537256E+02 0.  0.
         25    2    1    2    0    0 -0.34446474415E+01 -0.23057557971E+02 -0.66595677573E+02  0.14361627252E+03  0.12508850022E+03 0.  0.
         24    2    1    2    0    0  0.68571860209E+01  0.93815693774E+02  0.21064898806E+03  0.24570897632E+03  0.84566538740E+02 0.  0.
        -13    1    5    5    0    0  0.34307362936E+02  0.84577584163E+02  0.18784975334E+03  0.20884897109E+03  0.00000000000E+00 0.  1.
         14    1    5    5    0    0 -0.27450176915E+02  0.92381096116E+01  0.22799234723E+02  0.36860005234E+02  0.00000000000E+00 0. -1.
         11    1    3    3    0    0  0.25797721465E+02  0.23672938582E+00 -0.73787533908E+02  0.78167631625E+02  0.00000000000E+00 0. -1.
        -12    1    3    3    0    0 -0.29210260044E+02 -0.70994865189E+02 -0.10416711018E+03  0.12939975664E+03  0.00000000000E+00 0.  1.
          5    1    4    4  501    0  0.97435313477E+01  0.32946752397E+02  0.19692421490E+02  0.39820707687E+02  0.41800000000E+01 0. -1.
         -5    1    4    4    0  501 -0.13188178789E+02 -0.56004310368E+02 -0.86288099062E+02  0.10379556483E+03  0.41800000000E+01 0. -1.
</event>
<event>
11    1  0.5813833E-009  0.1308445E+03  0.7561462E-02  0.1118236E+00
         22   -1    0    0    0    0  0.00000000000E+00  0.00000000000E+00  0.56620052595E+03  0.56620052595E+03  0.00000000000E+00 0.  1.
         22   -1    0    0    0    0 -0.00000000000E+00 -0.00000000000E+00 -0.86435883072E+03  0.86435883072E+03  0.00000000000E+00 0. -1.
         24    2    1    2    0    0  0.13297665149E+02 -0.66673598871E+01 -0.62704937910E+03  0.63235001829E+03  0.80338908475E+02 0.  0.
         25    2    1    2    0    0 -0.33254489491E+02  0.39096409784E+02 -0.21087581622E+03  0.25051351032E+03  0.12511602078E+03 0.  0.
        -24    2    1    2    0    0  0.19956824342E+02 -0.32429049897E+02  0.53976689056E+03  0.54769582806E+03  0.84690647770E+02 0.  0.
        -11    1    3    3    0    0 -0.16216692084E+02 -0.17448244524E+02 -0.61860070948E+02  0.66287937943E+02  0.00000000000E+00 0.  1.
         12    1    3    3    0    0  0.29514357233E+02  0.10780884636E+02 -0.56518930815E+03  0.56606208034E+03  0.00000000000E+00 0. -1.
         11    1    5    5    0    0  0.10376169944E+02  0.21591304673E+02  0.57107439806E+02  0.61928257051E+02  0.00000000000E+00 0. -1.
        -12    1    5    5    0    0  0.95806543983E+01 -0.54020354569E+02  0.48265945075E+03  0.48576757101E+03  0.00000000000E+00 0.  1.
          5    1    4    4  501    0 -0.59392629462E+01  0.13669932727E+02  0.14989686379E+02  0.21547737766E+02  0.41800000000E+01 0.  1.
         -5    1    4    4    0  501 -0.27315226545E+02  0.25426477057E+02 -0.22586550260E+03  0.22896577255E+03  0.41800000000E+01 0.  1.
</event>
<event>
11    1  0.5813833E-009  0.2168048E+03  0.7561462E-02  0.1043238E+00
         22   -1    0    0    0    0  0.00000000000E+00  0.00000000000E+00  0.11911272123E+04  0.11911272123E+04  0.00000000000E+00 0.  1.
         22   -1    0    0    0    0 -0.00000000000E+00 -0.00000000000E+00 -0.51941829239E+03  0.51941829239E+03  0.00000000000E+00 0. -1.
         24    2    1    2    0    0 -0.51350045216E+02 -0.10728122426E+03 -0.40319425307E+03  0.42810553115E+03  0.81010196094E+02 0.  0.
         25    2    1    2    0    0  0.12679107862E+03  0.25563150907E+03  0.16239216195E+03  0.35134308335E+03  0.12508917580E+03 0.  0.
        -24    2    1    2    0    0 -0.75441033403E+02 -0.14835028482E+03  0.91251101102E+03  0.93109689018E+03  0.81030347038E+02 0.  0.
        -11    1    3    3    0    0 -0.37217736865E+02 -0.50953313884E+02 -0.92126657512E+02  0.11166342802E+03  0.00000000000E+00 0.  1.
         12    1    3    3    0    0 -0.14132308351E+02 -0.56327910371E+02 -0.31106759556E+03  0.31644210313E+03  0.00000000000E+00 0. -1.
         11    1    5    5    0    0 -0.12484942341E+02  0.35460939169E+01  0.22082246167E+02  0.25613944700E+02  0.00000000000E+00 0. -1.
        -12    1    5    5    0    0 -0.62956091062E+02 -0.15189637873E+03  0.89042876485E+03  0.90548294548E+03  0.00000000000E+00 0.  1.
          5    1    4    4  501    0  0.13770292041E+03  0.20638258548E+03  0.92007635648E+02  0.26464833893E+03  0.41800000000E+01 0. -1.
         -5    1    4    4    0  501 -0.10911841793E+02  0.49248923586E+02  0.70384526305E+02  0.86694744413E+02  0.41800000000E+01 0. -1.
</event>
<event>
11    1  0.7086301E-009  0.1643326E+03  0.7561462E-02  0.1083072E+00
         22   -1    0    0    0    0  0.00000000000E+00  0.00000000000E+00  0.20460239582E+04  0.20460239582E+04  0.00000000000E+00 0. -1.
         22   -1    0    0    0    0 -0.00000000000E+00 -0.00000000000E+00 -0.73806124369E+03  0.73806124369E+03  0.00000000000E+00 0.  1.
         24    2    1    2    0    0 -0.21872854872E+02  0.36636788606E+02 -0.54224211096E+03  0.54981162710E+03  0.80284757825E+02 0.  0.
         25    2    1    2    0    0  0.90805140337E+02  0.44843872882E+02 -0.15564309250E+03  0.22389805100E+03  0.12509603731E+03 0.  0.
        -24    2    1    2    0    0 -0.68932285465E+02 -0.81480661487E+02  0.20058479180E+04  0.20103755238E+04  0.82420376519E+02 0.  0.
        -11    1    3    3    0    0  0.18645585279E+02  0.18857947247E+02 -0.39925626774E+03  0.40013603606E+03  0.00000000000E+00 0.  1.
         12    1    3    3    0    0 -0.40518440151E+02  0.17778841359E+02 -0.14298584322E+03  0.14967559104E+03  0.00000000000E+00 0. -1.
         11    1    5    5    0    0 -0.53174028375E+02 -0.95778095016E+02  0.14556690807E+04  0.14597853929E+04  0.00000000000E+00 0. -1.
        -12    1    5    5    0    0 -0.15758257090E+02  0.14297433528E+02  0.55017883727E+03  0.55059013091E+03  0.00000000000E+00 0.  1.
          5    1    4    4  501    0  0.29815580945E+01  0.28904753435E+02 -0.12657188436E+03  0.12993186203E+03  0.41800000000E+01 0. -1.
         -5    1    4    4    0  501  0.87823582242E+02  0.15939119447E+02 -0.29071208143E+02  0.93966188970E+02  0.41800000000E+01 0. -1.
</event>
<event>
11    1  0.5813833E-009  0.1448893E+03  0.7561462E-02  0.1102218E+00
         22   -1    0    0    0    0  0.00000000000E+00  0.00000000000E+00  0.11337603661E+03  0.11337603661E+03  0.00000000000E+00 0. -1.
         22   -1    0    0    0    0 -0.00000000000E+00 -0.00000000000E+00 -0.31984655445E+03  0.31984655445E+03  0.00000000000E+00 0. -1.
         24    2    1    2    0    0 -0.76792223422E+02  0.28479431472E+02 -0.89117930427E+02  0.14498072470E+03  0.79807777916E+02 0.  0.
         25    2    1    2    0    0  0.47248778075E+02 -0.48179864949E+02 -0.14154033628E+03  0.20058547352E+03  0.12508844461E+03 0.  0.
        -24    2    1    2    0    0  0.29543445347E+02  0.19700433477E+02  0.24187748864E+02  0.87656392837E+02  0.76404671113E+02 0.  0.
        -11    1    3    3    0    0 -0.35911670150E+02 -0.16371667100E+02 -0.29367399917E+01  0.39576558445E+02  0.00000000000E+00 0.  1.
         12    1    3    3    0    0 -0.40880553272E+02  0.44851098572E+02 -0.86181190435E+02  0.10540416625E+03  0.00000000000E+00 0. -1.
         13    1    5    5    0    0  0.24645056582E+02 -0.10034241660E+01  0.49068842895E+02  0.54919368324E+02  0.00000000000E+00 0. -1.
        -14    1    5    5    0    0  0.48983887646E+01  0.20703857643E+02 -0.24881094031E+02  0.32737024513E+02  0.00000000000E+00 0.  1.
          5    1    4    4  501    0  0.71899316955E+02 -0.69541565084E+02 -0.70936786153E+02  0.12269898566E+03  0.41800000000E+01 0. -1.
         -5    1    4    4    0  501 -0.24650538880E+02  0.21361700135E+02 -0.70603550131E+02  0.77886487858E+02  0.41800000000E+01 0. -1.
</event>
<event>
11    1  0.5813833E-009  0.1662344E+03  0.7561462E-02  0.1081356E+00
         22   -1    0    0    0    0  0.00000000000E+00  0.00000000000E+00  0.81176926685E+03  0.81176926685E+03  0.00000000000E+00 0. -1.
         22   -1    0    0    0    0 -0.00000000000E+00 -0.00000000000E+00 -0.65896758168E+03  0.65896758168E+03  0.00000000000E+00 0. -1.
        -24    2    1    2    0    0 -0.49965432118E+02 -0.99968097811E+02 -0.57893336021E+03  0.59493162120E+03  0.79307208705E+02 0.  0.
         25    2    1    2    0    0  0.84878113525E+01  0.90295315623E+02  0.16616031193E+02  0.15540016392E+03  0.12509129262E+03 0.  0.
         24    2    1    2    0    0  0.41477620765E+02  0.96727821876E+01  0.71511901418E+03  0.72040506341E+03  0.75988783449E+02 0.  0.
        -13    1    5    5    0    0 -0.10216950885E+02 -0.19949515089E+02  0.10395818179E+03  0.10634694541E+03  0.00000000000E+00 0.  1.
         14    1    5    5    0    0  0.51694571650E+02  0.29622297276E+02  0.61116083239E+03  0.61405811800E+03  0.00000000000E+00 0. -1.
         11    1    3    3    0    0 -0.32594475436E+02 -0.87052035075E+02 -0.27613673269E+03  0.29136223465E+03  0.00000000000E+00 0. -1.
        -12    1    3    3    0    0 -0.17370956682E+02 -0.12916062736E+02 -0.30279662751E+03  0.30356938654E+03  0.00000000000E+00 0.  1.
          5    1    4    4  501    0 -0.24587351722E+02  0.11195552832E+03  0.10562689615E+02  0.11518515963E+03  0.41800000000E+01 0.  1.
         -5    1    4    4    0  501  0.33075163074E+02 -0.21660212697E+02  0.60533415783E+01  0.40215004299E+02  0.41800000000E+01 0.  1.
</event>
<event>
11    1  0.5813833E-009  0.1468193E+03  0.7561462E-02  0.1100174E+00
         22   -1    0    0    0    0  0.00000000000E+00  0.00000000000E+00  0.15561843559E+03  0.15561843559E+03  0.00000000000E+00 0.  1.
         22   -1    0    0    0    0 -0.00000000000E+00 -0.00000000000E+00 -0.54702732613E+03  0.54702732613E+03  0.00000000000E+00 0. -1.
        -24    2    1    2    0    0 -0.20764984893E+02  0.29854447356E+02 -0.37055643433E+03  0.38060511110E+03  0.78903149145E+02 0.  0.
         25    2    1    2    0    0  0.46746613975E+02 -0.96000321856E+02 -0.96244460807E+02  0.19055686105E+03  0.12509042067E+03 0.  0.
         24    2    1    2    0    0 -0.25981629083E+02  0.66145874500E+02  0.75392004596E+02  0.13148378957E+03  0.80954992428E+02 0.  0.
        -11    1    5    5    0    0  0.16255386883E+02  0.62385582889E+02  0.53420979839E+02  0.83725740618E+02  0.00000000000E+00 0.  1.
         12    1    5    5    0    0 -0.42237015965E+02  0.37602916118E+01  0.21971024757E+02  0.47758048950E+02  0.00000000000E+00 0. -1.
         13    1    3    3    0    0  0.10841302744E+01 -0.10683889954E+02 -0.26763870358E+03  0.26785405820E+03  0.00000000000E+00 0. -1.
        -14    1    3    3    0    0 -0.21849115167E+02  0.40538337310E+02 -0.10291773075E+03  0.11275105289E+03  0.00000000000E+00 0.  1.
          5    1    4    4  501    0  0.64963922887E+02 -0.10770989304E+03 -0.43119988131E+02  0.13303585273E+03  0.41800000000E+01 0. -1.
         -5    1    4    4    0  501 -0.18217308911E+02  0.11709571184E+02 -0.53124472676E+02  0.57521008322E+02  0.41800000000E+01 0. -1.
</event>
<event>
11    1  0.5813833E-009  0.1489751E+03  0.7561462E-02  0.1097931E+00
         22   -1    0    0    0    0  0.00000000000E+00  0.00000000000E+00  0.58002821014E+03  0.58002821014E+03  0.00000000000E+00 0.  1.
         22   -1    0    0    0    0 -0.00000000000E+00 -0.00000000000E+00 -0.86110676490E+03  0.86110676490E+03  0.00000000000E+00 0.  1.
        -24    2    1    2    0    0 -0.76024891299E+02 -0.28360056576E+02 -0.82053149051E+03  0.82788345685E+03  0.74397676666E+02 0.  0.
         25    2    1    2    0    0  0.47157328187E+02  0.70780430597E+02  0.15143081960E+03  0.21403871987E+03  0.12509035743E+03 0.  0.
         24    2    1    2    0    0  0.28867563112E+02 -0.42420374020E+02  0.38802211615E+03  0.39921279832E+03  0.78593074657E+02 0.  0.
        -11    1    5    5    0    0  0.22092946243E+02 -0.34793551076E+02  0.38674162103E+03  0.38893157613E+03  0.00000000000E+00 0.  1.
         12    1    5    5    0    0  0.67746168691E+01 -0.76268229449E+01  0.12804951206E+01  0.10281222189E+02  0.00000000000E+00 0. -1.
         11    1    3    3    0    0  0.65958786138E+01 -0.26526673229E+02 -0.18827510450E+03  0.19024900784E+03  0.00000000000E+00 0. -1.
        -12    1    3    3    0    0 -0.82620769913E+02 -0.18333833474E+01 -0.63225638601E+03  0.63763444901E+03  0.00000000000E+00 0.  1.
          5    1    4    4  501    0 -0.31913578937E+02  0.63984334012E+02  0.66732521484E+02  0.97893683877E+02  0.41800000000E+01 0.  1.
         -5    1    4    4    0  501  0.79070907124E+02  0.67960965848E+01  0.84698298112E+02  0.11614503599E+03  0.41800000000E+01 0.  1.
</event>
<event>
11    1  0.5813833E-009  0.1572237E+03  0.7561462E-02  0.1089718E+00
         22   -1    0    0    0    0  0.00000000000E+00  0.00000000000E+00  0.18669919925E+04  0.18669919925E+04  0.00000000000E+00 0.  1.
         22   -1    0    0    0    0 -0.00000000000E+00 -0.00000000000E+00 -0.11849239790E+04  0.11849239790E+04  0.00000000000E+00 0.  1.
        -24    2    1    2    0    0 -0.42957811693E+02  0.21497176677E+02 -0.11259578375E+04  0.11298963005E+04  0.81099295547E+02 0.  0.
         25    2    1    2    0    0  0.13383029432E+03 -0.43133324425E+02  0.10691493593E+03  0.21644801667E+03  0.12509160260E+03 0.  0.
         24    2    1    2    0    0 -0.90872482626E+02  0.21636147747E+02  0.17011109151E+04  0.17055716543E+04  0.80438745382E+02 0.  0.
        -13    1    5    5    0    0 -0.88040230026E+02  0.35766440908E+02  0.10474223081E+04  0.10517242090E+04  0.00000000000E+00 0.  1.
         14    1    5    5    0    0 -0.28322525996E+01 -0.14130293161E+02  0.65368860698E+03  0.65384744531E+03  0.00000000000E+00 0. -1.
         13    1    3    3    0    0 -0.12684449122E+02  0.40776398395E+02 -0.28585541453E+03  0.28902755566E+03  0.00000000000E+00 0. -1.
        -14    1    3    3    0    0 -0.30273362571E+02 -0.19279221718E+02 -0.84010242298E+03  0.84086874479E+03  0.00000000000E+00 0.  1.
          5    1    4    4  501    0  0.14385004753E+03 -0.27901170272E+02  0.47400975955E+02  0.15406374135E+03  0.41800000000E+01 0.  1.
         -5    1    4    4    0  501 -0.10019753215E+02 -0.15232154153E+02  0.59513959977E+02  0.62384275316E+02  0.41800000000E+01 0.  1.
</event>
<event>
11    1  0.5813833E-009  0.1468086E+03  0.7561462E-02  0.1100185E+00
         22   -1    0    0    0    0  0.00000000000E+00  0.00000000000E+00  0.27564409872E+03  0.27564409872E+03  0.00000000000E+00 0.  1.
         22   -1    0    0    0    0 -0.00000000000E+00 -0.00000000000E+00 -0.95886467154E+03  0.95886467154E+03  0.00000000000E+00 0. -1.
         24    2    1    2    0    0 -0.58286725723E+02 -0.42949855438E+02 -0.53059944415E+03  0.54110099788E+03  0.77540230155E+02 0.  0.
         25    2    1    2    0    0  0.34256704842E+02  0.11518421029E+03 -0.39157572536E+03  0.42827521127E+03  0.12508870363E+03 0.  0.
        -24    2    1    2    0    0  0.24030020882E+02 -0.72234354848E+02  0.23895459670E+03  0.26513256111E+03  0.86027505787E+02 0.  0.
        -11    1    3    3    0    0 -0.60468342358E+02 -0.23787112795E+01 -0.23254045316E+03  0.24028554066E+03  0.00000000000E+00 0.  1.
         12    1    3    3    0    0  0.21816166352E+01 -0.40571144159E+02 -0.29805899099E+03  0.30081545722E+03  0.00000000000E+00 0. -1.
         11    1    5    5    0    0  0.55062496940E+02 -0.57901041922E+02  0.15247799796E+03  0.17214513959E+03  0.00000000000E+00 0. -1.
        -12    1    5    5    0    0 -0.31032476058E+02 -0.14333312927E+02  0.86476598741E+02  0.92987421513E+02  0.00000000000E+00 0.  1.
          5    1    4    4  501    0  0.81017278702E+02  0.59699460230E+02 -0.23270311819E+03  0.25356663545E+03  0.41800000000E+01 0. -1.
         -5    1    4    4    0  501 -0.46760573861E+02  0.55484750057E+02 -0.15887260717E+03  0.17470857582E+03  0.41800000000E+01 0. -1.
</event>
<event>
11    1  0.5813833E-009  0.1778144E+03  0.7561462E-02  0.1071425E+00
         22   -1    0    0    0    0  0.00000000000E+00  0.00000000000E+00  0.91823569111E+03  0.91823569111E+03  0.00000000000E+00 0. -1.
         22   -1    0    0    0    0 -0.00000000000E+00 -0.00000000000E+00 -0.57495736346E+03  0.57495736346E+03  0.00000000000E+00 0.  1.
         24    2    1    2    0    0  0.51335658621E+02 -0.11775424409E+03 -0.49591654805E+03  0.51876174403E+03  0.81725837932E+02 0.  0.
         25    2    1    2    0    0 -0.81633624803E+02  0.79533579937E+02  0.45908325302E+02  0.17534032391E+03  0.12508803229E+03 0.  0.
        -24    2    1    2    0    0  0.30297966182E+02  0.38220664158E+02  0.79328655041E+03  0.79909098663E+03  0.82849670632E+02 0.  0.
        -11    1    3    3    0    0  0.24204114321E+02 -0.57702045328E+02 -0.38255649625E+03  0.38764008823E+03  0.00000000000E+00 0.  1.
         12    1    3    3    0    0  0.27131544300E+02 -0.60052198767E+02 -0.11336005181E+03  0.13112165580E+03  0.00000000000E+00 0. -1.
         13    1    5    5    0    0  0.58232386962E+02  0.29804644291E+02  0.60991087639E+03  0.61340900291E+03  0.00000000000E+00 0. -1.
        -14    1    5    5    0    0 -0.27934420780E+02  0.84160198663E+01  0.18337567403E+03  0.18568198372E+03  0.00000000000E+00 0.  1.
          5    1    4    4  501    0  0.15340172723E+02 -0.20195498128E+02  0.22619506583E+02  0.34238772202E+02  0.41800000000E+01 0.  1.
         -5    1    4    4    0  501 -0.96973797526E+02  0.99729078065E+02  0.23288818719E+02  0.14110155171E+03  0.41800000000E+01 0.  1.
</event>
<event>
11    1  0.5813833E-009  0.1808946E+03  0.7561462E-02  0.1068922E+00
         22   -1    0    0    0    0  0.00000000000E+00  0.00000000000E+00  0.47525483082E+02  0.47525483082E+02  0.00000000000E+00 0. -1.
         22   -1    0    0    0    0 -0.00000000000E+00 -0.00000000000E+00 -0.28954196066E+04  0.28954196066E+04  0.00000000000E+00 0.  1.
         24    2    1    2    0    0 -0.15012311422E+02 -0.34581689357E+02 -0.20886407036E+04  0.20904255202E+04  0.77702020016E+02 0.  0.
         25    2    1    2    0    0 -0.36712812548E+02 -0.94598941713E+02 -0.61411001783E+03  0.63488280957E+03  0.12509307537E+03 0.  0.
        -24    2    1    2    0    0  0.51725123971E+02  0.12918063107E+03 -0.14514340204E+03  0.21763675990E+03  0.83282820614E+02 0.  0.
        -13    1    3    3    0    0 -0.39668516518E+02 -0.28978737745E+02 -0.18026481149E+04  0.18033173832E+04  0.00000000000E+00 0.  1.
         14    1    3    3    0    0  0.24656205096E+02 -0.56029516122E+01 -0.28599258873E+03  0.28710813698E+03  0.00000000000E+00 0. -1.
         13    1    5    5    0    0  0.34834103918E+02  0.13695073694E+03 -0.13857245267E+03  0.19791726499E+03  0.00000000000E+00 0. -1.
        -14    1    5    5    0    0  0.16891020053E+02 -0.77701058698E+01 -0.65709493754E+01  0.19719494906E+02  0.00000000000E+00 0.  1.
          5    1    4    4  501    0  0.29192804736E+02 -0.44637220795E+01 -0.30021470680E+03  0.30169270333E+03  0.41800000000E+01 0.  1.
         -5    1    4    4    0  501 -0.65905617285E+02 -0.90135219634E+02 -0.31389531103E+03  0.33319010624E+03  0.41800000000E+01 0.  1.
</event>
<event>
11    1  0.5813833E-009  0.1292002E+03  0.7561462E-02  0.1120256E+00
         22   -1    0    0    0    0  0.00000000000E+00  0.00000000000E+00  0.22405729210E+04  0.22405729210E+04  0.00000000000E+00 0. -1.
         22   -1    0    0    0    0 -0.00000000000E+00 -0.00000000000E+00 -0.19608074257E+03  0.19608074257E+03  0.00000000000E+00 0.  1.
        -24    2    1    2    0    0 -0.93069856631E+00 -0.16672763365E+02 -0.16459258277E+03  0.18436012648E+03  0.81357794302E+02 0.  0.
         25    2    1    2    0    0 -0.28779371050E+02  0.31021284751E+01  0.17923417013E+03  0.22047926893E+03  0.12509334468E+03 0.  0.
         24    2    1    2    0    0  0.29710069616E+02  0.13570634890E+02  0.20298505911E+04  0.20318142682E+04  0.83120081073E+02 0.  0.
        -13    1    5    5    0    0  0.21188448653E+02  0.45508633116E+01  0.12113321932E+03  0.12305656234E+03  0.00000000000E+00 0.  1.
         14    1    5    5    0    0  0.85216209634E+01  0.90197715781E+01  0.19087173718E+04  0.19087577059E+04  0.00000000000E+00 0. -1.
         13    1    3    3    0    0 -0.33134289106E+02 -0.74730425385E+01 -0.28906570272E+02  0.44601763241E+02  0.00000000000E+00 0. -1.
        -14    1    3    3    0    0  0.32203590539E+02 -0.91997208263E+01 -0.13568601250E+03  0.13975836324E+03  0.00000000000E+00 0.  1.
          5    1    4    4  501    0  0.46332953420E+02 -0.85045040826E+01  0.99930205574E+02  0.11055581192E+03  0.41800000000E+01 0.  1.
         -5    1    4    4    0  501 -0.75112324470E+02  0.11606632558E+02  0.79303964559E+02  0.10992345701E+03  0.41800000000E+01 0.  1.
</event>
<event>
11    1  0.5813833E-009  0.1445891E+03  0.7561462E-02  0.1102539E+00
         22   -1    0    0    0    0  0.00000000000E+00  0.00000000000E+00  0.42251258618E+03  0.42251258618E+03  0.00000000000E+00 0.  1.
         22   -1    0    0    0    0 -0.00000000000E+00 -0.00000000000E+00 -0.10049753915E+04  0.10049753915E+04  0.00000000000E+00 0. -1.
        -24    2    1    2    0    0  0.99700670550E+00 -0.44999052786E+02 -0.95335201511E+03  0.95795669262E+03  0.82310700640E+02 0.  0.
         25    2    1    2    0    0  0.28262137889E+02 -0.31479889942E+02  0.75408898328E+02  0.15206456637E+03  0.12508956187E+03 0.  0.
         24    2    1    2    0    0 -0.29259144594E+02  0.76478942728E+02  0.29548031147E+03  0.31746671868E+03  0.82288375717E+02 0.  0.
        -11    1    5    5    0    0 -0.28112975138E+02  0.52464614433E+02  0.28515608626E+03  0.29130202311E+03  0.00000000000E+00 0.  1.
         12    1    5    5    0    0 -0.11461694559E+01  0.24014328295E+02  0.10324225214E+02  0.26164695568E+02  0.00000000000E+00 0. -1.
         11    1    3    3    0    0 -0.78865894152E+01  0.26185840872E+01 -0.69808352147E+03  0.69813298033E+03  0.00000000000E+00 0. -1.
        -12    1    3    3    0    0  0.88835961207E+01 -0.47617636873E+02 -0.25526849364E+03  0.25982371229E+03  0.00000000000E+00 0.  1.
          5    1    4    4  501    0 -0.38859004782E+02 -0.47439240130E+02  0.24265867378E+02  0.66081831667E+02  0.41800000000E+01 0.  1.
         -5    1    4    4    0  501  0.67121142671E+02  0.15959350188E+02  0.51143030950E+02  0.85982734701E+02  0.41800000000E+01 0.  1.
</event>
<event>
11    1  0.5813833E-009  0.2259364E+03  0.7561462E-02  0.1037561E+00
         22   -1    0    0    0    0  0.00000000000E+00  0.00000000000E+00  0.57750236431E+02  0.57750236431E+02  0.00000000000E+00 0. -1.
         22   -1    0    0    0    0 -0.00000000000E+00 -0.00000000000E+00 -0.26284460981E+04  0.26284460981E+04  0.00000000000E+00 0.  1.
        -24    2    1    2    0    0 -0.17338008247E+03  0.64572136902E+02 -0.15761553671E+04  0.15890163198E+04  0.80479249273E+02 0.  0.
         25    2    1    2    0    0  0.17706978715E+03 -0.81643769563E+02 -0.98784671116E+03  0.10146505791E+04  0.12512097489E+03 0.  0.
         24    2    1    2    0    0 -0.36897046842E+01  0.17071632662E+02 -0.66937834672E+01  0.82529435632E+02  0.80381878843E+02 0.  0.
        -11    1    5    5    0    0  0.37919354466E+02  0.73028186117E+01 -0.92638759395E+01  0.39711811847E+02  0.00000000000E+00 0.  1.
         12    1    5    5    0    0 -0.41609059150E+02  0.97688140501E+01  0.25700924723E+01  0.42817623785E+02  0.00000000000E+00 0. -1.
         11    1    3    3    0    0 -0.45542056863E+02  0.42950435644E+01 -0.17985787610E+03  0.18558389461E+03  0.00000000000E+00 0. -1.
        -12    1    3    3    0    0 -0.12783802561E+03  0.60277093337E+02 -0.13962974910E+04  0.14034324252E+04  0.00000000000E+00 0.  1.
          5    1    4    4  501    0  0.47721097291E+02  0.32769263894E+02 -0.28913096835E+03  0.29489882509E+03  0.41800000000E+01 0. -1.
         -5    1    4    4    0  501  0.12934868986E+03 -0.11441303346E+03 -0.69871574281E+03  0.71975175404E+03  0.41800000000E+01 0. -1.
</event>
<event>
11    1  0.5813833E-009  0.1414870E+03  0.7561462E-02  0.1105909E+00
         22   -1    0    0    0    0  0.00000000000E+00  0.00000000000E+00  0.39167048614E+03  0.39167048614E+03  0.00000000000E+00 0. -1.
         22   -1    0    0    0    0 -0.00000000000E+00 -0.00000000000E+00 -0.31013011283E+03  0.31013011283E+03  0.00000000000E+00 0. -1.
        -24    2    1    2    0    0  0.63544396055E+02 -0.72755878051E+02 -0.24795989432E+03  0.27771906344E+03  0.79450997146E+02 0.  0.
         25    2    1    2    0    0  0.54670039775E+01 -0.15695008914E+01  0.10065766842E+03  0.16065503823E+03  0.12508286706E+03 0.  0.
         24    2    1    2    0    0 -0.69011400032E+02  0.74325378942E+02  0.22884259920E+03  0.26342649730E+03  0.82083792421E+02 0.  0.
        -11    1    5    5    0    0 -0.16096087867E+01 -0.54902545480E+01 -0.48153879416E+01  0.74780810691E+01  0.00000000000E+00 0.  1.
         12    1    5    5    0    0 -0.67401791246E+02  0.79815633490E+02  0.23365798714E+03  0.25594841623E+03  0.00000000000E+00 0. -1.
         13    1    3    3    0    0  0.81295550422E+02 -0.48625343160E+02 -0.19736534654E+03  0.21892115140E+03  0.00000000000E+00 0. -1.
        -14    1    3    3    0    0 -0.17751154367E+02 -0.24130534890E+02 -0.50594547781E+02  0.58797912043E+02  0.00000000000E+00 0.  1.
          5    1    4    4  501    0 -0.10568763752E+02  0.43218386430E+02 -0.47445846778E+01  0.44938971691E+02  0.41800000000E+01 0. -1.
         -5    1    4    4    0  501  0.16035767730E+02 -0.44787887322E+02  0.10540225310E+03  0.11571606654E+03  0.41800000000E+01 0. -1.
</event>
<event>
11    1  0.5813833E-009  0.1538450E+03  0.7561462E-02  0.1093013E+00
         22   -1    0    0    0    0  0.00000000000E+00  0.00000000000E+00  0.12470992101E+04  0.12470992101E+04  0.00000000000E+00 0. -1.
         22   -1    0    0    0    0 -0.00000000000E+00 -0.00000000000E+00 -0.13128746627E+03  0.13128746627E+03  0.00000000000E+00 0. -1.
         24    2    1    2    0    0 -0.76726389684E+02  0.49600501671E+02 -0.80472646853E+02  0.14658717049E+03  0.81638244846E+02 0.  0.
         25    2    1    2    0    0  0.64156881737E+02 -0.32658505491E+02  0.31374126582E+03  0.34534441427E+03  0.12508596699E+03 0.  0.
        -24    2    1    2    0    0  0.12569507947E+02 -0.16941996180E+02  0.88254312490E+03  0.88645509163E+03  0.80468866050E+02 0.  0.
        -13    1    3    3    0    0 -0.33719954660E+02 -0.19995499694E+02 -0.37167162444E+02  0.54020859993E+02  0.00000000000E+00 0.  1.
         14    1    3    3    0    0 -0.43006435024E+02  0.69596001365E+02 -0.43305484410E+02  0.92566310499E+02  0.00000000000E+00 0. -1.
         13    1    5    5    0    0  0.62342963907E+01 -0.26568698062E+02  0.86521152440E+03  0.86564181052E+03  0.00000000000E+00 0. -1.
        -14    1    5    5    0    0  0.63352115558E+01  0.96267018826E+01  0.17331600499E+02  0.20813281107E+02  0.00000000000E+00 0.  1.
          5    1    4    4  501    0 -0.20348156421E+02 -0.43503979614E+02  0.56199433708E+02  0.74043854985E+02  0.41800000000E+01 0. -1.
         -5    1    4    4    0  501  0.84505038159E+02  0.10845474123E+02  0.25754183211E+03  0.27130055929E+03  0.41800000000E+01 0. -1.
</event>
<event>
11    1  0.5813833E-009  0.1621139E+03  0.7561462E-02  0.1085106E+00
         22   -1    0    0    0    0  0.00000000000E+00  0.00000000000E+00  0.31971072562E+03  0.31971072562E+03  0.00000000000E+00 0. -1.
         22   -1    0    0    0    0 -0.00000000000E+00 -0.00000000000E+00 -0.15930336451E+03  0.15930336451E+03  0.00000000000E+00 0. -1.
        -24    2    1    2    0    0  0.10158037493E+03 -0.27132764428E+02 -0.49766318101E+02  0.14274175295E+03  0.82727033925E+02 0.  0.
         25    2    1    2    0    0 -0.97271342121E+02  0.14176191267E+02  0.70696997089E+02  0.17408989810E+03  0.12508616560E+03 0.  0.
         24    2    1    2    0    0 -0.43090328054E+01  0.12956573161E+02  0.13947668212E+03  0.16218243908E+03  0.81626944928E+02 0.  0.
        -13    1    5    5    0    0  0.14222777431E+02  0.77036129435E+00 -0.56849052621E+01  0.15336199080E+02  0.00000000000E+00 0.  1.
         14    1    5    5    0    0 -0.18531810236E+02  0.12186211867E+02  0.14516158738E+03  0.14684624000E+03  0.00000000000E+00 0. -1.
         13    1    3    3    0    0  0.95712030846E+02 -0.40277411012E+02 -0.64419750475E+02  0.12220051938E+03  0.00000000000E+00 0. -1.
        -14    1    3    3    0    0  0.58683440803E+01  0.13144646583E+02  0.14653432374E+02  0.20541233565E+02  0.00000000000E+00 0.  1.
          5    1    4    4  501    0 -0.76674733903E+02  0.84345840488E+01 -0.20826868821E+02  0.80008673855E+02  0.41800000000E+01 0.  1.
         -5    1    4    4    0  501 -0.20596608218E+02  0.57416072186E+01  0.91523865910E+02  0.94081224241E+02  0.41800000000E+01 0.  1.
</event>
<event>
11    1  0.5813833E-009  0.1561438E+03  0.7561462E-02  0.1090761E+00
         22   -1    0    0    0    0  0.00000000000E+00  0.00000000000E+00  0.24912774672E+03  0.24912774672E+03  0.00000000000E+00 0. -1.
         22   -1    0    0    0    0 -0.00000000000E+00 -0.00000000000E+00 -0.40774175794E+03  0.40774175794E+03  0.00000000000E+00 0.  1.
        -24    2    1    2    0    0 -0.22381759820E+02  0.55022171617E+02 -0.22572698411E+03  0.24769943702E+03  0.82909331233E+02 0.  0.
         25    2    1    2    0    0  0.44207990409E+02 -0.13885522059E+03 -0.90246978937E+02  0.21219635874E+03  0.12509060218E+03 0.  0.
         24    2    1    2    0    0 -0.21826230589E+02  0.83833048968E+02  0.15735995182E+03  0.19697370890E+03  0.80821551071E+02 0.  0.
        -11    1    5    5    0    0 -0.32880472847E+02  0.42789324862E+02  0.27971386772E+02  0.60781989888E+02  0.00000000000E+00 0.  1.
         12    1    5    5    0    0  0.11054242259E+02  0.41043724106E+02  0.12938856505E+03  0.13619171901E+03  0.00000000000E+00 0. -1.
         11    1    3    3    0    0 -0.39226426784E+02 -0.42014100859E+00 -0.56152195261E+02  0.68497869378E+02  0.00000000000E+00 0. -1.
        -12    1    3    3    0    0  0.16844666963E+02  0.55442312626E+02 -0.16957478884E+03  0.17920156764E+03  0.00000000000E+00 0.  1.
          5    1    4    4  501    0 -0.91796496388E+01 -0.18389546579E+02 -0.76878460341E+02  0.79688214030E+02  0.41800000000E+01 0. -1.
         -5    1    4    4    0  501  0.53387640048E+02 -0.12046567401E+03 -0.13368518596E+02  0.13250814471E+03  0.41800000000E+01 0. -1.
</event>
<event>
11    1  0.5813833E-009  0.1381939E+03  0.7561462E-02  0.1109592E+00
         22   -1    0    0    0    0  0.00000000000E+00  0.00000000000E+00  0.26842170481E+03  0.26842170481E+03  0.00000000000E+00 0. -1.
         22   -1    0    0    0    0 -0.00000000000E+00 -0.00000000000E+00 -0.40232972713E+03  0.40232972713E+03  0.00000000000E+00 0. -1.
        -24    2    1    2    0    0  0.58287826433E+02 -0.63557995989E+01 -0.33114423855E+03  0.34564687549E+03  0.79858555667E+02 0.  0.
         25    2    1    2    0    0 -0.59214889571E+02  0.10021614234E+02  0.33918003847E+02  0.14284654783E+03  0.12509144392E+03 0.  0.
         24    2    1    2    0    0  0.92706313849E+00 -0.36658146352E+01  0.16331821239E+03  0.18225800862E+03  0.80813647134E+02 0.  0.
        -11    1    5    5    0    0 -0.15205602572E+02 -0.38809090572E+02  0.95290926631E+02  0.10400825236E+03  0.00000000000E+00 0.  1.
         12    1    5    5    0    0  0.16132665710E+02  0.35143275936E+02  0.68027285760E+02  0.78249756257E+02  0.00000000000E+00 0. -1.
         11    1    3    3    0    0  0.45047872362E+02 -0.25759234631E+02 -0.30912399641E+03  0.31344934859E+03  0.00000000000E+00 0. -1.
        -12    1    3    3    0    0  0.13239954071E+02  0.19403435032E+02 -0.22020242140E+02  0.32197526905E+02  0.00000000000E+00 0.  1.
          5    1    4    4  501    0  0.14449726590E+02  0.17134244409E+02 -0.34908694497E+02  0.41694919133E+02  0.41800000000E+01 0.  1.
         -5    1    4    4    0  501 -0.73664616161E+02 -0.71126301746E+01  0.68826698344E+02  0.10115162869E+03  0.41800000000E+01 0.  1.
</event>
<event>
11    1  0.5813833E-009  0.1540711E+03  0.7561462E-02  0.1092790E+00
         22   -1    0    0    0    0  0.00000000000E+00  0.00000000000E+00  0.62163767286E+03  0.62163767286E+03  0.00000000000E+00 0.  1.
         22   -1    0    0    0    0 -0.00000000000E+00 -0.00000000000E+00 -0.54023571644E+03  0.54023571644E+03  0.00000000000E+00 0.  1.
        -24    2    1    2    0    0 -0.15109172386E+02 -0.27268614223E+02 -0.44897291537E+03  0.45716557669E+03  0.80323230509E+02 0.  0.
         25    2    1    2    0    0  0.83982635224E+02  0.81652976460E+02  0.10612989848E+02  0.17169879267E+03  0.12509016056E+03 0.  0.
         24    2    1    2    0    0 -0.68873462838E+02 -0.54384362237E+02  0.51976188194E+03  0.53300901993E+03  0.79025240746E+02 0.  0.
        -13    1    5    5    0    0 -0.84405850556E+02 -0.53706580643E+02  0.48001533632E+03  0.49032995780E+03  0.00000000000E+00 0.  1.
         14    1    5    5    0    0  0.15532387718E+02 -0.67778159381E+00  0.39746545619E+02  0.42679062135E+02  0.00000000000E+00 0. -1.
         13    1    3    3    0    0  0.19439490557E+01 -0.10958834191E+02 -0.44019326019E+01  0.11968792562E+02  0.00000000000E+00 0. -1.
        -14    1    3    3    0    0 -0.17053121442E+02 -0.16309780032E+02 -0.44457098277E+03  0.44519678413E+03  0.00000000000E+00 0.  1.
          5    1    4    4  501    0 -0.27614656333E+00  0.55118719311E+02 -0.41434542788E+02  0.69082872056E+02  0.41800000000E+01 0.  1.
         -5    1    4    4    0  501  0.84258781787E+02  0.26534257149E+02  0.52047532637E+02  0.10261592062E+03  0.41800000000E+01 0.  1.
</event>
<event>
11    1  0.5813833E-009  0.1552790E+03  0.7561462E-02  0.1091603E+00
         22   -1    0    0    0    0  0.00000000000E+00  0.00000000000E+00  0.16840398955E+04  0.16840398955E+04  0.00000000000E+00 0. -1.
         22   -1    0    0    0    0 -0.00000000000E+00 -0.00000000000E+00 -0.19977217969E+03  0.19977217969E+03  0.00000000000E+00 0.  1.
        -24    2    1    2    0    0 -0.10183400736E+02  0.30847939038E+02 -0.10630467818E+03  0.12969622805E+03  0.66821628038E+02 0.  0.
         25    2    1    2    0    0 -0.74671806006E+02  0.63498101832E+01 -0.12300374812E+02  0.14633769759E+03  0.12508886367E+03 0.  0.
         24    2    1    2    0    0  0.84855206741E+02 -0.37197749221E+02  0.16028727688E+04  0.16077781495E+04  0.84648605992E+02 0.  0.
        -11    1    5    5    0    0  0.11604731643E+02  0.17141998108E+02  0.70095079603E+03  0.70125639844E+03  0.00000000000E+00 0.  1.
         12    1    5    5    0    0  0.73250475099E+02 -0.54339747329E+02  0.90192197274E+03  0.90652175106E+03  0.00000000000E+00 0. -1.
         13    1    3    3    0    0 -0.24439968292E+02  0.25954696326E+02 -0.17670424316E+02  0.39789473570E+02  0.00000000000E+00 0. -1.
        -14    1    3    3    0    0  0.14256567556E+02  0.48932427119E+01 -0.88634253866E+02  0.89906754480E+02  0.00000000000E+00 0.  1.
          5    1    4    4  501    0 -0.24422000285E+02  0.31801478236E+02 -0.60082986178E+02  0.72354721643E+02  0.41800000000E+01 0. -1.
         -5    1    4    4    0  501 -0.50249805720E+02 -0.25451668053E+02  0.47782611366E+02  0.73982975951E+02  0.41800000000E+01 0. -1.
</event>
<event>
11    1  0.5813833E-009  0.1980675E+03  0.7561462E-02  0.1055899E+00
         22   -1    0    0    0    0  0.00000000000E+00  0.00000000000E+00  0.15457999669E+03  0.15457999669E+03  0.00000000000E+00 0. -1.
         22   -1    0    0    0    0 -0.00000000000E+00 -0.00000000000E+00 -0.10057384569E+04  0.10057384569E+04  0.00000000000E+00 0.  1.
         24    2    1    2    0    0 -0.14908083862E+03  0.62243530939E+02 -0.79339715237E+03  0.81358121866E+03  0.79599022503E+02 0.  0.
         25    2    1    2    0    0  0.10880253701E+03 -0.50339019934E+02 -0.13320612603E+03  0.21854806378E+03  0.12508946871E+03 0.  0.
        -24    2    1    2    0    0  0.40278301613E+02 -0.11904511005E+02  0.75444818171E+02  0.12818917116E+03  0.94744308803E+02 0.  0.
        -11    1    3    3    0    0 -0.12489610064E+03  0.54280230748E+02 -0.75706215104E+03  0.76921289637E+03  0.00000000000E+00 0.  1.
         12    1    3    3    0    0 -0.24184737985E+02  0.79633001915E+01 -0.36335001325E+02  0.44368322288E+02  0.00000000000E+00 0. -1.
         11    1    5    5    0    0 -0.49753981073E+01 -0.36685613157E+02  0.28263520286E+00  0.37022542886E+02  0.00000000000E+00 0. -1.
        -12    1    5    5    0    0  0.45253699721E+02  0.24781102153E+02  0.75162182968E+02  0.91166628274E+02  0.00000000000E+00 0.  1.
          5    1    4    4  501    0  0.12196173954E+03 -0.20944549274E+01 -0.83249904895E+02  0.14773987856E+03  0.41800000000E+01 0. -1.
         -5    1    4    4    0  501 -0.13159202525E+02 -0.48244565007E+02 -0.49956221131E+02  0.70808185215E+02  0.41800000000E+01 0. -1.
</event>
<event>
11    1  0.5813833E-009  0.2231372E+03  0.7561462E-02  0.1039270E+00
         22   -1    0    0    0    0  0.00000000000E+00  0.00000000000E+00  0.18357655938E+03  0.18357655938E+03  0.00000000000E+00 0. -1.
         22   -1    0    0    0    0 -0.00000000000E+00 -0.00000000000E+00 -0.19496053430E+04  0.19496053430E+04  0.00000000000E+00 0. -1.
        -24    2    1    2    0    0 -0.13887701062E+02 -0.32119772812E+02 -0.16502256676E+04  0.16525089697E+04  0.79476996437E+02 0.  0.
         25    2    1    2    0    0  0.16733411137E+03  0.12076740123E+03 -0.15231820642E+03  0.28536802496E+03  0.12509437890E+03 0.  0.
         24    2    1    2    0    0 -0.15344641031E+03 -0.88647628421E+02  0.36515090379E+02  0.19530490773E+03  0.73528581485E+02 0.  0.
        -13    1    5    5    0    0 -0.43468099873E+02  0.50739731575E+01  0.24881141857E+02  0.50341753349E+02  0.00000000000E+00 0.  1.
         14    1    5    5    0    0 -0.10997831044E+03 -0.93721601578E+02  0.11633948522E+02  0.14496315438E+03  0.00000000000E+00 0. -1.
         11    1    3    3    0    0  0.55929619977E+01  0.13868183592E+02 -0.10791297498E+04  0.10792333504E+04  0.00000000000E+00 0. -1.
        -12    1    3    3    0    0 -0.19480663060E+02 -0.45987956404E+02 -0.57109591779E+03  0.57327561930E+03  0.00000000000E+00 0.  1.
          5    1    4    4  501    0  0.10642954441E+02  0.34837788393E+02  0.15846621630E+02  0.39944108407E+02  0.41800000000E+01 0.  1.
         -5    1    4    4    0  501  0.15669115693E+03  0.85929612840E+02 -0.16816482805E+03  0.24542391655E+03  0.41800000000E+01 0.  1.
</event>
<event>
11    1  0.5813833E-009  0.1550450E+03  0.7561462E-02  0.1091832E+00
         22   -1    0    0    0    0  0.00000000000E+00  0.00000000000E+00  0.27258888057E+04  0.27258888057E+04  0.00000000000E+00 0.  1.
         22   -1    0    0    0    0 -0.00000000000E+00 -0.00000000000E+00 -0.42953930938E+02  0.42953930938E+02  0.00000000000E+00 0.  1.
         24    2    1    2    0    0 -0.38501401477E+00  0.48023503909E+02  0.11249020730E+03  0.14523824385E+03  0.78317913485E+02 0.  0.
         25    2    1    2    0    0 -0.86679384276E+02 -0.16592506680E+02  0.20949584449E+03  0.25946988608E+03  0.12508991161E+03 0.  0.
        -24    2    1    2    0    0  0.87064398291E+02 -0.31430997229E+02  0.23609488230E+04  0.23641346067E+04  0.80529354579E+02 0.  0.
        -11    1    3    3    0    0  0.23610670162E+02  0.53377411449E+02  0.45893960168E+02  0.74248686038E+02  0.00000000000E+00 0.  1.
         12    1    3    3    0    0 -0.23995684177E+02 -0.53539075404E+01  0.66596247136E+02  0.70989557807E+02  0.00000000000E+00 0. -1.
         13    1    5    5    0    0  0.41935373260E+02 -0.49710429242E+02  0.88667091613E+03  0.88905287572E+03  0.00000000000E+00 0. -1.
        -14    1    5    5    0    0  0.45129025031E+02  0.18279432013E+02  0.14742779069E+04  0.14750817310E+04  0.00000000000E+00 0.  1.
          5    1    4    4  501    0 -0.86426287947E+01 -0.61411082895E+02  0.72371748925E+02  0.95399992544E+02  0.41800000000E+01 0.  1.
         -5    1    4    4    0  501 -0.78036755481E+02  0.44818576215E+02  0.13712409557E+03  0.16406989354E+03  0.41800000000E+01 0.  1.
</event>
<event>
11    1  0.5813833E-009  0.1665649E+03  0.7561462E-02  0.1081060E+00
         22   -1    0    0    0    0  0.00000000000E+00  0.00000000000E+00  0.22105584728E+03  0.22105584728E+03  0.00000000000E+00 0.  1.
         22   -1    0    0    0    0 -0.00000000000E+00 -0.00000000000E+00 -0.91360911628E+03  0.91360911628E+03  0.00000000000E+00 0.  1.
         24    2    1    2    0    0 -0.37784849809E+02 -0.88084770488E+02 -0.72736201898E+03  0.73912726857E+03  0.89816428514E+02 0.  0.
         25    2    1    2    0    0  0.13935262865E+03  0.51558676362E+02 -0.88484046034E+02  0.21343411384E+03  0.12508893767E+03 0.  0.
        -24    2    1    2    0    0 -0.10156777884E+03  0.36526094125E+02  0.12329279601E+03  0.18210358115E+03  0.79438224240E+02 0.  0.
        -11    1    3    3    0    0 -0.57160185742E+02 -0.50049960760E+02 -0.29363283281E+03  0.30330269684E+03  0.00000000000E+00 0.  1.
         12    1    3    3    0    0  0.19375335933E+02 -0.38034809728E+02 -0.43372918617E+03  0.43582457173E+03  0.00000000000E+00 0. -1.
         11    1    5    5    0    0  0.11836531275E+02  0.13197868533E+02  0.11305083516E+02  0.21025986772E+02  0.00000000000E+00 0. -1.
        -12    1    5    5    0    0 -0.11340431011E+03  0.23328225592E+02  0.11198771250E+03  0.16107759438E+03  0.00000000000E+00 0.  1.
          5    1    4    4  501    0  0.77763578291E+02 -0.32454067256E+02 -0.14520094062E+02  0.85608096122E+02  0.41800000000E+01 0. -1.
         -5    1    4    4    0  501  0.61589050356E+02  0.84012743618E+02 -0.73963951972E+02  0.12782601772E+03  0.41800000000E+01 0. -1.
</event>
<event>
11    1  0.5813833E-009  0.1603361E+03  0.7561462E-02  0.1086762E+00
         22   -1    0    0    0    0  0.00000000000E+00  0.00000000000E+00  0.15636602163E+04  0.15636602163E+04  0.00000000000E+00 0.  1.
         22   -1    0    0    0    0 -0.00000000000E+00 -0.00000000000E+00 -0.12869588172E+04  0.12869588172E+04  0.00000000000E+00 0.  1.
        -24    2    1    2    0    0  0.13292289080E+02 -0.29298510642E+02 -0.12180215295E+04  0.12209979323E+04  0.78894972124E+02 0.  0.
         25    2    1    2    0    0 -0.38099353409E+02  0.12512272111E+03  0.62034762093E+02  0.19131812403E+03  0.12508819612E+03 0.  0.
         24    2    1    2    0    0  0.24807064329E+02 -0.95824210465E+02  0.14326881665E+04  0.14383029772E+04  0.79513533368E+02 0.  0.
        -13    1    5    5    0    0  0.17926061369E+02 -0.10985456934E+03  0.12457033448E+04  0.12506662998E+04  0.00000000000E+00 0.  1.
         14    1    5    5    0    0  0.68810029598E+01  0.14030358876E+02  0.18698482171E+03  0.18763667745E+03  0.00000000000E+00 0. -1.
         13    1    3    3    0    0 -0.16945572828E+02  0.20527659969E+02 -0.33589200447E+03  0.33694506367E+03  0.00000000000E+00 0. -1.
        -14    1    3    3    0    0  0.30237861908E+02 -0.49826170611E+02 -0.88212952502E+03  0.88405286860E+03  0.00000000000E+00 0.  1.
          5    1    4    4  501    0 -0.78100484732E+02  0.53798812778E+02  0.53566810882E+02  0.10899942018E+03  0.41800000000E+01 0. -1.
         -5    1    4    4    0  501  0.40001131322E+02  0.71323908330E+02  0.84679512112E+01  0.82318703854E+02  0.41800000000E+01 0. -1.
</event>
<event>
11    1  0.5813833E-009  0.1690384E+03  0.7561462E-02  0.1078871E+00
         22   -1    0    0    0    0  0.00000000000E+00  0.00000000000E+00  0.11490906735E+04  0.11490906735E+04  0.00000000000E+00 0.  1.
         22   -1    0    0    0    0 -0.00000000000E+00 -0.00000000000E+00 -0.44948174107E+03  0.44948174107E+03  0.00000000000E+00 0. -1.
         24    2    1    2    0    0 -0.11119914853E+03  0.70768672629E+02 -0.40362383423E+03  0.43201145085E+03  0.79675833517E+02 0.  0.
         25    2    1    2    0    0 -0.26449327513E+02 -0.62402505533E+02  0.17939004340E+03  0.22895596627E+03  0.12508559947E+03 0.  0.
        -24    2    1    2    0    0  0.13764847605E+03 -0.83661670955E+01  0.92384272330E+03  0.93760499749E+03  0.81244434969E+02 0.  0.
        -13    1    3    3    0    0 -0.58363688018E+02  0.34852159481E+02 -0.31797249361E+03  0.32515765375E+03  0.00000000000E+00 0.  1.
         14    1    3    3    0    0 -0.52835460515E+02  0.35916513148E+02 -0.85651340616E+02  0.10685379710E+03  0.00000000000E+00 0. -1.
         11    1    5    5    0    0  0.53690126608E+02 -0.16808004473E+02  0.61091533779E+03  0.61350035750E+03  0.00000000000E+00 0. -1.
        -12    1    5    5    0    0  0.83958349438E+02  0.84418373773E+01  0.31292738551E+03  0.32410463999E+03  0.00000000000E+00 0.  1.
          5    1    4    4  501    0 -0.46272432424E+02  0.77039317434E+01  0.13630404782E+03  0.14421079855E+03  0.41800000000E+01 0.  1.
         -5    1    4    4    0  501  0.19823104911E+02 -0.70106437277E+02  0.43085995585E+02  0.84745167718E+02  0.41800000000E+01 0.  1.
</event>
<event>
11    1  0.5813833E-009  0.1496280E+03  0.7561462E-02  0.1097260E+00
         22   -1    0    0    0    0  0.00000000000E+00  0.00000000000E+00  0.10773857784E+04  0.10773857784E+04  0.00000000000E+00 0. -1.
         22   -1    0    0    0    0 -0.00000000000E+00 -0.00000000000E+00 -0.36846134273E+03  0.36846134273E+03  0.00000000000E+00 0.  1.
         24    2    1    2    0    0 -0.25012582584E+02  0.77896160849E+02 -0.32105087806E+03  0.34072166382E+03  0.79524491388E+02 0.  0.
         25    2    1    2    0    0  0.74734602352E+02 -0.67125333515E+02  0.14912591984E+03  0.21903650059E+03  0.12508947770E+03 0.  0.
        -24    2    1    2    0    0 -0.49722019769E+02 -0.10770827334E+02  0.88084939385E+03  0.88608895669E+03  0.81668197918E+02 0.  0.
        -13    1    3    3    0    0 -0.37760598709E+02  0.75939127660E+02 -0.31546582986E+03  0.32666696149E+03  0.00000000000E+00 0.  1.
         14    1    3    3    0    0  0.12748016125E+02  0.19570331895E+01 -0.55850482033E+01  0.14054702326E+02  0.00000000000E+00 0. -1.
         11    1    5    5    0    0 -0.91079039399E+01  0.33464470194E+02  0.40086727408E+03  0.40236475505E+03  0.00000000000E+00 0. -1.
        -12    1    5    5    0    0 -0.40614115829E+02 -0.44235297527E+02  0.47998211977E+03  0.48372420164E+03  0.00000000000E+00 0.  1.
          5    1    4    4  501    0 -0.37786347536E+01 -0.32450032012E+02 -0.13109396771E+02  0.35448714249E+02  0.41800000000E+01 0.  1.
         -5    1    4    4    0  501  0.78513237106E+02 -0.34675301503E+02  0.16223531661E+03  0.18358778634E+03  0.41800000000E+01 0.  1.
</event>
<event>
11    1  0.7009729E-009  0.1672784E+03  0.7561462E-02  0.1080425E+00
         22   -1    0    0    0    0  0.00000000000E+00  0.00000000000E+00  0.12197795332E+03  0.12197795332E+03  0.00000000000E+00 0. -1.
         22   -1    0    0    0    0 -0.00000000000E+00 -0.00000000000E+00 -0.14385113726E+04  0.14385113726E+04  0.00000000000E+00 0.  1.
        -24    2    1    2    0    0 -0.41472010374E+02 -0.14544460791E+02 -0.82864494460E+03  0.83378664363E+03  0.81340358379E+02 0.  0.
         25    2    1    2    0    0 -0.23913460190E+02  0.10538166394E+03 -0.55117546023E+03  0.57542876653E+03  0.12508688467E+03 0.  0.
         24    2    1    2    0    0  0.65385470565E+02 -0.90837203152E+02  0.63286985537E+02  0.15127391577E+03  0.79698794317E+02 0.  0.
        -13    1    5    5    0    0  0.99130619662E+01 -0.50708519687E+02 -0.81710884357E+01  0.52310509963E+02  0.00000000000E+00 0.  1.
         14    1    5    5    0    0  0.55472408598E+02 -0.40128683465E+02  0.71458073973E+02  0.98963405804E+02  0.00000000000E+00 0. -1.
         13    1    3    3    0    0 -0.37141602839E+02  0.14617647656E+01 -0.13728877660E+03  0.14223165469E+03  0.00000000000E+00 0. -1.
        -14    1    3    3    0    0 -0.43304075348E+01 -0.16006225557E+02 -0.69135616800E+03  0.69155498894E+03  0.00000000000E+00 0.  1.
          5    1    4    4  501    0  0.24602892219E+02  0.31256119684E+02 -0.39819500802E+02  0.56438571628E+02  0.41800000000E+01 0.  1.
         -5    1    4    4    0  501 -0.48516352409E+02  0.74125544259E+02 -0.51135595942E+03  0.51899019490E+03  0.41800000000E+01 0.  1.
</event>
<event>
11    1  0.5813833E-009  0.1508085E+03  0.7561462E-02  0.1096056E+00
         22   -1    0    0    0    0  0.00000000000E+00  0.00000000000E+00  0.16755856511E+03  0.16755856511E+03  0.00000000000E+00 0. -1.
         22   -1    0    0    0    0 -0.00000000000E+00 -0.00000000000E+00 -0.93196729196E+03  0.93196729196E+03  0.00000000000E+00 0. -1.
         24    2    1    2    0    0  0.51697242212E+02 -0.70899818604E+02 -0.69544051068E+03  0.70549572377E+03  0.79920730923E+02 0.  0.
         25    2    1    2    0    0 -0.93650883735E+02  0.55879308851E+01 -0.17881361633E+03  0.23751004123E+03  0.12503998283E+03 0.  0.
        -24    2    1    2    0    0  0.41953641523E+02  0.65311887719E+02  0.10984540016E+03  0.15652009208E+03  0.80042342376E+02 0.  0.
        -13    1    3    3    0    0  0.18740310089E+02 -0.81645651349E+02 -0.51227608926E+03  0.51907995842E+03  0.00000000000E+00 0.  1.
         14    1    3    3    0    0  0.32956932123E+02  0.10745832745E+02 -0.18316442142E+03  0.18641576535E+03  0.00000000000E+00 0. -1.
         13    1    5    5    0    0  0.44200346519E+02  0.45025224890E+02  0.11857833478E+03  0.13431962994E+03  0.00000000000E+00 0. -1.
        -14    1    5    5    0    0 -0.22467049952E+01  0.20286662829E+02 -0.87329346175E+01  0.22200462137E+02  0.00000000000E+00 0.  1.
          5    1    4    4  501    0 -0.31441235294E+02  0.46377349583E+02 -0.14535299274E+03  0.15583444654E+03  0.41800000000E+01 0.  1.
         -5    1    4    4    0  501 -0.62209648442E+02 -0.40789418698E+02 -0.33460623591E+02  0.81675594691E+02  0.41800000000E+01 0.  1.
</event>
<event>
11    1  0.5813833E-009  0.1946844E+03  0.7561462E-02  0.1058348E+00
         22   -1    0    0    0    0  0.00000000000E+00  0.00000000000E+00  0.31829990670E+03  0.31829990670E+03  0.00000000000E+00 0.  1.
         22   -1    0    0    0    0 -0.00000000000E+00 -0.00000000000E+00 -0.69479637514E+03  0.69479637514E+03  0.00000000000E+00 0.  1.
         24    2    1    2    0    0  0.13523915190E+03  0.62605786582E+02 -0.59842531269E+03  0.62239321216E+03  0.83972274919E+02 0.  0.
         25    2    1    2    0    0 -0.14767462838E+03 -0.39566781395E+02  0.58013922795E+02  0.20588157558E+03  0.12509309281E+03 0.  0.
        -24    2    1    2    0    0  0.12435476475E+02 -0.23039005187E+02  0.16391492145E+03  0.18482149411E+03  0.81273897264E+02 0.  0.
        -11    1    3    3    0    0  0.10632522357E+03  0.52364224075E+02 -0.56385311001E+03  0.57617479536E+03  0.00000000000E+00 0.  1.
         12    1    3    3    0    0  0.28913928329E+02  0.10241562507E+02 -0.34572202671E+02  0.46218416801E+02  0.00000000000E+00 0. -1.
         13    1    5    5    0    0 -0.44320751451E+01  0.17092794577E+02  0.27378627808E+01  0.17869046118E+02  0.00000000000E+00 0. -1.
        -14    1    5    5    0    0  0.16867551620E+02 -0.40131799764E+02  0.16117705867E+03  0.16695244799E+03  0.00000000000E+00 0.  1.
          5    1    4    4  501    0 -0.75606303557E+02 -0.56529752836E+02  0.84869603277E+02  0.12701278697E+03  0.41800000000E+01 0. -1.
         -5    1    4    4    0  501 -0.72068324819E+02  0.16962971441E+02 -0.26855680481E+02  0.78868788608E+02  0.41800000000E+01 0. -1.
</event>
<event>
11    1  0.5813833E-009  0.1873867E+03  0.7561462E-02  0.1063820E+00
         22   -1    0    0    0    0  0.00000000000E+00  0.00000000000E+00  0.10419228647E+04  0.10419228647E+04  0.00000000000E+00 0. -1.
         22   -1    0    0    0    0 -0.00000000000E+00 -0.00000000000E+00 -0.21774723238E+03  0.21774723238E+03  0.00000000000E+00 0.  1.
         24    2    1    2    0    0  0.15795775361E+01  0.41905682994E+02 -0.16014457180E+03  0.18457281805E+03  0.81622668126E+02 0.  0.
         25    2    1    2    0    0  0.10326039812E+03 -0.12652218439E+03  0.24918206120E+03  0.32312627434E+03  0.12509323156E+03 0.  0.
        -24    2    1    2    0    0 -0.10483997566E+03  0.84616501393E+02  0.73513814293E+03  0.75197100471E+03  0.82951370826E+02 0.  0.
        -11    1    3    3    0    0 -0.30755539949E+01  0.66126885838E+02 -0.10444583283E+03  0.12365741409E+03  0.00000000000E+00 0.  1.
         12    1    3    3    0    0  0.46551315309E+01 -0.24221202843E+02 -0.55698738966E+02  0.60915403957E+02  0.00000000000E+00 0. -1.
         11    1    5    5    0    0 -0.10057460309E+03  0.35116877692E+02  0.55362912485E+03  0.56378511311E+03  0.00000000000E+00 0. -1.
        -12    1    5    5    0    0 -0.42653725661E+01  0.49499623702E+02  0.18150901808E+03  0.18818589160E+03  0.00000000000E+00 0.  1.
          5    1    4    4  501    0  0.69856643542E+02 -0.29275150993E+02  0.18960264951E+03  0.20421464740E+03  0.41800000000E+01 0.  1.
         -5    1    4    4    0  501  0.33403754580E+02 -0.97247033395E+02  0.59579411693E+02  0.11891162694E+03  0.41800000000E+01 0.  1.
</event>
<event>
11    1  0.5813833E-009  0.1389967E+03  0.7561462E-02  0.1108684E+00
         22   -1    0    0    0    0  0.00000000000E+00  0.00000000000E+00  0.33832600374E+03  0.33832600374E+03  0.00000000000E+00 0. -1.
         22   -1    0    0    0    0 -0.00000000000E+00 -0.00000000000E+00 -0.26323432423E+04  0.26323432423E+04  0.00000000000E+00 0.  1.
         24    2    1    2    0    0  0.36387852483E+01 -0.12906881922E+02 -0.25857307570E+04  0.25870200830E+04  0.80557641052E+02 0.  0.
         25    2    1    2    0    0 -0.24902464257E+02  0.65650529506E+02  0.12199274874E+03  0.18831351549E+03  0.12509845970E+03 0.  0.
        -24    2    1    2    0    0  0.21263679008E+02 -0.52743647584E+02  0.16972076974E+03  0.19533564757E+03  0.78210223915E+02 0.  0.
        -11    1    3    3    0    0 -0.21364676729E+02  0.80136335632E+01 -0.21310053614E+04  0.21311275227E+04  0.00000000000E+00 0.  1.
         12    1    3    3    0    0  0.25003461977E+02 -0.20920515485E+02 -0.45472539558E+03  0.45589256022E+03  0.00000000000E+00 0. -1.
         11    1    5    5    0    0 -0.21139712739E+02 -0.10651011217E+02  0.10338049432E+03  0.10605591969E+03  0.00000000000E+00 0. -1.
        -12    1    5    5    0    0  0.42403391747E+02 -0.42092636367E+02  0.66340275414E+02  0.89279727878E+02  0.00000000000E+00 0.  1.
          5    1    4    4  501    0 -0.73861329415E+02  0.23683142461E+02  0.54609717899E+02  0.94953045812E+02  0.41800000000E+01 0.  1.
         -5    1    4    4    0  501  0.48958865159E+02  0.41967387045E+02  0.67383030839E+02  0.93360469676E+02  0.41800000000E+01 0.  1.
</event>
<event>
11    1  0.5813833E-009  0.1342110E+03  0.7561462E-02  0.1114201E+00
         22   -1    0    0    0    0  0.00000000000E+00  0.00000000000E+00  0.67327214500E+03  0.67327214500E+03  0.00000000000E+00 0. -1.
         22   -1    0    0    0    0 -0.00000000000E+00 -0.00000000000E+00 -0.47254430366E+03  0.47254430366E+03  0.00000000000E+00 0.  1.
        -24    2    1    2    0    0 -0.31353584837E+02 -0.39159265503E+02 -0.42903848701E+03  0.43946749965E+03  0.80877466337E+02 0.  0.
         25    2    1    2    0    0  0.47263969599E+01 -0.81285378259E+01  0.82052060258E+02  0.14989587815E+03  0.12509125365E+03 0.  0.
         24    2    1    2    0    0  0.26627187877E+02  0.47287803329E+02  0.54771426809E+03  0.55645307086E+03  0.81877696110E+02 0.  0.
        -11    1    5    5    0    0 -0.28546941208E+01 -0.22152202076E+02  0.10398829272E+03  0.10635992834E+03  0.00000000000E+00 0.  1.
         12    1    5    5    0    0  0.29481881998E+02  0.69440005405E+02  0.44372597538E+03  0.45009314252E+03  0.00000000000E+00 0. -1.
         11    1    3    3    0    0 -0.42262071244E+02 -0.16992113519E+02 -0.10457346780E+03  0.11406324893E+03  0.00000000000E+00 0. -1.
        -12    1    3    3    0    0  0.10908486407E+02 -0.22167151984E+02 -0.32446501920E+03  0.32540425072E+03  0.00000000000E+00 0.  1.
          5    1    4    4  501    0  0.14237696662E+02 -0.64081250703E+01 -0.31739521975E+02  0.35618053404E+02  0.41800000000E+01 0. -1.
         -5    1    4    4    0  501 -0.95112997021E+01 -0.17204127556E+01  0.11379158223E+03  0.11427782475E+03  0.41800000000E+01 0. -1.
</event>
<event>
11    1  0.5813833E-009  0.1494546E+03  0.7561462E-02  0.1097437E+00
         22   -1    0    0    0    0  0.00000000000E+00  0.00000000000E+00  0.40530802411E+03  0.40530802411E+03  0.00000000000E+00 0.  1.
         22   -1    0    0    0    0 -0.00000000000E+00 -0.00000000000E+00 -0.82008487133E+03  0.82008487133E+03  0.00000000000E+00 0. -1.
        -24    2    1    2    0    0 -0.58172252063E+02  0.21928341006E+02 -0.75368109683E+03  0.76099324986E+03  0.84915649742E+02 0.  0.
         25    2    1    2    0    0  0.88582224565E+02  0.52771308793E+02  0.77751604935E+02  0.17979103173E+03  0.12509149244E+03 0.  0.
         24    2    1    2    0    0 -0.30409972502E+02 -0.74699649799E+02  0.26115264467E+03  0.28460861385E+03  0.79350835870E+02 0.  0.
        -13    1    5    5    0    0 -0.47102932012E+02 -0.42607516943E+02  0.22368705559E+03  0.23252953693E+03  0.00000000000E+00 0.  1.
         14    1    5    5    0    0  0.16692959511E+02 -0.32092132856E+02  0.37465589079E+02  0.52079076926E+02  0.00000000000E+00 0. -1.
         11    1    3    3    0    0 -0.44352887885E+02 -0.10164193282E+02 -0.64983811850E+03  0.65142925153E+03  0.00000000000E+00 0. -1.
        -12    1    3    3    0    0 -0.13819364178E+02  0.32092534288E+02 -0.10384297833E+03  0.10956399833E+03  0.00000000000E+00 0.  1.
          5    1    4    4  501    0  0.11919138338E+03  0.54399727349E+02  0.60551222473E+02  0.14439473380E+03  0.41800000000E+01 0. -1.
         -5    1    4    4    0  501 -0.30609158813E+02 -0.16284185557E+01  0.17200382463E+02  0.35396297929E+02  0.41800000000E+01 0. -1.
</event>
<event>
11    1  0.5813833E-009  0.1393922E+03  0.7561462E-02  0.1108239E+00
         22   -1    0    0    0    0  0.00000000000E+00  0.00000000000E+00  0.50607479225E+03  0.50607479225E+03  0.00000000000E+00 0. -1.
         22   -1    0    0    0    0 -0.00000000000E+00 -0.00000000000E+00 -0.12104627594E+04  0.12104627594E+04  0.00000000000E+00 0. -1.
        -24    2    1    2    0    0  0.21841870138E+02 -0.19537033560E+02 -0.98310291769E+03  0.98674809731E+03  0.79509105164E+02 0.  0.
         25    2    1    2    0    0 -0.12444788142E+02 -0.42096124570E+02 -0.19691605804E+03  0.23738110973E+03  0.12508757287E+03 0.  0.
         24    2    1    2    0    0 -0.93970819957E+01  0.61633158130E+02  0.47563100858E+03  0.49240834462E+03  0.11114931485E+03 0.  0.
        -11    1    5    5    0    0 -0.35167308875E+02 -0.95538939080E+01  0.62089305377E+02  0.71993738232E+02  0.00000000000E+00 0.  1.
         12    1    5    5    0    0  0.25770226880E+02  0.71187052038E+02  0.41354170321E+03  0.42041460638E+03  0.00000000000E+00 0. -1.
         13    1    3    3    0    0  0.14054201810E+02 -0.36551610285E+02 -0.92229955080E+03  0.92313054451E+03  0.00000000000E+00 0. -1.
        -14    1    3    3    0    0  0.77876683276E+01  0.17014576724E+02 -0.60803366894E+02  0.63617552803E+02  0.00000000000E+00 0.  1.
          5    1    4    4  501    0 -0.29924235003E+01 -0.73697247858E+02 -0.56289210662E+02  0.92877266202E+02  0.41800000000E+01 0. -1.
         -5    1    4    4    0  501 -0.94523646418E+01  0.31601123288E+02 -0.14062684738E+03  0.14450384353E+03  0.41800000000E+01 0. -1.
</event>
<event>
11    1  0.5813833E-009  0.1351220E+03  0.7561462E-02  0.1113131E+00
         22   -1    0    0    0    0  0.00000000000E+00  0.00000000000E+00  0.54624848017E+03  0.54624848017E+03  0.00000000000E+00 0.  1.
         22   -1    0    0    0    0 -0.00000000000E+00 -0.00000000000E+00 -0.41221235463E+03  0.41221235463E+03  0.00000000000E+00 0. -1.
         24    2    1    2    0    0 -0.23639231888E+02 -0.31289205653E+02 -0.27788938159E+03  0.29162483878E+03  0.79276166144E+02 0.  0.
         25    2    1    2    0    0  0.79987715786E+01 -0.18773958016E+02 -0.90156848203E+02  0.15553069945E+03  0.12508037155E+03 0.  0.
        -24    2    1    2    0    0  0.15640460309E+02  0.50063163670E+02  0.50208235533E+03  0.51130529656E+03  0.81212501553E+02 0.  0.
        -11    1    3    3    0    0 -0.51609417090E+01 -0.39972747518E+01  0.41047168854E+01  0.77111753627E+01  0.00000000000E+00 0.  1.
         12    1    3    3    0    0 -0.18478290179E+02 -0.27291930901E+02 -0.28199409848E+03  0.28391366342E+03  0.00000000000E+00 0. -1.
         13    1    5    5    0    0 -0.26836308801E+02 -0.41026879538E+01  0.17116058828E+03  0.17330022071E+03  0.00000000000E+00 0. -1.
        -14    1    5    5    0    0  0.42476769111E+02  0.54165851623E+02  0.33092176705E+03  0.33800507585E+03  0.00000000000E+00 0.  1.
          5    1    4    4  501    0 -0.42291774693E+02 -0.34898246409E+02 -0.49705841289E+01  0.55214680256E+02  0.41800000000E+01 0.  1.
         -5    1    4    4    0  501  0.50290546272E+02  0.16124288393E+02 -0.85186264074E+02  0.10031601920E+03  0.41800000000E+01 0.  1.
</event>
<event>
11    1  0.5813833E-009  0.1933909E+03  0.7561462E-02  0.1059298E+00
         22   -1    0    0    0    0  0.00000000000E+00  0.00000000000E+00  0.47128549335E+03  0.47128549335E+03  0.00000000000E+00 0. -1.
         22   -1    0    0    0    0 -0.00000000000E+00 -0.00000000000E+00 -0.33998447877E+03  0.33998447877E+03  0.00000000000E+00 0. -1.
        -24    2    1    2    0    0 -0.14674285597E+03  0.62529462216E+01 -0.27019112638E+03  0.31805678286E+03  0.81143744251E+02 0.  0.
         25    2    1    2    0    0  0.15654879987E+03  0.40210603273E+01  0.31394975592E+03  0.37247218233E+03  0.12508949478E+03 0.  0.
         24    2    1    2    0    0 -0.98059439012E+01 -0.10274006549E+02  0.87542385041E+02  0.12074100693E+03  0.81932959364E+02 0.  0.
        -11    1    5    5    0    0 -0.31308410277E+02 -0.93002842253E+01  0.22094025005E+01  0.32735199712E+02  0.00000000000E+00 0.  1.
         12    1    5    5    0    0  0.21502466376E+02 -0.97372232359E+00  0.85332982540E+02  0.88005807221E+02  0.00000000000E+00 0. -1.
         11    1    3    3    0    0 -0.14600488298E+03  0.25540381875E+02 -0.24456062907E+03  0.28597139412E+03  0.00000000000E+00 0. -1.
        -12    1    3    3    0    0 -0.73797298574E+00 -0.19287435653E+02 -0.25630497311E+02  0.32085388740E+02  0.00000000000E+00 0.  1.
          5    1    4    4  501    0  0.16709525389E+03  0.31059581613E+02  0.25270285882E+03  0.30456810197E+03  0.41800000000E+01 0. -1.
         -5    1    4    4    0  501 -0.10546454018E+02 -0.27038521286E+02  0.61246897104E+02  0.67904080368E+02  0.41800000000E+01 0. -1.
</event>
<event>
11    1  0.5813833E-009  0.1495362E+03  0.7561462E-02  0.1097354E+00
         22   -1    0    0    0    0  0.00000000000E+00  0.00000000000E+00  0.13246516786E+03  0.13246516786E+03  0.00000000000E+00 0. -1.
         22   -1    0    0    0    0 -0.00000000000E+00 -0.00000000000E+00 -0.43094476799E+04  0.43094476799E+04  0.00000000000E+00 0. -1.
        -24    2    1    2    0    0 -0.80587669172E+02  0.93015757562E+01 -0.39987968112E+04  0.40004184555E+04  0.79943668552E+02 0.  0.
         25    2    1    2    0    0  0.10408109662E+03 -0.12443991937E+02 -0.27021341119E+03  0.31567402835E+03  0.12508827675E+03 0.  0.
         24    2    1    2    0    0 -0.23493427448E+02  0.31424161809E+01  0.92027710422E+02  0.12582036384E+03  0.82461194262E+02 0.  0.
        -11    1    5    5    0    0  0.15032054541E+02 -0.13530850475E+02 -0.43587064371E+01  0.20689246001E+02  0.00000000000E+00 0.  1.
         12    1    5    5    0    0 -0.38525481989E+02  0.16673266656E+02  0.96386416859E+02  0.10513111784E+03  0.00000000000E+00 0. -1.
         11    1    3    3    0    0 -0.89235773704E+02  0.27144907603E+02 -0.34597648192E+04  0.34610218828E+04  0.00000000000E+00 0. -1.
        -12    1    3    3    0    0  0.86481045322E+01 -0.17843331847E+02 -0.53903199203E+03  0.53939657270E+03  0.00000000000E+00 0.  1.
          5    1    4    4  501    0  0.80323354896E+01  0.31826792836E+02 -0.97031985195E+01  0.34483149757E+02  0.41800000000E+01 0.  1.
         -5    1    4    4    0  501  0.96048761130E+02 -0.44270784773E+02 -0.26051021267E+03  0.28119087859E+03  0.41800000000E+01 0.  1.
</event>
<event>
11    1  0.5813833E-009  0.1491732E+03  0.7561462E-02  0.1097727E+00
         22   -1    0    0    0    0  0.00000000000E+00  0.00000000000E+00  0.71433759716E+03  0.71433759716E+03  0.00000000000E+00 0.  1.
         22   -1    0    0    0    0 -0.00000000000E+00 -0.00000000000E+00 -0.13440301094E+04  0.13440301094E+04  0.00000000000E+00 0. -1.
        -24    2    1    2    0    0  0.51290275408E+02  0.62292471413E+02 -0.98599731863E+03  0.99234803177E+03  0.77800125057E+02 0.  0.
         25    2    1    2    0    0 -0.27646242946E+02 -0.84939495522E+02 -0.33548258447E+03  0.36902435102E+03  0.12510545356E+03 0.  0.
         24    2    1    2    0    0 -0.23644032462E+02  0.22647024109E+02  0.69178739091E+03  0.69699532374E+03  0.78490503367E+02 0.  0.
        -13    1    5    5    0    0  0.21759818519E+01 -0.68492105524E+01  0.54547970256E+03  0.54552704103E+03  0.00000000000E+00 0.  1.
         14    1    5    5    0    0 -0.25820014314E+02  0.29496234661E+02  0.14630768835E+03  0.15146828271E+03  0.00000000000E+00 0. -1.
         13    1    3    3    0    0  0.37389043148E+02  0.31821472797E+02 -0.87576091149E+03  0.87713609022E+03  0.00000000000E+00 0. -1.
        -14    1    3    3    0    0  0.13901232260E+02  0.30470998616E+02 -0.11023640714E+03  0.11521194154E+03  0.00000000000E+00 0.  1.
          5    1    4    4  501    0  0.86291610459E+01 -0.87639670175E+02 -0.11187248416E+03  0.14243629917E+03  0.41800000000E+01 0.  1.
         -5    1    4    4    0  501 -0.36275403992E+02  0.27001746529E+01 -0.22361010032E+03  0.22658805185E+03  0.41800000000E+01 0.  1.
</event>
<event>
11    1  0.8325505E-009  0.2078659E+03  0.7561462E-02  0.1049097E+00
         22   -1    0    0    0    0  0.00000000000E+00  0.00000000000E+00  0.18223473799E+04  0.18223473799E+04  0.00000000000E+00 0.  1.
         22   -1    0    0    0    0 -0.00000000000E+00 -0.00000000000E+00 -0.43310816763E+03  0.43310816763E+03  0.00000000000E+00 0.  1.
         24    2    1    2    0    0  0.67892146918E+02 -0.69556874107E+02 -0.33893268298E+03  0.36112605191E+03  0.78033066246E+02 0.  0.
         25    2    1    2    0    0 -0.14181030549E+03 -0.81261394053E+02  0.58119711388E+02  0.21386529003E+03  0.12508750746E+03 0.  0.
        -24    2    1    2    0    0  0.73918158574E+02  0.15081826816E+03  0.16700521839E+04  0.16804642056E+04  0.81704377118E+02 0.  0.
        -13    1    3    3    0    0  0.59341592194E+02 -0.81383534312E+02 -0.32734847541E+03  0.34249339932E+03  0.00000000000E+00 0.  1.
         14    1    3    3    0    0  0.85505547237E+01  0.11826660205E+02 -0.11584207568E+02  0.18632652594E+02  0.00000000000E+00 0. -1.
         11    1    5    5    0    0 -0.60193170974E+01  0.35930040622E+02  0.16796504403E+03  0.17187046288E+03  0.00000000000E+00 0. -1.
        -12    1    5    5    0    0  0.79937475671E+02  0.11488822754E+03  0.15020871399E+04  0.15085937428E+04  0.00000000000E+00 0.  1.
          5    1    4    4  501    0  0.22408975067E+02 -0.19597703210E+02  0.12576496066E+02  0.32586389612E+02  0.41800000000E+01 0. -1.
         -5    1    4    4    0  501 -0.16421928056E+03 -0.61663690843E+02  0.45543215322E+02  0.18127890042E+03  0.41800000000E+01 0. -1.
</event>
<event>
11    1  0.5813833E-009  0.1390530E+03  0.7561462E-02  0.1108621E+00
         22   -1    0    0    0    0  0.00000000000E+00  0.00000000000E+00  0.42514317447E+03  0.42514317447E+03  0.00000000000E+00 0.  1.
         22   -1    0    0    0    0 -0.00000000000E+00 -0.00000000000E+00 -0.11750456709E+04  0.11750456709E+04  0.00000000000E+00 0. -1.
         24    2    1    2    0    0  0.27520257318E+02 -0.19260003945E+01 -0.11113301619E+04  0.11146043517E+04  0.80790209992E+02 0.  0.
         25    2    1    2    0    0 -0.38592034858E+02 -0.57307215617E+02  0.39428717364E+02  0.14823592017E+03  0.12508318096E+03 0.  0.
        -24    2    1    2    0    0  0.11071777540E+02  0.59233216011E+02  0.32199894806E+03  0.33734857355E+03  0.80557925669E+02 0.  0.
        -13    1    3    3    0    0  0.11504179887E+02  0.16330375646E+02 -0.65178795254E+02  0.68171127865E+02  0.00000000000E+00 0.  1.
         14    1    3    3    0    0  0.16016077431E+02 -0.18256376040E+02 -0.10461513666E+04  0.10464332238E+04  0.00000000000E+00 0. -1.
         11    1    5    5    0    0  0.89779469520E+01 -0.92214777515E+01  0.17169657729E+03  0.17217826180E+03  0.00000000000E+00 0. -1.
        -12    1    5    5    0    0  0.20938305879E+01  0.68454693763E+02  0.15030237077E+03  0.16517031175E+03  0.00000000000E+00 0.  1.
          5    1    4    4  501    0  0.94740541331E+01 -0.66376391821E+01  0.70583438547E+02  0.71647122432E+02  0.41800000000E+01 0. -1.
         -5    1    4    4    0  501 -0.48066088991E+02 -0.50669576435E+02 -0.31154721183E+02  0.76588797738E+02  0.41800000000E+01 0. -1.
</event>
<event>
11    1  0.5813833E-009  0.1347943E+03  0.7561462E-02  0.1113515E+00
         22   -1    0    0    0    0  0.00000000000E+00  0.00000000000E+00  0.11646795082E+04  0.11646795082E+04  0.00000000000E+00 0.  1.
         22   -1    0    0    0    0 -0.00000000000E+00 -0.00000000000E+00 -0.40755217036E+02  0.40755217036E+02  0.00000000000E+00 0.  1.
         24    2    1    2    0    0 -0.24044111262E+00  0.43569705942E+02  0.38796065306E+02  0.87330909726E+02  0.64985967889E+02 0.  0.
         25    2    1    2    0    0  0.66399204489E+01 -0.85470292809E+02  0.41252512085E+03  0.43951475472E+03  0.12508790824E+03 0.  0.
        -24    2    1    2    0    0 -0.63994793363E+01  0.41900586866E+02  0.67260310501E+03  0.67858906080E+03  0.79319379989E+02 0.  0.
        -13    1    3    3    0    0  0.27810997125E+00  0.54098489732E+02  0.78837757522E+01  0.54670630658E+02  0.00000000000E+00 0.  1.
         14    1    3    3    0    0 -0.51855108386E+00 -0.10528783790E+02  0.30912289554E+02  0.32660279068E+02  0.00000000000E+00 0. -1.
         13    1    5    5    0    0 -0.14886192468E+02  0.16471082071E+02  0.42798717202E+02  0.48214369901E+02  0.00000000000E+00 0. -1.
        -14    1    5    5    0    0  0.84867131322E+01  0.25429504796E+02  0.62980438781E+03  0.63037469089E+03  0.00000000000E+00 0.  1.
          5    1    4    4  501    0 -0.88532678117E+01 -0.45633523205E+02  0.32034832072E+02  0.56608317913E+02  0.41800000000E+01 0.  1.
         -5    1    4    4    0  501  0.15493188261E+02 -0.39836769604E+02  0.38049028877E+03  0.38290643681E+03  0.41800000000E+01 0.  1.
</event>
<event>
11    1  0.5813833E-009  0.3253077E+03  0.7561462E-02  0.9900150E-01
         22   -1    0    0    0    0  0.00000000000E+00  0.00000000000E+00  0.28302358202E+03  0.28302358202E+03  0.00000000000E+00 0.  1.
         22   -1    0    0    0    0 -0.00000000000E+00 -0.00000000000E+00 -0.85096354850E+03  0.85096354850E+03  0.00000000000E+00 0.  1.
         24    2    1    2    0    0  0.14420387846E+03  0.26477485524E+03 -0.52730406851E+03  0.61203194168E+03  0.75053543823E+02 0.  0.
         25    2    1    2    0    0 -0.98020676656E+02 -0.28394579072E+03 -0.16576168910E+03  0.36518081571E+03  0.12508727141E+03 0.  0.
        -24    2    1    2    0    0 -0.46183201804E+02  0.19170935486E+02  0.12512579114E+03  0.15677437313E+03  0.80133186415E+02 0.  0.
        -13    1    3    3    0    0  0.13022024203E+03  0.24041550280E+03 -0.42033227488E+03  0.50143409011E+03  0.00000000000E+00 0.  1.
         14    1    3    3    0    0  0.13983636433E+02  0.24359352437E+02 -0.10697179363E+03  0.11059785157E+03  0.00000000000E+00 0. -1.
         13    1    5    5    0    0  0.15951002384E+02  0.27470429379E+02  0.42695458150E+02  0.53216173425E+02  0.00000000000E+00 0. -1.
        -14    1    5    5    0    0 -0.62134204188E+02 -0.82994938925E+01  0.82430332988E+02  0.10355819970E+03  0.00000000000E+00 0.  1.
          5    1    4    4  501    0 -0.43404828187E+02 -0.27188644521E+02 -0.67556060388E+02  0.84879297805E+02  0.41800000000E+01 0.  1.
         -5    1    4    4    0  501 -0.54615848469E+02 -0.25675714620E+03 -0.98205628709E+02  0.28030151791E+03  0.41800000000E+01 0.  1.
</event>
<event>
11    1  0.5813833E-009  0.1730119E+03  0.7561462E-02  0.1075440E+00
         22   -1    0    0    0    0  0.00000000000E+00  0.00000000000E+00  0.88929592552E+03  0.88929592552E+03  0.00000000000E+00 0. -1.
         22   -1    0    0    0    0 -0.00000000000E+00 -0.00000000000E+00 -0.12378576670E+04  0.12378576670E+04  0.00000000000E+00 0. -1.
         24    2    1    2    0    0 -0.15366203730E+02 -0.50771073682E+01 -0.11994390371E+04  0.12021627692E+04  0.79242808041E+02 0.  0.
         25    2    1    2    0    0 -0.10645353514E+03  0.20215383382E+02  0.20861077209E+03  0.26628344474E+03  0.12508957528E+03 0.  0.
        -24    2    1    2    0    0  0.12181973886E+03 -0.15138276014E+02  0.64226652357E+03  0.65870737857E+03  0.79497843407E+02 0.  0.
        -13    1    3    3    0    0  0.25325989368E+02  0.18296378591E+02 -0.33602102833E+03  0.33747043528E+03  0.00000000000E+00 0.  1.
         14    1    3    3    0    0 -0.40692193098E+02 -0.23373485959E+02 -0.86341800879E+03  0.86469233391E+03  0.00000000000E+00 0. -1.
         11    1    5    5    0    0  0.88511622068E+02 -0.23327609651E+02  0.58371977075E+03  0.59085298965E+03  0.00000000000E+00 0. -1.
        -12    1    5    5    0    0  0.33308116797E+02  0.81893336370E+01  0.58546752814E+02  0.67854388915E+02  0.00000000000E+00 0.  1.
          5    1    4    4  501    0  0.60381719160E+01  0.40322096436E+02  0.10207206245E+03  0.10999322394E+03  0.41800000000E+01 0. -1.
         -5    1    4    4    0  501 -0.11249170705E+03 -0.20106713054E+02  0.10653870964E+03  0.15629022080E+03  0.41800000000E+01 0. -1.
</event>
<event>
11    1  0.5813833E-009  0.1486657E+03  0.7561462E-02  0.1098250E+00
         22   -1    0    0    0    0  0.00000000000E+00  0.00000000000E+00  0.15924731441E+04  0.15924731441E+04  0.00000000000E+00 0.  1.
         22   -1    0    0    0    0 -0.00000000000E+00 -0.00000000000E+00 -0.47873121254E+03  0.47873121254E+03  0.00000000000E+00 0. -1.
        -24    2    1    2    0    0 -0.93119398049E+01 -0.74709391936E+02 -0.45182682932E+03  0.46477684829E+03  0.78751695519E+02 0.  0.
         25    2    1    2    0    0 -0.14094599211E+02 -0.12424684930E+02  0.20805942474E+03  0.24349409111E+03  0.12509043791E+03 0.  0.
         24    2    1    2    0    0  0.23406539016E+02  0.87134076867E+02  0.13575093362E+04  0.13629334173E+04  0.81336883968E+02 0.  0.
        -11    1    5    5    0    0 -0.59921380320E+01  0.73083416683E+02  0.56288033516E+03  0.56763664718E+03  0.00000000000E+00 0.  1.
         12    1    5    5    0    0  0.29398677048E+02  0.14050660184E+02  0.79462900102E+03  0.79529677010E+03  0.00000000000E+00 0. -1.
         11    1    3    3    0    0  0.19730913917E+01 -0.90947016257E+01 -0.28505082345E+03  0.28520269745E+03  0.00000000000E+00 0. -1.
        -12    1    3    3    0    0 -0.11285031197E+02 -0.65614690311E+02 -0.16677600587E+03  0.17957415084E+03  0.00000000000E+00 0.  1.
          5    1    4    4  501    0 -0.26263891121E+02 -0.20776909164E+02 -0.11065079448E+01  0.33766384039E+02  0.41800000000E+01 0. -1.
         -5    1    4    4    0  501  0.12169291910E+02  0.83522242341E+01  0.20916593269E+03  0.20972770707E+03  0.41800000000E+01 0. -1.
</event>
<event>
11    1  0.5813833E-009  0.1895730E+03  0.7561462E-02  0.1062152E+00
         22   -1    0    0    0    0  0.00000000000E+00  0.00000000000E+00  0.47542858813E+03  0.47542858813E+03  0.00000000000E+00 0.  1.
         22   -1    0    0    0    0 -0.00000000000E+00 -0.00000000000E+00 -0.33487369659E+03  0.33487369659E+03  0.00000000000E+00 0. -1.
         24    2    1    2    0    0 -0.73290921061E+02  0.11221535688E+02 -0.23462535595E+03  0.25981906527E+03  0.83423060663E+02 0.  0.
         25    2    1    2    0    0  0.15343257864E+03 -0.10612696261E+03  0.14876007513E+03  0.26940942262E+03  0.12508952259E+03 0.  0.
        -24    2    1    2    0    0 -0.80141657580E+02  0.94905426921E+02  0.22642017237E+03  0.28107379683E+03  0.11093538421E+03 0.  0.
        -13    1    3    3    0    0 -0.18557566760E+02 -0.35193550496E+02 -0.79649274511E+02  0.89033567887E+02  0.00000000000E+00 0.  1.
         14    1    3    3    0    0 -0.54733354301E+02  0.46415086184E+02 -0.15497608144E+03  0.17078549739E+03  0.00000000000E+00 0. -1.
         13    1    5    5    0    0 -0.46540241587E+01  0.29979382897E+02 -0.34811900815E+01  0.30537551050E+02  0.00000000000E+00 0. -1.
        -14    1    5    5    0    0 -0.75487633422E+02  0.64926044024E+02  0.22990136245E+03  0.25053624578E+03  0.00000000000E+00 0.  1.
          5    1    4    4  501    0 -0.73541449864E+00 -0.72561611621E+01 -0.19144432014E+02  0.20908715562E+02  0.41800000000E+01 0.  1.
         -5    1    4    4    0  501  0.15416799314E+03 -0.98870801446E+02  0.16790450715E+03  0.24850070706E+03  0.41800000000E+01 0.  1.
</event>
<event>
11    1  0.5813833E-009  0.2517832E+03  0.7561462E-02  0.1022954E+00
         22   -1    0    0    0    0  0.00000000000E+00  0.00000000000E+00  0.25980536612E+04  0.25980536612E+04  0.00000000000E+00 0. -1.
         22   -1    0    0    0    0 -0.00000000000E+00 -0.00000000000E+00 -0.69941763663E+02  0.69941763663E+02  0.00000000000E+00 0. -1.
         24    2    1    2    0    0  0.18735710374E+03  0.82205614369E+02  0.21424428943E+03  0.30605404383E+03  0.76863611917E+02 0.  0.
         25    2    1    2    0    0 -0.23368497763E+03 -0.17493374949E+03  0.12418811785E+04  0.12818450429E+04  0.12508943615E+03 0.  0.
        -24    2    1    2    0    0  0.46327873898E+02  0.92728135123E+02  0.10719864297E+04  0.10800963382E+04  0.81904916981E+02 0.  0.
        -13    1    3    3    0    0  0.56783886708E+02  0.65546851641E+02  0.78633756220E+02  0.11706437189E+03  0.00000000000E+00 0.  1.
         14    1    3    3    0    0  0.13057321703E+03  0.16658762728E+02  0.13561053321E+03  0.18898967194E+03  0.00000000000E+00 0. -1.
         13    1    5    5    0    0  0.34888433478E+02  0.57317126296E+02  0.95453756054E+03  0.95689310282E+03  0.00000000000E+00 0. -1.
        -14    1    5    5    0    0  0.11439440419E+02  0.35411008827E+02  0.11744886914E+03  0.12320323537E+03  0.00000000000E+00 0.  1.
          5    1    4    4  501    0 -0.19307408903E+03 -0.81315586990E+02  0.94283879066E+03  0.96584278540E+03  0.41800000000E+01 0.  1.
         -5    1    4    4    0  501 -0.40610888608E+02 -0.93618162502E+02  0.29904238780E+03  0.31600225747E+03  0.41800000000E+01 0.  1.
</event>
<event>
11    1  0.5813833E-009  0.1362653E+03  0.7561462E-02  0.1111802E+00
         22   -1    0    0    0    0  0.00000000000E+00  0.00000000000E+00  0.80355059217E+03  0.80355059217E+03  0.00000000000E+00 0. -1.
         22   -1    0    0    0    0 -0.00000000000E+00 -0.00000000000E+00 -0.20838002383E+03  0.20838002383E+03  0.00000000000E+00 0.  1.
         24    2    1    2    0    0 -0.18473752407E+02 -0.50542922770E+02 -0.14338168957E+03  0.17287237383E+03  0.80191534215E+02 0.  0.
         25    2    1    2    0    0 -0.48442793241E+01  0.60250585188E+02  0.53757174922E+02  0.14896407013E+03  0.12508741054E+03 0.  0.
        -24    2    1    2    0    0  0.23318031731E+02 -0.97076624178E+01  0.68479508299E+03  0.69009417205E+03  0.81533375391E+02 0.  0.
        -13    1    3    3    0    0  0.51187057046E+01 -0.67389160448E+02 -0.10072269383E+03  0.12129534676E+03  0.00000000000E+00 0.  1.
         14    1    3    3    0    0 -0.23592458112E+02  0.16846237677E+02 -0.42658995744E+02  0.51577027071E+02  0.00000000000E+00 0. -1.
         11    1    5    5    0    0 -0.91271933397E+00  0.57434900689E+01  0.60909492358E+03  0.60912268606E+03  0.00000000000E+00 0. -1.
        -12    1    5    5    0    0  0.24230751065E+02 -0.15451152487E+02  0.75700159405E+02  0.80971485995E+02  0.00000000000E+00 0.  1.
          5    1    4    4  501    0 -0.55970046786E+02  0.60435624548E+02  0.52269703810E+02  0.97645815006E+02  0.41800000000E+01 0. -1.
         -5    1    4    4    0  501  0.51125767462E+02 -0.18503936007E+00  0.14874711123E+01  0.51318255119E+02  0.41800000000E+01 0. -1.
</event>
<event>
11    1  0.5813833E-009  0.1411062E+03  0.7561462E-02  0.1106329E+00
         22   -1    0    0    0    0  0.00000000000E+00  0.00000000000E+00  0.23929123892E+03  0.23929123892E+03  0.00000000000E+00 0. -1.
         22   -1    0    0    0    0 -0.00000000000E+00 -0.00000000000E+00 -0.18104871518E+04  0.18104871518E+04  0.00000000000E+00 0.  1.
         24    2    1    2    0    0 -0.30977173790E+00  0.25909078581E+02 -0.12047039881E+04  0.12075956100E+04  0.79398249687E+02 0.  0.
         25    2    1    2    0    0 -0.64318511501E+02 -0.16044452077E+02 -0.58393778435E+03  0.60085364865E+03  0.12508987068E+03 0.  0.
        -24    2    1    2    0    0  0.64628283239E+02 -0.98646265032E+01  0.21744585956E+03  0.24132913207E+03  0.81749142465E+02 0.  0.
        -13    1    3    3    0    0  0.25434297808E+01  0.42090580469E+02 -0.11418841787E+04  0.11426624889E+04  0.00000000000E+00 0.  1.
         14    1    3    3    0    0 -0.28532015187E+01 -0.16181501888E+02 -0.62819809408E+02  0.64933121104E+02  0.00000000000E+00 0. -1.
         13    1    5    5    0    0  0.66908708237E+02 -0.29024579248E+02  0.10880112500E+03  0.13098429768E+03  0.00000000000E+00 0. -1.
        -14    1    5    5    0    0 -0.22804249977E+01  0.19159952745E+02  0.10864473456E+03  0.11034483438E+03  0.00000000000E+00 0.  1.
          5    1    4    4  501    0 -0.47926405650E+02 -0.65075821430E+02 -0.45008843212E+03  0.45730610320E+03  0.41800000000E+01 0.  1.
         -5    1    4    4    0  501 -0.16392105851E+02  0.49031369352E+02 -0.13384935223E+03  0.14354754546E+03  0.41800000000E+01 0.  1.
</event>
<event>
11    1  0.5813833E-009  0.1492811E+03  0.7561462E-02  0.1097616E+00
         22   -1    0    0    0    0  0.00000000000E+00  0.00000000000E+00  0.66519264687E+03  0.66519264687E+03  0.00000000000E+00 0.  1.
         22   -1    0    0    0    0 -0.00000000000E+00 -0.00000000000E+00 -0.43919634609E+03  0.43919634609E+03  0.00000000000E+00 0. -1.
        -24    2    1    2    0    0 -0.47922509483E+01 -0.77627532292E+02 -0.28850356147E+03  0.31006587873E+03  0.82810293668E+02 0.  0.
         25    2    1    2    0    0 -0.33813688366E+02  0.98522483710E+02 -0.87914077740E+02  0.18501049804E+03  0.12509977619E+03 0.  0.
         24    2    1    2    0    0  0.38605939314E+02 -0.20894951418E+02  0.60241393998E+03  0.60931261619E+03  0.80201568657E+02 0.  0.
        -11    1    5    5    0    0  0.56629304047E+02  0.68729655873E+01  0.42800104494E+03  0.43178583835E+03  0.00000000000E+00 0.  1.
         12    1    5    5    0    0 -0.18023364733E+02 -0.27767917005E+02  0.17441289505E+03  0.17752677784E+03  0.00000000000E+00 0. -1.
         13    1    3    3    0    0 -0.14835688178E+01 -0.38290580719E+01 -0.17242873267E+03  0.17247762322E+03  0.00000000000E+00 0. -1.
        -14    1    3    3    0    0 -0.33086821305E+01 -0.73798474220E+02 -0.11607482879E+03  0.13758825551E+03  0.00000000000E+00 0.  1.
          5    1    4    4  501    0  0.25326514080E+02  0.11676708646E+02 -0.73687314164E+02  0.78899116022E+02  0.41800000000E+01 0.  1.
         -5    1    4    4    0  501 -0.59140202446E+02  0.86845775064E+02 -0.14226763576E+02  0.10611138202E+03  0.41800000000E+01 0.  1.
</event>
<event>
11    1  0.5813833E-009  0.1669001E+03  0.7561462E-02  0.1080761E+00
         22   -1    0    0    0    0  0.00000000000E+00  0.00000000000E+00  0.15852508084E+04  0.15852508084E+04  0.00000000000E+00 0. -1.
         22   -1    0    0    0    0 -0.00000000000E+00 -0.00000000000E+00 -0.15219537984E+03  0.15219537984E+03  0.00000000000E+00 0.  1.
        -24    2    1    2    0    0 -0.10351645930E+03  0.26490526108E+02 -0.95780262763E+02  0.16421848296E+03  0.79852652369E+02 0.  0.
         25    2    1    2    0    0  0.17336474865E+03 -0.81167717976E+02  0.71380504924E+03  0.74953865345E+03  0.12508800975E+03 0.  0.
         24    2    1    2    0    0 -0.69848289350E+02  0.54677191868E+02  0.81503064212E+03  0.82368905186E+03  0.79500488828E+02 0.  0.
        -13    1    5    5    0    0 -0.57115704989E+01 -0.12551358248E+02  0.28196988021E+02  0.31388353969E+02  0.00000000000E+00 0.  1.
         14    1    5    5    0    0 -0.64136718851E+02  0.67228550116E+02  0.78683365410E+03  0.79230069789E+03  0.00000000000E+00 0. -1.
         11    1    3    3    0    0 -0.26724015033E+02  0.16819395788E+01  0.12190688754E+02  0.29421332269E+02  0.00000000000E+00 0. -1.
        -12    1    3    3    0    0 -0.76792444270E+02  0.24808586530E+02 -0.10797095152E+03  0.13479715069E+03  0.00000000000E+00 0.  1.
          5    1    4    4  501    0  0.14332130120E+02  0.28288429558E+02  0.15624615128E+03  0.15948660567E+03  0.41800000000E+01 0.  1.
         -5    1    4    4    0  501  0.15903261853E+03 -0.10945614753E+03  0.55755889796E+03  0.59005204778E+03  0.41800000000E+01 0.  1.
</event>
<event>
11    1  0.5813833E-009  0.1512917E+03  0.7561462E-02  0.1095566E+00
         22   -1    0    0    0    0  0.00000000000E+00  0.00000000000E+00  0.94298050186E+03  0.94298050186E+03  0.00000000000E+00 0. -1.
         22   -1    0    0    0    0 -0.00000000000E+00 -0.00000000000E+00 -0.59026636295E+03  0.59026636295E+03  0.00000000000E+00 0. -1.
         24    2    1    2    0    0  0.17420619804E+02  0.66785566942E+02 -0.47076421460E+03  0.48241714488E+03  0.79646506363E+02 0.  0.
         25    2    1    2    0    0 -0.88675571602E+02 -0.11007248861E+03 -0.28603121957E+02  0.19090531267E+03  0.12508952823E+03 0.  0.
        -24    2    1    2    0    0  0.71254951797E+02  0.43286921669E+02  0.85208147548E+03  0.85992440726E+03  0.80474341316E+02 0.  0.
        -11    1    3    3    0    0 -0.82130001168E+01  0.55311994104E+02 -0.14443524862E+03  0.15488192634E+03  0.00000000000E+00 0.  1.
         12    1    3    3    0    0  0.25633619921E+02  0.11473572838E+02 -0.32632896598E+03  0.32753521854E+03  0.00000000000E+00 0. -1.
         11    1    5    5    0    0  0.47027330438E+02  0.64453987767E+02  0.49412776629E+03  0.50052785713E+03  0.00000000000E+00 0. -1.
        -12    1    5    5    0    0  0.24227621359E+02 -0.21167066098E+02  0.35795370919E+03  0.35939655013E+03  0.00000000000E+00 0.  1.
          5    1    4    4  501    0 -0.23977603583E+02  0.20759645092E+02  0.19145482245E+02  0.37281499813E+02  0.41800000000E+01 0.  1.
         -5    1    4    4    0  501 -0.64697968019E+02 -0.13083213370E+03 -0.47748604202E+02  0.15362381286E+03  0.41800000000E+01 0.  1.
</event>
<event>
11    1  0.5813833E-009  0.1341348E+03  0.7561462E-02  0.1114290E+00
         22   -1    0    0    0    0  0.00000000000E+00  0.00000000000E+00  0.26917020050E+03  0.26917020050E+03  0.00000000000E+00 0. -1.
         22   -1    0    0    0    0 -0.00000000000E+00 -0.00000000000E+00 -0.33340139876E+03  0.33340139876E+03  0.00000000000E+00 0.  1.
        -24    2    1    2    0    0 -0.63896396884E+02  0.62534936978E+01 -0.24883385906E+03  0.26834954695E+03  0.77274408522E+02 0.  0.
         25    2    1    2    0    0  0.18346966201E+02 -0.39883152060E+02  0.11222272912E+02  0.13304397910E+03  0.12508990358E+03 0.  0.
         24    2    1    2    0    0  0.45549430683E+02  0.33629658362E+02  0.17338038789E+03  0.20117807322E+03  0.84889066919E+02 0.  0.
        -13    1    5    5    0    0 -0.10384045541E+01  0.49830029524E+02  0.11081960036E+03  0.12151170293E+03  0.00000000000E+00 0.  1.
         14    1    5    5    0    0  0.46587835238E+02 -0.16200371161E+02  0.62560787531E+02  0.79666370285E+02  0.00000000000E+00 0. -1.
         13    1    3    3    0    0  0.88582022021E+01 -0.17349847078E+01 -0.54228637071E-01  0.90266748548E+01  0.00000000000E+00 0. -1.
        -14    1    3    3    0    0 -0.72754599086E+02  0.79884784055E+01 -0.24877963042E+03  0.25932287209E+03  0.00000000000E+00 0.  1.
          5    1    4    4  501    0  0.12669216028E+02 -0.85146599484E+02  0.14169024174E+01  0.86197055930E+02  0.41800000000E+01 0.  1.
         -5    1    4    4    0  501  0.56777501730E+01  0.45263447424E+02  0.98053704943E+01  0.46846923168E+02  0.41800000000E+01 0.  1.
</event>
<event>
11    1  0.5813833E-009  0.1392789E+03  0.7561462E-02  0.1108366E+00
         22   -1    0    0    0    0  0.00000000000E+00  0.00000000000E+00  0.25926710539E+03  0.25926710539E+03  0.00000000000E+00 0. -1.
         22   -1    0    0    0    0 -0.00000000000E+00 -0.00000000000E+00 -0.14062662008E+04  0.14062662008E+04  0.00000000000E+00 0. -1.
         24    2    1    2    0    0  0.82666705814E+00  0.28163038819E+02 -0.10507342244E+04  0.10541977993E+04  0.80602417129E+02 0.  0.
         25    2    1    2    0    0  0.47445342027E+02  0.10621480671E+02 -0.32912921048E+03  0.35542510352E+03  0.12504835339E+03 0.  0.
        -24    2    1    2    0    0 -0.48272009085E+02 -0.38784519490E+02  0.23286433941E+03  0.25591040340E+03  0.86196915157E+02 0.  0.
        -13    1    3    3    0    0  0.16690224541E+02  0.24542592485E+02 -0.13102018872E+03  0.13433983882E+03  0.00000000000E+00 0.  1.
         14    1    3    3    0    0 -0.15863557483E+02  0.36204463339E+01 -0.91971403566E+03  0.91985796050E+03  0.00000000000E+00 0. -1.
         11    1    5    5    0    0 -0.69346824480E+02 -0.26496227632E+02  0.12552781267E+03  0.14583642857E+03  0.00000000000E+00 0. -1.
        -12    1    5    5    0    0  0.21074815395E+02 -0.12288291859E+02  0.10733652675E+03  0.11007397483E+03  0.00000000000E+00 0.  1.
          5    1    4    4  501    0 -0.12075656597E+02 -0.20643190612E+02 -0.25139444637E+03  0.25256405696E+03  0.41800000000E+01 0. -1.
         -5    1    4    4    0  501  0.59520998624E+02  0.31264671283E+02 -0.77734764109E+02  0.10286104656E+03  0.41800000000E+01 0. -1.
</event>
<event>
11    1  0.5813833E-009  0.1769419E+03  0.7561462E-02  0.1072144E+00
         22   -1    0    0    0    0  0.00000000000E+00  0.00000000000E+00  0.92278667246E+03  0.92278667246E+03  0.00000000000E+00 0.  1.
         22   -1    0    0    0    0 -0.00000000000E+00 -0.00000000000E+00 -0.96980636165E+03  0.96980636165E+03  0.00000000000E+00 0. -1.
        -24    2    1    2    0    0  0.11294817277E+01 -0.39492415538E+02 -0.90213470004E+03  0.90661735647E+03  0.80914074339E+02 0.  0.
         25    2    1    2    0    0 -0.39453358679E+02  0.15431929096E+03  0.11733734693E+03  0.23406514309E+03  0.12508967644E+03 0.  0.
         24    2    1    2    0    0  0.38323876951E+02 -0.11482687542E+03  0.73777766392E+03  0.75191053454E+03  0.79997748118E+02 0.  0.
        -11    1    5    5    0    0  0.26369595240E+01 -0.31144153576E+02  0.42562611449E+03  0.42677218887E+03  0.00000000000E+00 0.  1.
         12    1    5    5    0    0  0.35686917427E+02 -0.83682721847E+02  0.31215154944E+03  0.32513834567E+03  0.00000000000E+00 0. -1.
         11    1    3    3    0    0  0.10980570598E+01 -0.64763751747E+02 -0.64835161181E+03  0.65157912936E+03  0.00000000000E+00 0. -1.
        -12    1    3    3    0    0  0.31424667865E-01  0.25271336209E+02 -0.25378308823E+03  0.25503822712E+03  0.00000000000E+00 0.  1.
          5    1    4    4  501    0  0.20238839786E+02 -0.27140358983E+01  0.47896365116E+02  0.52235149258E+02  0.41800000000E+01 0. -1.
         -5    1    4    4    0  501 -0.59692198465E+02  0.15703332686E+03  0.69440981816E+02  0.18182999383E+03  0.41800000000E+01 0. -1.
</event>
<event>
11    1  0.5813833E-009  0.1647789E+03  0.7561462E-02  0.1082667E+00
         22   -1    0    0    0    0  0.00000000000E+00  0.00000000000E+00  0.69230905151E+03  0.69230905151E+03  0.00000000000E+00 0.  1.
         22   -1    0    0    0    0 -0.00000000000E+00 -0.00000000000E+00 -0.65937304646E+03  0.65937304646E+03  0.00000000000E+00 0.  1.
        -24    2    1    2    0    0 -0.14821591931E+02  0.16098480570E+02 -0.60688070729E+03  0.61267601398E+03  0.81171821243E+02 0.  0.
         25    2    1    2    0    0 -0.33021978737E+02 -0.11053749729E+03  0.13558302015E+03  0.21757865908E+03  0.12509487658E+03 0.  0.
         24    2    1    2    0    0  0.47843570668E+02  0.94439016720E+02  0.50423369218E+03  0.52142742492E+03  0.80169869624E+02 0.  0.
        -11    1    5    5    0    0  0.25882127844E+02  0.78707782285E+02  0.47269201874E+03  0.47989847271E+03  0.00000000000E+00 0.  1.
         12    1    5    5    0    0  0.21961442824E+02  0.15731234435E+02  0.31541673438E+02  0.41528952202E+02  0.00000000000E+00 0. -1.
         11    1    3    3    0    0 -0.37117787513E+02 -0.12457708665E+02 -0.17736213473E+03  0.18163218738E+03  0.00000000000E+00 0. -1.
        -12    1    3    3    0    0  0.22296195582E+02  0.28556189235E+02 -0.42951857255E+03  0.43104382660E+03  0.00000000000E+00 0.  1.
          5    1    4    4  501    0 -0.74608098994E+02 -0.57349072618E+02  0.44643934844E+02  0.10423932983E+03  0.41800000000E+01 0. -1.
         -5    1    4    4    0  501  0.41586120256E+02 -0.53188424672E+02  0.90939085306E+02  0.11333932924E+03  0.41800000000E+01 0. -1.
</event>
<event>
11    1  0.5813833E-009  0.2067939E+03  0.7561462E-02  0.1049821E+00
         22   -1    0    0    0    0  0.00000000000E+00  0.00000000000E+00  0.20260245560E+04  0.20260245560E+04  0.00000000000E+00 0.  1.
         22   -1    0    0    0    0 -0.00000000000E+00 -0.00000000000E+00 -0.16669098427E+04  0.16669098427E+04  0.00000000000E+00 0. -1.
        -24    2    1    2    0    0  0.10037803117E+02  0.16424229158E+03 -0.16418900142E+04  0.16521068069E+04  0.81103604056E+02 0.  0.
         25    2    1    2    0    0  0.23691823535E+01 -0.18057248765E+03  0.63382466519E+03  0.67081548845E+03  0.12509067516E+03 0.  0.
         24    2    1    2    0    0 -0.12406985470E+02  0.16330196062E+02  0.13671800623E+04  0.13700121035E+04  0.85622615104E+02 0.  0.
        -11    1    5    5    0    0 -0.23887369727E+02  0.25182672543E+02  0.13241642438E+04  0.13246190841E+04  0.00000000000E+00 0.  1.
         12    1    5    5    0    0  0.11480384257E+02 -0.88524764815E+01  0.43015818552E+02  0.45393019378E+02  0.00000000000E+00 0. -1.
         13    1    3    3    0    0 -0.10319363336E+02  0.15301915996E+03 -0.15390312289E+04  0.15466539613E+04  0.00000000000E+00 0. -1.
        -14    1    3    3    0    0  0.20357166453E+02  0.11223131627E+02 -0.10285878538E+03  0.10545284557E+03  0.00000000000E+00 0.  1.
          5    1    4    4  501    0 -0.21331492726E+02  0.83025304328E+01  0.31833700031E+02  0.39431224317E+02  0.41800000000E+01 0.  1.
         -5    1    4    4    0  501  0.23700675079E+02 -0.18887501808E+03  0.60199096516E+03  0.63138426413E+03  0.41800000000E+01 0.  1.
</event>
<event>
11    1  0.5813833E-009  0.1779100E+03  0.7561462E-02  0.1071346E+00
         22   -1    0    0    0    0  0.00000000000E+00  0.00000000000E+00  0.79792473778E+03  0.79792473778E+03  0.00000000000E+00 0. -1.
         22   -1    0    0    0    0 -0.00000000000E+00 -0.00000000000E+00 -0.10226895876E+03  0.10226895876E+03  0.00000000000E+00 0.  1.
        -24    2    1    2    0    0 -0.10075372723E+03 -0.74122823890E+02  0.56199036627E+01  0.14938631237E+03  0.81481166123E+02 0.  0.
         25    2    1    2    0    0  0.72747652003E+02  0.12334747164E+03  0.36968023157E+03  0.41571263600E+03  0.12508677980E+03 0.  0.
         24    2    1    2    0    0  0.28006075230E+02 -0.49224647752E+02  0.32035564378E+03  0.33509474818E+03  0.80332717862E+02 0.  0.
        -11    1    5    5    0    0 -0.18397928292E+02 -0.27613962142E+02  0.50491729745E+02  0.60418783861E+02  0.00000000000E+00 0.  1.
         12    1    5    5    0    0  0.46404003522E+02 -0.21610685609E+02  0.26986391404E+03  0.27467596432E+03  0.00000000000E+00 0. -1.
         11    1    3    3    0    0 -0.36894215119E+02  0.14553004277E+02  0.59787173018E+01  0.40108828246E+02  0.00000000000E+00 0. -1.
        -12    1    3    3    0    0 -0.63859512115E+02 -0.88675828167E+02 -0.35881363901E+00  0.10927748412E+03  0.00000000000E+00 0.  1.
          5    1    4    4  501    0  0.75715787811E+02  0.45117477690E+02  0.29319677023E+03  0.30618668454E+03  0.41800000000E+01 0.  1.
         -5    1    4    4    0  501 -0.29681358079E+01  0.78229993951E+02  0.76483461342E+02  0.10952595146E+03  0.41800000000E+01 0.  1.
</event>
<event>
11    1  0.5813833E-009  0.1605601E+03  0.7561462E-02  0.1086552E+00
         22   -1    0    0    0    0  0.00000000000E+00  0.00000000000E+00  0.77355054213E+02  0.77355054213E+02  0.00000000000E+00 0. -1.
         22   -1    0    0    0    0 -0.00000000000E+00 -0.00000000000E+00 -0.94006677725E+03  0.94006677725E+03  0.00000000000E+00 0.  1.
         24    2    1    2    0    0  0.29983292026E+02 -0.10444465455E+03 -0.66846666926E+03  0.68193436057E+03  0.79869271636E+02 0.  0.
         25    2    1    2    0    0  0.77982247216E+01  0.75597411574E+02 -0.19342126425E+03  0.24256616336E+03  0.12510306630E+03 0.  0.
        -24    2    1    2    0    0 -0.37781516748E+02  0.28847242978E+02 -0.82378952941E+00  0.92921307536E+02  0.79837862758E+02 0.  0.
        -13    1    3    3    0    0  0.10100154420E+02 -0.57511489202E+02 -0.54835231254E+03  0.55145248497E+03  0.00000000000E+00 0.  1.
         14    1    3    3    0    0  0.19883137606E+02 -0.46933165350E+02 -0.12011435672E+03  0.13048187561E+03  0.00000000000E+00 0. -1.
         13    1    5    5    0    0 -0.47399579016E+02  0.29048457972E+02  0.28206240448E+02  0.62338792110E+02  0.00000000000E+00 0. -1.
        -14    1    5    5    0    0  0.96180622684E+01 -0.20121499435E+00 -0.29030029978E+02  0.30582515426E+02  0.00000000000E+00 0.  1.
          5    1    4    4  501    0  0.64997856432E+02  0.26394303792E+02 -0.82874029520E+02  0.10865982598E+03  0.41800000000E+01 0. -1.
         -5    1    4    4    0  501 -0.57199631711E+02  0.49203107782E+02 -0.11054723473E+03  0.13390633738E+03  0.41800000000E+01 0. -1.
</event>
<event>
11    1  0.5813833E-009  0.1480834E+03  0.7561462E-02  0.1098853E+00
         22   -1    0    0    0    0  0.00000000000E+00  0.00000000000E+00  0.57185608721E+03  0.57185608721E+03  0.00000000000E+00 0.  1.
         22   -1    0    0    0    0 -0.00000000000E+00 -0.00000000000E+00 -0.33243882141E+03  0.33243882141E+03  0.00000000000E+00 0.  1.
        -24    2    1    2    0    0  0.20215028473E+02  0.41834518123E+02 -0.24807781090E+03  0.26470015483E+03  0.79779680509E+02 0.  0.
         25    2    1    2    0    0  0.57692590462E+02 -0.16416817790E+02 -0.28358635056E+00  0.13873977314E+03  0.12510274709E+03 0.  0.
         24    2    1    2    0    0 -0.77907618935E+02 -0.25417700333E+02  0.48777866305E+03  0.50085498065E+03  0.78816438252E+02 0.  0.
        -13    1    5    5    0    0 -0.36607409198E+02 -0.25194731212E+02  0.41337636398E+03  0.41575821722E+03  0.00000000000E+00 0.  1.
         14    1    5    5    0    0 -0.41300209737E+02 -0.22296912059E+00  0.74402299067E+02  0.85096763429E+02  0.00000000000E+00 0. -1.
         13    1    3    3    0    0  0.11173076316E+02  0.27149342134E+01 -0.20678723872E+03  0.20710666479E+03  0.00000000000E+00 0. -1.
        -14    1    3    3    0    0  0.90419521569E+01  0.39119583909E+02 -0.41290572182E+02  0.57593490041E+02  0.00000000000E+00 0.  1.
          5    1    4    4  501    0 -0.12813987211E+01  0.27649223147E+01  0.55188339742E+02  0.55430244647E+02  0.41800000000E+01 0.  1.
         -5    1    4    4    0  501  0.58973989183E+02 -0.19181740104E+02 -0.55471926093E+02  0.83309528495E+02  0.41800000000E+01 0.  1.
</event>
<event>
11    1  0.5813833E-009  0.1853648E+03  0.7561462E-02  0.1065384E+00
         22   -1    0    0    0    0  0.00000000000E+00  0.00000000000E+00  0.20467827262E+04  0.20467827262E+04  0.00000000000E+00 0.  1.
         22   -1    0    0    0    0 -0.00000000000E+00 -0.00000000000E+00 -0.12195599839E+03  0.12195599839E+03  0.00000000000E+00 0.  1.
        -24    2    1    2    0    0 -0.80120321334E+02  0.11546757792E+03 -0.49114488078E+02  0.16877990127E+03  0.79513487479E+02 0.  0.
         25    2    1    2    0    0  0.72808887741E+02 -0.71904910143E+02  0.55545920910E+03  0.57850566285E+03  0.12514958544E+03 0.  0.
         24    2    1    2    0    0  0.73114335931E+01 -0.43562667777E+02  0.14184820068E+04  0.14214531605E+04  0.80540181043E+02 0.  0.
        -11    1    5    5    0    0  0.81492404005E+01 -0.34399077235E+02  0.14029835797E+04  0.14034288837E+04  0.00000000000E+00 0.  1.
         12    1    5    5    0    0 -0.83780680736E+00 -0.91635905418E+01  0.15498427079E+02  0.18024276789E+02  0.00000000000E+00 0. -1.
         11    1    3    3    0    0 -0.80606828722E+02  0.91992026102E+02 -0.94361685494E+01  0.12267450827E+03  0.00000000000E+00 0. -1.
        -12    1    3    3    0    0  0.48650738739E+00  0.23475551818E+02 -0.39678319528E+02  0.46105392995E+02  0.00000000000E+00 0.  1.
          5    1    4    4  501    0  0.22792508706E+02 -0.99858288936E+02  0.39448867512E+03  0.40759043601E+03  0.41800000000E+01 0.  1.
         -5    1    4    4    0  501  0.50016379035E+02  0.27953378793E+02  0.16097053398E+03  0.17091522684E+03  0.41800000000E+01 0.  1.
</event>
<event>
11    1  0.5813833E-009  0.1522764E+03  0.7561462E-02  0.1094575E+00
         22   -1    0    0    0    0  0.00000000000E+00  0.00000000000E+00  0.10958325674E+04  0.10958325674E+04  0.00000000000E+00 0.  1.
         22   -1    0    0    0    0 -0.00000000000E+00 -0.00000000000E+00 -0.34244247027E+04  0.34244247027E+04  0.00000000000E+00 0.  1.
        -24    2    1    2    0    0  0.23110245130E+02 -0.26697915058E+02 -0.33225157802E+04  0.33236711598E+04  0.80199790505E+02 0.  0.
         25    2    1    2    0    0 -0.69336851402E+02 -0.47222112712E+02 -0.39936504008E+02  0.15581954467E+03  0.12508908529E+03 0.  0.
         24    2    1    2    0    0  0.46226606272E+02  0.73920027770E+02  0.10338601489E+04  0.10407665658E+04  0.82019310488E+02 0.  0.
        -13    1    5    5    0    0  0.64274019740E+02  0.78043509283E+02  0.88750237383E+03  0.89324263362E+03  0.00000000000E+00 0.  1.
         14    1    5    5    0    0 -0.18047413468E+02 -0.41234815130E+01  0.14635777506E+03  0.14752393213E+03  0.00000000000E+00 0. -1.
         13    1    3    3    0    0 -0.15958478102E+02 -0.40599679015E+02 -0.20978204971E+04  0.20982740157E+04  0.00000000000E+00 0. -1.
        -14    1    3    3    0    0  0.39068723232E+02  0.13901763958E+02 -0.12246952831E+04  0.12253971440E+04  0.00000000000E+00 0.  1.
          5    1    4    4  501    0 -0.95403361943E+02 -0.67936934433E+01 -0.47623145288E+02  0.10692704105E+03  0.41800000000E+01 0.  1.
         -5    1    4    4    0  501  0.26066510541E+02 -0.40428419269E+02  0.76866412801E+01  0.48892503623E+02  0.41800000000E+01 0.  1.
</event>
<event>
11    1  0.5813833E-009  0.1475195E+03  0.7561462E-02  0.1099441E+00
         22   -1    0    0    0    0  0.00000000000E+00  0.00000000000E+00  0.16993144493E+04  0.16993144493E+04  0.00000000000E+00 0.  1.
         22   -1    0    0    0    0 -0.00000000000E+00 -0.00000000000E+00 -0.37968184152E+03  0.37968184152E+03  0.00000000000E+00 0. -1.
         24    2    1    2    0    0 -0.73207467164E+02  0.31400296539E+02 -0.35524543181E+03  0.37317620593E+03  0.81950301876E+02 0.  0.
         25    2    1    2    0    0  0.16462623565E+01 -0.49752378746E+02  0.33388939303E+03  0.36001148374E+03  0.12509249490E+03 0.  0.
        -24    2    1    2    0    0  0.71561204808E+02  0.18352082207E+02  0.13409886465E+04  0.13458086011E+04  0.86558857293E+02 0.  0.
        -13    1    3    3    0    0 -0.12442034559E+02  0.39037006009E+01 -0.23745988340E+03  0.23781765983E+03  0.00000000000E+00 0.  1.
         14    1    3    3    0    0 -0.60765432605E+02  0.27496595938E+02 -0.11778554842E+03  0.13535854610E+03  0.00000000000E+00 0. -1.
         11    1    5    5    0    0 -0.11464002908E+02 -0.17753466064E+02  0.37192142542E+03  0.37252134920E+03  0.00000000000E+00 0. -1.
        -12    1    5    5    0    0  0.83025207716E+02  0.36105548271E+02  0.96906722110E+03  0.97328725192E+03  0.00000000000E+00 0.  1.
          5    1    4    4  501    0  0.71640015252E+01  0.41188788829E+02  0.82374448333E+02  0.92470867743E+02  0.41800000000E+01 0. -1.
         -5    1    4    4    0  501 -0.55177391687E+01 -0.90941167576E+02  0.25151494469E+03  0.26754061600E+03  0.41800000000E+01 0. -1.
</event>
<event>
11    1  0.5813833E-009  0.1487810E+03  0.7561462E-02  0.1098131E+00
         22   -1    0    0    0    0  0.00000000000E+00  0.00000000000E+00  0.30889356781E+04  0.30889356781E+04  0.00000000000E+00 0. -1.
         22   -1    0    0    0    0 -0.00000000000E+00 -0.00000000000E+00 -0.14387905867E+03  0.14387905867E+03  0.00000000000E+00 0.  1.
        -24    2    1    2    0    0  0.88108006734E+02  0.27212490910E+02 -0.52066844646E+02  0.13632745625E+03  0.85852655785E+02 0.  0.
         25    2    1    2    0    0 -0.25157372489E+02 -0.69353993076E+02  0.59657661373E+02  0.15699725161E+03  0.12508489400E+03 0.  0.
         24    2    1    2    0    0 -0.62950634245E+02  0.42141502166E+02  0.29374658027E+04  0.29394900289E+04  0.78470373034E+02 0.  0.
        -11    1    5    5    0    0 -0.59808903763E+02  0.30271315312E+02  0.11323092021E+04  0.11342916673E+04  0.00000000000E+00 0.  1.
         12    1    5    5    0    0 -0.31417304818E+01  0.11870186854E+02  0.18051566007E+04  0.18051983616E+04  0.00000000000E+00 0. -1.
         13    1    3    3    0    0  0.63866131144E+02  0.19110115347E+02  0.11650740357E+02  0.67674359744E+02  0.00000000000E+00 0. -1.
        -14    1    3    3    0    0  0.24241875590E+02  0.81023755628E+01 -0.63717585003E+02  0.68653096511E+02  0.00000000000E+00 0.  1.
          5    1    4    4  501    0  0.41672768192E+02 -0.19848204545E+02 -0.11172323943E+02  0.47674564023E+02  0.41800000000E+01 0.  1.
         -5    1    4    4    0  501 -0.66830140681E+02 -0.49505788531E+02  0.70829985315E+02  0.10932268759E+03  0.41800000000E+01 0.  1.
</event>
<event>
11    1  0.5813833E-009  0.1913906E+03  0.7561462E-02  0.1060784E+00
         22   -1    0    0    0    0  0.00000000000E+00  0.00000000000E+00  0.37447796087E+03  0.37447796087E+03  0.00000000000E+00 0.  1.
         22   -1    0    0    0    0 -0.00000000000E+00 -0.00000000000E+00 -0.23261431167E+03  0.23261431167E+03  0.00000000000E+00 0.  1.
         24    2    1    2    0    0 -0.84637473061E+00 -0.75606604740E+01 -0.47659849891E+02  0.94701137809E+02  0.81479839676E+02 0.  0.
         25    2    1    2    0    0  0.66712380387E+02  0.13538840139E+03 -0.67586158366E+02  0.20735427303E+03  0.12508934732E+03 0.  0.
        -24    2    1    2    0    0 -0.65866005657E+02 -0.12782774092E+03  0.25710965746E+03  0.30503686171E+03  0.79144481766E+02 0.  0.
        -11    1    3    3    0    0 -0.90924573938E+00  0.50338997711E+01 -0.69393537077E+02  0.69581821353E+02  0.00000000000E+00 0.  1.
         12    1    3    3    0    0  0.62871008772E-01 -0.12594560245E+02  0.21733687186E+02  0.25119316456E+02  0.00000000000E+00 0. -1.
         13    1    5    5    0    0  0.18148011734E+02 -0.31070412242E+02  0.54596713932E+02  0.65387476010E+02  0.00000000000E+00 0. -1.
        -14    1    5    5    0    0 -0.84014017390E+02 -0.96757328675E+02  0.20251294353E+03  0.23964938570E+03  0.00000000000E+00 0.  1.
          5    1    4    4  501    0  0.63044940247E+02  0.43094052363E+01 -0.34206227790E+02  0.71977592929E+02  0.41800000000E+01 0. -1.
         -5    1    4    4    0  501  0.36674401400E+01  0.13107899616E+03 -0.33379930576E+02  0.13537668010E+03  0.41800000000E+01 0. -1.
</event>
<event>
11    1  0.5813833E-009  0.1328849E+03  0.7561462E-02  0.1115774E+00
         22   -1    0    0    0    0  0.00000000000E+00  0.00000000000E+00  0.12621011151E+04  0.12621011151E+04  0.00000000000E+00 0. -1.
         22   -1    0    0    0    0 -0.00000000000E+00 -0.00000000000E+00 -0.55861354438E+02  0.55861354438E+02  0.00000000000E+00 0. -1.
        -24    2    1    2    0    0  0.84912355114E+01  0.65770730203E+01  0.42939750413E+02  0.91013233166E+02  0.79525011637E+02 0.  0.
         25    2    1    2    0    0  0.16027436121E+02 -0.44012133224E+02  0.12035897836E+03  0.17980696603E+03  0.12510121814E+03 0.  0.
         24    2    1    2    0    0 -0.24518671632E+02  0.37435060204E+02  0.10429410319E+04  0.10471422703E+04  0.82330974475E+02 0.  0.
        -13    1    5    5    0    0  0.20175089385E+02  0.43388281325E+02  0.60360281473E+03  0.60549643694E+03  0.00000000000E+00 0.  1.
         14    1    5    5    0    0 -0.44693761018E+02 -0.59532211211E+01  0.43933821714E+03  0.44164583339E+03  0.00000000000E+00 0. -1.
         13    1    3    3    0    0  0.41836957814E+01  0.14564580783E+02 -0.21297370757E+02  0.26138254053E+02  0.00000000000E+00 0. -1.
        -14    1    3    3    0    0  0.43075397301E+01 -0.79875077625E+01  0.64237121170E+02  0.64874979113E+02  0.00000000000E+00 0.  1.
          5    1    4    4  501    0 -0.13803767756E+02 -0.75835618146E+01 -0.23378160687E+02  0.28496757906E+02  0.41800000000E+01 0. -1.
         -5    1    4    4    0  501  0.29831203876E+02 -0.36428571409E+02  0.14373713905E+03  0.15131020812E+03  0.41800000000E+01 0. -1.
</event>
<event>
11    1  0.5813833E-009  0.2210028E+03  0.7561462E-02  0.1040591E+00
         22   -1    0    0    0    0  0.00000000000E+00  0.00000000000E+00  0.25387509974E+03  0.25387509974E+03  0.00000000000E+00 0. -1.
         22   -1    0    0    0    0 -0.00000000000E+00 -0.00000000000E+00 -0.13174733932E+04  0.13174733932E+04  0.00000000000E+00 0. -1.
         24    2    1    2    0    0 -0.64421945068E+02 -0.13499051501E+03 -0.95707818694E+03  0.97201978477E+03  0.80319237561E+02 0.  0.
         25    2    1    2    0    0 -0.12513568635E+03  0.14322786673E+03 -0.25733104600E+03  0.34357065489E+03  0.12509342853E+03 0.  0.
        -24    2    1    2    0    0  0.18955763141E+03 -0.82373517195E+01  0.15081093944E+03  0.25575805332E+03  0.81659615443E+02 0.  0.
        -13    1    3    3    0    0  0.64065109207E+00 -0.67415773862E+02 -0.25746044385E+03  0.26614127291E+03  0.00000000000E+00 0.  1.
         14    1    3    3    0    0 -0.65062596160E+02 -0.67574741146E+02 -0.69961774309E+03  0.70587851186E+03  0.00000000000E+00 0. -1.
         13    1    5    5    0    0  0.63884283279E+02 -0.41863956294E+02  0.59436061402E+02  0.96780358966E+02  0.00000000000E+00 0. -1.
        -14    1    5    5    0    0  0.12567334813E+03  0.33626604574E+02  0.91374878036E+02  0.15897769436E+03  0.00000000000E+00 0.  1.
          5    1    4    4  501    0 -0.47339096444E+02  0.77941966093E+02 -0.32622445761E+02  0.96941407551E+02  0.41800000000E+01 0.  1.
         -5    1    4    4    0  501 -0.77796589902E+02  0.65285900635E+02 -0.22470860023E+03  0.24662924734E+03  0.41800000000E+01 0.  1.
</event>
<event>
11    1  0.5813833E-009  0.1643051E+03  0.7561462E-02  0.1083097E+00
         22   -1    0    0    0    0  0.00000000000E+00  0.00000000000E+00  0.32708303346E+03  0.32708303346E+03  0.00000000000E+00 0.  1.
         22   -1    0    0    0    0 -0.00000000000E+00 -0.00000000000E+00 -0.64191481750E+03  0.64191481750E+03  0.00000000000E+00 0.  1.
        -24    2    1    2    0    0 -0.10061753868E+02  0.29763947435E+02 -0.44149083588E+03  0.44988836717E+03  0.80611744146E+02 0.  0.
         25    2    1    2    0    0 -0.34137034452E+02 -0.12468266117E+03 -0.13578913542E+03  0.22538222727E+03  0.12508939185E+03 0.  0.
         24    2    1    2    0    0  0.44198788321E+02  0.94918713738E+02  0.26244818726E+03  0.29372725652E+03  0.80209445335E+02 0.  0.
        -13    1    5    5    0    0  0.27511214380E+02 -0.32343579889E+01  0.94599047041E+02  0.98571333000E+02  0.00000000000E+00 0.  1.
         14    1    5    5    0    0  0.16687573941E+02  0.98153071727E+02  0.16784914022E+03  0.19515592352E+03  0.00000000000E+00 0. -1.
         11    1    3    3    0    0  0.18099853861E+02 -0.96722883949E+01 -0.35415787263E+02  0.40932088391E+02  0.00000000000E+00 0. -1.
        -12    1    3    3    0    0 -0.28161607730E+02  0.39436235829E+02 -0.40607504862E+03  0.40895627878E+03  0.00000000000E+00 0.  1.
          5    1    4    4  501    0  0.32501132453E+02 -0.72414648028E+02 -0.20171675731E+02  0.82003498471E+02  0.41800000000E+01 0.  1.
         -5    1    4    4    0  501 -0.66638166905E+02 -0.52268013145E+02 -0.11561745969E+03  0.14337872880E+03  0.41800000000E+01 0.  1.
</event>
<event>
11    1  0.5813833E-009  0.2411840E+03  0.7561462E-02  0.1028703E+00
         22   -1    0    0    0    0  0.00000000000E+00  0.00000000000E+00  0.17102462206E+04  0.17102462206E+04  0.00000000000E+00 0.  1.
         22   -1    0    0    0    0 -0.00000000000E+00 -0.00000000000E+00 -0.10247109537E+03  0.10247109537E+03  0.00000000000E+00 0.  1.
        -24    2    1    2    0    0 -0.71035590831E+02  0.54978477892E+02 -0.53219271151E+01  0.11869908782E+03  0.77410996274E+02 0.  0.
         25    2    1    2    0    0 -0.14792287264E+03 -0.91685486782E+02  0.36061322757E+03  0.41950154578E+03  0.12510892165E+03 0.  0.
         24    2    1    2    0    0  0.21895846347E+03  0.36707008890E+02  0.12524838247E+04  0.12745166823E+04  0.79917639368E+02 0.  0.
        -11    1    5    5    0    0  0.88694761444E+02  0.52749504305E+02  0.48064257391E+03  0.49159592631E+03  0.00000000000E+00 0.  1.
         12    1    5    5    0    0  0.13026370203E+03 -0.16042495415E+02  0.77184125084E+03  0.78292075603E+03  0.00000000000E+00 0. -1.
         11    1    3    3    0    0 -0.13770905832E+02  0.58708772078E+02  0.45355823241E+01  0.60472549751E+02  0.00000000000E+00 0. -1.
        -12    1    3    3    0    0 -0.57264684998E+02 -0.37302941864E+01 -0.98575094392E+01  0.58226538065E+02  0.00000000000E+00 0.  1.
          5    1    4    4  501    0 -0.47121549599E+02 -0.98602710896E+02  0.14758102937E+03  0.18368605735E+03  0.41800000000E+01 0.  1.
         -5    1    4    4    0  501 -0.10080132304E+03  0.69172241138E+01  0.21303219820E+03  0.23581548843E+03  0.41800000000E+01 0.  1.
</event>
<event>
11    1  0.5813833E-009  0.1284941E+03  0.7561462E-02  0.1121133E+00
         22   -1    0    0    0    0  0.00000000000E+00  0.00000000000E+00  0.30732542288E+03  0.30732542288E+03  0.00000000000E+00 0.  1.
         22   -1    0    0    0    0 -0.00000000000E+00 -0.00000000000E+00 -0.11631916015E+04  0.11631916015E+04  0.00000000000E+00 0. -1.
        -24    2    1    2    0    0 -0.35307333542E+02 -0.54820009023E+01 -0.10084889591E+04  0.10123696363E+04  0.81028635408E+02 0.  0.
         25    2    1    2    0    0  0.59843639810E+02 -0.78046903524E+01 -0.11165903552E+03  0.17820602827E+03  0.12508986323E+03 0.  0.
         24    2    1    2    0    0 -0.24536306268E+02  0.13286691255E+02  0.26428181594E+03  0.27994135986E+03  0.87998410413E+02 0.  0.
        -13    1    5    5    0    0 -0.35573890339E+02  0.44600769520E+02  0.13708290181E+03  0.14848047779E+03  0.00000000000E+00 0.  1.
         14    1    5    5    0    0  0.11037584071E+02 -0.31314078266E+02  0.12719891413E+03  0.13146088207E+03  0.00000000000E+00 0. -1.
         11    1    3    3    0    0 -0.56994575846E+02 -0.18410016662E+02 -0.56580678874E+03  0.56896804178E+03  0.00000000000E+00 0. -1.
        -12    1    3    3    0    0  0.21687242304E+02  0.12928015759E+02 -0.44268217032E+03  0.44340159448E+03  0.00000000000E+00 0.  1.
          5    1    4    4  501    0  0.24541260354E+02  0.30280126632E+01 -0.13300524205E+03  0.13534884238E+03  0.41800000000E+01 0. -1.
         -5    1    4    4    0  501  0.35302379456E+02 -0.10832703016E+02  0.21346206525E+02  0.42857185896E+02  0.41800000000E+01 0. -1.
</event>
<event>
11    1  0.5813833E-009  0.1538891E+03  0.7561462E-02  0.1092970E+00
         22   -1    0    0    0    0  0.00000000000E+00  0.00000000000E+00  0.19033922245E+03  0.19033922245E+03  0.00000000000E+00 0. -1.
         22   -1    0    0    0    0 -0.00000000000E+00 -0.00000000000E+00 -0.15938174957E+04  0.15938174957E+04  0.00000000000E+00 0.  1.
         24    2    1    2    0    0  0.85925811187E+02 -0.56937437387E+01 -0.12496939660E+04  0.12552087741E+04  0.79989962253E+02 0.  0.
         25    2    1    2    0    0 -0.11738099769E+03  0.24331102639E+02 -0.30509011540E+03  0.35085154062E+03  0.12508606584E+03 0.  0.
        -24    2    1    2    0    0  0.31455186504E+02 -0.18637358901E+02  0.15130580818E+03  0.17809640344E+03  0.86533816664E+02 0.  0.
        -13    1    3    3    0    0  0.26959452500E+02 -0.35026562036E+02 -0.30056804107E+03  0.30380062449E+03  0.00000000000E+00 0.  1.
         14    1    3    3    0    0  0.58966358687E+02  0.29332818298E+02 -0.94912592493E+03  0.95140814956E+03  0.00000000000E+00 0. -1.
         11    1    5    5    0    0 -0.12898390777E+02  0.86004664825E+01  0.11149461404E+03  0.11256724865E+03  0.00000000000E+00 0. -1.
        -12    1    5    5    0    0  0.44353577282E+02 -0.27237825383E+02  0.39811194134E+02  0.65529154791E+02  0.00000000000E+00 0.  1.
          5    1    4    4  501    0 -0.50437264661E+02  0.61599493066E+00 -0.15920168236E+02  0.53058658793E+02  0.41800000000E+01 0. -1.
         -5    1    4    4    0  501 -0.66943733030E+02  0.23715107709E+02 -0.28916994716E+03  0.29779288183E+03  0.41800000000E+01 0. -1.
</event>
<event>
11    1  0.5813833E-009  0.1589464E+03  0.7561462E-02  0.1088072E+00
         22   -1    0    0    0    0  0.00000000000E+00  0.00000000000E+00  0.46026417674E+03  0.46026417674E+03  0.00000000000E+00 0. -1.
         22   -1    0    0    0    0 -0.00000000000E+00 -0.00000000000E+00 -0.33982991963E+03  0.33982991963E+03  0.00000000000E+00 0. -1.
        -24    2    1    2    0    0 -0.25040859528E+02 -0.13434283735E+02 -0.28805965673E+03  0.30028283268E+03  0.79899243697E+02 0.  0.
         25    2    1    2    0    0  0.14090217510E+01  0.10484821310E+03  0.23105378473E+03  0.28289377950E+03  0.12509159009E+03 0.  0.
         24    2    1    2    0    0  0.23631837777E+02 -0.91413929366E+02  0.17744012911E+03  0.21691748418E+03  0.81567305263E+02 0.  0.
        -13    1    5    5    0    0  0.52173838163E+02 -0.61666471599E+02  0.94662819478E+02  0.12444240636E+03  0.00000000000E+00 0.  1.
         14    1    5    5    0    0 -0.28542000387E+02 -0.29747457767E+02  0.82777309630E+02  0.92475077828E+02  0.00000000000E+00 0. -1.
         13    1    3    3    0    0  0.74533463019E+01  0.29571718839E+02 -0.90397956171E+02  0.95403508353E+02  0.00000000000E+00 0. -1.
        -14    1    3    3    0    0 -0.32494205830E+02 -0.43006002574E+02 -0.19766170056E+03  0.20487932433E+03  0.00000000000E+00 0.  1.
          5    1    4    4  501    0  0.29717319681E+01  0.12175409499E+03  0.23522580181E+03  0.26491798933E+03  0.41800000000E+01 0.  1.
         -5    1    4    4    0  501 -0.15627102171E+01 -0.16905881890E+02 -0.41720170781E+01  0.17975790169E+02  0.41800000000E+01 0.  1.
</event>
<event>
11    1  0.5813833E-009  0.1414272E+03  0.7561462E-02  0.1105975E+00
         22   -1    0    0    0    0  0.00000000000E+00  0.00000000000E+00  0.33060803419E+03  0.33060803419E+03  0.00000000000E+00 0. -1.
         22   -1    0    0    0    0 -0.00000000000E+00 -0.00000000000E+00 -0.86332930953E+03  0.86332930953E+03  0.00000000000E+00 0.  1.
         24    2    1    2    0    0 -0.24966874442E+02  0.27863729905E+02 -0.80438178477E+03  0.80924265765E+03  0.80273850214E+02 0.  0.
         25    2    1    2    0    0 -0.73758407996E+01 -0.81846439103E+02  0.84578745856E+02  0.17192850752E+03  0.12511037058E+03 0.  0.
        -24    2    1    2    0    0  0.32342715241E+02  0.53982709198E+02  0.18708176358E+03  0.21276617854E+03  0.79433471194E+02 0.  0.
        -11    1    3    3    0    0 -0.49580906931E+02  0.13520117319E+02 -0.66479514841E+03  0.66677856089E+03  0.00000000000E+00 0.  1.
         12    1    3    3    0    0  0.24614032489E+02  0.14343612585E+02 -0.13958663636E+03  0.14246409676E+03  0.00000000000E+00 0. -1.
         11    1    5    5    0    0  0.46566799431E+02  0.59688173728E+02  0.18115009021E+03  0.19633262611E+03  0.00000000000E+00 0. -1.
        -12    1    5    5    0    0 -0.14224084190E+02 -0.57054645299E+01  0.59316733680E+01  0.16433552431E+02  0.00000000000E+00 0.  1.
          5    1    4    4  501    0 -0.53850000469E+02 -0.75349723722E+02  0.25089085682E+02  0.96043417452E+02  0.41800000000E+01 0.  1.
         -5    1    4    4    0  501  0.46474159670E+02 -0.64967153811E+01  0.59489660174E+02  0.75885090073E+02  0.41800000000E+01 0.  1.
</event>
<event>
11    1  0.5813833E-009  0.1538872E+03  0.7561462E-02  0.1092972E+00
         22   -1    0    0    0    0  0.00000000000E+00  0.00000000000E+00  0.10508737615E+03  0.10508737615E+03  0.00000000000E+00 0.  1.
         22   -1    0    0    0    0 -0.00000000000E+00 -0.00000000000E+00 -0.96974242168E+03  0.96974242168E+03  0.00000000000E+00 0.  1.
         24    2    1    2    0    0 -0.25426086049E+02 -0.14202752860E+02 -0.76512904401E+03  0.76965333771E+03  0.78074337726E+02 0.  0.
         25    2    1    2    0    0  0.98923681808E+02 -0.27280455368E+02 -0.89572134123E+02  0.18493434265E+03  0.12508967108E+03 0.  0.
        -24    2    1    2    0    0 -0.73497595759E+02  0.41483208228E+02 -0.99538674000E+01  0.12024211748E+03  0.85066645599E+02 0.  0.
        -13    1    3    3    0    0  0.72675448213E+01 -0.24191185260E+02 -0.62146130535E+03  0.62197442448E+03  0.00000000000E+00 0.  1.
         14    1    3    3    0    0 -0.32693630870E+02  0.99884324007E+01 -0.14366773866E+03  0.14767891323E+03  0.00000000000E+00 0. -1.
         11    1    5    5    0    0  0.68880986528E+01 -0.37830155260E+00 -0.27132699382E+02  0.27995935257E+02  0.00000000000E+00 0. -1.
        -12    1    5    5    0    0 -0.80385694411E+02  0.41861509781E+02  0.17178831982E+02  0.92246182227E+02  0.00000000000E+00 0.  1.
          5    1    4    4  501    0  0.39058239933E+02  0.50187652463E+02 -0.32662942576E+02  0.71614850305E+02  0.41800000000E+01 0.  1.
         -5    1    4    4    0  501  0.59865441874E+02 -0.77468107832E+02 -0.56909191547E+02  0.11331949234E+03  0.41800000000E+01 0.  1.
</event>
<event>
11    1  0.5813833E-009  0.1333613E+03  0.7561462E-02  0.1115207E+00
         22   -1    0    0    0    0  0.00000000000E+00  0.00000000000E+00  0.17780295744E+04  0.17780295744E+04  0.00000000000E+00 0.  1.
         22   -1    0    0    0    0 -0.00000000000E+00 -0.00000000000E+00 -0.83950447789E+02  0.83950447789E+02  0.00000000000E+00 0. -1.
         24    2    1    2    0    0  0.44527836991E+02  0.34788294257E+00 -0.29450087118E+02  0.96700290895E+02  0.80627472602E+02 0.  0.
         25    2    1    2    0    0 -0.58565454185E+02  0.90176421323E+01  0.22246736391E+03  0.26201056510E+03  0.12508628194E+03 0.  0.
        -24    2    1    2    0    0  0.14037617194E+02 -0.93655250749E+01  0.15010618499E+04  0.15032691662E+04  0.79666437531E+02 0.  0.
        -11    1    3    3    0    0  0.67439251717E+02  0.80854418478E+01 -0.21980683953E+02  0.71390318034E+02  0.00000000000E+00 0.  1.
         12    1    3    3    0    0 -0.22911414726E+02 -0.77375589052E+01 -0.74694031650E+01  0.25309972860E+02  0.00000000000E+00 0. -1.
         13    1    5    5    0    0  0.32959427665E+02 -0.34742549731E+01  0.26711420731E+03  0.26916239348E+03  0.00000000000E+00 0. -1.
        -14    1    5    5    0    0 -0.18921810471E+02 -0.58912701018E+01  0.12339476425E+04  0.12341067727E+04  0.00000000000E+00 0.  1.
          5    1    4    4  501    0 -0.87370028186E+02  0.66314908825E+01  0.87427180708E+02  0.12384862867E+03  0.41800000000E+01 0.  1.
         -5    1    4    4    0  501  0.28804574002E+02  0.23861512498E+01  0.13504018320E+03  0.13816193643E+03  0.41800000000E+01 0.  1.
</event>
<event>
11    1  0.5813833E-009  0.2593537E+03  0.7561462E-02  0.1019031E+00
         22   -1    0    0    0    0  0.00000000000E+00  0.00000000000E+00  0.68930818211E+03  0.68930818211E+03  0.00000000000E+00 0.  1.
         22   -1    0    0    0    0 -0.00000000000E+00 -0.00000000000E+00 -0.21179301047E+03  0.21179301047E+03  0.00000000000E+00 0. -1.
        -24    2    1    2    0    0 -0.46690691939E+02 -0.45458895236E+02 -0.73775878027E+02  0.12721802101E+03  0.80591642376E+02 0.  0.
         25    2    1    2    0    0  0.26004958862E+03  0.23403753826E+02  0.18746988834E+03  0.34491493298E+03  0.12509127758E+03 0.  0.
         24    2    1    2    0    0 -0.21335889668E+03  0.22055141410E+02  0.36382116133E+03  0.42896823860E+03  0.75096366366E+02 0.  0.
        -11    1    5    5    0    0 -0.12499168311E+03  0.46313031704E+02  0.24502712854E+03  0.27893746875E+03  0.00000000000E+00 0.  1.
         12    1    5    5    0    0 -0.88367213562E+02 -0.24257890294E+02  0.11879403279E+03  0.15003076985E+03  0.00000000000E+00 0. -1.
         13    1    3    3    0    0 -0.43469319798E+02  0.75271861029E+01 -0.55886637572E+02  0.71200818488E+02  0.00000000000E+00 0. -1.
        -14    1    3    3    0    0 -0.32213721415E+01 -0.52986081339E+02 -0.17889240455E+02  0.56017202520E+02  0.00000000000E+00 0.  1.
          5    1    4    4  501    0  0.14630209305E+03  0.70306843846E+02  0.77833800764E+02  0.18006367669E+03  0.41800000000E+01 0.  1.
         -5    1    4    4    0  501  0.11374749556E+03 -0.46903090020E+02  0.10963608757E+03  0.16485125628E+03  0.41800000000E+01 0.  1.
</event>
<event>
11    1  0.5813833E-009  0.1326567E+03  0.7561462E-02  0.1116047E+00
         22   -1    0    0    0    0  0.00000000000E+00  0.00000000000E+00  0.11301029946E+04  0.11301029946E+04  0.00000000000E+00 0. -1.
         22   -1    0    0    0    0 -0.00000000000E+00 -0.00000000000E+00 -0.65826923230E+02  0.65826923230E+02  0.00000000000E+00 0. -1.
        -24    2    1    2    0    0 -0.13244515013E+02  0.17023641953E+02  0.11057634792E+02  0.86361058002E+02  0.82889923928E+02 0.  0.
         25    2    1    2    0    0  0.14325893877E+02  0.28484817915E+02  0.13531723238E+03  0.18701693240E+03  0.12509182043E+03 0.  0.
         24    2    1    2    0    0 -0.10813788644E+01 -0.45508459868E+02  0.91790120424E+03  0.92255192746E+03  0.80543459226E+02 0.  0.
        -13    1    5    5    0    0  0.22983111272E+02 -0.36733864431E+02  0.22255154613E+03  0.22673065713E+03  0.00000000000E+00 0.  1.
         14    1    5    5    0    0 -0.24064490136E+02 -0.87745954375E+01  0.69534965811E+03  0.69582127033E+03  0.00000000000E+00 0. -1.
         11    1    3    3    0    0 -0.44450413217E+02 -0.61612508764E+01  0.14927122492E+02  0.47292908912E+02  0.00000000000E+00 0. -1.
        -12    1    3    3    0    0  0.31205898204E+02  0.23184892829E+02 -0.38694877002E+01  0.39068149090E+02  0.00000000000E+00 0.  1.
          5    1    4    4  501    0  0.53008649534E+01 -0.14053806876E+01 -0.23816804592E+02  0.24794895545E+02  0.41800000000E+01 0. -1.
         -5    1    4    4    0  501  0.90250289236E+01  0.29890198603E+02  0.15913403697E+03  0.16222203686E+03  0.41800000000E+01 0. -1.
</event>
<event>
11    1  0.5813833E-009  0.1621048E+03  0.7561462E-02  0.1085114E+00
         22   -1    0    0    0    0  0.00000000000E+00  0.00000000000E+00  0.28793696047E+04  0.28793696047E+04  0.00000000000E+00 0.  1.
         22   -1    0    0    0    0 -0.00000000000E+00 -0.00000000000E+00 -0.49251661376E+03  0.49251661376E+03  0.00000000000E+00 0.  1.
        -24    2    1    2    0    0  0.23421985830E+02  0.21557063733E+00 -0.46987175300E+03  0.47734670914E+03  0.80819431881E+02 0.  0.
         25    2    1    2    0    0 -0.50084654984E+02  0.98805022730E+02  0.38888119329E+03  0.42325792024E+03  0.12509108430E+03 0.  0.
         24    2    1    2    0    0  0.26662669154E+02 -0.99020593367E+02  0.24678435506E+04  0.24712815891E+04  0.80404764545E+02 0.  0.
        -11    1    5    5    0    0  0.18930640057E+02 -0.11281176808E+03  0.21999078195E+04  0.22028797694E+04  0.00000000000E+00 0.  1.
         12    1    5    5    0    0  0.77320290970E+01  0.13791174717E+02  0.26793573110E+03  0.26840181962E+03  0.00000000000E+00 0. -1.
         11    1    3    3    0    0  0.38305971721E+02  0.13860156310E+01 -0.98804631780E+02  0.10597935540E+03  0.00000000000E+00 0. -1.
        -12    1    3    3    0    0 -0.14883985891E+02 -0.11704449937E+01 -0.37106712122E+03  0.37136735375E+03  0.00000000000E+00 0.  1.
          5    1    4    4  501    0 -0.20395861151E+02  0.36658339836E+02  0.17708723608E+02  0.45726319811E+02  0.41800000000E+01 0. -1.
         -5    1    4    4    0  501 -0.29688793833E+02  0.62146682893E+02  0.37117246968E+03  0.37753160043E+03  0.41800000000E+01 0. -1.
</event>
<event>
11    1  0.5813833E-009  0.1294416E+03  0.7561462E-02  0.1119957E+00
         22   -1    0    0    0    0  0.00000000000E+00  0.00000000000E+00  0.13288434885E+04  0.13288434885E+04  0.00000000000E+00 0. -1.
         22   -1    0    0    0    0 -0.00000000000E+00 -0.00000000000E+00 -0.17350517817E+04  0.17350517817E+04  0.00000000000E+00 0.  1.
        -24    2    1    2    0    0 -0.30708536528E+02 -0.11004820510E+02 -0.16381537637E+04  0.16412319936E+04  0.95029378196E+02 0.  0.
         25    2    1    2    0    0  0.68580447090E+02 -0.24228455151E+02 -0.37859822937E+02  0.14956992119E+03  0.12508996510E+03 0.  0.
         24    2    1    2    0    0 -0.37871910563E+02  0.35233275661E+02  0.12698052935E+04  0.12730933554E+04  0.75402539000E+02 0.  0.
        -13    1    5    5    0    0  0.67680212704E+01 -0.14777619237E+02  0.53219067227E+03  0.53243881883E+03  0.00000000000E+00 0.  1.
         14    1    5    5    0    0 -0.44639931833E+02  0.50010894898E+02  0.73761462122E+03  0.74065453659E+03  0.00000000000E+00 0. -1.
         13    1    3    3    0    0  0.14232711026E+02  0.10688612158E+02 -0.68172761073E+02  0.70458085734E+02  0.00000000000E+00 0. -1.
        -14    1    3    3    0    0 -0.44941247554E+02 -0.21693432668E+02 -0.15699810027E+04  0.15707739078E+04  0.00000000000E+00 0.  1.
          5    1    4    4  501    0  0.96060765656E+02 -0.14567553990E+02 -0.58625816516E+02  0.11355326103E+03  0.41800000000E+01 0. -1.
         -5    1    4    4    0  501 -0.27480318566E+02 -0.96609011613E+01  0.20765993579E+02  0.36016660160E+02  0.41800000000E+01 0. -1.
</event>
<event>
11    1  0.5813833E-009  0.1661471E+03  0.7561462E-02  0.1081434E+00
         22   -1    0    0    0    0  0.00000000000E+00  0.00000000000E+00  0.28518499498E+04  0.28518499498E+04  0.00000000000E+00 0.  1.
         22   -1    0    0    0    0 -0.00000000000E+00 -0.00000000000E+00 -0.89337605694E+03  0.89337605694E+03  0.00000000000E+00 0. -1.
        -24    2    1    2    0    0  0.45728880629E+02 -0.13414901302E+02 -0.78978297521E+03  0.79561626649E+03  0.83528470986E+02 0.  0.
         25    2    1    2    0    0 -0.15424986730E+03  0.10047013965E+02  0.95750435317E+00  0.19885171795E+03  0.12508846816E+03 0.  0.
         24    2    1    2    0    0  0.10852098667E+03  0.33678873371E+01  0.27472993637E+04  0.27507580223E+04  0.85016211217E+02 0.  0.
        -13    1    5    5    0    0  0.92511438519E+02 -0.30423264410E+02  0.22197162214E+04  0.22218514903E+04  0.00000000000E+00 0.  1.
         14    1    5    5    0    0  0.16009548152E+02  0.33791151747E+02  0.52758314229E+03  0.52890653200E+03  0.00000000000E+00 0. -1.
         11    1    3    3    0    0  0.42107177492E+01  0.32980809652E+02 -0.32088195851E+03  0.32259989964E+03  0.00000000000E+00 0. -1.
        -12    1    3    3    0    0  0.41518162879E+02 -0.46395710954E+02 -0.46890101670E+03  0.47301636685E+03  0.00000000000E+00 0.  1.
          5    1    4    4  501    0 -0.13730439047E+03  0.15862751619E+02 -0.48139928034E+02  0.14642078952E+03  0.41800000000E+01 0.  1.
         -5    1    4    4    0  501 -0.16945476828E+02 -0.58157376545E+01  0.49097432387E+02  0.52430928433E+02  0.41800000000E+01 0.  1.
</event>
<event>
11    1  0.5813833E-009  0.1297535E+03  0.7561462E-02  0.1119572E+00
         22   -1    0    0    0    0  0.00000000000E+00  0.00000000000E+00  0.10839155288E+03  0.10839155288E+03  0.00000000000E+00 0. -1.
         22   -1    0    0    0    0 -0.00000000000E+00 -0.00000000000E+00 -0.25678167983E+04  0.25678167983E+04  0.00000000000E+00 0.  1.
        -24    2    1    2    0    0 -0.11194891721E+01 -0.33872862672E+02 -0.23563926610E+04  0.23579800488E+04  0.79592169338E+02 0.  0.
         25    2    1    2    0    0 -0.57938578334E+01  0.52409398056E+02 -0.16610674479E+03  0.21452119479E+03  0.12509028163E+03 0.  0.
         24    2    1    2    0    0  0.69133470054E+01 -0.18536535384E+02  0.63074160398E+02  0.10370710761E+03  0.79908803942E+02 0.  0.
        -11    1    5    5    0    0 -0.13101483232E+02 -0.42503123644E+01 -0.15874766496E+02  0.21017188903E+02  0.00000000000E+00 0.  1.
         12    1    5    5    0    0  0.20014830237E+02 -0.14286223020E+02  0.78948926894E+02  0.82689918704E+02  0.00000000000E+00 0. -1.
         13    1    3    3    0    0  0.14077012552E+02  0.22373918068E+02 -0.97684380947E+03  0.97720140329E+03  0.00000000000E+00 0. -1.
        -14    1    3    3    0    0 -0.15196501724E+02 -0.56246780740E+02 -0.13795488516E+04  0.13807786455E+04  0.00000000000E+00 0.  1.
          5    1    4    4  501    0  0.21162278273E+02  0.66466359276E+02 -0.16979592986E+03  0.18361304184E+03  0.41800000000E+01 0.  1.
         -5    1    4    4    0  501 -0.26956136107E+02 -0.14056961220E+02  0.36891850679E+01  0.30908152954E+02  0.41800000000E+01 0.  1.
</event>
<event>
11    1  0.5813833E-009  0.1562937E+03  0.7561462E-02  0.1090616E+00
         22   -1    0    0    0    0  0.00000000000E+00  0.00000000000E+00  0.33553796793E+03  0.33553796793E+03  0.00000000000E+00 0.  1.
         22   -1    0    0    0    0 -0.00000000000E+00 -0.00000000000E+00 -0.18444016947E+03  0.18444016947E+03  0.00000000000E+00 0. -1.
         24    2    1    2    0    0 -0.29123962840E+02 -0.80055533837E+02 -0.78259928860E+02  0.14092390891E+03  0.80485016795E+02 0.  0.
         25    2    1    2    0    0  0.14725300510E+02  0.13121751943E+03  0.68063281268E+02  0.19420354848E+03  0.12509011193E+03 0.  0.
        -24    2    1    2    0    0  0.14398662330E+02 -0.51161985598E+02  0.16129444606E+03  0.18485068001E+03  0.73000036462E+02 0.  0.
        -13    1    3    3    0    0  0.17439671468E+02 -0.44117470040E+02 -0.65267561853E+02  0.80686727123E+02  0.00000000000E+00 0.  1.
         14    1    3    3    0    0 -0.46563634308E+02 -0.35938063797E+02 -0.12992367007E+02  0.60237181789E+02  0.00000000000E+00 0. -1.
         11    1    5    5    0    0 -0.24556975111E+02 -0.78541561205E+01  0.22094994252E+02  0.33954698732E+02  0.00000000000E+00 0. -1.
        -12    1    5    5    0    0  0.38955637441E+02 -0.43307829477E+02  0.13919945181E+03  0.15089598128E+03  0.00000000000E+00 0.  1.
          5    1    4    4  501    0 -0.38336607839E+02  0.88229285586E+02  0.79461305389E+02  0.12484259606E+03  0.41800000000E+01 0. -1.
         -5    1    4    4    0  501  0.53061908349E+02  0.42988233848E+02 -0.11398024121E+02  0.69360952422E+02  0.41800000000E+01 0. -1.
</event>
<event>
11    1  0.5813833E-009  0.1874876E+03  0.7561462E-02  0.1063742E+00
         22   -1    0    0    0    0  0.00000000000E+00  0.00000000000E+00  0.69094246306E+03  0.69094246306E+03  0.00000000000E+00 0.  1.
         22   -1    0    0    0    0 -0.00000000000E+00 -0.00000000000E+00 -0.22379717800E+03  0.22379717800E+03  0.00000000000E+00 0.  1.
        -24    2    1    2    0    0  0.47794310510E+01 -0.13674017257E+03 -0.67843325179E+02  0.17341191223E+03  0.82147774024E+02 0.  0.
         25    2    1    2    0    0 -0.95625895339E+02  0.13260031285E+03  0.13810366379E+02  0.20631377472E+03  0.12508993802E+03 0.  0.
         24    2    1    2    0    0  0.90846464288E+02  0.41398597259E+01  0.52117824386E+03  0.53501395411E+03  0.79642643764E+02 0.  0.
        -13    1    5    5    0    0  0.65141468167E+02  0.51559826418E+01  0.49112966430E+03  0.49545770978E+03  0.00000000000E+00 0.  1.
         14    1    5    5    0    0  0.25704996121E+02 -0.10161229159E+01  0.30048579566E+02  0.39556244327E+02  0.00000000000E+00 0. -1.
         13    1    3    3    0    0  0.78031496466E+01 -0.81502194721E+02  0.49016675976E+01  0.82021480320E+02  0.00000000000E+00 0. -1.
        -14    1    3    3    0    0 -0.30237185956E+01 -0.55237977851E+02 -0.72744992777E+02  0.91390431913E+02  0.00000000000E+00 0.  1.
          5    1    4    4  501    0 -0.59541394422E+02  0.56280707108E+02  0.67450647565E+02  0.10620620462E+03  0.41800000000E+01 0. -1.
         -5    1    4    4    0  501 -0.36084500917E+02  0.76319605738E+02 -0.53640281186E+02  0.10010757010E+03  0.41800000000E+01 0. -1.
</event>
<event>
11    1  0.5813833E-009  0.1459879E+03  0.7561462E-02  0.1101050E+00
         22   -1    0    0    0    0  0.00000000000E+00  0.00000000000E+00  0.17084172611E+03  0.17084172611E+03  0.00000000000E+00 0. -1.
         22   -1    0    0    0    0 -0.00000000000E+00 -0.00000000000E+00 -0.43199834392E+03  0.43199834392E+03  0.00000000000E+00 0. -1.
        -24    2    1    2    0    0 -0.46292049151E+02  0.86150340422E+02 -0.22198496065E+03  0.25662379250E+03  0.83747317277E+02 0.  0.
         25    2    1    2    0    0  0.17813321444E+02 -0.38816733637E+02 -0.14910052771E+03  0.19925410115E+03  0.12508867347E+03 0.  0.
         24    2    1    2    0    0  0.28478727707E+02 -0.47333606786E+02  0.10992887055E+03  0.14696217638E+03  0.80386668321E+02 0.  0.
        -11    1    5    5    0    0 -0.17326431470E+02 -0.63666133113E+01 -0.27035230573E+01  0.18656045387E+02  0.00000000000E+00 0.  1.
         12    1    5    5    0    0  0.45805159178E+02 -0.40966993474E+02  0.11263239361E+03  0.12830613100E+03  0.00000000000E+00 0. -1.
         13    1    3    3    0    0  0.28818595053E+01  0.78834033260E+02 -0.14224760412E+03  0.16265758756E+03  0.00000000000E+00 0. -1.
        -14    1    3    3    0    0 -0.49173908657E+02  0.73163071622E+01 -0.79737356532E+02  0.93966204935E+02  0.00000000000E+00 0.  1.
          5    1    4    4  501    0 -0.22121908829E+02 -0.37536958507E+02 -0.15276647182E+03  0.15891340225E+03  0.41800000000E+01 0. -1.
         -5    1    4    4    0  501  0.39935230273E+02 -0.12797751299E+01  0.36659441091E+01  0.40340698897E+02  0.41800000000E+01 0. -1.
</event>
<event>
11    1  0.5813833E-009  0.1897923E+03  0.7561462E-02  0.1061986E+00
         22   -1    0    0    0    0  0.00000000000E+00  0.00000000000E+00  0.13759906669E+03  0.13759906669E+03  0.00000000000E+00 0.  1.
         22   -1    0    0    0    0 -0.00000000000E+00 -0.00000000000E+00 -0.16059901260E+04  0.16059901260E+04  0.00000000000E+00 0. -1.
         24    2    1    2    0    0  0.15159463049E+03  0.55262426348E+02 -0.13628186057E+04  0.13748243814E+04  0.82659904884E+02 0.  0.
         25    2    1    2    0    0 -0.44913255831E+02 -0.53279172289E+02 -0.16877161621E+03  0.22133116422E+03  0.12509098717E+03 0.  0.
        -24    2    1    2    0    0 -0.10668137466E+03 -0.19832540589E+01  0.63199162581E+02  0.14743364709E+03  0.79735168818E+02 0.  0.
        -11    1    3    3    0    0  0.33698090616E+02  0.32516919037E+02 -0.18242176635E+03  0.18833643347E+03  0.00000000000E+00 0.  1.
         12    1    3    3    0    0  0.11789653987E+03  0.22745507311E+02 -0.11803968394E+04  0.11864879479E+04  0.00000000000E+00 0. -1.
         11    1    5    5    0    0 -0.80607372990E+02 -0.36325353948E+02  0.31273844065E+02  0.93782371704E+02  0.00000000000E+00 0. -1.
        -12    1    5    5    0    0 -0.26074001669E+02  0.34342099889E+02  0.31925318516E+02  0.53651275382E+02  0.00000000000E+00 0.  1.
          5    1    4    4  501    0 -0.27319693288E+02 -0.74774308378E+02 -0.17522738466E+03  0.19250888699E+03  0.41800000000E+01 0. -1.
         -5    1    4    4    0  501 -0.17593562543E+02  0.21495136089E+02  0.64557684571E+01  0.28822277232E+02  0.41800000000E+01 0. -1.
</event>
<event>
11    1  0.5813833E-009  0.1307025E+03  0.7561462E-02  0.1118409E+00
         22   -1    0    0    0    0  0.00000000000E+00  0.00000000000E+00  0.40799481104E+03  0.40799481104E+03  0.00000000000E+00 0.  1.
         22   -1    0    0    0    0 -0.00000000000E+00 -0.00000000000E+00 -0.19281500716E+03  0.19281500716E+03  0.00000000000E+00 0. -1.
        -24    2    1    2    0    0  0.12673743859E+02  0.35930552571E+02 -0.15071626602E+03  0.17496346285E+03  0.80281953749E+02 0.  0.
         25    2    1    2    0    0 -0.22076229055E+02 -0.28445298516E+02  0.19689233875E+03  0.23602983664E+03  0.12508795237E+03 0.  0.
         24    2    1    2    0    0  0.94024851964E+01 -0.74852540550E+01  0.16900373114E+03  0.18981651871E+03  0.85578115662E+02 0.  0.
        -11    1    5    5    0    0  0.50483669256E+01 -0.48043729801E+01  0.17870997128E+03  0.17884580465E+03  0.00000000000E+00 0.  1.
         12    1    5    5    0    0  0.43541182707E+01 -0.26808810749E+01 -0.97062401392E+01  0.10970714056E+02  0.00000000000E+00 0. -1.
         13    1    3    3    0    0 -0.11497587610E+02  0.10511716157E+02 -0.13605841449E+03  0.13694737256E+03  0.00000000000E+00 0. -1.
        -14    1    3    3    0    0  0.24171331469E+02  0.25418836414E+02 -0.14657851534E+02  0.38016090293E+02  0.00000000000E+00 0.  1.
          5    1    4    4  501    0 -0.44495096936E+02  0.31437330706E+02  0.43667665932E+02  0.69946099685E+02  0.41800000000E+01 0.  1.
         -5    1    4    4    0  501  0.22418867881E+02 -0.59882629222E+02  0.15322467282E+03  0.16608373696E+03  0.41800000000E+01 0.  1.
</event>
<event>
11    1  0.5813833E-009  0.1384322E+03  0.7561462E-02  0.1109322E+00
         22   -1    0    0    0    0  0.00000000000E+00  0.00000000000E+00  0.66863059598E+03  0.66863059598E+03  0.00000000000E+00 0. -1.
         22   -1    0    0    0    0 -0.00000000000E+00 -0.00000000000E+00 -0.33739069961E+03  0.33739069961E+03  0.00000000000E+00 0. -1.
        -24    2    1    2    0    0  0.59170696179E+02  0.14663446881E+02 -0.28614985426E+03  0.30347253898E+03  0.80608032206E+02 0.  0.
         25    2    1    2    0    0 -0.37036501371E+02 -0.10163506679E+02  0.69050488750E+02  0.14795561206E+03  0.12509154185E+03 0.  0.
         24    2    1    2    0    0 -0.22134194808E+02 -0.44999402016E+01  0.54833926189E+03  0.55459314455E+03  0.79921447770E+02 0.  0.
        -13    1    5    5    0    0  0.72002845371E+01 -0.36065147060E+01  0.32016615325E+01  0.86661226802E+01  0.00000000000E+00 0.  1.
         14    1    5    5    0    0 -0.29334479345E+02 -0.89342549563E+00  0.54513760036E+03  0.54592702187E+03  0.00000000000E+00 0. -1.
         13    1    3    3    0    0  0.52861520103E+02 -0.26906560685E+01 -0.27850020354E+03  0.28348534938E+03  0.00000000000E+00 0. -1.
        -14    1    3    3    0    0  0.63091760758E+01  0.17354102949E+02 -0.76496507219E+01  0.19987189600E+02  0.00000000000E+00 0.  1.
          5    1    4    4  501    0 -0.42345316941E+02 -0.61370654859E+02  0.21407045649E+02  0.77686660039E+02  0.41800000000E+01 0. -1.
         -5    1    4    4    0  501  0.53088155704E+01  0.51207148179E+02  0.47643443101E+02  0.70268952019E+02  0.41800000000E+01 0. -1.
</event>
<event>
11    1  0.5813833E-009  0.1626732E+03  0.7561462E-02  0.1084590E+00
         22   -1    0    0    0    0  0.00000000000E+00  0.00000000000E+00  0.78173336525E+03  0.78173336525E+03  0.00000000000E+00 0. -1.
         22   -1    0    0    0    0 -0.00000000000E+00 -0.00000000000E+00 -0.16783720690E+04  0.16783720690E+04  0.00000000000E+00 0. -1.
        -24    2    1    2    0    0 -0.21904691608E+02  0.10234256963E+03 -0.13127792775E+04  0.13199580253E+04  0.89140003873E+02 0.  0.
         25    2    1    2    0    0  0.60312434879E+02 -0.88598579131E+02 -0.34047559038E+03  0.37822988388E+03  0.12508764682E+03 0.  0.
         24    2    1    2    0    0 -0.38407743272E+02 -0.13743990501E+02  0.75661616414E+03  0.76191752498E+03  0.79913972651E+02 0.  0.
        -11    1    5    5    0    0 -0.57560363539E+02 -0.64506125654E+01  0.34795633409E+03  0.35274412296E+03  0.00000000000E+00 0.  1.
         12    1    5    5    0    0  0.19152620267E+02 -0.72933779357E+01  0.40865983005E+03  0.40917340202E+03  0.00000000000E+00 0. -1.
         11    1    3    3    0    0 -0.13861114814E+02  0.91237205777E+02 -0.60075460864E+03  0.60780133105E+03  0.00000000000E+00 0. -1.
        -12    1    3    3    0    0 -0.80435767940E+01  0.11105363854E+02 -0.71202466881E+03  0.71215669429E+03  0.00000000000E+00 0.  1.
          5    1    4    4  501    0  0.68914704456E+02  0.55228524492E+01 -0.16321422983E+03  0.17730227186E+03  0.41800000000E+01 0. -1.
         -5    1    4    4    0  501 -0.86022695768E+01 -0.94121431580E+02 -0.17726136056E+03  0.20092761202E+03  0.41800000000E+01 0. -1.
</event>
<event>
11    1  0.5813833E-009  0.1810151E+03  0.7561462E-02  0.1068825E+00
         22   -1    0    0    0    0  0.00000000000E+00  0.00000000000E+00  0.75899569787E+03  0.75899569787E+03  0.00000000000E+00 0. -1.
         22   -1    0    0    0    0 -0.00000000000E+00 -0.00000000000E+00 -0.18318895104E+04  0.18318895104E+04  0.00000000000E+00 0. -1.
        -24    2    1    2    0    0  0.67039601971E+02  0.33860372906E+02 -0.17756523975E+04  0.17790475151E+04  0.80173505982E+02 0.  0.
         25    2    1    2    0    0  0.40889508776E+02  0.62882386093E+02  0.77253936556E+02  0.16504705142E+03  0.12508481947E+03 0.  0.
         24    2    1    2    0    0 -0.10792911075E+03 -0.96742758999E+02  0.62550464842E+03  0.64679064177E+03  0.77937248582E+02 0.  0.
        -13    1    5    5    0    0  0.89299178384E+01  0.16939876891E+01  0.72446161214E+02  0.73014103443E+02  0.00000000000E+00 0.  1.
         14    1    5    5    0    0 -0.11685902859E+03 -0.98436746689E+02  0.55305848721E+03  0.57377653832E+03  0.00000000000E+00 0. -1.
         11    1    3    3    0    0  0.85563088317E+02  0.30801823182E+02 -0.15046606538E+04  0.15074062085E+04  0.00000000000E+00 0. -1.
        -12    1    3    3    0    0 -0.18523486346E+02  0.30585497238E+01 -0.27099174376E+03  0.27164130661E+03  0.00000000000E+00 0.  1.
          5    1    4    4  501    0  0.68565745361E+02 -0.34328891505E+01  0.59417427098E+02  0.90889764043E+02  0.41800000000E+01 0. -1.
         -5    1    4    4    0  501 -0.27676236585E+02  0.66315275244E+02  0.17836509459E+02  0.74157287382E+02  0.41800000000E+01 0. -1.
</event>
<event>
11    1  0.5813833E-009  0.1309530E+03  0.7561462E-02  0.1118104E+00
         22   -1    0    0    0    0  0.00000000000E+00  0.00000000000E+00  0.38967167698E+03  0.38967167698E+03  0.00000000000E+00 0. -1.
         22   -1    0    0    0    0 -0.00000000000E+00 -0.00000000000E+00 -0.31167153405E+03  0.31167153405E+03  0.00000000000E+00 0.  1.
        -24    2    1    2    0    0  0.26017286386E+01 -0.54874393160E+01 -0.27428713371E+03  0.28567868857E+03  0.79636677502E+02 0.  0.
         25    2    1    2    0    0  0.36636577755E+02 -0.37472235034E+01  0.21787225124E+03  0.25391588979E+03  0.12509468700E+03 0.  0.
         24    2    1    2    0    0 -0.39238306393E+02  0.92346628193E+01  0.13441502540E+03  0.16174863267E+03  0.80438159045E+02 0.  0.
        -11    1    5    5    0    0  0.15753372606E+02  0.26076835852E+02  0.63603262804E+02  0.70523366027E+02  0.00000000000E+00 0.  1.
         12    1    5    5    0    0 -0.54991679000E+02 -0.16842173033E+02  0.70811762596E+02  0.91225266640E+02  0.00000000000E+00 0. -1.
         13    1    3    3    0    0  0.17064742464E+02 -0.37219577195E+02 -0.10226317774E+03  0.11015561666E+03  0.00000000000E+00 0. -1.
        -14    1    3    3    0    0 -0.14463013825E+02  0.31732137879E+02 -0.17202395598E+03  0.17552307191E+03  0.00000000000E+00 0.  1.
          5    1    4    4  501    0  0.50790793239E+02  0.50478383342E+02  0.97224796716E+02  0.12082179174E+03  0.41800000000E+01 0.  1.
         -5    1    4    4    0  501 -0.14154215485E+02 -0.54225606846E+02  0.12064745452E+03  0.13309409805E+03  0.41800000000E+01 0.  1.
</event>
<event>
11    1  0.5813833E-009  0.1287526E+03  0.7561462E-02  0.1120811E+00
         22   -1    0    0    0    0  0.00000000000E+00  0.00000000000E+00  0.89407483831E+03  0.89407483831E+03  0.00000000000E+00 0. -1.
         22   -1    0    0    0    0 -0.00000000000E+00 -0.00000000000E+00 -0.16294014649E+03  0.16294014649E+03  0.00000000000E+00 0.  1.
        -24    2    1    2    0    0  0.24016989975E+02 -0.18895047789E+02 -0.13763567522E+03  0.16142371228E+03  0.78614229966E+02 0.  0.
         25    2    1    2    0    0 -0.14109368852E+02  0.27644746764E+02  0.41530776645E+03  0.43484602112E+03  0.12508882805E+03 0.  0.
         24    2    1    2    0    0 -0.99076211227E+01 -0.87496989751E+01  0.45346260060E+03  0.46074525141E+03  0.80517938155E+02 0.  0.
        -11    1    5    5    0    0  0.16296617116E+02 -0.77618069913E+01  0.21871294876E+02  0.28358048535E+02  0.00000000000E+00 0.  1.
         12    1    5    5    0    0 -0.26204238239E+02 -0.98789198380E+00  0.43159130572E+03  0.43238720287E+03  0.00000000000E+00 0. -1.
         11    1    3    3    0    0  0.46427065745E+02  0.56669834306E+01 -0.54104503078E+02  0.71518419922E+02  0.00000000000E+00 0. -1.
        -12    1    3    3    0    0 -0.22410075770E+02 -0.24562031220E+02 -0.83531172146E+02  0.89905292357E+02  0.00000000000E+00 0.  1.
          5    1    4    4  501    0 -0.65350358941E+02 -0.70859353520E+01  0.18711757244E+03  0.19837171727E+03  0.41800000000E+01 0.  1.
         -5    1    4    4    0  501  0.51240990089E+02  0.34730682116E+02  0.22819019400E+03  0.23647430386E+03  0.41800000000E+01 0.  1.
</event>
<event>
11    1  0.5813833E-009  0.1300626E+03  0.7561462E-02  0.1119192E+00
         22   -1    0    0    0    0  0.00000000000E+00  0.00000000000E+00  0.62515809826E+03  0.62515809826E+03  0.00000000000E+00 0.  1.
         22   -1    0    0    0    0 -0.00000000000E+00 -0.00000000000E+00 -0.29400421663E+03  0.29400421663E+03  0.00000000000E+00 0. -1.
         24    2    1    2    0    0 -0.91744759561E+01 -0.13972571845E+02 -0.25800649535E+03  0.27053493234E+03  0.79639149925E+02 0.  0.
         25    2    1    2    0    0 -0.23289499473E+02  0.29342445905E+02  0.14958515359E+03  0.19855947435E+03  0.12508703675E+03 0.  0.
        -24    2    1    2    0    0  0.32463975429E+02 -0.15369874060E+02  0.43957522339E+03  0.45006790820E+03  0.89691706653E+02 0.  0.
        -13    1    3    3    0    0  0.34944807372E+01 -0.45956598917E+01  0.46456010314E+01  0.74103369968E+01  0.00000000000E+00 0.  1.
         14    1    3    3    0    0 -0.12668956693E+02 -0.93769119535E+01 -0.26265209638E+03  0.26312459534E+03  0.00000000000E+00 0. -1.
         13    1    5    5    0    0  0.30522569671E+02 -0.32701535447E+02  0.94504701675E+02  0.10455695251E+03  0.00000000000E+00 0. -1.
        -14    1    5    5    0    0  0.19414057585E+01  0.17331661387E+02  0.34507052171E+03  0.34551095568E+03  0.00000000000E+00 0.  1.
          5    1    4    4  501    0 -0.67038797498E+02  0.33732247984E+02  0.51863244378E+02  0.91319950950E+02  0.41800000000E+01 0.  1.
         -5    1    4    4    0  501  0.43749298025E+02 -0.43898020786E+01  0.97721909210E+02  0.10723952340E+03  0.41800000000E+01 0.  1.
</event>
<event>
11    1  0.5813833E-009  0.1324505E+03  0.7561462E-02  0.1116294E+00
         22   -1    0    0    0    0  0.00000000000E+00  0.00000000000E+00  0.12123366792E+04  0.12123366792E+04  0.00000000000E+00 0. -1.
         22   -1    0    0    0    0 -0.00000000000E+00 -0.00000000000E+00 -0.11389251836E+03  0.11389251836E+03  0.00000000000E+00 0. -1.
         24    2    1    2    0    0 -0.54801033354E+01 -0.45646003440E+02 -0.14868458277E+02  0.91607142553E+02  0.77828069182E+02 0.  0.
         25    2    1    2    0    0 -0.28676522024E+02  0.37687319466E+02  0.17017575790E+02  0.13488059263E+03  0.12514191711E+03 0.  0.
        -24    2    1    2    0    0  0.34156625359E+02  0.79586839742E+01  0.10962950433E+04  0.10997414624E+04  0.79614360138E+02 0.  0.
        -11    1    3    3    0    0 -0.40251002305E+02 -0.29602164937E+02  0.14403664398E+01  0.49985057878E+02  0.00000000000E+00 0.  1.
         12    1    3    3    0    0  0.34770898970E+02 -0.16043838503E+02 -0.16308824717E+02  0.41622084676E+02  0.00000000000E+00 0. -1.
         13    1    5    5    0    0 -0.51431526133E+01  0.31823648733E+02  0.70803561117E+03  0.70876909027E+03  0.00000000000E+00 0. -1.
        -14    1    5    5    0    0  0.39299777972E+02 -0.23864964759E+02  0.38825943217E+03  0.39097237212E+03  0.00000000000E+00 0.  1.
          5    1    4    4  501    0  0.33257056429E+02  0.53222820120E+02  0.29843216150E+02  0.69618893513E+02  0.41800000000E+01 0.  1.
         -5    1    4    4    0  501 -0.61933578452E+02 -0.15535500654E+02 -0.12825640360E+02  0.65261699113E+02  0.41800000000E+01 0.  1.
</event>
<event>
11    1  0.8978833E-009  0.1813177E+03  0.7561462E-02  0.1068582E+00
         22   -1    0    0    0    0  0.00000000000E+00  0.00000000000E+00  0.18188330831E+04  0.18188330831E+04  0.00000000000E+00 0. -1.
         22   -1    0    0    0    0 -0.00000000000E+00 -0.00000000000E+00 -0.93716472815E+03  0.93716472815E+03  0.00000000000E+00 0.  1.
         24    2    1    2    0    0 -0.51397360942E+02  0.71743213069E+02 -0.51837766361E+03  0.53193714485E+03  0.80330234697E+02 0.  0.
         25    2    1    2    0    0  0.15758038323E+03 -0.14775237743E+03 -0.37056180895E+03  0.44679463404E+03  0.12508816306E+03 0.  0.
        -24    2    1    2    0    0 -0.10618302229E+03  0.76009164366E+02  0.17706078275E+04  0.17772660324E+04  0.81057039639E+02 0.  0.
        -13    1    3    3    0    0 -0.37293664405E+02  0.88178907728E+02 -0.45491987502E+03  0.46488539433E+03  0.00000000000E+00 0.  1.
         14    1    3    3    0    0 -0.14103696536E+02 -0.16435694659E+02 -0.63457788592E+02  0.67051750521E+02  0.00000000000E+00 0. -1.
         11    1    5    5    0    0 -0.54544294883E+02  0.57522410108E+02  0.57958044520E+03  0.58497640997E+03  0.00000000000E+00 0. -1.
        -12    1    5    5    0    0 -0.51638727410E+02  0.18486754257E+02  0.11910273823E+04  0.11922896224E+04  0.00000000000E+00 0.  1.
          5    1    4    4  501    0 -0.22322000148E+00 -0.54127000571E+01 -0.11142586476E+03  0.11163575989E+03  0.41800000000E+01 0.  1.
         -5    1    4    4    0  501  0.15780360324E+03 -0.14233967738E+03 -0.25913594420E+03  0.33515887415E+03  0.41800000000E+01 0.  1.
</event>
<event>
11    1  0.5813833E-009  0.1363157E+03  0.7561462E-02  0.1111744E+00
         22   -1    0    0    0    0  0.00000000000E+00  0.00000000000E+00  0.16685182579E+03  0.16685182579E+03  0.00000000000E+00 0.  1.
         22   -1    0    0    0    0 -0.00000000000E+00 -0.00000000000E+00 -0.54092828834E+04  0.54092828834E+04  0.00000000000E+00 0.  1.
         24    2    1    2    0    0 -0.13922766608E+02 -0.53770991728E+02 -0.41386191097E+04  0.41397393035E+04  0.78665127021E+02 0.  0.
         25    2    1    2    0    0  0.46805703328E+02  0.32644132881E+02 -0.12536449166E+04  0.12611617708E+04  0.12508805693E+03 0.  0.
        -24    2    1    2    0    0 -0.32882936719E+02  0.21126858847E+02  0.14983296869E+03  0.17523363493E+03  0.82032168160E+02 0.  0.
        -11    1    3    3    0    0 -0.19676426625E+02 -0.65651133713E+02 -0.39742817664E+04  0.39748726762E+04  0.00000000000E+00 0.  1.
         12    1    3    3    0    0  0.57536600170E+01  0.11880141984E+02 -0.16433734332E+03  0.16486662726E+03  0.00000000000E+00 0. -1.
         13    1    5    5    0    0  0.55303677914E+01 -0.46230370325E+01 -0.79981137406E+01  0.10766952341E+02  0.00000000000E+00 0. -1.
        -14    1    5    5    0    0 -0.38413304511E+02  0.25749895880E+02  0.15783108243E+03  0.16446668259E+03  0.00000000000E+00 0.  1.
          5    1    4    4  501    0  0.81498202901E+02  0.43586955580E+02 -0.66839125888E+03  0.67476375653E+03  0.41800000000E+01 0.  1.
         -5    1    4    4    0  501 -0.34692499574E+02 -0.10942822698E+02 -0.58525365771E+03  0.58639801428E+03  0.41800000000E+01 0.  1.
</event>
<event>
11    1  0.5813833E-009  0.1327989E+03  0.7561462E-02  0.1115877E+00
         22   -1    0    0    0    0  0.00000000000E+00  0.00000000000E+00  0.85323246513E+03  0.85323246513E+03  0.00000000000E+00 0.  1.
         22   -1    0    0    0    0 -0.00000000000E+00 -0.00000000000E+00 -0.46766284794E+03  0.46766284794E+03  0.00000000000E+00 0.  1.
         24    2    1    2    0    0 -0.20900607792E+02  0.11304576033E+02 -0.38626214652E+03  0.39498832948E+03  0.79074052272E+02 0.  0.
         25    2    1    2    0    0  0.55191971074E+02  0.16663700644E+02 -0.10485952538E+02  0.13813819614E+03  0.12509345883E+03 0.  0.
        -24    2    1    2    0    0 -0.34291363282E+02 -0.27968276677E+02  0.78231771626E+03  0.78776878745E+03  0.81243653379E+02 0.  0.
        -11    1    3    3    0    0 -0.22322766117E+02 -0.23008527631E+02 -0.30617123447E+03  0.30784496593E+03  0.00000000000E+00 0.  1.
         12    1    3    3    0    0  0.14221583246E+01  0.34313103665E+02 -0.80090912055E+02  0.87143363552E+02  0.00000000000E+00 0. -1.
         13    1    5    5    0    0  0.21097285431E+02 -0.15602416908E+02  0.43972667254E+03  0.44050888460E+03  0.00000000000E+00 0. -1.
        -14    1    5    5    0    0 -0.55388648713E+02 -0.12365859769E+02  0.34259104371E+03  0.34725990285E+03  0.00000000000E+00 0.  1.
          5    1    4    4  501    0 -0.16223523939E+02 -0.11796228279E+02  0.40781718714E+02  0.45639617788E+02  0.41800000000E+01 0.  1.
         -5    1    4    4    0  501  0.71415495012E+02  0.28459928923E+02 -0.51267671252E+02  0.92498578356E+02  0.41800000000E+01 0.  1.
</event>
<event>
11    1  0.5813833E-009  0.1657427E+03  0.7561462E-02  0.1081797E+00
         22   -1    0    0    0    0  0.00000000000E+00  0.00000000000E+00  0.44038286577E+03  0.44038286577E+03  0.00000000000E+00 0. -1.
         22   -1    0    0    0    0 -0.00000000000E+00 -0.00000000000E+00 -0.43678084050E+03  0.43678084050E+03  0.00000000000E+00 0.  1.
         24    2    1    2    0    0 -0.70769530772E+01 -0.12339543155E+03 -0.30796965435E+03  0.34111174980E+03  0.78964562067E+02 0.  0.
         25    2    1    2    0    0  0.58916138505E+02  0.54042352425E+02 -0.49410608756E+02  0.15646386451E+03  0.12509134826E+03 0.  0.
        -24    2    1    2    0    0 -0.51839185428E+02  0.69353079129E+02  0.36098228837E+03  0.37958809195E+03  0.79257531532E+02 0.  0.
        -13    1    3    3    0    0 -0.44315104020E+01 -0.13393800672E+03 -0.26726644731E+03  0.29898224327E+03  0.00000000000E+00 0.  1.
         14    1    3    3    0    0 -0.26454426752E+01  0.10542575171E+02 -0.40703207033E+02  0.42129506535E+02  0.00000000000E+00 0. -1.
         11    1    5    5    0    0 -0.55432840183E+02  0.28580653079E+02  0.29812826067E+03  0.30458186635E+03  0.00000000000E+00 0. -1.
        -12    1    5    5    0    0  0.35936547553E+01  0.40772426050E+02  0.62854027701E+02  0.75006225600E+02  0.00000000000E+00 0.  1.
          5    1    4    4  501    0 -0.17516786949E+02  0.27684810345E+02 -0.66019691600E+02  0.73819771253E+02  0.41800000000E+01 0. -1.
         -5    1    4    4    0  501  0.76432925454E+02  0.26357542080E+02  0.16609082845E+02  0.82644093261E+02  0.41800000000E+01 0. -1.
</event>
<event>
11    1  0.5813833E-009  0.1457690E+03  0.7561462E-02  0.1101282E+00
         22   -1    0    0    0    0  0.00000000000E+00  0.00000000000E+00  0.14414415589E+04  0.14414415589E+04  0.00000000000E+00 0.  1.
         22   -1    0    0    0    0 -0.00000000000E+00 -0.00000000000E+00 -0.24936430251E+03  0.24936430251E+03  0.00000000000E+00 0. -1.
         24    2    1    2    0    0  0.54397751025E+02  0.26253119391E+02 -0.21304626004E+03  0.23571266714E+03  0.80767635455E+02 0.  0.
         25    2    1    2    0    0  0.23034943360E+02 -0.26588244129E+01  0.15799957613E+03  0.20285205141E+03  0.12508961084E+03 0.  0.
        -24    2    1    2    0    0 -0.77432694385E+02 -0.23594294978E+02  0.12471239403E+04  0.12522411428E+04  0.78976227442E+02 0.  0.
        -11    1    3    3    0    0  0.43884731085E+02  0.54343653101E+02 -0.13290615795E+03  0.15014376136E+03  0.00000000000E+00 0.  1.
         12    1    3    3    0    0  0.10513019939E+02 -0.28090533710E+02 -0.80140102096E+02  0.85568905780E+02  0.00000000000E+00 0. -1.
         13    1    5    5    0    0 -0.11131306697E+02 -0.39007106584E+02  0.30904382066E+03  0.31169463172E+03  0.00000000000E+00 0. -1.
        -14    1    5    5    0    0 -0.66301387688E+02  0.15412811606E+02  0.93808011959E+03  0.94054651110E+03  0.00000000000E+00 0.  1.
          5    1    4    4  501    0  0.23109936666E+02  0.52704939814E+02  0.33957694452E+02  0.66951305185E+02  0.41800000000E+01 0. -1.
         -5    1    4    4    0  501 -0.74993306022E-01 -0.55363764227E+02  0.12404188168E+03  0.13590074623E+03  0.41800000000E+01 0. -1.
</event>
<event>
11    1  0.5813833E-009  0.1289192E+03  0.7561462E-02  0.1120604E+00
         22   -1    0    0    0    0  0.00000000000E+00  0.00000000000E+00  0.86231309981E+03  0.86231309981E+03  0.00000000000E+00 0.  1.
         22   -1    0    0    0    0 -0.00000000000E+00 -0.00000000000E+00 -0.27001517998E+03  0.27001517998E+03  0.00000000000E+00 0. -1.
         24    2    1    2    0    0  0.15036682757E+02  0.26289858224E+02 -0.22356117714E+03  0.23972237095E+03  0.81055269653E+02 0.  0.
         25    2    1    2    0    0 -0.27964371471E+02 -0.35608076528E+02  0.86962079289E+02  0.15893421217E+03  0.12509092444E+03 0.  0.
        -24    2    1    2    0    0  0.12927688714E+02  0.93182183040E+01  0.72889701768E+03  0.73367169667E+03  0.82032565404E+02 0.  0.
        -13    1    3    3    0    0  0.43677396390E+02  0.28361896952E+02 -0.98643116738E+02  0.11154629816E+03  0.00000000000E+00 0.  1.
         14    1    3    3    0    0 -0.28640713633E+02 -0.20720387282E+01 -0.12491806040E+03  0.12817607279E+03  0.00000000000E+00 0. -1.
         11    1    5    5    0    0 -0.32414428492E+02  0.15155050202E+02  0.24167506809E+03  0.24430965855E+03  0.00000000000E+00 0. -1.
        -12    1    5    5    0    0  0.45342117206E+02 -0.58368318979E+01  0.48722194958E+03  0.48936203812E+03  0.00000000000E+00 0.  1.
          5    1    4    4  501    0 -0.36945029953E+02 -0.66825858208E+02  0.98059567626E+02  0.12435345498E+03  0.41800000000E+01 0. -1.
         -5    1    4    4    0  501  0.89806584822E+01  0.31217781680E+02 -0.11097488337E+02  0.34580757181E+02  0.41800000000E+01 0. -1.
</event>
<event>
11    1  0.5813833E-009  0.1741780E+03  0.7561462E-02  0.1074452E+00
         22   -1    0    0    0    0  0.00000000000E+00  0.00000000000E+00  0.34282583396E+03  0.34282583396E+03  0.00000000000E+00 0. -1.
         22   -1    0    0    0    0 -0.00000000000E+00 -0.00000000000E+00 -0.72296970953E+03  0.72296970953E+03  0.00000000000E+00 0. -1.
         24    2    1    2    0    0  0.70480906144E+02 -0.38021605970E+02 -0.59647042676E+03  0.60724043278E+03  0.80936843000E+02 0.  0.
         25    2    1    2    0    0  0.24468105271E+02  0.12004332716E+03 -0.23312991938E+02  0.17663465355E+03  0.12508883511E+03 0.  0.
        -24    2    1    2    0    0 -0.94949011415E+02 -0.82021721189E+02  0.23963954313E+03  0.28192045716E+03  0.79430195866E+02 0.  0.
        -11    1    3    3    0    0  0.65073093219E+02 -0.69503612245E+01 -0.22202154664E+03  0.23146572566E+03  0.00000000000E+00 0.  1.
         12    1    3    3    0    0  0.54078129252E+01 -0.31071244746E+02 -0.37444888012E+03  0.37577470713E+03  0.00000000000E+00 0. -1.
         13    1    5    5    0    0 -0.52525862273E+02 -0.69671357860E+02  0.21336025634E+03  0.23051174222E+03  0.00000000000E+00 0. -1.
        -14    1    5    5    0    0 -0.42423149143E+02 -0.12350363329E+02  0.26279286789E+02  0.51408714939E+02  0.00000000000E+00 0.  1.
          5    1    4    4  501    0  0.44319136595E+02  0.91800301188E+02 -0.66049676649E+02  0.12153811481E+03  0.41800000000E+01 0.  1.
         -5    1    4    4    0  501 -0.19851031324E+02  0.28243025971E+02  0.42736684711E+02  0.55096538736E+02  0.41800000000E+01 0.  1.
</event>
<event>
11    1  0.5813833E-009  0.1641349E+03  0.7561462E-02  0.1083252E+00
         22   -1    0    0    0    0  0.00000000000E+00  0.00000000000E+00  0.10537958042E+04  0.10537958042E+04  0.00000000000E+00 0. -1.
         22   -1    0    0    0    0 -0.00000000000E+00 -0.00000000000E+00 -0.20129621623E+03  0.20129621623E+03  0.00000000000E+00 0. -1.
         24    2    1    2    0    0  0.22261974716E+02 -0.93216728266E+01 -0.61532777838E+02  0.10548250531E+03  0.82205760604E+02 0.  0.
         25    2    1    2    0    0  0.56786602782E+02 -0.62932365445E+02 -0.63187759731E+02  0.16378577062E+03  0.12509150571E+03 0.  0.
        -24    2    1    2    0    0 -0.79048577498E+02  0.72254038272E+02  0.97722012559E+03  0.98582374454E+03  0.73620362596E+02 0.  0.
        -11    1    3    3    0    0  0.35459430070E+02 -0.38568849463E+02 -0.29423084541E+02  0.60088644798E+02  0.00000000000E+00 0.  1.
         12    1    3    3    0    0 -0.13197455354E+02  0.29247176636E+02 -0.32109693297E+02  0.45393860517E+02  0.00000000000E+00 0. -1.
         13    1    5    5    0    0 -0.66528879484E+02  0.67313663273E+02  0.52886243601E+03  0.53726408524E+03  0.00000000000E+00 0. -1.
        -14    1    5    5    0    0 -0.12519698014E+02  0.49403749986E+01  0.44835768957E+03  0.44855965929E+03  0.00000000000E+00 0.  1.
          5    1    4    4  501    0  0.66376891970E+02 -0.90464679145E+02 -0.24092305686E+02  0.11483754418E+03  0.41800000000E+01 0. -1.
         -5    1    4    4    0  501 -0.95902891881E+01  0.27532313700E+02 -0.39095454045E+02  0.48948226438E+02  0.41800000000E+01 0. -1.
</event>
<event>
11    1  0.5813833E-009  0.1843627E+03  0.7561462E-02  0.1066168E+00
         22   -1    0    0    0    0  0.00000000000E+00  0.00000000000E+00  0.63049452841E+03  0.63049452841E+03  0.00000000000E+00 0.  1.
         22   -1    0    0    0    0 -0.00000000000E+00 -0.00000000000E+00 -0.71049049130E+03  0.71049049130E+03  0.00000000000E+00 0.  1.
         24    2    1    2    0    0 -0.71791467557E+02  0.44851838475E+02 -0.62595456873E+03  0.63735392142E+03  0.85059960074E+02 0.  0.
         25    2    1    2    0    0  0.19501567061E+03 -0.33249133156E+02  0.14362155706E+03  0.27461121509E+03  0.12509017212E+03 0.  0.
        -24    2    1    2    0    0 -0.12322420305E+03 -0.11602705319E+02  0.40233704879E+03  0.42901988320E+03  0.82850059518E+02 0.  0.
        -13    1    3    3    0    0 -0.19200742023E+01  0.41808632792E+02 -0.35739482370E+03  0.35983705822E+03  0.00000000000E+00 0.  1.
         14    1    3    3    0    0 -0.69871393355E+02  0.30432056829E+01 -0.26855974503E+03  0.27751686320E+03  0.00000000000E+00 0. -1.
         13    1    5    5    0    0 -0.17588778325E+02  0.15218830506E+02  0.17904496908E+03  0.18054938072E+03  0.00000000000E+00 0. -1.
        -14    1    5    5    0    0 -0.10563542473E+03 -0.26821535825E+02  0.22329207971E+03  0.24847050248E+03  0.00000000000E+00 0.  1.
          5    1    4    4  501    0  0.69892772562E+02 -0.62622662397E+02  0.19605344134E+02  0.95960613903E+02  0.41800000000E+01 0.  1.
         -5    1    4    4    0  501  0.12512289805E+03  0.29373529242E+02  0.12401621292E+03  0.17865060119E+03  0.41800000000E+01 0.  1.
</event>
<event>
11    1  0.5813833E-009  0.2022142E+03  0.7561462E-02  0.1052969E+00
         22   -1    0    0    0    0  0.00000000000E+00  0.00000000000E+00  0.12756603255E+03  0.12756603255E+03  0.00000000000E+00 0.  1.
         22   -1    0    0    0    0 -0.00000000000E+00 -0.00000000000E+00 -0.80244301120E+03  0.80244301120E+03  0.00000000000E+00 0.  1.
        -24    2    1    2    0    0 -0.65087088794E+01  0.99002294736E+01 -0.46418915221E+03  0.47516947430E+03  0.10086665675E+03 0.  0.
         25    2    1    2    0    0  0.85397185406E+02 -0.14328497724E+03 -0.17393562933E+03  0.27152226513E+03  0.12508986103E+03 0.  0.
         24    2    1    2    0    0 -0.78888476526E+02  0.13338474776E+03 -0.36752197115E+02  0.18331730432E+03  0.90772393412E+02 0.  0.
        -11    1    5    5    0    0 -0.26058906022E+02  0.79736918046E+02  0.23239409430E+02  0.87046612991E+02  0.00000000000E+00 0.  1.
         12    1    5    5    0    0 -0.52829570505E+02  0.53647829716E+02 -0.59991606545E+02  0.96270691328E+02  0.00000000000E+00 0. -1.
         13    1    3    3    0    0  0.27653252701E+01  0.55212852275E+02 -0.25809418161E+03  0.26394831437E+03  0.00000000000E+00 0. -1.
        -14    1    3    3    0    0 -0.92740341495E+01 -0.45312622801E+02 -0.20609497060E+03  0.21122115993E+03  0.00000000000E+00 0.  1.
          5    1    4    4  501    0  0.10941870282E+03 -0.14365736010E+03 -0.13469618940E+03  0.22532293598E+03  0.41800000000E+01 0. -1.
         -5    1    4    4    0  501 -0.24021517416E+02  0.37238286623E+00 -0.39239439933E+02  0.46199329153E+02  0.41800000000E+01 0. -1.
</event>
<event>
11    1  0.5813833E-009  0.1350583E+03  0.7561462E-02  0.1113206E+00
         22   -1    0    0    0    0  0.00000000000E+00  0.00000000000E+00  0.15555551463E+04  0.15555551463E+04  0.00000000000E+00 0. -1.
         22   -1    0    0    0    0 -0.00000000000E+00 -0.00000000000E+00 -0.29740966588E+03  0.29740966588E+03  0.00000000000E+00 0. -1.
        -24    2    1    2    0    0 -0.50481769719E+02  0.14812518449E+01 -0.24148036794E+03  0.25944973835E+03  0.80316844121E+02 0.  0.
         25    2    1    2    0    0  0.53155830272E+02 -0.48646246251E+02  0.69244272581E+02  0.16011043771E+03  0.12509429808E+03 0.  0.
         24    2    1    2    0    0 -0.26740605533E+01  0.47164994406E+02  0.14303815758E+04  0.14334046361E+04  0.80160533859E+02 0.  0.
        -13    1    5    5    0    0 -0.32530936241E+02  0.53207291394E+02  0.10059849616E+04  0.10079161774E+04  0.00000000000E+00 0.  1.
         14    1    5    5    0    0  0.29856875688E+02 -0.60422969883E+01  0.42439661420E+03  0.42548845874E+03  0.00000000000E+00 0. -1.
         13    1    3    3    0    0 -0.60326421549E+02  0.21082640806E+02 -0.11950940185E+03  0.13552214583E+03  0.00000000000E+00 0. -1.
        -14    1    3    3    0    0  0.98446518304E+01 -0.19601388962E+02 -0.12197096609E+03  0.12392759252E+03  0.00000000000E+00 0.  1.
          5    1    4    4  501    0  0.73838099614E+02 -0.70456905002E+02  0.22846120147E+02  0.10466927927E+03  0.41800000000E+01 0. -1.
         -5    1    4    4    0  501 -0.20682269342E+02  0.21810658751E+02  0.46398152434E+02  0.55441158444E+02  0.41800000000E+01 0. -1.
</event>
<event>
11    1  0.5813833E-009  0.2277527E+03  0.7561462E-02  0.1036467E+00
         22   -1    0    0    0    0  0.00000000000E+00  0.00000000000E+00  0.14955992894E+04  0.14955992894E+04  0.00000000000E+00 0.  1.
         22   -1    0    0    0    0 -0.00000000000E+00 -0.00000000000E+00 -0.22618385831E+03  0.22618385831E+03  0.00000000000E+00 0. -1.
         24    2    1    2    0    0 -0.66836387160E+02  0.12978337385E+02 -0.88513071306E+02  0.13339761482E+03  0.72971363949E+02 0.  0.
         25    2    1    2    0    0  0.20388719023E+03  0.11492402654E+03  0.57291198916E+02  0.27149215096E+03  0.12509271897E+03 0.  0.
        -24    2    1    2    0    0 -0.13705080307E+03 -0.12790236393E+03  0.13006373035E+04  0.13168933820E+04  0.86074658705E+02 0.  0.
        -11    1    3    3    0    0 -0.60040639709E+02  0.11904168298E+01 -0.19623758867E+02  0.63177428097E+02  0.00000000000E+00 0.  1.
         12    1    3    3    0    0 -0.67957474510E+01  0.11787920555E+02 -0.68889312439E+02  0.70220186718E+02  0.00000000000E+00 0. -1.
         11    1    5    5    0    0 -0.10049896044E+02 -0.60306839772E+02  0.32426212240E+03  0.32997551327E+03  0.00000000000E+00 0. -1.
        -12    1    5    5    0    0 -0.12700090703E+03 -0.67595524156E+02  0.97637518112E+03  0.98691786871E+03  0.00000000000E+00 0.  1.
          5    1    4    4  501    0  0.47068959810E+02 -0.16142487218E+02 -0.18816905175E+02  0.53363050808E+02  0.41800000000E+01 0.  1.
         -5    1    4    4    0  501  0.15681823042E+03  0.13106651376E+03  0.76108104091E+02  0.21812910015E+03  0.41800000000E+01 0.  1.
</event>
<event>
11    1  0.5813833E-009  0.1850330E+03  0.7561462E-02  0.1065643E+00
         22   -1    0    0    0    0  0.00000000000E+00  0.00000000000E+00  0.12046390083E+04  0.12046390083E+04  0.00000000000E+00 0.  1.
         22   -1    0    0    0    0 -0.00000000000E+00 -0.00000000000E+00 -0.18322952618E+03  0.18322952618E+03  0.00000000000E+00 0. -1.
        -24    2    1    2    0    0  0.80148843068E+02  0.10741111661E+03 -0.10221034228E+03  0.18714881000E+03  0.81343334063E+02 0.  0.
         25    2    1    2    0    0 -0.77987506581E+02 -0.12987869980E+03  0.22882714759E+03  0.30159660149E+03  0.12509244067E+03 0.  0.
         24    2    1    2    0    0 -0.21613364872E+01  0.22467583188E+02  0.89479267684E+03  0.89912312302E+03  0.85199719263E+02 0.  0.
        -11    1    5    5    0    0 -0.24379498242E+02  0.29490292956E+02  0.81748738359E+03  0.81838234318E+03  0.00000000000E+00 0.  1.
         12    1    5    5    0    0  0.22218161755E+02 -0.70227097683E+01  0.77305293253E+02  0.80740779840E+02  0.00000000000E+00 0. -1.
         11    1    3    3    0    0  0.47428587585E+02  0.57758512555E+01 -0.46689983771E+02  0.66804086421E+02  0.00000000000E+00 0. -1.
        -12    1    3    3    0    0  0.32720255482E+02  0.10163526536E+03 -0.55520358512E+02  0.12034472358E+03  0.00000000000E+00 0.  1.
          5    1    4    4  501    0  0.31038920630E+02 -0.21765594781E+02  0.75394463104E+02  0.84492326141E+02  0.41800000000E+01 0. -1.
         -5    1    4    4    0  501 -0.10902642721E+03 -0.10811310502E+03  0.15343268448E+03  0.21710427535E+03  0.41800000000E+01 0. -1.
</event>
<event>
11    1  0.5813833E-009  0.1311613E+03  0.7561462E-02  0.1117850E+00
         22   -1    0    0    0    0  0.00000000000E+00  0.00000000000E+00  0.15382206618E+04  0.15382206618E+04  0.00000000000E+00 0. -1.
         22   -1    0    0    0    0 -0.00000000000E+00 -0.00000000000E+00 -0.17626152286E+03  0.17626152286E+03  0.00000000000E+00 0.  1.
        -24    2    1    2    0    0 -0.84005175895E+01 -0.17208996744E+02 -0.11081325588E+03  0.14277656428E+03  0.87970741532E+02 0.  0.
         25    2    1    2    0    0  0.46315736157E+02  0.26574855650E+02  0.48569923036E+02  0.14442369372E+03  0.12509114883E+03 0.  0.
         24    2    1    2    0    0 -0.37915218568E+02 -0.93658589062E+01  0.14242024718E+04  0.14272819267E+04  0.85180598722E+02 0.  0.
        -11    1    5    5    0    0 -0.53750125047E+02  0.11617914503E+01  0.49968469770E+03  0.50256862499E+03  0.00000000000E+00 0.  1.
         12    1    5    5    0    0  0.15834906480E+02 -0.10527650356E+02  0.92451777409E+03  0.92471330168E+03  0.00000000000E+00 0. -1.
         13    1    3    3    0    0 -0.18271147512E+02 -0.17450190929E+02  0.56549548589E+01  0.25890587272E+02  0.00000000000E+00 0. -1.
        -14    1    3    3    0    0  0.98706299222E+01  0.24119418514E+00 -0.11646821074E+03  0.11688597701E+03  0.00000000000E+00 0.  1.
          5    1    4    4  501    0 -0.28947231529E+01  0.17182878497E+02  0.82075369597E+02  0.84008746153E+02  0.41800000000E+01 0.  1.
         -5    1    4    4    0  501  0.49210459310E+02  0.93919771527E+01 -0.33505446561E+02  0.60414947568E+02  0.41800000000E+01 0.  1.
</event>
<event>
11    1  0.5813833E-009  0.1339288E+03  0.7561462E-02  0.1114534E+00
         22   -1    0    0    0    0  0.00000000000E+00  0.00000000000E+00  0.13705615713E+03  0.13705615713E+03  0.00000000000E+00 0.  1.
         22   -1    0    0    0    0 -0.00000000000E+00 -0.00000000000E+00 -0.14675478626E+04  0.14675478626E+04  0.00000000000E+00 0. -1.
        -24    2    1    2    0    0  0.34334471878E+02  0.20968576019E+02 -0.31044235095E+03  0.32302907231E+03  0.79716943977E+02 0.  0.
         25    2    1    2    0    0 -0.25998901680E+02 -0.48815345976E+02 -0.11368999194E+04  0.11450974838E+04  0.12509172617E+03 0.  0.
         24    2    1    2    0    0 -0.83355701975E+01  0.27846769957E+02  0.11685056487E+03  0.13647746356E+03  0.64242658891E+02 0.  0.
        -11    1    5    5    0    0  0.27082310414E+02  0.11791382522E+02  0.34571498110E+02  0.45471713413E+02  0.00000000000E+00 0.  1.
         12    1    5    5    0    0 -0.35417880612E+02  0.16055387435E+02  0.82279066757E+02  0.91005750143E+02  0.00000000000E+00 0. -1.
         13    1    3    3    0    0  0.19745607726E+02  0.64334749734E+01 -0.29850316903E+03  0.29922469909E+03  0.00000000000E+00 0. -1.
        -14    1    3    3    0    0  0.14588864152E+02  0.14535101046E+02 -0.11939181920E+02  0.23804373224E+02  0.00000000000E+00 0.  1.
          5    1    4    4  501    0 -0.12790558053E+02 -0.74809673645E+02 -0.10604294533E+04  0.10631501227E+04  0.41800000000E+01 0. -1.
         -5    1    4    4    0  501 -0.13208343627E+02  0.25994327669E+02 -0.76470466094E+02  0.81947361135E+02  0.41800000000E+01 0. -1.
</event>
<event>
11    1  0.5813833E-009  0.1328200E+03  0.7561462E-02  0.1115852E+00
         22   -1    0    0    0    0  0.00000000000E+00  0.00000000000E+00  0.74190708782E+03  0.74190708782E+03  0.00000000000E+00 0.  1.
         22   -1    0    0    0    0 -0.00000000000E+00 -0.00000000000E+00 -0.55331782756E+03  0.55331782756E+03  0.00000000000E+00 0. -1.
         24    2    1    2    0    0  0.97482957867E+00  0.14877126177E+02 -0.51595174111E+03  0.52256296065E+03  0.81508094787E+02 0.  0.
         25    2    1    2    0    0  0.42172221832E+02 -0.25223900492E+02  0.11772610613E+03  0.17866317587E+03  0.12508538242E+03 0.  0.
        -24    2    1    2    0    0 -0.43147051410E+02  0.10346774315E+02  0.58681489523E+03  0.59399877886E+03  0.80710000864E+02 0.  0.
        -11    1    3    3    0    0 -0.30335792111E+02  0.24526672555E+02 -0.14463529591E+03  0.14980382763E+03  0.00000000000E+00 0.  1.
         12    1    3    3    0    0  0.31310621690E+02 -0.96495463781E+01 -0.37131644520E+03  0.37275913302E+03  0.00000000000E+00 0. -1.
         11    1    5    5    0    0 -0.52245920992E+01  0.21109795115E+02  0.38098082658E+02  0.43867798151E+02  0.00000000000E+00 0. -1.
        -12    1    5    5    0    0 -0.37922459311E+02 -0.10763020800E+02  0.54871681257E+03  0.55013098071E+03  0.00000000000E+00 0.  1.
          5    1    4    4  501    0  0.60930765195E+01 -0.60692941868E+02  0.11196470713E+03  0.12757086978E+03  0.41800000000E+01 0.  1.
         -5    1    4    4    0  501  0.36079145312E+02  0.35469041376E+02  0.57613990055E+01  0.51092306085E+02  0.41800000000E+01 0.  1.
</event>
<event>
11    1  0.5813833E-009  0.1339073E+03  0.7561462E-02  0.1114559E+00
         22   -1    0    0    0    0  0.00000000000E+00  0.00000000000E+00  0.12153162862E+04  0.12153162862E+04  0.00000000000E+00 0.  1.
         22   -1    0    0    0    0 -0.00000000000E+00 -0.00000000000E+00 -0.30896760116E+03  0.30896760116E+03  0.00000000000E+00 0. -1.
         24    2    1    2    0    0 -0.43499125925E+02 -0.19545097409E+02 -0.28877322963E+03  0.30313160703E+03  0.78896186451E+02 0.  0.
         25    2    1    2    0    0  0.53135736469E+02  0.12858192568E+02  0.42295012841E+03  0.44443570939E+03  0.12509016369E+03 0.  0.
        -24    2    1    2    0    0 -0.96366105436E+01  0.66869048411E+01  0.77217178630E+03  0.77671657099E+03  0.83076983169E+02 0.  0.
        -13    1    3    3    0    0  0.31382242571E+00 -0.29038716448E+02 -0.35233124211E+02  0.45658718544E+02  0.00000000000E+00 0.  1.
         14    1    3    3    0    0 -0.43812948351E+02  0.94936190387E+01 -0.25354010542E+03  0.25747288848E+03  0.00000000000E+00 0. -1.
         11    1    5    5    0    0  0.26944042278E+01  0.20198286946E+01 -0.93701086328E+00  0.34953556981E+01  0.00000000000E+00 0. -1.
        -12    1    5    5    0    0 -0.12331014771E+02  0.46670761465E+01  0.77310879717E+03  0.77322121530E+03  0.00000000000E+00 0.  1.
          5    1    4    4  501    0  0.82326195700E+02  0.10317104972E+02  0.16440912655E+03  0.18420607603E+03  0.41800000000E+01 0.  1.
         -5    1    4    4    0  501 -0.29190459231E+02  0.25410875958E+01  0.25854100186E+03  0.26022963336E+03  0.41800000000E+01 0.  1.
</event>
<event>
11    1  0.5813833E-009  0.1383604E+03  0.7561462E-02  0.1109403E+00
         22   -1    0    0    0    0  0.00000000000E+00  0.00000000000E+00  0.47387288342E+02  0.47387288342E+02  0.00000000000E+00 0.  1.
         22   -1    0    0    0    0 -0.00000000000E+00 -0.00000000000E+00 -0.19331741050E+04  0.19331741050E+04  0.00000000000E+00 0.  1.
        -24    2    1    2    0    0  0.23871973202E+02 -0.51620936183E+02 -0.12220264129E+04  0.12258513869E+04  0.78284588560E+02 0.  0.
         25    2    1    2    0    0 -0.87893809551E+01  0.70391606266E+02 -0.65306796291E+03  0.66871323294E+03  0.12508953707E+03 0.  0.
         24    2    1    2    0    0 -0.15082592247E+02 -0.18770670083E+02 -0.10692440905E+02  0.85996773547E+02  0.81861432455E+02 0.  0.
        -13    1    5    5    0    0 -0.42748203507E+02  0.65670702799E+01  0.81573297436E+01  0.44012240840E+02  0.00000000000E+00 0.  1.
         14    1    5    5    0    0  0.27665611260E+02 -0.25337740363E+02 -0.18849770649E+02  0.41984532707E+02  0.00000000000E+00 0. -1.
         13    1    3    3    0    0 -0.12149197345E+02 -0.39265386828E+02 -0.27450888244E+03  0.27756891061E+03  0.00000000000E+00 0. -1.
        -14    1    3    3    0    0  0.36021170547E+02 -0.12355549355E+02 -0.94751753046E+03  0.94828247630E+03  0.00000000000E+00 0.  1.
          5    1    4    4  501    0  0.24969057189E+02 -0.28052045106E+02 -0.22536667264E+03  0.22851253923E+03  0.41800000000E+01 0. -1.
         -5    1    4    4    0  501 -0.33758438144E+02  0.98443651372E+02 -0.42770129027E+03  0.44020069371E+03  0.41800000000E+01 0. -1.
</event>
<event>
11    1  0.5813833E-009  0.2303563E+03  0.7561462E-02  0.1034917E+00
         22   -1    0    0    0    0  0.00000000000E+00  0.00000000000E+00  0.14458595577E+03  0.14458595577E+03  0.00000000000E+00 0.  1.
         22   -1    0    0    0    0 -0.00000000000E+00 -0.00000000000E+00 -0.80766317058E+03  0.80766317058E+03  0.00000000000E+00 0. -1.
         24    2    1    2    0    0  0.35856294366E+02 -0.24027772756E+03 -0.27703737503E+03  0.37716970441E+03  0.80549478922E+02 0.  0.
         25    2    1    2    0    0 -0.15524384206E+03  0.99554404872E+02 -0.22773203503E+03  0.31862401329E+03  0.12509057532E+03 0.  0.
        -24    2    1    2    0    0  0.11938754770E+03  0.14072332269E+03 -0.15830780475E+03  0.25645540865E+03  0.81557191506E+02 0.  0.
        -11    1    3    3    0    0  0.54061464695E+02 -0.96211719566E+02 -0.10961285225E+03  0.15554521634E+03  0.00000000000E+00 0.  1.
         12    1    3    3    0    0 -0.18205170329E+02 -0.14406600800E+03 -0.16742452278E+03  0.22162448808E+03  0.00000000000E+00 0. -1.
         11    1    5    5    0    0  0.10822216828E+03  0.11678844567E+03 -0.16491059558E+03  0.22923150587E+03  0.00000000000E+00 0. -1.
        -12    1    5    5    0    0  0.11165379421E+02  0.23934877017E+02  0.66027908363E+01  0.27223902774E+02  0.00000000000E+00 0.  1.
          5    1    4    4  501    0  0.10017410182E+02  0.48569491501E+02 -0.47398773676E+02  0.68727433805E+02  0.41800000000E+01 0.  1.
         -5    1    4    4    0  501 -0.16526125225E+03  0.50984913371E+02 -0.18033326136E+03  0.24989657948E+03  0.41800000000E+01 0.  1.
</event>
<event>
11    1  0.5813833E-009  0.1954674E+03  0.7561462E-02  0.1057776E+00
         22   -1    0    0    0    0  0.00000000000E+00  0.00000000000E+00  0.18697602172E+03  0.18697602172E+03  0.00000000000E+00 0.  1.
         22   -1    0    0    0    0 -0.00000000000E+00 -0.00000000000E+00 -0.10751735836E+04  0.10751735836E+04  0.00000000000E+00 0.  1.
         24    2    1    2    0    0  0.48363628258E+02 -0.12308990774E+03 -0.33276565257E+03  0.37322100683E+03  0.10521774793E+03 0.  0.
         25    2    1    2    0    0 -0.13097488200E+03  0.11208243750E+03 -0.68456043753E+03  0.71692362601E+03  0.12505838793E+03 0.  0.
        -24    2    1    2    0    0  0.82611253738E+02  0.11007470236E+02  0.12912852827E+03  0.17200497243E+03  0.77238268258E+02 0.  0.
        -11    1    3    3    0    0  0.31661591882E+02 -0.26609350143E+02 -0.22010314441E+03  0.22395514751E+03  0.00000000000E+00 0.  1.
         12    1    3    3    0    0  0.16702036376E+02 -0.96480557596E+02 -0.11266250816E+03  0.14926585932E+03  0.00000000000E+00 0. -1.
         13    1    5    5    0    0  0.23523271393E+02 -0.44821230649E+00 -0.58250893480E+01  0.24237921883E+02  0.00000000000E+00 0. -1.
        -14    1    5    5    0    0  0.59087982346E+02  0.11455682543E+02  0.13495361762E+03  0.14776705055E+03  0.00000000000E+00 0.  1.
          5    1    4    4  501    0 -0.14186158949E+03  0.70192752892E+02 -0.42077744465E+03  0.44958076411E+03  0.41800000000E+01 0.  1.
         -5    1    4    4    0  501  0.10886707494E+02  0.41889684611E+02 -0.26378299288E+03  0.26734286190E+03  0.41800000000E+01 0.  1.
</event>
<event>
11    1  0.5813833E-009  0.1486932E+03  0.7561462E-02  0.1098222E+00
         22   -1    0    0    0    0  0.00000000000E+00  0.00000000000E+00  0.46341766762E+03  0.46341766762E+03  0.00000000000E+00 0.  1.
         22   -1    0    0    0    0 -0.00000000000E+00 -0.00000000000E+00 -0.78710081855E+03  0.78710081855E+03  0.00000000000E+00 0.  1.
         24    2    1    2    0    0 -0.19536643081E+02 -0.82122774544E+02 -0.57263277487E+03  0.58439190514E+03  0.80497039810E+02 0.  0.
         25    2    1    2    0    0  0.32528490716E+02  0.57276921314E+02 -0.18019320711E+03  0.22903262133E+03  0.12509037262E+03 0.  0.
        -24    2    1    2    0    0 -0.12991847635E+02  0.24845853230E+02  0.42914283104E+03  0.43709395970E+03  0.78111815033E+02 0.  0.
        -13    1    3    3    0    0 -0.94651599697E+01 -0.89915212110E+02 -0.55670769165E+03  0.56400158560E+03  0.00000000000E+00 0.  1.
         14    1    3    3    0    0 -0.10071483111E+02  0.77924375667E+01 -0.15925083223E+02  0.20390319540E+02  0.00000000000E+00 0. -1.
         11    1    5    5    0    0  0.27580253253E+02 -0.38959961394E+00  0.78378668315E+02  0.83090539800E+02  0.00000000000E+00 0. -1.
        -12    1    5    5    0    0 -0.40572100889E+02  0.25235452844E+02  0.35076416272E+03  0.35400341990E+03  0.00000000000E+00 0.  1.
          5    1    4    4  501    0 -0.12573215653E+02  0.67215514205E+02 -0.35643174618E+02  0.77226416455E+02  0.41800000000E+01 0. -1.
         -5    1    4    4    0  501  0.45101706369E+02 -0.99385928911E+01 -0.14455003249E+03  0.15180620488E+03  0.41800000000E+01 0. -1.
</event>
<event>
11    1  0.5813833E-009  0.2064084E+03  0.7561462E-02  0.1050082E+00
         22   -1    0    0    0    0  0.00000000000E+00  0.00000000000E+00  0.10198543361E+04  0.10198543361E+04  0.00000000000E+00 0.  1.
         22   -1    0    0    0    0 -0.00000000000E+00 -0.00000000000E+00 -0.41818216790E+03  0.41818216790E+03  0.00000000000E+00 0.  1.
         24    2    1    2    0    0 -0.47120841786E+02 -0.15562954610E+03 -0.33718467220E+03  0.38188222308E+03  0.75495693848E+02 0.  0.
         25    2    1    2    0    0  0.41693314365E+02  0.17448238190E+03  0.15512770004E+03  0.26813315259E+03  0.12509336569E+03 0.  0.
        -24    2    1    2    0    0  0.54275274207E+01 -0.18852835804E+02  0.78372914034E+03  0.78802112831E+03  0.79756164485E+02 0.  0.
        -13    1    3    3    0    0 -0.65117497682E+01 -0.12529487791E+03 -0.20542125795E+03  0.24070542689E+03  0.00000000000E+00 0.  1.
         14    1    3    3    0    0 -0.40609092018E+02 -0.30334668189E+02 -0.13176341425E+03  0.14117679620E+03  0.00000000000E+00 0. -1.
         13    1    5    5    0    0  0.11158113635E+02 -0.23057489653E+02  0.74950915730E+02  0.79207266698E+02  0.00000000000E+00 0. -1.
        -14    1    5    5    0    0 -0.57305862138E+01  0.42046538496E+01  0.70877822461E+03  0.70881386162E+03  0.00000000000E+00 0.  1.
          5    1    4    4  501    0  0.24691235094E+02  0.86181960271E+00  0.69252159388E+02  0.73646003310E+02  0.41800000000E+01 0.  1.
         -5    1    4    4    0  501  0.17002079271E+02  0.17362056230E+03  0.85875540654E+02  0.19448714928E+03  0.41800000000E+01 0.  1.
</event>
<event>
11    1  0.5813833E-009  0.1973586E+03  0.7561462E-02  0.1056407E+00
         22   -1    0    0    0    0  0.00000000000E+00  0.00000000000E+00  0.36746281117E+04  0.36746281117E+04  0.00000000000E+00 0. -1.
         22   -1    0    0    0    0 -0.00000000000E+00 -0.00000000000E+00 -0.14645648351E+03  0.14645648351E+03  0.00000000000E+00 0. -1.
         24    2    1    2    0    0  0.23870358432E+02  0.19945211244E+01 -0.97923857966E+02  0.12842367705E+03  0.79559956896E+02 0.  0.
         25    2    1    2    0    0 -0.17057257822E+02  0.15069540252E+03  0.28011429156E+03  0.34221906959E+03  0.12509924407E+03 0.  0.
        -24    2    1    2    0    0 -0.68131006100E+01 -0.15268992364E+03  0.33459811946E+04  0.33504418486E+04  0.80683300331E+02 0.  0.
        -11    1    3    3    0    0 -0.13244401426E+01 -0.35759104655E+02 -0.57049106342E+02  0.67342915305E+02  0.00000000000E+00 0.  1.
         12    1    3    3    0    0  0.25194798575E+02  0.37753625779E+02 -0.40874751624E+02  0.61080761742E+02  0.00000000000E+00 0. -1.
         13    1    5    5    0    0 -0.34490190900E+02 -0.11716521806E+03  0.27754689848E+04  0.27781550257E+04  0.00000000000E+00 0. -1.
        -14    1    5    5    0    0  0.27677090290E+02 -0.35524705582E+02  0.57051220982E+03  0.57228682283E+03  0.00000000000E+00 0.  1.
          5    1    4    4  501    0  0.48076977813E+00  0.14613134414E+03  0.14526103265E+03  0.20608940023E+03  0.41800000000E+01 0. -1.
         -5    1    4    4    0  501 -0.17538027600E+02  0.45640583793E+01  0.13485325891E+03  0.13612966936E+03  0.41800000000E+01 0. -1.
</event>
<event>
11    1  0.5813833E-009  0.1308488E+03  0.7561462E-02  0.1118231E+00
         22   -1    0    0    0    0  0.00000000000E+00  0.00000000000E+00  0.37548608545E+03  0.37548608545E+03  0.00000000000E+00 0.  1.
         22   -1    0    0    0    0 -0.00000000000E+00 -0.00000000000E+00 -0.85827456212E+03  0.85827456212E+03  0.00000000000E+00 0. -1.
         24    2    1    2    0    0 -0.22902506755E+02  0.16916308069E+02 -0.66494523450E+03  0.67022394457E+03  0.78976481992E+02 0.  0.
         25    2    1    2    0    0 -0.14742840090E+02 -0.61928032158E+01 -0.16331440764E+03  0.20634893722E+03  0.12511029535E+03 0.  0.
        -24    2    1    2    0    0  0.37645346845E+02 -0.10723504853E+02  0.34547116547E+03  0.35718776577E+03  0.81857242503E+02 0.  0.
        -13    1    3    3    0    0  0.11430834807E+02  0.12652156712E+02 -0.31368235286E+02  0.35703042431E+02  0.00000000000E+00 0.  1.
         14    1    3    3    0    0 -0.34333341562E+02  0.42641513567E+01 -0.63357699921E+03  0.63452090214E+03  0.00000000000E+00 0. -1.
         11    1    5    5    0    0 -0.10182998605E+02 -0.23675256162E+02  0.39062601173E+02  0.46798483152E+02  0.00000000000E+00 0. -1.
        -12    1    5    5    0    0  0.47828345450E+02  0.12951751309E+02  0.30640856430E+03  0.31038928262E+03  0.00000000000E+00 0.  1.
          5    1    4    4  501    0  0.11021147566E+02  0.39271805338E+02 -0.71516597036E+01  0.41621617276E+02  0.41800000000E+01 0.  1.
         -5    1    4    4    0  501 -0.25763987656E+02 -0.45464608554E+02 -0.15616274794E+03  0.16472731994E+03  0.41800000000E+01 0.  1.
</event>
<event>
11    1  0.5813833E-009  0.1880742E+03  0.7561462E-02  0.1063293E+00
         22   -1    0    0    0    0  0.00000000000E+00  0.00000000000E+00  0.72621631345E+03  0.72621631345E+03  0.00000000000E+00 0.  1.
         22   -1    0    0    0    0 -0.00000000000E+00 -0.00000000000E+00 -0.34485866427E+03  0.34485866427E+03  0.00000000000E+00 0. -1.
         24    2    1    2    0    0 -0.34449131464E+02  0.13475967940E+03 -0.28033314744E+03  0.32358409646E+03  0.82298724650E+02 0.  0.
         25    2    1    2    0    0  0.67403478181E+02 -0.14498589373E+03  0.23379653471E+03  0.30963349010E+03  0.12509172753E+03 0.  0.
        -24    2    1    2    0    0 -0.32954346717E+02  0.10226214329E+02  0.42789426190E+03  0.43785739115E+03  0.86226626929E+02 0.  0.
        -11    1    3    3    0    0  0.19622623544E+02  0.40216872446E+01 -0.38805238320E+02  0.43669987911E+02  0.00000000000E+00 0.  1.
         12    1    3    3    0    0 -0.54071755008E+02  0.13073799215E+03 -0.24152790912E+03  0.27991410855E+03  0.00000000000E+00 0. -1.
         11    1    5    5    0    0 -0.46334420843E+02  0.40739716088E+01  0.10757862486E+03  0.11720339725E+03  0.00000000000E+00 0. -1.
        -12    1    5    5    0    0  0.13380074126E+02  0.61522427202E+01  0.32031563704E+03  0.32065399391E+03  0.00000000000E+00 0.  1.
          5    1    4    4  501    0  0.53692946540E+02 -0.45534654085E+02  0.18489066888E+03  0.19788473683E+03  0.41800000000E+01 0. -1.
         -5    1    4    4    0  501  0.13710531641E+02 -0.99451239641E+02  0.48905865830E+02  0.11174875327E+03  0.41800000000E+01 0. -1.
</event>
<event>
11    1  0.5813833E-009  0.1827540E+03  0.7561462E-02  0.1067437E+00
         22   -1    0    0    0    0  0.00000000000E+00  0.00000000000E+00  0.51352525046E+03  0.51352525046E+03  0.00000000000E+00 0. -1.
         22   -1    0    0    0    0 -0.00000000000E+00 -0.00000000000E+00 -0.21408954327E+03  0.21408954327E+03  0.00000000000E+00 0. -1.
        -24    2    1    2    0    0 -0.31701398223E+02  0.14870421310E+02 -0.96654046339E+02  0.13079112316E+03  0.80859168589E+02 0.  0.
         25    2    1    2    0    0  0.53524031756E+02  0.11790224858E+03  0.93442286454E+01  0.18028044545E+03  0.12509181510E+03 0.  0.
         24    2    1    2    0    0 -0.21822633533E+02 -0.13277266989E+03  0.38674552489E+03  0.41654322513E+03  0.76363264566E+02 0.  0.
        -11    1    5    5    0    0 -0.26173753780E+01  0.43076283722E+01 -0.72339898254E+00  0.50921137213E+01  0.00000000000E+00 0.  1.
         12    1    5    5    0    0 -0.19205258155E+02 -0.13708029826E+03  0.38746892387E+03  0.41145111140E+03  0.00000000000E+00 0. -1.
         11    1    3    3    0    0 -0.16230039488E+02  0.47609780187E+02 -0.68175868713E+02  0.84723399519E+02  0.00000000000E+00 0. -1.
        -12    1    3    3    0    0 -0.15471358734E+02 -0.32739358876E+02 -0.28478177626E+02  0.46067723643E+02  0.00000000000E+00 0.  1.
          5    1    4    4  501    0  0.91281962639E+02  0.10326970688E+03  0.16737831180E+02  0.13890520672E+03  0.41800000000E+01 0. -1.
         -5    1    4    4    0  501 -0.37757930883E+02  0.14632541705E+02 -0.73936025342E+01  0.41375238727E+02  0.41800000000E+01 0. -1.
</event>
<event>
11    1  0.5813833E-009  0.1347646E+03  0.7561462E-02  0.1113550E+00
         22   -1    0    0    0    0  0.00000000000E+00  0.00000000000E+00  0.13075337865E+04  0.13075337865E+04  0.00000000000E+00 0.  1.
         22   -1    0    0    0    0 -0.00000000000E+00 -0.00000000000E+00 -0.15800761571E+04  0.15800761571E+04  0.00000000000E+00 0.  1.
         24    2    1    2    0    0  0.61041925319E+01  0.15587616621E+02 -0.14956687608E+04  0.14979411958E+04  0.80762299189E+02 0.  0.
         25    2    1    2    0    0  0.42758865538E+02 -0.27025095512E+02 -0.25972679002E+02  0.13740742079E+03  0.12509013896E+03 0.  0.
        -24    2    1    2    0    0 -0.48863058070E+02  0.11437478891E+02  0.12490990692E+04  0.12522613269E+04  0.73427050986E+02 0.  0.
        -13    1    3    3    0    0 -0.52500366890E+00  0.26455302482E+02 -0.14568125686E+04  0.14570528538E+04  0.00000000000E+00 0.  1.
         14    1    3    3    0    0  0.66291962008E+01 -0.10867685862E+02 -0.38856192186E+02  0.40888341975E+02  0.00000000000E+00 0. -1.
         11    1    5    5    0    0 -0.10943910832E+02 -0.14829874303E+02  0.74120690389E+02  0.76377818114E+02  0.00000000000E+00 0. -1.
        -12    1    5    5    0    0 -0.37919147238E+02  0.26267353194E+02  0.11749783789E+04  0.11758835088E+04  0.00000000000E+00 0.  1.
          5    1    4    4  501    0  0.32998050051E+02 -0.43493160951E+02 -0.70203277696E+02  0.89030887651E+02  0.41800000000E+01 0. -1.
         -5    1    4    4    0  501  0.97608154867E+01  0.16468065439E+02  0.44230598694E+02  0.48376533144E+02  0.41800000000E+01 0. -1.
</event>
<event>
11    1  0.5813833E-009  0.1420408E+03  0.7561462E-02  0.1105301E+00
         22   -1    0    0    0    0  0.00000000000E+00  0.00000000000E+00  0.40819036622E+03  0.40819036622E+03  0.00000000000E+00 0.  1.
         22   -1    0    0    0    0 -0.00000000000E+00 -0.00000000000E+00 -0.31267072900E+03  0.31267072900E+03  0.00000000000E+00 0.  1.
         24    2    1    2    0    0 -0.34396135566E+01  0.67953314888E+02 -0.26850394219E+03  0.28799488398E+03  0.78849237683E+02 0.  0.
         25    2    1    2    0    0 -0.15705814026E+02 -0.54651996434E+02  0.14622231568E+03  0.20065447252E+03  0.12509092065E+03 0.  0.
        -24    2    1    2    0    0  0.19145427582E+02 -0.13301318454E+02  0.21780126372E+03  0.23221173872E+03  0.77080663282E+02 0.  0.
        -13    1    3    3    0    0 -0.24392603289E+01  0.40954348063E+02 -0.25407444796E+03  0.25736556437E+03  0.00000000000E+00 0.  1.
         14    1    3    3    0    0 -0.10003532277E+01  0.26998966824E+02 -0.14429494224E+02  0.30629319609E+02  0.00000000000E+00 0. -1.
         11    1    5    5    0    0  0.66900634009E+01 -0.22812458024E+02  0.13556930442E+02  0.27367052315E+02  0.00000000000E+00 0. -1.
        -12    1    5    5    0    0  0.12455364182E+02  0.95111395701E+01  0.20424433327E+03  0.20484468640E+03  0.00000000000E+00 0.  1.
          5    1    4    4  501    0 -0.48251905443E+02  0.15006310932E+01  0.96788133236E+01  0.49413055966E+02  0.41800000000E+01 0.  1.
         -5    1    4    4    0  501  0.32546091417E+02 -0.56152627527E+02  0.13654350236E+03  0.15124141656E+03  0.41800000000E+01 0.  1.
</event>
<event>
11    1  0.5813833E-009  0.1529430E+03  0.7561462E-02  0.1093909E+00
         22   -1    0    0    0    0  0.00000000000E+00  0.00000000000E+00  0.27541851493E+03  0.27541851493E+03  0.00000000000E+00 0. -1.
         22   -1    0    0    0    0 -0.00000000000E+00 -0.00000000000E+00 -0.12098127946E+04  0.12098127946E+04  0.00000000000E+00 0.  1.
         24    2    1    2    0    0 -0.76530888963E+02  0.42275209949E+02 -0.11100731020E+04  0.11164790542E+04  0.81357338520E+02 0.  0.
         25    2    1    2    0    0  0.86993772511E+02 -0.51456279994E+02 -0.15292848334E+02  0.16154509165E+03  0.12508908913E+03 0.  0.
        -24    2    1    2    0    0 -0.10462883549E+02  0.91810700459E+01  0.19097167058E+03  0.20720716367E+03  0.79188798032E+02 0.  0.
        -13    1    3    3    0    0 -0.76864972531E+02  0.49505410377E+02 -0.65518420552E+03  0.66153257881E+03  0.00000000000E+00 0.  1.
         14    1    3    3    0    0  0.33408356859E+00 -0.72302004281E+01 -0.45488889643E+03  0.45494647543E+03  0.00000000000E+00 0. -1.
         13    1    5    5    0    0  0.66158108307E+01 -0.25742952356E+02  0.14305476607E+03  0.14550303998E+03  0.00000000000E+00 0. -1.
        -14    1    5    5    0    0 -0.17078694379E+02  0.34924022402E+02  0.47916904510E+02  0.61704123689E+02  0.00000000000E+00 0.  1.
          5    1    4    4  501    0  0.11285155940E+03 -0.61731303935E+02 -0.26250716493E+02  0.13134991763E+03  0.41800000000E+01 0.  1.
         -5    1    4    4    0  501 -0.25857786886E+02  0.10275023940E+02  0.10957868158E+02  0.30195174021E+02  0.41800000000E+01 0.  1.
</event>
<event>
11    1  0.5813833E-009  0.1684601E+03  0.7561462E-02  0.1079380E+00
         22   -1    0    0    0    0  0.00000000000E+00  0.00000000000E+00  0.29839728609E+03  0.29839728609E+03  0.00000000000E+00 0.  1.
         22   -1    0    0    0    0 -0.00000000000E+00 -0.00000000000E+00 -0.90200745686E+03  0.90200745686E+03  0.00000000000E+00 0.  1.
        -24    2    1    2    0    0 -0.43919934411E+02 -0.10498288957E+03 -0.79834336918E+03  0.81083853238E+03  0.84596824702E+02 0.  0.
         25    2    1    2    0    0  0.62360158782E+02  0.83435682750E+02 -0.14935568512E+02  0.16346965693E+03  0.12509578319E+03 0.  0.
         24    2    1    2    0    0 -0.18440224372E+02  0.21547206817E+02  0.20966876692E+03  0.22609655363E+03  0.79714087488E+02 0.  0.
        -11    1    5    5    0    0 -0.33903336718E+02 -0.15419187157E+02  0.14752731584E+03  0.15215615825E+03  0.00000000000E+00 0.  1.
         12    1    5    5    0    0  0.15463112346E+02  0.36966393974E+02  0.62141451081E+02  0.73940395382E+02  0.00000000000E+00 0. -1.
         11    1    3    3    0    0  0.21480041256E+02 -0.49545978033E+02 -0.24398865469E+03  0.24989329669E+03  0.00000000000E+00 0. -1.
        -12    1    3    3    0    0 -0.65399975667E+02 -0.55436911534E+02 -0.55435471448E+03  0.56094523569E+03  0.00000000000E+00 0.  1.
          5    1    4    4  501    0  0.66971695163E+02 -0.31498837222E+01  0.19701895766E+02  0.70005477052E+02  0.41800000000E+01 0. -1.
         -5    1    4    4    0  501 -0.46115363809E+01  0.86585566472E+02 -0.34637464278E+02  0.93464179880E+02  0.41800000000E+01 0. -1.
</event>
<event>
11    1  0.5813833E-009  0.1367512E+03  0.7561462E-02  0.1111241E+00
         22   -1    0    0    0    0  0.00000000000E+00  0.00000000000E+00  0.52762892992E+03  0.52762892992E+03  0.00000000000E+00 0. -1.
         22   -1    0    0    0    0 -0.00000000000E+00 -0.00000000000E+00 -0.67663370137E+03  0.67663370137E+03  0.00000000000E+00 0. -1.
         24    2    1    2    0    0 -0.88578488204E+01 -0.20133476326E+01 -0.58697010102E+03  0.59244304171E+03  0.79826957387E+02 0.  0.
         25    2    1    2    0    0  0.33353686152E+02  0.51167779370E+02 -0.22665963373E+02  0.14103856848E+03  0.12509005507E+03 0.  0.
        -24    2    1    2    0    0 -0.24495837332E+02 -0.49154431738E+02  0.46063129294E+03  0.47078102111E+03  0.80233269884E+02 0.  0.
        -13    1    3    3    0    0  0.30073145417E+02 -0.60143351246E+01 -0.12077209729E+03  0.12460523980E+03  0.00000000000E+00 0.  1.
         14    1    3    3    0    0 -0.38930994237E+02  0.40009874920E+01 -0.46619800373E+03  0.46783780191E+03  0.00000000000E+00 0. -1.
         11    1    5    5    0    0  0.28366401610E+02 -0.28557619436E+02  0.20782569665E+03  0.21168776666E+03  0.00000000000E+00 0. -1.
        -12    1    5    5    0    0 -0.52862238942E+02 -0.20596812302E+02  0.25280559629E+03  0.25909325445E+03  0.00000000000E+00 0.  1.
          5    1    4    4  501    0 -0.17316391114E+02  0.78897847204E+02 -0.78715230699E+01  0.81265989012E+02  0.41800000000E+01 0. -1.
         -5    1    4    4    0  501  0.50670077266E+02 -0.27730067834E+02 -0.14794440304E+02  0.59772579467E+02  0.41800000000E+01 0. -1.
</event>
<event>
11    1  0.5813833E-009  0.1335541E+03  0.7561462E-02  0.1114978E+00
         22   -1    0    0    0    0  0.00000000000E+00  0.00000000000E+00  0.17208304110E+04  0.17208304110E+04  0.00000000000E+00 0.  1.
         22   -1    0    0    0    0 -0.00000000000E+00 -0.00000000000E+00 -0.38191091662E+03  0.38191091662E+03  0.00000000000E+00 0. -1.
        -24    2    1    2    0    0 -0.76985273692E+01  0.29259560403E+01 -0.27641228458E+03  0.28823105108E+03  0.81274591352E+02 0.  0.
         25    2    1    2    0    0  0.27604060408E+02  0.39405105125E+02 -0.52635543368E+02  0.14398972792E+03  0.12509114621E+03 0.  0.
         24    2    1    2    0    0 -0.19905533039E+02 -0.42331061166E+02  0.16679673223E+04  0.16705205486E+04  0.79597525233E+02 0.  0.
        -11    1    5    5    0    0  0.20188927845E+02  0.11220111108E+01  0.91925534437E+03  0.91947769950E+03  0.00000000000E+00 0.  1.
         12    1    5    5    0    0 -0.40094460884E+02 -0.43453072276E+02  0.74871197797E+03  0.75104284914E+03  0.00000000000E+00 0. -1.
         11    1    3    3    0    0  0.21352907765E+02 -0.30589791540E+02 -0.13026541702E+03  0.13550188518E+03  0.00000000000E+00 0. -1.
        -12    1    3    3    0    0 -0.29051435135E+02  0.33515747580E+02 -0.14614686756E+03  0.15272916590E+03  0.00000000000E+00 0.  1.
          5    1    4    4  501    0  0.70224778881E+01  0.66603850223E+02 -0.76796097569E+02  0.10198284690E+03  0.41800000000E+01 0. -1.
         -5    1    4    4    0  501  0.20581582520E+02 -0.27198745098E+02  0.24160554201E+02  0.42006881022E+02  0.41800000000E+01 0. -1.
</event>
<event>
11    1  0.5813833E-009  0.1305190E+03  0.7561462E-02  0.1118633E+00
         22   -1    0    0    0    0  0.00000000000E+00  0.00000000000E+00  0.12255457931E+04  0.12255457931E+04  0.00000000000E+00 0. -1.
         22   -1    0    0    0    0 -0.00000000000E+00 -0.00000000000E+00 -0.28026810278E+03  0.28026810278E+03  0.00000000000E+00 0.  1.
        -24    2    1    2    0    0  0.19489163581E+02 -0.27679787674E+02 -0.20267936974E+03  0.22127178746E+03  0.82074836983E+02 0.  0.
         25    2    1    2    0    0 -0.31371032489E+02  0.56450510957E+02  0.78126674161E+01  0.14099919867E+03  0.12509570091E+03 0.  0.
         24    2    1    2    0    0  0.11881868908E+02 -0.28770723284E+02  0.11401443927E+04  0.11435429097E+04  0.82414907664E+02 0.  0.
        -11    1    5    5    0    0  0.24677976907E+02  0.21132456169E+02  0.28453077216E+03  0.28637971917E+03  0.00000000000E+00 0.  1.
         12    1    5    5    0    0 -0.12796107999E+02 -0.49903179452E+02  0.85561362049E+03  0.85716319057E+03  0.00000000000E+00 0. -1.
         11    1    3    3    0    0  0.41228815214E+02 -0.42668068504E+02 -0.11096312036E+03  0.12583001770E+03  0.00000000000E+00 0. -1.
        -12    1    3    3    0    0 -0.21739651633E+02  0.14988280831E+02 -0.91716249379E+02  0.95441769763E+02  0.00000000000E+00 0.  1.
          5    1    4    4  501    0 -0.40771986938E+02 -0.15833149968E+02 -0.35165023103E+02  0.56276947381E+02  0.41800000000E+01 0.  1.
         -5    1    4    4    0  501  0.94009544485E+01  0.72283660926E+02  0.42977690519E+02  0.84722251290E+02  0.41800000000E+01 0.  1.
</event>
<event>
11    1  0.5813833E-009  0.1726095E+03  0.7561462E-02  0.1075783E+00
         22   -1    0    0    0    0  0.00000000000E+00  0.00000000000E+00  0.76624805733E+03  0.76624805733E+03  0.00000000000E+00 0. -1.
         22   -1    0    0    0    0 -0.00000000000E+00 -0.00000000000E+00 -0.18989528605E+04  0.18989528605E+04  0.00000000000E+00 0. -1.
        -24    2    1    2    0    0  0.78420809220E+02 -0.87293322299E+02 -0.17263624664E+04  0.17322634269E+04  0.81481699901E+02 0.  0.
         25    2    1    2    0    0 -0.46929171257E+02  0.16860272016E+03 -0.94540943714E+02  0.23495877291E+03  0.12505363077E+03 0.  0.
         24    2    1    2    0    0 -0.31491637963E+02 -0.81309397862E+02  0.68819860696E+03  0.69797871799E+03  0.77162339961E+02 0.  0.
        -13    1    5    5    0    0 -0.31542942481E+02 -0.10061524142E+02  0.96837559142E+02  0.10234111759E+03  0.00000000000E+00 0.  1.
         14    1    5    5    0    0  0.51304517732E-01 -0.71247873720E+02  0.59136104782E+03  0.59563760041E+03  0.00000000000E+00 0. -1.
         13    1    3    3    0    0  0.28753853370E+02 -0.76900309653E+02 -0.72850502488E+03  0.73311664350E+03  0.00000000000E+00 0. -1.
        -14    1    3    3    0    0  0.49666955850E+02 -0.10393012645E+02 -0.99785744149E+03  0.99914678339E+03  0.00000000000E+00 0.  1.
          5    1    4    4  501    0 -0.81506602846E+02  0.11838265487E+03 -0.97570884699E+02  0.17376803280E+03  0.41800000000E+01 0. -1.
         -5    1    4    4    0  501  0.34577431590E+02  0.50220065286E+02  0.30299409849E+01  0.61190740109E+02  0.41800000000E+01 0. -1.
</event>
<event>
11    1  0.5813833E-009  0.1582191E+03  0.7561462E-02  0.1088764E+00
         22   -1    0    0    0    0  0.00000000000E+00  0.00000000000E+00  0.81336696453E+03  0.81336696453E+03  0.00000000000E+00 0.  1.
         22   -1    0    0    0    0 -0.00000000000E+00 -0.00000000000E+00 -0.51246755572E+03  0.51246755572E+03  0.00000000000E+00 0. -1.
         24    2    1    2    0    0 -0.73176967534E+02  0.36412381752E+02 -0.45158119504E+03  0.46620619274E+03  0.82109124402E+02 0.  0.
         25    2    1    2    0    0  0.13715244897E+03  0.32213861465E+02  0.13945037591E+03  0.23439725452E+03  0.12508852248E+03 0.  0.
        -24    2    1    2    0    0 -0.63975481434E+02 -0.68626243217E+02  0.61303022794E+03  0.62523107299E+03  0.79406616715E+02 0.  0.
        -11    1    3    3    0    0  0.10501569811E+02  0.35446350450E+01 -0.81609189385E+01  0.13764011189E+02  0.00000000000E+00 0.  1.
         12    1    3    3    0    0 -0.83678537345E+02  0.32867746707E+02 -0.44342027610E+03  0.45244218155E+03  0.00000000000E+00 0. -1.
         11    1    5    5    0    0 -0.14716288298E+02 -0.30633904250E+02  0.62027249955E+02  0.70727540378E+02  0.00000000000E+00 0. -1.
        -12    1    5    5    0    0 -0.49259193135E+02 -0.37992338967E+02  0.55100297799E+03  0.55450353261E+03  0.00000000000E+00 0.  1.
          5    1    4    4  501    0  0.12169467120E+02 -0.98658895147E+01 -0.21084666495E+02  0.26598256843E+02  0.41800000000E+01 0.  1.
         -5    1    4    4    0  501  0.12498298185E+03  0.42079750980E+02  0.16053504241E+03  0.20779899767E+03  0.41800000000E+01 0.  1.
</event>
<event>
11    1  0.5813833E-009  0.1541039E+03  0.7561462E-02  0.1092758E+00
         22   -1    0    0    0    0  0.00000000000E+00  0.00000000000E+00  0.62206786482E+02  0.62206786482E+02  0.00000000000E+00 0. -1.
         22   -1    0    0    0    0 -0.00000000000E+00 -0.00000000000E+00 -0.80589793230E+03  0.80589793230E+03  0.00000000000E+00 0.  1.
        -24    2    1    2    0    0  0.78064911588E+02  0.10733693594E+02 -0.32232865430E+03  0.34107788235E+03  0.78924127140E+02 0.  0.
         25    2    1    2    0    0 -0.10470436977E+03 -0.37770771526E+02 -0.40344493464E+03  0.43681178430E+03  0.12508830234E+03 0.  0.
         24    2    1    2    0    0  0.26639458179E+02  0.27037077932E+02 -0.17917556875E+02  0.90215052136E+02  0.79856449160E+02 0.  0.
        -13    1    5    5    0    0  0.11925541480E+02 -0.28336285054E+01 -0.45409285913E+02  0.47034574913E+02  0.00000000000E+00 0.  1.
         14    1    5    5    0    0  0.14713916699E+02  0.29870706437E+02  0.27491729039E+02  0.43180477223E+02  0.00000000000E+00 0. -1.
         11    1    3    3    0    0  0.13926314861E+00  0.16747879468E+02 -0.10879727820E+02  0.19971963808E+02  0.00000000000E+00 0. -1.
        -12    1    3    3    0    0  0.77925648440E+02 -0.60141858734E+01 -0.31144892648E+03  0.32110591854E+03  0.00000000000E+00 0.  1.
          5    1    4    4  501    0  0.75898495176E+01  0.28637489772E+02 -0.35647829614E+02  0.46539787197E+02  0.41800000000E+01 0.  1.
         -5    1    4    4    0  501 -0.11229421928E+03 -0.66408261298E+02 -0.36779710503E+03  0.39027199710E+03  0.41800000000E+01 0.  1.
</event>
<event>
11    1  0.5813833E-009  0.1349384E+03  0.7561462E-02  0.1113346E+00
         22   -1    0    0    0    0  0.00000000000E+00  0.00000000000E+00  0.21339131649E+04  0.21339131649E+04  0.00000000000E+00 0.  1.
         22   -1    0    0    0    0 -0.00000000000E+00 -0.00000000000E+00 -0.37606540931E+03  0.37606540931E+03  0.00000000000E+00 0.  1.
         24    2    1    2    0    0  0.90687526522E+01  0.98632365092E+01 -0.28381680574E+03  0.29522743814E+03  0.80173158232E+02 0.  0.
         25    2    1    2    0    0 -0.16122457086E+02  0.40394493675E+02 -0.33655140599E+02  0.13664175226E+03  0.12508657494E+03 0.  0.
        -24    2    1    2    0    0  0.70537044340E+01 -0.50257730184E+02  0.20753197019E+04  0.20781093838E+04  0.94927086191E+02 0.  0.
        -13    1    3    3    0    0  0.17661903507E+02  0.36780166486E+02 -0.23744835748E+03  0.24092830044E+03  0.00000000000E+00 0.  1.
         14    1    3    3    0    0 -0.85931508545E+01 -0.26916929977E+02 -0.46368448256E+02  0.54299137698E+02  0.00000000000E+00 0. -1.
         11    1    5    5    0    0 -0.11178828757E+02 -0.58923655245E+00  0.28700107143E+02  0.30805998800E+02  0.00000000000E+00 0. -1.
        -12    1    5    5    0    0  0.18232533191E+02 -0.49668493632E+02  0.20466195948E+04  0.20473033850E+04  0.00000000000E+00 0.  1.
          5    1    4    4  501    0 -0.44324159737E+01  0.78827256581E+02 -0.49474255184E+02  0.93266055012E+02  0.41800000000E+01 0.  1.
         -5    1    4    4    0  501 -0.11690041113E+02 -0.38432762906E+02  0.15819114586E+02  0.43375697252E+02  0.41800000000E+01 0.  1.
</event>
<event>
11    1  0.5813833E-009  0.1293714E+03  0.7561462E-02  0.1120044E+00
         22   -1    0    0    0    0  0.00000000000E+00  0.00000000000E+00  0.32389514790E+03  0.32389514790E+03  0.00000000000E+00 0.  1.
         22   -1    0    0    0    0 -0.00000000000E+00 -0.00000000000E+00 -0.29317917376E+03  0.29317917376E+03  0.00000000000E+00 0. -1.
         24    2    1    2    0    0 -0.71410281251E+01  0.58121041503E+01 -0.16002371101E+03  0.17861562972E+03  0.78811041466E+02 0.  0.
         25    2    1    2    0    0 -0.15569262417E+02 -0.29811006771E+02 -0.82395039919E+02  0.15351635152E+03  0.12508888649E+03 0.  0.
        -24    2    1    2    0    0  0.22710290542E+02  0.23998902620E+02  0.27313472507E+03  0.28494234042E+03  0.74147519867E+02 0.  0.
        -13    1    3    3    0    0  0.32922768301E+02  0.15369415374E+02 -0.94240363685E+02  0.10100185023E+03  0.00000000000E+00 0.  1.
         14    1    3    3    0    0 -0.40063796426E+02 -0.95573112234E+01 -0.65783347328E+02  0.77613779496E+02  0.00000000000E+00 0. -1.
         11    1    5    5    0    0  0.15531054891E+02  0.93504644270E+01  0.88836592930E+01  0.20188220661E+02  0.00000000000E+00 0. -1.
        -12    1    5    5    0    0  0.71792356511E+01  0.14648438193E+02  0.26425106578E+03  0.26475411976E+03  0.00000000000E+00 0.  1.
          5    1    4    4  501    0 -0.50008754050E+02  0.20412858362E+02 -0.42298337523E+01  0.54340814879E+02  0.41800000000E+01 0.  1.
         -5    1    4    4    0  501  0.34439491633E+02 -0.50223865132E+02 -0.78165206166E+02  0.99175536640E+02  0.41800000000E+01 0.  1.
</event>
<event>
11    1  0.5813833E-009  0.1378448E+03  0.7561462E-02  0.1109989E+00
         22   -1    0    0    0    0  0.00000000000E+00  0.00000000000E+00  0.45949651352E+03  0.45949651352E+03  0.00000000000E+00 0.  1.
         22   -1    0    0    0    0 -0.00000000000E+00 -0.00000000000E+00 -0.95065290845E+03  0.95065290845E+03  0.00000000000E+00 0. -1.
         24    2    1    2    0    0  0.19599033712E+02 -0.21110286013E+02 -0.78402267918E+03  0.78877957674E+03  0.81559137509E+02 0.  0.
         25    2    1    2    0    0 -0.39141070276E+02 -0.33808781348E+02 -0.13073659356E+03  0.18818843793E+03  0.12509106362E+03 0.  0.
        -24    2    1    2    0    0  0.19542036565E+02  0.54919067361E+02  0.42360287782E+03  0.43318140730E+03  0.69345067498E+02 0.  0.
        -13    1    3    3    0    0 -0.28301505258E+02 -0.35269515500E+01 -0.14864955899E+03  0.15136084691E+03  0.00000000000E+00 0.  1.
         14    1    3    3    0    0  0.47900538969E+02 -0.17583334463E+02 -0.63537312019E+03  0.63741872983E+03  0.00000000000E+00 0. -1.
         13    1    5    5    0    0  0.20728515172E+02 -0.66875872137E+01  0.50096193762E+02  0.54626218920E+02  0.00000000000E+00 0. -1.
        -14    1    5    5    0    0 -0.11864786076E+01  0.61606654575E+02  0.37350668405E+03  0.37855518838E+03  0.00000000000E+00 0.  1.
          5    1    4    4  501    0  0.41340985039E+02 -0.34484305027E+02 -0.42764071214E+02  0.68880204152E+02  0.41800000000E+01 0. -1.
         -5    1    4    4    0  501 -0.80482055315E+02  0.67552367902E+00 -0.87972522350E+02  0.11930823378E+03  0.41800000000E+01 0. -1.
</event>
<event>
11    1  0.5813833E-009  0.1307011E+03  0.7561462E-02  0.1118410E+00
         22   -1    0    0    0    0  0.00000000000E+00  0.00000000000E+00  0.30757814073E+03  0.30757814073E+03  0.00000000000E+00 0. -1.
         22   -1    0    0    0    0 -0.00000000000E+00 -0.00000000000E+00 -0.32217322365E+03  0.32217322365E+03  0.00000000000E+00 0.  1.
        -24    2    1    2    0    0 -0.19103949633E+02 -0.34297048547E+02 -0.25268128035E+03  0.26890231925E+03  0.83182807270E+02 0.  0.
         25    2    1    2    0    0  0.60965596642E+01  0.25214506295E+02  0.22057388149E+02  0.12964123292E+03  0.12508949410E+03 0.  0.
         24    2    1    2    0    0  0.13007389969E+02  0.90825422522E+01  0.21602880929E+03  0.23120781221E+03  0.80851228916E+02 0.  0.
        -13    1    5    5    0    0  0.98572911216E+01 -0.11764720632E+01 -0.41556644340E+01  0.10761961794E+02  0.00000000000E+00 0.  1.
         14    1    5    5    0    0  0.31500988476E+01  0.10259014315E+02  0.22018447372E+03  0.22044585042E+03  0.00000000000E+00 0. -1.
         11    1    3    3    0    0  0.18301523919E+02 -0.44890303675E+02 -0.96986500056E+02  0.10842723982E+03  0.00000000000E+00 0. -1.
        -12    1    3    3    0    0 -0.37405473552E+02  0.10593255127E+02 -0.15569478029E+03  0.16047507943E+03  0.00000000000E+00 0.  1.
          5    1    4    4  501    0  0.53134833676E+02 -0.39595360863E+01 -0.22963624544E+02  0.58170344060E+02  0.41800000000E+01 0.  1.
         -5    1    4    4    0  501 -0.47038274012E+02  0.29174042381E+02  0.45021012693E+02  0.71470888862E+02  0.41800000000E+01 0.  1.
</event>
<event>
11    1  0.5813833E-009  0.1436383E+03  0.7561462E-02  0.1103562E+00
         22   -1    0    0    0    0  0.00000000000E+00  0.00000000000E+00  0.35101911435E+04  0.35101911435E+04  0.00000000000E+00 0. -1.
         22   -1    0    0    0    0 -0.00000000000E+00 -0.00000000000E+00 -0.21486828999E+03  0.21486828999E+03  0.00000000000E+00 0. -1.
         24    2    1    2    0    0  0.84013117539E+01  0.20888641921E+02 -0.19585911985E+03  0.21279084302E+03  0.80076405030E+02 0.  0.
         25    2    1    2    0    0  0.35306204705E+01  0.50786375866E+02  0.46832896483E+03  0.48741605726E+03  0.12510264713E+03 0.  0.
        -24    2    1    2    0    0 -0.11931932224E+02 -0.71675017787E+02  0.30228530086E+04  0.30248525333E+04  0.82540035115E+02 0.  0.
        -11    1    3    3    0    0 -0.29188203691E+01 -0.19382601533E+02 -0.94769987125E+01  0.21771960388E+02  0.00000000000E+00 0.  1.
         12    1    3    3    0    0  0.11320132123E+02  0.40271243455E+02 -0.18638212114E+03  0.19101888263E+03  0.00000000000E+00 0. -1.
         11    1    5    5    0    0 -0.33203283937E+02  0.14272683748E+01  0.10700164208E+04  0.10705324077E+04  0.00000000000E+00 0. -1.
        -12    1    5    5    0    0  0.21271351713E+02 -0.73102286162E+02  0.19528365878E+04  0.19543201256E+04  0.00000000000E+00 0.  1.
          5    1    4    4  501    0  0.29507343251E+02 -0.29181537564E+02  0.24930981039E+03  0.25277479977E+03  0.41800000000E+01 0.  1.
         -5    1    4    4    0  501 -0.25976722780E+02  0.79967913430E+02  0.21901915444E+03  0.23464125749E+03  0.41800000000E+01 0.  1.
</event>
<event>
11    1  0.5813833E-009  0.1545996E+03  0.7561462E-02  0.1092269E+00
         22   -1    0    0    0    0  0.00000000000E+00  0.00000000000E+00  0.32122607661E+04  0.32122607661E+04  0.00000000000E+00 0.  1.
         22   -1    0    0    0    0 -0.00000000000E+00 -0.00000000000E+00 -0.26753066836E+03  0.26753066836E+03  0.00000000000E+00 0.  1.
        -24    2    1    2    0    0  0.37333214957E+01 -0.92100181323E+02 -0.23881771129E+03  0.26875191071E+03  0.81837089351E+02 0.  0.
         25    2    1    2    0    0 -0.24081432328E+01  0.58624380489E+02  0.35176405216E+03  0.37792441901E+03  0.12508517478E+03 0.  0.
         24    2    1    2    0    0 -0.13251782629E+01  0.33475800834E+02  0.28317837569E+04  0.28331151047E+04  0.80122192221E+02 0.  0.
        -11    1    5    5    0    0 -0.37370124450E+01  0.53608919451E+01  0.25314938685E+04  0.25315023031E+04  0.00000000000E+00 0.  1.
         12    1    5    5    0    0  0.24118341821E+01  0.28114908889E+02  0.30028988841E+03  0.30161280166E+03  0.00000000000E+00 0. -1.
         13    1    3    3    0    0 -0.37599027988E+02 -0.29712476450E+02 -0.81600121107E+02  0.94631379188E+02  0.00000000000E+00 0. -1.
        -14    1    3    3    0    0  0.41332349484E+02 -0.62387704874E+02 -0.15721759018E+03  0.17412053152E+03  0.00000000000E+00 0.  1.
          5    1    4    4  501    0  0.20080707152E+02  0.80364063593E+02  0.32826074650E+03  0.33857673814E+03  0.41800000000E+01 0.  1.
         -5    1    4    4    0  501 -0.22488850384E+02 -0.21739683103E+02  0.23503305664E+02  0.39347680874E+02  0.41800000000E+01 0.  1.
</event>
<event>
11    1  0.5813833E-009  0.2059115E+03  0.7561462E-02  0.1050420E+00
         22   -1    0    0    0    0  0.00000000000E+00  0.00000000000E+00  0.41429691085E+03  0.41429691085E+03  0.00000000000E+00 0. -1.
         22   -1    0    0    0    0 -0.00000000000E+00 -0.00000000000E+00 -0.82376034876E+03  0.82376034876E+03  0.00000000000E+00 0.  1.
         24    2    1    2    0    0 -0.11148591402E+03  0.12577169621E+03 -0.73280181073E+03  0.75611208775E+03  0.80370186290E+02 0.  0.
         25    2    1    2    0    0  0.72642907502E+02 -0.98651385225E+02  0.35891079386E+02  0.17873020473E+03  0.12508888314E+03 0.  0.
        -24    2    1    2    0    0  0.38843006514E+02 -0.27120310988E+02  0.28744729344E+03  0.30321496714E+03  0.84077817353E+02 0.  0.
        -13    1    3    3    0    0 -0.11624999920E+03  0.92764209805E+02 -0.52532831109E+03  0.54597536150E+03  0.00000000000E+00 0.  1.
         14    1    3    3    0    0  0.47640851822E+01  0.33007486407E+02 -0.20747349964E+03  0.21013672625E+03  0.00000000000E+00 0. -1.
         11    1    5    5    0    0  0.28202084149E+02 -0.57432052899E+02  0.17799286222E+03  0.18914348324E+03  0.00000000000E+00 0. -1.
        -12    1    5    5    0    0  0.10640922366E+02  0.30311741912E+02  0.10945443122E+03  0.11407148390E+03  0.00000000000E+00 0.  1.
          5    1    4    4  501    0  0.59427879143E+02 -0.12823957526E+03  0.36551607244E+02  0.14604983353E+03  0.41800000000E+01 0.  1.
         -5    1    4    4    0  501  0.13215028359E+02  0.29588190038E+02 -0.66052785776E+00  0.32680371193E+02  0.41800000000E+01 0.  1.
</event>
<event>
11    1  0.5813833E-009  0.1355184E+03  0.7561462E-02  0.1112669E+00
         22   -1    0    0    0    0  0.00000000000E+00  0.00000000000E+00  0.16202524354E+04  0.16202524354E+04  0.00000000000E+00 0. -1.
         22   -1    0    0    0    0 -0.00000000000E+00 -0.00000000000E+00 -0.13119041671E+04  0.13119041671E+04  0.00000000000E+00 0.  1.
        -24    2    1    2    0    0 -0.18267146800E+02  0.28480448219E+02 -0.12909185956E+04  0.12939267051E+04  0.81428945989E+02 0.  0.
         25    2    1    2    0    0 -0.29450879619E+02 -0.16263046558E+01  0.21467360123E+03  0.25020273091E+03  0.12508657927E+03 0.  0.
         24    2    1    2    0    0  0.47718026419E+02 -0.26854143563E+02  0.13845932627E+04  0.13880271665E+04  0.80763584757E+02 0.  0.
        -11    1    5    5    0    0  0.25256845858E+02  0.10021667551E+02  0.13602001807E+03  0.13870756071E+03  0.00000000000E+00 0.  1.
         12    1    5    5    0    0  0.22461180561E+02 -0.36875811114E+02  0.12485732447E+04  0.12493196058E+04  0.00000000000E+00 0. -1.
         13    1    3    3    0    0 -0.10746555937E+02  0.12736562719E+02 -0.46673812019E+02  0.49559592642E+02  0.00000000000E+00 0. -1.
        -14    1    3    3    0    0 -0.75205908624E+01  0.15743885499E+02 -0.12442447836E+04  0.12443671125E+04  0.00000000000E+00 0.  1.
          5    1    4    4  501    0  0.24840814018E+02 -0.45568678681E+02  0.54302663956E+02  0.75231790026E+02  0.41800000000E+01 0.  1.
         -5    1    4    4    0  501 -0.54291693637E+02  0.43942374025E+02  0.16037093727E+03  0.17497094088E+03  0.41800000000E+01 0.  1.
</event>
<event>
11    1  0.5813833E-009  0.3040607E+03  0.7561462E-02  0.9984872E-01
         22   -1    0    0    0    0  0.00000000000E+00  0.00000000000E+00  0.67654951635E+03  0.67654951635E+03  0.00000000000E+00 0. -1.
         22   -1    0    0    0    0 -0.00000000000E+00 -0.00000000000E+00 -0.17809789949E+04  0.17809789949E+04  0.00000000000E+00 0.  1.
        -24    2    1    2    0    0 -0.11640824846E+03  0.43855667113E+02 -0.14248273569E+04  0.14324236757E+04  0.78932819433E+02 0.  0.
         25    2    1    2    0    0  0.40365190562E+02 -0.30901759438E+03 -0.22811139210E+03  0.40595985565E+03  0.12508946779E+03 0.  0.
         24    2    1    2    0    0  0.76043057895E+02  0.26516192727E+03  0.54850927041E+03  0.61914497991E+03  0.79904268347E+02 0.  0.
        -11    1    5    5    0    0  0.91249019182E+01 -0.13301735242E+01  0.59384760595E+01  0.10968076154E+02  0.00000000000E+00 0.  1.
         12    1    5    5    0    0  0.66918155977E+02  0.26649210079E+03  0.54257079435E+03  0.60817690376E+03  0.00000000000E+00 0. -1.
         11    1    3    3    0    0  0.10351471113E+02  0.12816903818E+02 -0.19332505974E+03  0.19402578360E+03  0.00000000000E+00 0. -1.
        -12    1    3    3    0    0 -0.12675971957E+03  0.31038763296E+02 -0.12315022971E+04  0.12383978921E+04  0.00000000000E+00 0.  1.
          5    1    4    4  501    0  0.80219572356E+02 -0.16624523504E+03 -0.15269095568E+03  0.23959269252E+03  0.41800000000E+01 0.  1.
         -5    1    4    4    0  501 -0.39854381794E+02 -0.14277235933E+03 -0.75420436420E+02  0.16636716313E+03  0.41800000000E+01 0.  1.
</event>
<event>
11    1  0.5813833E-009  0.2290343E+03  0.7561462E-02  0.1035701E+00
         22   -1    0    0    0    0  0.00000000000E+00  0.00000000000E+00  0.24307229433E+03  0.24307229433E+03  0.00000000000E+00 0.  1.
         22   -1    0    0    0    0 -0.00000000000E+00 -0.00000000000E+00 -0.10984875252E+04  0.10984875252E+04  0.00000000000E+00 0. -1.
        -24    2    1    2    0    0 -0.19255472352E+03 -0.42902546601E+01 -0.68846055879E+03  0.72145283533E+03  0.97059387837E+02 0.  0.
         25    2    1    2    0    0  0.18800933214E+03 -0.62862238176E+02 -0.33896518865E+03  0.41212022488E+03  0.12508601313E+03 0.  0.
         24    2    1    2    0    0  0.45453913772E+01  0.67152492836E+02  0.17201051659E+03  0.20798675929E+03  0.95607302776E+02 0.  0.
        -11    1    5    5    0    0  0.18666027814E+01  0.76579485524E+02  0.64813999085E+02  0.10034319253E+03  0.00000000000E+00 0.  1.
         12    1    5    5    0    0  0.26787885957E+01 -0.94269926878E+01  0.10719651751E+03  0.10764356676E+03  0.00000000000E+00 0. -1.
         13    1    3    3    0    0 -0.48212767367E+02  0.21400000055E+02 -0.32967732657E+03  0.33387058959E+03  0.00000000000E+00 0. -1.
        -14    1    3    3    0    0 -0.14434195615E+03 -0.25690254715E+02 -0.35878323222E+03  0.38758224574E+03  0.00000000000E+00 0.  1.
          5    1    4    4  501    0  0.59251242567E+02 -0.66382071361E+02 -0.67988927243E+02  0.11205916193E+03  0.41800000000E+01 0.  1.
         -5    1    4    4    0  501  0.12875808957E+03  0.35198331852E+01 -0.27097626141E+03  0.30006106296E+03  0.41800000000E+01 0.  1.
</event>
<event>
11    1  0.5813833E-009  0.1330426E+03  0.7561462E-02  0.1115586E+00
         22   -1    0    0    0    0  0.00000000000E+00  0.00000000000E+00  0.55259367800E+02  0.55259367800E+02  0.00000000000E+00 0.  1.
         22   -1    0    0    0    0 -0.00000000000E+00 -0.00000000000E+00 -0.77569910993E+03  0.77569910993E+03  0.00000000000E+00 0.  1.
        -24    2    1    2    0    0 -0.16182383867E+02 -0.15733758675E+02 -0.52419737210E+03  0.53107472718E+03  0.82146577667E+02 0.  0.
         25    2    1    2    0    0 -0.25321202192E+02  0.38209901309E+02 -0.11619293600E+03  0.17677552124E+03  0.12509047403E+03 0.  0.
         24    2    1    2    0    0  0.41503586059E+02 -0.22476142634E+02 -0.80049434026E+02  0.12310822931E+03  0.80746514427E+02 0.  0.
        -13    1    5    5    0    0 -0.42170736277E+01 -0.23046614853E+02  0.72787074182E+01  0.24533849022E+02  0.00000000000E+00 0.  1.
         14    1    5    5    0    0  0.45720659687E+02  0.57047221855E+00 -0.87328141444E+02  0.98574380286E+02  0.00000000000E+00 0. -1.
         13    1    3    3    0    0  0.22092274049E+02 -0.16629620924E+02 -0.69954460670E+02  0.75221269813E+02  0.00000000000E+00 0. -1.
        -14    1    3    3    0    0 -0.38274657917E+02  0.89586224913E+00 -0.45424291143E+03  0.45585345737E+03  0.00000000000E+00 0.  1.
          5    1    4    4  501    0 -0.44882747909E+02  0.11943316036E+02 -0.13212763102E+03  0.14011526376E+03  0.41800000000E+01 0. -1.
         -5    1    4    4    0  501  0.19561545717E+02  0.26266585274E+02  0.15934695026E+02  0.36660257478E+02  0.41800000000E+01 0. -1.
</event>
<event>
11    1  0.5813833E-009  0.1515074E+03  0.7561462E-02  0.1095348E+00
         22   -1    0    0    0    0  0.00000000000E+00  0.00000000000E+00  0.33239111294E+03  0.33239111294E+03  0.00000000000E+00 0.  1.
         22   -1    0    0    0    0 -0.00000000000E+00 -0.00000000000E+00 -0.95942180473E+03  0.95942180473E+03  0.00000000000E+00 0.  1.
         24    2    1    2    0    0 -0.19557113764E+02  0.85429433949E+02 -0.81808848034E+03  0.82664802260E+03  0.79984515477E+02 0.  0.
         25    2    1    2    0    0  0.72603254366E+02 -0.45719824564E+02 -0.81513374476E+02  0.17220140386E+03  0.12508940151E+03 0.  0.
        -24    2    1    2    0    0 -0.53046140602E+02 -0.39709609386E+02  0.27257116303E+03  0.29296349121E+03  0.84509302187E+02 0.  0.
        -13    1    3    3    0    0  0.22889744306E+02  0.14917812378E+02 -0.37406024607E+03  0.37505672799E+03  0.00000000000E+00 0.  1.
         14    1    3    3    0    0 -0.42446858070E+02  0.70511621572E+02 -0.44402823427E+03  0.45159129461E+03  0.00000000000E+00 0. -1.
         11    1    5    5    0    0 -0.85960656715E+01 -0.20923486164E+02  0.79478610987E+01  0.23976094643E+02  0.00000000000E+00 0. -1.
        -12    1    5    5    0    0 -0.44450074930E+02 -0.18786123222E+02  0.26462330193E+03  0.26898739657E+03  0.00000000000E+00 0.  1.
          5    1    4    4  501    0  0.16552074208E+02  0.35981264925E+02  0.55844035178E+01  0.40215426752E+02  0.41800000000E+01 0.  1.
         -5    1    4    4    0  501  0.56051180158E+02 -0.81701089489E+02 -0.87097777993E+02  0.13198597710E+03  0.41800000000E+01 0.  1.
</event>
<event>
11    1  0.5813833E-009  0.1546716E+03  0.7561462E-02  0.1092199E+00
         22   -1    0    0    0    0  0.00000000000E+00  0.00000000000E+00  0.69340781974E+03  0.69340781974E+03  0.00000000000E+00 0. -1.
         22   -1    0    0    0    0 -0.00000000000E+00 -0.00000000000E+00 -0.70928828772E+03  0.70928828772E+03  0.00000000000E+00 0. -1.
        -24    2    1    2    0    0 -0.77156773453E+01  0.67314356589E+02 -0.67464162758E+03  0.68282062325E+03  0.80696490552E+02 0.  0.
         25    2    1    2    0    0 -0.73166844999E+02 -0.90296530214E+02  0.34680460854E+03  0.38655841930E+03  0.12508846649E+03 0.  0.
         24    2    1    2    0    0  0.80882522345E+02  0.22982173624E+02  0.31195655105E+03  0.33331706491E+03  0.81934200984E+02 0.  0.
        -13    1    5    5    0    0  0.44737584528E+02 -0.23274126332E+02  0.84471454410E+02  0.98379688127E+02  0.00000000000E+00 0.  1.
         14    1    5    5    0    0  0.36144937817E+02  0.46256299956E+02  0.22748509664E+03  0.23493737678E+03  0.00000000000E+00 0. -1.
         13    1    3    3    0    0  0.10066920986E+02  0.19542720369E+01 -0.39352248854E+03  0.39365608222E+03  0.00000000000E+00 0. -1.
        -14    1    3    3    0    0 -0.17782598331E+02  0.65360084552E+02 -0.28111913904E+03  0.28916454103E+03  0.00000000000E+00 0.  1.
          5    1    4    4  501    0 -0.83626620626E+02 -0.55864262036E+02  0.33284856271E+03  0.34773533836E+03  0.41800000000E+01 0.  1.
         -5    1    4    4    0  501  0.10459775626E+02 -0.34432268177E+02  0.13956045834E+02  0.38823080935E+02  0.41800000000E+01 0.  1.
</event>
<event>
11    1  0.5813833E-009  0.1422393E+03  0.7561462E-02  0.1105083E+00
         22   -1    0    0    0    0  0.00000000000E+00  0.00000000000E+00  0.86542840197E+02  0.86542840197E+02  0.00000000000E+00 0.  1.
         22   -1    0    0    0    0 -0.00000000000E+00 -0.00000000000E+00 -0.17922104123E+04  0.17922104123E+04  0.00000000000E+00 0. -1.
        -24    2    1    2    0    0  0.72815443433E+02  0.37593293012E+01 -0.14806909994E+04  0.14847022624E+04  0.81109500514E+02 0.  0.
         25    2    1    2    0    0 -0.27536111143E+02  0.30187053198E+02 -0.25887097364E+03  0.29039925264E+03  0.12509216339E+03 0.  0.
         24    2    1    2    0    0 -0.45279332290E+02 -0.33946382499E+02  0.33894400893E+02  0.10365173745E+03  0.79951719473E+02 0.  0.
        -13    1    5    5    0    0 -0.48005631630E+02 -0.14639442878E+02  0.55312046767E+02  0.74687860283E+02  0.00000000000E+00 0.  1.
         14    1    5    5    0    0  0.27262993403E+01 -0.19306939622E+02 -0.21417645875E+02  0.28963877166E+02  0.00000000000E+00 0. -1.
         11    1    3    3    0    0  0.81125534687E+02  0.10052811113E+02 -0.84925161873E+03  0.85317684176E+03  0.00000000000E+00 0. -1.
        -12    1    3    3    0    0 -0.83100912545E+01 -0.62934818114E+01 -0.63143938066E+03  0.63152542069E+03  0.00000000000E+00 0.  1.
          5    1    4    4  501    0 -0.33716407102E+02 -0.11440059910E+02 -0.89820223319E+01  0.36957004800E+02  0.41800000000E+01 0.  1.
         -5    1    4    4    0  501  0.61802959590E+01  0.41627113108E+02 -0.24988895131E+03  0.25344224784E+03  0.41800000000E+01 0.  1.
</event>
<event>
11    1  0.5813833E-009  0.1862067E+03  0.7561462E-02  0.1064730E+00
         22   -1    0    0    0    0  0.00000000000E+00  0.00000000000E+00  0.57464873317E+03  0.57464873317E+03  0.00000000000E+00 0.  1.
         22   -1    0    0    0    0 -0.00000000000E+00 -0.00000000000E+00 -0.34674948563E+03  0.34674948563E+03  0.00000000000E+00 0.  1.
         24    2    1    2    0    0  0.15098683737E+02  0.41917332676E+02 -0.23255360721E+03  0.25008865673E+03  0.80486787559E+02 0.  0.
         25    2    1    2    0    0 -0.92963892730E+02  0.76059119983E+02 -0.94719117917E+01  0.17368022200E+03  0.12509127594E+03 0.  0.
        -24    2    1    2    0    0  0.77865208993E+02 -0.11797645266E+03  0.46992476653E+03  0.49762934007E+03  0.82608956778E+02 0.  0.
        -13    1    3    3    0    0 -0.22250206876E+02  0.28342293537E+02 -0.18327258632E+03  0.18678115057E+03  0.00000000000E+00 0.  1.
         14    1    3    3    0    0  0.37348890612E+02  0.13575039139E+02 -0.49281020882E+02  0.63307506164E+02  0.00000000000E+00 0. -1.
         13    1    5    5    0    0  0.47753807790E+02 -0.84009225986E+01  0.17420945867E+03  0.18083123942E+03  0.00000000000E+00 0. -1.
        -14    1    5    5    0    0  0.30111401203E+02 -0.10957553006E+03  0.29571530786E+03  0.31679810065E+03  0.00000000000E+00 0.  1.
          5    1    4    4  501    0  0.13645342920E+02  0.49381567263E+02 -0.33175866650E+02  0.61178796137E+02  0.41800000000E+01 0.  1.
         -5    1    4    4    0  501 -0.10660923565E+03  0.26677552720E+02  0.23703954859E+02  0.11250142586E+03  0.41800000000E+01 0.  1.
</event>
<event>
11    1  0.5813833E-009  0.2015798E+03  0.7561462E-02  0.1053412E+00
         22   -1    0    0    0    0  0.00000000000E+00  0.00000000000E+00  0.31849739655E+03  0.31849739655E+03  0.00000000000E+00 0.  1.
         22   -1    0    0    0    0 -0.00000000000E+00 -0.00000000000E+00 -0.10834839205E+04  0.10834839205E+04  0.00000000000E+00 0. -1.
         24    2    1    2    0    0 -0.65173713772E+02  0.19863931494E+02 -0.93517471049E+03  0.94114414051E+03  0.80983734964E+02 0.  0.
         25    2    1    2    0    0 -0.91721124532E+02  0.57842628419E+02 -0.45356391427E+02  0.17164517049E+03  0.12508528275E+03 0.  0.
        -24    2    1    2    0    0  0.15689483830E+03 -0.77706559914E+02  0.21554457797E+03  0.28919200605E+03  0.80735689305E+02 0.  0.
        -11    1    3    3    0    0 -0.11681151380E+02 -0.26445434808E+02 -0.43890993683E+03  0.43986104962E+03  0.00000000000E+00 0.  1.
         12    1    3    3    0    0 -0.53492562392E+02  0.46309366303E+02 -0.49626477366E+03  0.50128309089E+03  0.00000000000E+00 0. -1.
         11    1    5    5    0    0  0.36462674548E+01 -0.20717210899E+02  0.59768436330E+02  0.63362165960E+02  0.00000000000E+00 0. -1.
        -12    1    5    5    0    0  0.15324857085E+03 -0.56989349015E+02  0.15577614164E+03  0.22582984009E+03  0.00000000000E+00 0.  1.
          5    1    4    4  501    0 -0.52684908169E+02  0.59112335844E+02  0.31509331897E+02  0.85324546259E+02  0.41800000000E+01 0. -1.
         -5    1    4    4    0  501 -0.39036216363E+02 -0.12697074249E+01 -0.76865723324E+02  0.86320624227E+02  0.41800000000E+01 0. -1.
</event>
<event>
11    1  0.5813833E-009  0.1584703E+03  0.7561462E-02  0.1088525E+00
         22   -1    0    0    0    0  0.00000000000E+00  0.00000000000E+00  0.16129509158E+03  0.16129509158E+03  0.00000000000E+00 0. -1.
         22   -1    0    0    0    0 -0.00000000000E+00 -0.00000000000E+00 -0.30148905725E+03  0.30148905725E+03  0.00000000000E+00 0.  1.
         24    2    1    2    0    0 -0.83594875602E+00 -0.15575368536E+02 -0.10513047925E+03  0.13289854331E+03  0.79789186174E+02 0.  0.
         25    2    1    2    0    0  0.27965799187E+02 -0.81101980493E+02 -0.10381469854E+03  0.18380691776E+03  0.12509146342E+03 0.  0.
        -24    2    1    2    0    0 -0.27129850431E+02  0.96677349029E+02  0.68751212126E+02  0.14607868776E+03  0.80806653498E+02 0.  0.
        -11    1    3    3    0    0 -0.21053661885E+02 -0.20221506925E+02 -0.10807304416E+03  0.11194618749E+03  0.00000000000E+00 0.  1.
         12    1    3    3    0    0  0.20217713129E+02  0.46461383896E+01  0.29425649010E+01  0.20952355818E+02  0.00000000000E+00 0. -1.
         11    1    5    5    0    0 -0.52696659359E+02  0.85896816530E+02  0.58346073736E+02  0.11644511719E+03  0.00000000000E+00 0. -1.
        -12    1    5    5    0    0  0.25566808928E+02  0.10780532499E+02  0.10405138390E+02  0.29633570568E+02  0.00000000000E+00 0.  1.
          5    1    4    4  501    0  0.67636109112E+02 -0.31695709012E+02 -0.93061422109E+02  0.11940335804E+03  0.41800000000E+01 0.  1.
         -5    1    4    4    0  501 -0.39670309925E+02 -0.49406271482E+02 -0.10753276429E+02  0.64403559725E+02  0.41800000000E+01 0.  1.
</event>
<event>
11    1  0.5813833E-009  0.1565630E+03  0.7561462E-02  0.1090355E+00
         22   -1    0    0    0    0  0.00000000000E+00  0.00000000000E+00  0.77426891265E+03  0.77426891265E+03  0.00000000000E+00 0. -1.
         22   -1    0    0    0    0 -0.00000000000E+00 -0.00000000000E+00 -0.22740158277E+03  0.22740158277E+03  0.00000000000E+00 0. -1.
         24    2    1    2    0    0  0.88558843201E+02  0.28117781501E+02 -0.18050962364E+03  0.21839187046E+03  0.80486064079E+02 0.  0.
         25    2    1    2    0    0 -0.13011591096E+03 -0.28330667692E+02  0.57568907637E+03  0.60398536225E+03  0.12509047986E+03 0.  0.
        -24    2    1    2    0    0  0.41557067758E+02  0.21288619146E+00  0.15168787716E+03  0.17929326271E+03  0.86080350687E+02 0.  0.
        -13    1    3    3    0    0  0.10927772867E+02 -0.25977485123E+02 -0.37368347573E+02  0.46804266402E+02  0.00000000000E+00 0.  1.
         14    1    3    3    0    0  0.77631070334E+02  0.54095266624E+02 -0.14314127606E+03  0.17158760406E+03  0.00000000000E+00 0. -1.
         13    1    5    5    0    0  0.58650265335E+02 -0.17973216098E+02  0.13755122668E+03  0.15060952853E+03  0.00000000000E+00 0. -1.
        -14    1    5    5    0    0 -0.17093197578E+02  0.18186102289E+02  0.14136650474E+02  0.28683734180E+02  0.00000000000E+00 0.  1.
          5    1    4    4  501    0 -0.78124869985E+01 -0.38902569739E+02  0.29380864938E+03  0.29650537893E+03  0.41800000000E+01 0. -1.
         -5    1    4    4    0  501 -0.12230342396E+03  0.10571902047E+02  0.28188042699E+03  0.30747998332E+03  0.41800000000E+01 0. -1.
</event>
<event>
11    1  0.5813833E-009  0.1995433E+03  0.7561462E-02  0.1054847E+00
         22   -1    0    0    0    0  0.00000000000E+00  0.00000000000E+00  0.62812560791E+03  0.62812560791E+03  0.00000000000E+00 0. -1.
         22   -1    0    0    0    0 -0.00000000000E+00 -0.00000000000E+00 -0.26950015382E+03  0.26950015382E+03  0.00000000000E+00 0.  1.
         24    2    1    2    0    0 -0.12424625487E+02  0.24159895922E+02 -0.94783463641E+02  0.13219893283E+03  0.88060098643E+02 0.  0.
         25    2    1    2    0    0  0.59124946181E+01  0.13344904595E+03 -0.82450281274E+02  0.20072098472E+03  0.12508900578E+03 0.  0.
        -24    2    1    2    0    0  0.65121308694E+01 -0.15760894187E+03  0.53585919901E+03  0.56470584418E+03  0.82853019782E+02 0.  0.
        -13    1    3    3    0    0 -0.32091385503E+02  0.37369644333E+01 -0.98444761568E+02  0.10361077650E+03  0.00000000000E+00 0.  1.
         14    1    3    3    0    0  0.19666760015E+02  0.20422931489E+02  0.36612979264E+01  0.28588156334E+02  0.00000000000E+00 0. -1.
         13    1    5    5    0    0  0.25579780682E+02 -0.15194391500E+03  0.42483385931E+03  0.45191269787E+03  0.00000000000E+00 0. -1.
        -14    1    5    5    0    0 -0.19067649813E+02 -0.56650268707E+01  0.11102533970E+03  0.11279314631E+03  0.00000000000E+00 0.  1.
          5    1    4    4  501    0  0.32228494822E+02  0.74400852294E+02 -0.10446123355E+03  0.13230186853E+03  0.41800000000E+01 0.  1.
         -5    1    4    4    0  501 -0.26316000204E+02  0.59048193652E+02  0.22010952276E+02  0.68419116192E+02  0.41800000000E+01 0.  1.
</event>
<event>
11    1  0.5813833E-009  0.1508006E+03  0.7561462E-02  0.1096064E+00
         22   -1    0    0    0    0  0.00000000000E+00  0.00000000000E+00  0.11496140245E+03  0.11496140245E+03  0.00000000000E+00 0.  1.
         22   -1    0    0    0    0 -0.00000000000E+00 -0.00000000000E+00 -0.60484918331E+03  0.60484918331E+03  0.00000000000E+00 0. -1.
         24    2    1    2    0    0  0.63039029716E+02  0.43244373191E+02 -0.29891161761E+03  0.31889044389E+03  0.80616158305E+02 0.  0.
         25    2    1    2    0    0 -0.11275985952E+03 -0.13943232704E+02 -0.23706200014E+03  0.29112580372E+03  0.12508653813E+03 0.  0.
        -24    2    1    2    0    0  0.49720829804E+02 -0.29301140487E+02  0.46085836891E+02  0.10979433816E+03  0.81241458498E+02 0.  0.
        -13    1    3    3    0    0  0.79382899217E+02  0.39835707915E+02 -0.20362672073E+03  0.22215393246E+03  0.00000000000E+00 0.  1.
         14    1    3    3    0    0 -0.16343869501E+02  0.34086652762E+01 -0.95284896877E+02  0.96736511422E+02  0.00000000000E+00 0. -1.
         11    1    5    5    0    0 -0.12273505440E+02 -0.96008531495E+01 -0.14216985126E+02  0.21093553116E+02  0.00000000000E+00 0. -1.
        -12    1    5    5    0    0  0.61994335244E+02 -0.19700287337E+02  0.60302822017E+02  0.88700785040E+02  0.00000000000E+00 0.  1.
          5    1    4    4  501    0 -0.38093845176E+01 -0.33074336364E+02 -0.13980035843E+03  0.14377077503E+03  0.41800000000E+01 0. -1.
         -5    1    4    4    0  501 -0.10895047500E+03  0.19131103660E+02 -0.97261641714E+02  0.14735502869E+03  0.41800000000E+01 0. -1.
</event>
<event>
11    1  0.5813833E-009  0.2855195E+03  0.7561462E-02  0.1006513E+00
         22   -1    0    0    0    0  0.00000000000E+00  0.00000000000E+00  0.67720174498E+03  0.67720174498E+03  0.00000000000E+00 0. -1.
         22   -1    0    0    0    0 -0.00000000000E+00 -0.00000000000E+00 -0.22533190144E+03  0.22533190144E+03  0.00000000000E+00 0. -1.
        -24    2    1    2    0    0  0.12584489080E+02  0.53854229246E+02 -0.31758932959E+02  0.10365832477E+03  0.81717630278E+02 0.  0.
         25    2    1    2    0    0 -0.13515530776E+03 -0.26433506687E+03  0.99913631254E+02  0.33729877915E+03  0.12509095855E+03 0.  0.
         24    2    1    2    0    0  0.12257081868E+03  0.21048083763E+03  0.38371514524E+03  0.46157654250E+03  0.80559315411E+02 0.  0.
        -11    1    5    5    0    0 -0.46887646726E+00 -0.17792294903E+01  0.35847748538E+02  0.35894938055E+02  0.00000000000E+00 0.  1.
         12    1    5    5    0    0  0.12303969515E+03  0.21226006712E+03  0.34786739671E+03  0.42568160445E+03  0.00000000000E+00 0. -1.
         11    1    3    3    0    0 -0.24479109171E+02  0.41557121504E+02 -0.41257132962E+02  0.63469458433E+02  0.00000000000E+00 0. -1.
        -12    1    3    3    0    0  0.37063598251E+02  0.12297107742E+02  0.94982000029E+01  0.40188866337E+02  0.00000000000E+00 0.  1.
          5    1    4    4  501    0 -0.16821430519E+02 -0.48543773944E+02  0.73457721833E+02  0.89738329661E+02  0.41800000000E+01 0.  1.
         -5    1    4    4    0  501 -0.11833387724E+03 -0.21579129293E+03  0.26455909420E+02  0.24756044949E+03  0.41800000000E+01 0.  1.
</event>
<event>
11    1  0.5813833E-009  0.1278437E+03  0.7561462E-02  0.1121947E+00
         22   -1    0    0    0    0  0.00000000000E+00  0.00000000000E+00  0.24308984639E+03  0.24308984639E+03  0.00000000000E+00 0.  1.
         22   -1    0    0    0    0 -0.00000000000E+00 -0.00000000000E+00 -0.53950735258E+03  0.53950735258E+03  0.00000000000E+00 0.  1.
         24    2    1    2    0    0 -0.12543277759E+02 -0.33195441736E+02 -0.47322516622E+03  0.48025331419E+03  0.73769347831E+02 0.  0.
         25    2    1    2    0    0  0.34718869036E+02  0.36801235625E+02  0.37934527394E+02  0.14016748186E+03  0.12509262085E+03 0.  0.
        -24    2    1    2    0    0 -0.22175591277E+02 -0.36057938888E+01  0.13887313263E+03  0.16217640292E+03  0.80688785457E+02 0.  0.
        -11    1    3    3    0    0 -0.19220870641E+02 -0.54809869769E+02 -0.37390300441E+03  0.37838739461E+03  0.00000000000E+00 0.  1.
         12    1    3    3    0    0  0.66775928817E+01  0.21614428032E+02 -0.99322161805E+02  0.10186591958E+03  0.00000000000E+00 0. -1.
         11    1    5    5    0    0  0.13241276810E+02  0.18945789595E+02  0.75683915825E+01  0.24321901778E+02  0.00000000000E+00 0. -1.
        -12    1    5    5    0    0 -0.35416868087E+02 -0.22551583483E+02  0.13130474105E+03  0.13785450114E+03  0.00000000000E+00 0.  1.
          5    1    4    4  501    0 -0.18760455851E+02 -0.23098678937E+02  0.50518781473E+02  0.58780297328E+02  0.41800000000E+01 0.  1.
         -5    1    4    4    0  501  0.53479324887E+02  0.59899914562E+02 -0.12584254079E+02  0.81387184530E+02  0.41800000000E+01 0.  1.
</event>
<event>
11    1  0.5813833E-009  0.1371051E+03  0.7561462E-02  0.1110835E+00
         22   -1    0    0    0    0  0.00000000000E+00  0.00000000000E+00  0.99286050890E+03  0.99286050890E+03  0.00000000000E+00 0. -1.
         22   -1    0    0    0    0 -0.00000000000E+00 -0.00000000000E+00 -0.65471254670E+02  0.65471254670E+02  0.00000000000E+00 0.  1.
        -24    2    1    2    0    0 -0.11782278573E+02 -0.49682962937E+02  0.77491323618E+01  0.94813031090E+02  0.79512533084E+02 0.  0.
         25    2    1    2    0    0  0.24711635811E+02  0.83515471451E+02  0.29304978476E+03  0.33031811358E+03  0.12508549434E+03 0.  0.
         24    2    1    2    0    0 -0.12929357238E+02 -0.33832508514E+02  0.62659033711E+03  0.63320061890E+03  0.83760171354E+02 0.  0.
        -13    1    5    5    0    0 -0.40497595590E+01  0.21689771679E+01 -0.84453982134E+00  0.46710022426E+01  0.00000000000E+00 0.  1.
         14    1    5    5    0    0 -0.88795976791E+01 -0.36001485682E+02  0.62743487693E+03  0.62852961665E+03  0.00000000000E+00 0. -1.
         11    1    3    3    0    0  0.97510708081E+01 -0.12768159658E+02  0.38795233938E+02  0.41990230522E+02  0.00000000000E+00 0. -1.
        -12    1    3    3    0    0 -0.21533349381E+02 -0.36914803279E+02 -0.31046101577E+02  0.52822800568E+02  0.00000000000E+00 0.  1.
          5    1    4    4  501    0  0.49701216121E+01  0.50904875334E+02  0.28693105872E+03  0.29148398464E+03  0.41800000000E+01 0. -1.
         -5    1    4    4    0  501  0.19741514199E+02  0.32610596118E+02  0.61187260326E+01  0.38834128937E+02  0.41800000000E+01 0. -1.
</event>
<event>
11    1  0.1084380E-008  0.1617269E+03  0.7561462E-02  0.1085464E+00
         22   -1    0    0    0    0  0.00000000000E+00  0.00000000000E+00  0.60720188080E+03  0.60720188080E+03  0.00000000000E+00 0. -1.
         22   -1    0    0    0    0 -0.00000000000E+00 -0.00000000000E+00 -0.64644511639E+03  0.64644511639E+03  0.00000000000E+00 0.  1.
        -24    2    1    2    0    0 -0.60786972502E+02 -0.49233354779E+02 -0.48262971933E+03  0.49558777348E+03  0.80974168663E+02 0.  0.
         25    2    1    2    0    0 -0.44670614326E+02  0.46287770583E+02 -0.11666030427E+03  0.18274313239E+03  0.12508958532E+03 0.  0.
         24    2    1    2    0    0  0.10545758683E+03  0.29455841962E+01  0.56004678800E+03  0.57531609131E+03  0.78779572781E+02 0.  0.
        -13    1    5    5    0    0  0.28763017764E+02 -0.13537271430E+02  0.49848267153E+02  0.59122065651E+02  0.00000000000E+00 0.  1.
         14    1    5    5    0    0  0.76694569063E+02  0.16482855627E+02  0.51019852085E+03  0.51619402566E+03  0.00000000000E+00 0. -1.
         13    1    3    3    0    0 -0.22011843051E+02 -0.26812702885E+02 -0.51238410914E+02  0.61877435496E+02  0.00000000000E+00 0. -1.
        -14    1    3    3    0    0 -0.38775129450E+02 -0.22420651894E+02 -0.43139130841E+03  0.43371033798E+03  0.00000000000E+00 0.  1.
          5    1    4    4  501    0 -0.46554820737E+02  0.40689274852E+02 -0.14277504667E+03  0.15564432137E+03  0.41800000000E+01 0. -1.
         -5    1    4    4    0  501  0.18842064103E+01  0.55984957310E+01  0.26114742405E+02  0.27098811028E+02  0.41800000000E+01 0. -1.
</event>
<event>
11    1  0.5813833E-009  0.2085594E+03  0.7561462E-02  0.1048631E+00
         22   -1    0    0    0    0  0.00000000000E+00  0.00000000000E+00  0.13891708667E+03  0.13891708667E+03  0.00000000000E+00 0.  1.
         22   -1    0    0    0    0 -0.00000000000E+00 -0.00000000000E+00 -0.11863096767E+04  0.11863096767E+04  0.00000000000E+00 0.  1.
         24    2    1    2    0    0 -0.79197030075E+00  0.93469303013E+02 -0.74620568555E+03  0.75643312592E+03  0.81431020018E+02 0.  0.
         25    2    1    2    0    0  0.16281378961E+03 -0.34597381026E+02 -0.31205851773E+03  0.37515119822E+03  0.12511032802E+03 0.  0.
        -24    2    1    2    0    0 -0.16202181931E+03 -0.58871921987E+02  0.10871613261E+02  0.19364243921E+03  0.87534159959E+02 0.  0.
        -13    1    3    3    0    0  0.99868539467E+01  0.80497761664E+02 -0.72409600552E+03  0.72862517943E+03  0.00000000000E+00 0.  1.
         14    1    3    3    0    0 -0.10778824247E+02  0.12971541349E+02 -0.22109680022E+02  0.27807946487E+02  0.00000000000E+00 0. -1.
         13    1    5    5    0    0 -0.11697221358E+03 -0.17381899998E+02 -0.27444811816E+02  0.12139953415E+03  0.00000000000E+00 0. -1.
        -14    1    5    5    0    0 -0.45049605730E+02 -0.41490021989E+02  0.38316425077E+02  0.72242905062E+02  0.00000000000E+00 0.  1.
          5    1    4    4  501    0  0.16446864598E+03 -0.51720328329E+02 -0.31305971993E+03  0.35741962526E+03  0.41800000000E+01 0.  1.
         -5    1    4    4    0  501 -0.16548563685E+01  0.17122947303E+02  0.10012022036E+01  0.17731572965E+02  0.41800000000E+01 0.  1.
</event>
<event>
11    1  0.5813833E-009  0.1543332E+03  0.7561462E-02  0.1092532E+00
         22   -1    0    0    0    0  0.00000000000E+00  0.00000000000E+00  0.13259623862E+04  0.13259623862E+04  0.00000000000E+00 0. -1.
         22   -1    0    0    0    0 -0.00000000000E+00 -0.00000000000E+00 -0.13476108809E+03  0.13476108809E+03  0.00000000000E+00 0. -1.
         24    2    1    2    0    0 -0.12864265597E+02  0.56653806440E+02 -0.96908988817E+02  0.13669279074E+03  0.76931292803E+02 0.  0.
         25    2    1    2    0    0  0.72781165027E+02  0.22093534866E+02  0.38275340846E+03  0.40979423203E+03  0.12508364664E+03 0.  0.
        -24    2    1    2    0    0 -0.59916899431E+02 -0.78747341305E+02  0.90535687844E+03  0.91423645149E+03  0.79787425746E+02 0.  0.
        -13    1    3    3    0    0 -0.15035624358E+02  0.59238458652E+02 -0.27190055516E+02  0.66892182669E+02  0.00000000000E+00 0.  1.
         14    1    3    3    0    0  0.21713587618E+01 -0.25846522121E+01 -0.69718933302E+02  0.69800608068E+02  0.00000000000E+00 0. -1.
         11    1    5    5    0    0 -0.20026354512E+02 -0.80345864518E+02  0.48807898776E+03  0.49505313968E+03  0.00000000000E+00 0. -1.
        -12    1    5    5    0    0 -0.39890544919E+02  0.15985232129E+01  0.41727789068E+03  0.41918331181E+03  0.00000000000E+00 0.  1.
          5    1    4    4  501    0 -0.16591695805E+02 -0.11338833186E+02  0.63862583145E+01  0.21496748661E+02  0.41800000000E+01 0.  1.
         -5    1    4    4    0  501  0.89372860833E+02  0.33432368052E+02  0.37636715014E+03  0.38829748337E+03  0.41800000000E+01 0.  1.
</event>
<event>
11    1  0.5813833E-009  0.1509275E+03  0.7561462E-02  0.1095935E+00
         22   -1    0    0    0    0  0.00000000000E+00  0.00000000000E+00  0.66727838942E+03  0.66727838942E+03  0.00000000000E+00 0. -1.
         22   -1    0    0    0    0 -0.00000000000E+00 -0.00000000000E+00 -0.12482076440E+04  0.12482076440E+04  0.00000000000E+00 0. -1.
         24    2    1    2    0    0 -0.20746305453E+02  0.98525974105E+02 -0.12124871993E+04  0.12191386425E+04  0.77691984773E+02 0.  0.
         25    2    1    2    0    0  0.51416474953E+02  0.80107996121E+01  0.18340720954E+03  0.22801924991E+03  0.12508695780E+03 0.  0.
        -24    2    1    2    0    0 -0.30670169500E+02 -0.10653677372E+03  0.44815073511E+03  0.46832814105E+03  0.78749113437E+02 0.  0.
        -11    1    3    3    0    0 -0.27013632751E+02 -0.53502776965E+00 -0.20478683630E+03  0.20656154272E+03  0.00000000000E+00 0.  1.
         12    1    3    3    0    0  0.62673272985E+01  0.99061001875E+02 -0.10077003630E+04  0.10125770998E+04  0.00000000000E+00 0. -1.
         11    1    5    5    0    0 -0.21320496849E+02 -0.29520306470E+02  0.28888873217E+03  0.29117470984E+03  0.00000000000E+00 0. -1.
        -12    1    5    5    0    0 -0.93496726510E+01 -0.77016467247E+02  0.15926200294E+03  0.17715343120E+03  0.00000000000E+00 0.  1.
          5    1    4    4  501    0  0.70880157992E+02  0.40565810214E+02  0.67635265898E+02  0.10612060756E+03  0.41800000000E+01 0. -1.
         -5    1    4    4    0  501 -0.19463683039E+02 -0.32555010601E+02  0.11577194365E+03  0.12189864236E+03  0.41800000000E+01 0. -1.
</event>
<event>
11    1  0.5813833E-009  0.1415583E+03  0.7561462E-02  0.1105831E+00
         22   -1    0    0    0    0  0.00000000000E+00  0.00000000000E+00  0.41180298802E+03  0.41180298802E+03  0.00000000000E+00 0. -1.
         22   -1    0    0    0    0 -0.00000000000E+00 -0.00000000000E+00 -0.62382761368E+03  0.62382761368E+03  0.00000000000E+00 0.  1.
        -24    2    1    2    0    0  0.28737708849E+02 -0.82177257374E+01 -0.48005642401E+03  0.48767241582E+03  0.80478742479E+02 0.  0.
         25    2    1    2    0    0 -0.75708402199E+02  0.52988289141E+02 -0.87143755064E+02  0.17827279193E+03  0.12509050063E+03 0.  0.
         24    2    1    2    0    0  0.46970693349E+02 -0.44770563403E+02  0.35517555342E+03  0.36968539393E+03  0.79416417449E+02 0.  0.
        -11    1    5    5    0    0  0.22678583783E+02 -0.11307425540E+02  0.20860662045E+02  0.32822907484E+02  0.00000000000E+00 0.  1.
         12    1    5    5    0    0  0.24292109566E+02 -0.33463137863E+02  0.33431489137E+03  0.33686248645E+03  0.00000000000E+00 0. -1.
         13    1    3    3    0    0  0.18862092583E+02 -0.39658844396E+02 -0.15979244527E+03  0.16571731365E+03  0.00000000000E+00 0. -1.
        -14    1    3    3    0    0  0.98756162664E+01  0.31441118659E+02 -0.32026397874E+03  0.32195510218E+03  0.00000000000E+00 0.  1.
          5    1    4    4  501    0 -0.35003721002E+02  0.89238663438E+02 -0.33357259544E+02  0.10158237397E+03  0.41800000000E+01 0.  1.
         -5    1    4    4    0  501 -0.40704681196E+02 -0.36250374297E+02 -0.53786495520E+02  0.76690417969E+02  0.41800000000E+01 0.  1.
</event>
<event>
11    1  0.5813833E-009  0.2315129E+03  0.7561462E-02  0.1034236E+00
         22   -1    0    0    0    0  0.00000000000E+00  0.00000000000E+00  0.29542573012E+03  0.29542573012E+03  0.00000000000E+00 0.  1.
         22   -1    0    0    0    0 -0.00000000000E+00 -0.00000000000E+00 -0.72691026983E+03  0.72691026983E+03  0.00000000000E+00 0.  1.
        -24    2    1    2    0    0  0.18904891714E+03 -0.77212244970E+02 -0.41749595814E+03  0.47165381118E+03  0.80331928220E+02 0.  0.
         25    2    1    2    0    0 -0.17718710573E+03  0.38056094756E+02 -0.22863487117E+03  0.31743344874E+03  0.12508618340E+03 0.  0.
         24    2    1    2    0    0 -0.11861811418E+02  0.39156150213E+02  0.21464628960E+03  0.23324874004E+03  0.81596803991E+02 0.  0.
        -13    1    5    5    0    0  0.33705286829E+02  0.19578951594E+02  0.67218789138E+02  0.77702942794E+02  0.00000000000E+00 0.  1.
         14    1    5    5    0    0 -0.45567098246E+02  0.19577198619E+02  0.14742750046E+03  0.15554579724E+03  0.00000000000E+00 0. -1.
         13    1    3    3    0    0 -0.71981235167E+01 -0.26222484648E+01 -0.29732824013E+02  0.30703908431E+02  0.00000000000E+00 0. -1.
        -14    1    3    3    0    0  0.19624704066E+03 -0.74589996505E+02 -0.38776313412E+03  0.44094990274E+03  0.00000000000E+00 0.  1.
          5    1    4    4  501    0 -0.72872127247E+01 -0.23368511489E+02  0.14398184779E+01  0.24874410059E+02  0.41800000000E+01 0. -1.
         -5    1    4    4    0  501 -0.16989989300E+03  0.61424606246E+02 -0.23007468965E+03  0.29255903868E+03  0.41800000000E+01 0. -1.
</event>
<event>
11    1  0.5813833E-009  0.1428881E+03  0.7561462E-02  0.1104376E+00
         22   -1    0    0    0    0  0.00000000000E+00  0.00000000000E+00  0.21512266829E+04  0.21512266829E+04  0.00000000000E+00 0.  1.
         22   -1    0    0    0    0 -0.00000000000E+00 -0.00000000000E+00 -0.17735781439E+03  0.17735781439E+03  0.00000000000E+00 0. -1.
        -24    2    1    2    0    0  0.62786043837E+01 -0.32120108882E+02 -0.11120493968E+03  0.13859491476E+03  0.75966370986E+02 0.  0.
         25    2    1    2    0    0  0.32081632183E+02  0.88831916234E+02  0.69062981994E+02  0.17128138855E+03  0.12508908072E+03 0.  0.
         24    2    1    2    0    0 -0.38360236567E+02 -0.56711807352E+02  0.20160108262E+04  0.20187081940E+04  0.78710763275E+02 0.  0.
        -11    1    5    5    0    0 -0.25354672195E+02 -0.66438810015E+02  0.19212584941E+04  0.19225741016E+04  0.00000000000E+00 0.  1.
         12    1    5    5    0    0 -0.13005564372E+02  0.97270026635E+01  0.94752332060E+02  0.96134092372E+02  0.00000000000E+00 0. -1.
         13    1    3    3    0    0  0.20265333577E+02 -0.48357878576E+02 -0.10312921074E+03  0.11569270622E+03  0.00000000000E+00 0. -1.
        -14    1    3    3    0    0 -0.13986729194E+02  0.16237769693E+02 -0.80757289454E+01  0.22902208543E+02  0.00000000000E+00 0.  1.
          5    1    4    4  501    0 -0.35279143656E+02  0.87074507042E+01  0.54321230979E+02  0.65488214283E+02  0.41800000000E+01 0. -1.
         -5    1    4    4    0  501  0.67360775839E+02  0.80124465530E+02  0.14741751015E+02  0.10579317427E+03  0.41800000000E+01 0. -1.
</event>
<event>
11    1  0.5813833E-009  0.1292120E+03  0.7561462E-02  0.1120241E+00
         22   -1    0    0    0    0  0.00000000000E+00  0.00000000000E+00  0.32410448008E+04  0.32410448008E+04  0.00000000000E+00 0. -1.
         22   -1    0    0    0    0 -0.00000000000E+00 -0.00000000000E+00 -0.19003054207E+03  0.19003054207E+03  0.00000000000E+00 0. -1.
         24    2    1    2    0    0  0.18681328558E+02 -0.13846849553E+02 -0.13220584861E+03  0.15658233590E+03  0.80615843532E+02 0.  0.
         25    2    1    2    0    0  0.12625548197E+01 -0.12040869414E+02  0.42704449407E+02  0.13273239335E+03  0.12509053387E+03 0.  0.
        -24    2    1    2    0    0 -0.19943883378E+02  0.25887718967E+02  0.31405156579E+04  0.31417606136E+04  0.82177996455E+02 0.  0.
        -11    1    3    3    0    0  0.18347607017E+02  0.29650914675E+02 -0.87568685195E+02  0.94255429823E+02  0.00000000000E+00 0.  1.
         12    1    3    3    0    0  0.33372154123E+00 -0.43497764227E+02 -0.44637163417E+02  0.62326906074E+02  0.00000000000E+00 0. -1.
         11    1    5    5    0    0 -0.31289572179E+02  0.16642528535E+02  0.30378800844E+04  0.30380868023E+04  0.00000000000E+00 0. -1.
        -12    1    5    5    0    0  0.11345688802E+02  0.92451904318E+01  0.10263557353E+03  0.10367381133E+03  0.00000000000E+00 0.  1.
          5    1    4    4  501    0  0.58208729325E+02 -0.65441723099E+01  0.46988170257E+02  0.75209327247E+02  0.41800000000E+01 0. -1.
         -5    1    4    4    0  501 -0.56946174505E+02 -0.54966971041E+01 -0.42837208508E+01  0.57523066105E+02  0.41800000000E+01 0. -1.
</event>
<event>
11    1  0.5813833E-009  0.1453916E+03  0.7561462E-02  0.1101683E+00
         22   -1    0    0    0    0  0.00000000000E+00  0.00000000000E+00  0.10580306476E+04  0.10580306476E+04  0.00000000000E+00 0. -1.
         22   -1    0    0    0    0 -0.00000000000E+00 -0.00000000000E+00 -0.77459101560E+02  0.77459101560E+02  0.00000000000E+00 0. -1.
         24    2    1    2    0    0 -0.39672585209E+02 -0.61907875420E+02  0.10295577359E+02  0.11363581322E+03  0.86026740473E+02 0.  0.
         25    2    1    2    0    0  0.50812471127E+02  0.57707283878E+02  0.20418478632E+03  0.25149834616E+03  0.12509177958E+03 0.  0.
        -24    2    1    2    0    0 -0.11139885918E+02  0.42005915424E+01  0.76609118237E+03  0.77035558980E+03  0.80064305393E+02 0.  0.
        -13    1    3    3    0    0  0.20084643635E+02  0.46577211462E+01  0.12581412790E+02  0.24153244586E+02  0.00000000000E+00 0.  1.
         14    1    3    3    0    0 -0.59757228844E+02 -0.66565596567E+02 -0.22858354310E+01  0.89482568632E+02  0.00000000000E+00 0. -1.
         11    1    5    5    0    0 -0.38938205594E+02  0.35302962159E+01  0.64189681495E+03  0.64308643889E+03  0.00000000000E+00 0. -1.
        -12    1    5    5    0    0  0.27798319676E+02  0.67029532649E+00  0.12419436743E+03  0.12726915091E+03  0.00000000000E+00 0.  1.
          5    1    4    4  501    0  0.43328465199E+02  0.90048383772E+02  0.19087167751E+03  0.21548906467E+03  0.41800000000E+01 0.  1.
         -5    1    4    4    0  501  0.74840059280E+01 -0.32341099894E+02  0.13313108815E+02  0.36009281490E+02  0.41800000000E+01 0.  1.
</event>
<event>
11    1  0.5813833E-009  0.1509190E+03  0.7561462E-02  0.1095943E+00
         22   -1    0    0    0    0  0.00000000000E+00  0.00000000000E+00  0.28232281846E+03  0.28232281846E+03  0.00000000000E+00 0.  1.
         22   -1    0    0    0    0 -0.00000000000E+00 -0.00000000000E+00 -0.15749280041E+04  0.15749280041E+04  0.00000000000E+00 0.  1.
         24    2    1    2    0    0  0.34679174232E+02  0.77001828312E+02 -0.15043899251E+04  0.15089467914E+04  0.81236974595E+02 0.  0.
         25    2    1    2    0    0 -0.22450062592E+02 -0.80652112817E+02  0.65489361973E+02  0.16415771579E+03  0.12510048165E+03 0.  0.
        -24    2    1    2    0    0 -0.12229111640E+02  0.36502845047E+01  0.14629537744E+03  0.18414631534E+03  0.11110649056E+03 0.  0.
        -13    1    3    3    0    0  0.40177346155E+02  0.91639140785E+02 -0.13702936789E+04  0.13739420357E+04  0.00000000000E+00 0.  1.
         14    1    3    3    0    0 -0.54981719228E+01 -0.14637312473E+02 -0.13409624623E+03  0.13500475571E+03  0.00000000000E+00 0. -1.
         13    1    5    5    0    0 -0.13092851757E+02  0.54974284633E+02  0.52055258309E+02  0.76833226248E+02  0.00000000000E+00 0. -1.
        -14    1    5    5    0    0  0.86374011640E+00 -0.51324000129E+02  0.94240119135E+02  0.10731308909E+03  0.00000000000E+00 0.  1.
          5    1    4    4  501    0 -0.46635413803E+02 -0.91845101153E+02  0.82696613046E+02  0.13216121457E+03  0.41800000000E+01 0. -1.
         -5    1    4    4    0  501  0.24185351211E+02  0.11192988337E+02 -0.17207251073E+02  0.31996501224E+02  0.41800000000E+01 0. -1.
</event>
<event>
11    1  0.5813833E-009  0.1347783E+03  0.7561462E-02  0.1113533E+00
         22   -1    0    0    0    0  0.00000000000E+00  0.00000000000E+00  0.17542386384E+03  0.17542386384E+03  0.00000000000E+00 0.  1.
         22   -1    0    0    0    0 -0.00000000000E+00 -0.00000000000E+00 -0.55931641077E+03  0.55931641077E+03  0.00000000000E+00 0.  1.
        -24    2    1    2    0    0 -0.34310283791E+02  0.49388186037E+02 -0.31683051299E+03  0.33293790608E+03  0.82762834955E+02 0.  0.
         25    2    1    2    0    0 -0.21134437432E+02 -0.39668967296E+02 -0.19764254462E+03  0.23818128809E+03  0.12508980430E+03 0.  0.
         24    2    1    2    0    0  0.55444721223E+02 -0.97192187416E+01  0.13058051068E+03  0.16362108045E+03  0.80944474009E+02 0.  0.
        -13    1    5    5    0    0  0.64253428604E+02  0.16254017278E+02  0.11312693594E+03  0.13111216496E+03  0.00000000000E+00 0.  1.
         14    1    5    5    0    0 -0.88087073817E+01 -0.25973236019E+02  0.17453574743E+02  0.32508915490E+02  0.00000000000E+00 0. -1.
         13    1    3    3    0    0  0.43489117701E+00  0.37084581456E+02 -0.43633016978E+02  0.57265133220E+02  0.00000000000E+00 0. -1.
        -14    1    3    3    0    0 -0.34745174968E+02  0.12303604581E+02 -0.27319749601E+03  0.27567277286E+03  0.00000000000E+00 0.  1.
          5    1    4    4  501    0 -0.35054382034E+02 -0.81075979482E+02 -0.14250627029E+03  0.16771295007E+03  0.41800000000E+01 0. -1.
         -5    1    4    4    0  501  0.13919944602E+02  0.41407012186E+02 -0.55136274329E+02  0.70468338017E+02  0.41800000000E+01 0. -1.
</event>
<event>
11    1  0.5813833E-009  0.1675486E+03  0.7561462E-02  0.1080185E+00
         22   -1    0    0    0    0  0.00000000000E+00  0.00000000000E+00  0.13220353873E+04  0.13220353873E+04  0.00000000000E+00 0. -1.
         22   -1    0    0    0    0 -0.00000000000E+00 -0.00000000000E+00 -0.18803035481E+04  0.18803035481E+04  0.00000000000E+00 0. -1.
        -24    2    1    2    0    0 -0.49713405744E+02  0.98208808269E+02 -0.17806059712E+04  0.17858076847E+04  0.80218885312E+02 0.  0.
         25    2    1    2    0    0  0.26830315796E+02 -0.20458641590E+03  0.62759168267E+02  0.24932288440E+03  0.12509084727E+03 0.  0.
         24    2    1    2    0    0  0.22883089948E+02  0.10637760763E+03  0.11595786422E+04  0.11672083663E+04  0.76895459850E+02 0.  0.
        -11    1    5    5    0    0  0.86924794537E+01 -0.11356433626E+02  0.15357813410E+03  0.15424257213E+03  0.00000000000E+00 0.  1.
         12    1    5    5    0    0  0.14190610494E+02  0.11773404126E+03  0.10060005081E+04  0.10129657942E+04  0.00000000000E+00 0. -1.
         13    1    3    3    0    0 -0.41639574698E+02  0.68354738896E+02 -0.16347883015E+04  0.16367464725E+04  0.00000000000E+00 0. -1.
        -14    1    3    3    0    0 -0.80738310463E+01  0.29854069373E+02 -0.14581766967E+03  0.14906121224E+03  0.00000000000E+00 0.  1.
          5    1    4    4  501    0  0.26867567512E+02 -0.91343583414E+02  0.91815589702E+02  0.13233703687E+03  0.41800000000E+01 0. -1.
         -5    1    4    4    0  501 -0.37251715842E-01 -0.11324283248E+03 -0.29056421435E+02  0.11698584754E+03  0.41800000000E+01 0. -1.
</event>
<event>
11    1  0.5813833E-009  0.1565897E+03  0.7561462E-02  0.1090329E+00
         22   -1    0    0    0    0  0.00000000000E+00  0.00000000000E+00  0.26626016455E+03  0.26626016455E+03  0.00000000000E+00 0. -1.
         22   -1    0    0    0    0 -0.00000000000E+00 -0.00000000000E+00 -0.98996812470E+03  0.98996812470E+03  0.00000000000E+00 0. -1.
        -24    2    1    2    0    0 -0.27564789334E+02  0.89877281894E+02 -0.88670295851E+03  0.89528458449E+03  0.80340569991E+02 0.  0.
         25    2    1    2    0    0  0.34379699802E+02 -0.91133594774E+02 -0.21168812094E+02  0.15994625038E+03  0.12508952214E+03 0.  0.
         24    2    1    2    0    0 -0.68149104678E+01  0.12563128808E+01  0.18416381045E+03  0.20099745438E+03  0.80222479769E+02 0.  0.
        -13    1    5    5    0    0  0.35524289808E+02  0.10773481108E+02  0.83967026243E+02  0.91806887310E+02  0.00000000000E+00 0.  1.
         14    1    5    5    0    0 -0.42339200276E+02 -0.95171682275E+01  0.10019678421E+03  0.10919056707E+03  0.00000000000E+00 0. -1.
         11    1    3    3    0    0  0.25677102174E+02  0.51589128899E+02 -0.45329822175E+03  0.45694641878E+03  0.00000000000E+00 0. -1.
        -12    1    3    3    0    0 -0.53241891508E+02  0.38288152995E+02 -0.43340473676E+03  0.43833816571E+03  0.00000000000E+00 0.  1.
          5    1    4    4  501    0  0.30079836630E+02  0.26769255630E+02 -0.51452547995E+01  0.40808524423E+02  0.41800000000E+01 0. -1.
         -5    1    4    4    0  501  0.42998631726E+01 -0.11790285040E+03 -0.16023557294E+02  0.11913772595E+03  0.41800000000E+01 0. -1.
</event>
<event>
11    1  0.5813833E-009  0.1508024E+03  0.7561462E-02  0.1096062E+00
         22   -1    0    0    0    0  0.00000000000E+00  0.00000000000E+00  0.23653512175E+04  0.23653512175E+04  0.00000000000E+00 0. -1.
         22   -1    0    0    0    0 -0.00000000000E+00 -0.00000000000E+00 -0.44979373581E+03  0.44979373581E+03  0.00000000000E+00 0.  1.
         24    2    1    2    0    0 -0.70589969355E+01 -0.61772238885E+01 -0.41476976124E+03  0.42250184110E+03  0.79911597160E+02 0.  0.
         25    2    1    2    0    0  0.77635974782E+02 -0.39547524664E+02  0.16674521220E+03  0.22592675515E+03  0.12509029384E+03 0.  0.
        -24    2    1    2    0    0 -0.70576977847E+02  0.45724748552E+02  0.21635820308E+04  0.21667163571E+04  0.80626954519E+02 0.  0.
        -11    1    3    3    0    0 -0.26247398696E+02 -0.33832132939E+02 -0.16463059658E+03  0.17010811999E+03  0.00000000000E+00 0.  1.
         12    1    3    3    0    0  0.19188401760E+02  0.27654909051E+02 -0.25013916466E+03  0.25239372111E+03  0.00000000000E+00 0. -1.
         11    1    5    5    0    0 -0.49270111271E+01  0.49103284667E+01  0.12057245681E+04  0.12057446334E+04  0.00000000000E+00 0. -1.
        -12    1    5    5    0    0 -0.65649966719E+02  0.40814420085E+02  0.95785746267E+03  0.96097172373E+03  0.00000000000E+00 0.  1.
          5    1    4    4  501    0  0.20486318074E+02  0.36912276818E+02  0.12048031651E+02  0.44100259350E+02  0.41800000000E+01 0. -1.
         -5    1    4    4    0  501  0.57149656708E+02 -0.76459801481E+02  0.15469718055E+03  0.18182649580E+03  0.41800000000E+01 0. -1.
</event>
<event>
11    1  0.5813833E-009  0.1402855E+03  0.7561462E-02  0.1107240E+00
         22   -1    0    0    0    0  0.00000000000E+00  0.00000000000E+00  0.55220910334E+03  0.55220910334E+03  0.00000000000E+00 0. -1.
         22   -1    0    0    0    0 -0.00000000000E+00 -0.00000000000E+00 -0.38006608843E+03  0.38006608843E+03  0.00000000000E+00 0. -1.
        -24    2    1    2    0    0 -0.42525279958E+02  0.46148530258E+02 -0.33706653919E+03  0.35203020825E+03  0.79833134733E+02 0.  0.
         25    2    1    2    0    0  0.10034033661E+03 -0.25701378660E+02  0.21632598395E+03  0.27050676568E+03  0.12509290519E+03 0.  0.
         24    2    1    2    0    0 -0.57815056652E+02 -0.20447151598E+02  0.29288357015E+03  0.30973821784E+03  0.79976941348E+02 0.  0.
        -13    1    5    5    0    0 -0.57807225701E+02  0.55146081862E+01  0.10429814162E+03  0.11937415379E+03  0.00000000000E+00 0.  1.
         14    1    5    5    0    0 -0.78309516569E-02 -0.25961759784E+02  0.18858542853E+03  0.19036406406E+03  0.00000000000E+00 0. -1.
         11    1    3    3    0    0 -0.41250557342E+02  0.55663283972E+02 -0.33515628248E+03  0.34224222906E+03  0.00000000000E+00 0. -1.
        -12    1    3    3    0    0 -0.12747226163E+01 -0.95147537142E+01 -0.19102567044E+01  0.97879791922E+01  0.00000000000E+00 0.  1.
          5    1    4    4  501    0  0.11982457955E+03 -0.35298988504E+02  0.12585861356E+03  0.17737477685E+03  0.41800000000E+01 0.  1.
         -5    1    4    4    0  501 -0.19484242945E+02  0.95976098435E+01  0.90467370392E+02  0.93131988830E+02  0.41800000000E+01 0.  1.
</event>
<event>
11    1  0.5813833E-009  0.1645834E+03  0.7561462E-02  0.1082844E+00
         22   -1    0    0    0    0  0.00000000000E+00  0.00000000000E+00  0.89268318716E+03  0.89268318716E+03  0.00000000000E+00 0. -1.
         22   -1    0    0    0    0 -0.00000000000E+00 -0.00000000000E+00 -0.11717623435E+04  0.11717623435E+04  0.00000000000E+00 0.  1.
        -24    2    1    2    0    0 -0.64526361476E+02 -0.85884724127E+02 -0.11395050877E+04  0.11474567382E+04  0.81518610198E+02 0.  0.
         25    2    1    2    0    0  0.58637869479E+02  0.57548861352E+02  0.19380117230E+03  0.24486107865E+03  0.12509109591E+03 0.  0.
         24    2    1    2    0    0  0.58884919969E+01  0.28335862775E+02  0.66662475909E+03  0.67212771385E+03  0.80805314378E+02 0.  0.
        -13    1    5    5    0    0  0.21220218620E+02 -0.22775814514E+02  0.30547514516E+03  0.30705716034E+03  0.00000000000E+00 0.  1.
         14    1    5    5    0    0 -0.15331726623E+02  0.51111677289E+02  0.36114961394E+03  0.36507055351E+03  0.00000000000E+00 0. -1.
         13    1    3    3    0    0 -0.13093959597E+02 -0.10961344814E+02 -0.32369830975E+02  0.36597934579E+02  0.00000000000E+00 0. -1.
        -14    1    3    3    0    0 -0.51432401879E+02 -0.74923379313E+02 -0.11071352568E+04  0.11108588036E+04  0.00000000000E+00 0.  1.
          5    1    4    4  501    0 -0.25372962573E+01  0.62744748833E+02  0.29680163040E+02  0.69582511140E+02  0.41800000000E+01 0. -1.
         -5    1    4    4    0  501  0.61175165736E+02 -0.51958874814E+01  0.16412100926E+03  0.17527856751E+03  0.41800000000E+01 0. -1.
</event>
<event>
11    1  0.5813833E-009  0.1415277E+03  0.7561462E-02  0.1105864E+00
         22   -1    0    0    0    0  0.00000000000E+00  0.00000000000E+00  0.81684363806E+03  0.81684363806E+03  0.00000000000E+00 0. -1.
         22   -1    0    0    0    0 -0.00000000000E+00 -0.00000000000E+00 -0.23211623369E+04  0.23211623369E+04  0.00000000000E+00 0. -1.
         24    2    1    2    0    0 -0.65810219629E+02 -0.21959425730E+01 -0.22405552940E+04  0.22431123064E+04  0.84433323623E+02 0.  0.
         25    2    1    2    0    0  0.87289006641E+02  0.46219084749E+02  0.69508277163E+01  0.15953665868E+03  0.12509219393E+03 0.  0.
        -24    2    1    2    0    0 -0.21478787011E+02 -0.44023142176E+02  0.72928576749E+03  0.73535700991E+03  0.80578074084E+02 0.  0.
        -13    1    3    3    0    0 -0.80235462448E+01 -0.33767532148E+02 -0.44563081219E+03  0.44698036231E+03  0.00000000000E+00 0.  1.
         14    1    3    3    0    0 -0.57786673385E+02  0.31571589575E+02 -0.17949244819E+04  0.17961319441E+04  0.00000000000E+00 0. -1.
         11    1    5    5    0    0 -0.28096059291E+02 -0.44872083245E+02  0.72598639488E+03  0.72791423805E+03  0.00000000000E+00 0. -1.
        -12    1    5    5    0    0  0.66172722795E+01  0.84894106916E+00  0.32993726074E+01  0.74427718601E+01  0.00000000000E+00 0.  1.
          5    1    4    4  501    0  0.93207145358E+02  0.51629845863E+02  0.48406444326E+02  0.11710623033E+03  0.41800000000E+01 0.  1.
         -5    1    4    4    0  501 -0.59181387179E+01 -0.54107611138E+01 -0.41455616610E+02  0.42430428353E+02  0.41800000000E+01 0.  1.
</event>
<event>
11    1  0.5813833E-009  0.1378804E+03  0.7561462E-02  0.1109949E+00
         22   -1    0    0    0    0  0.00000000000E+00  0.00000000000E+00  0.18070587299E+03  0.18070587299E+03  0.00000000000E+00 0. -1.
         22   -1    0    0    0    0 -0.00000000000E+00 -0.00000000000E+00 -0.12717387775E+04  0.12717387775E+04  0.00000000000E+00 0.  1.
        -24    2    1    2    0    0 -0.55251947531E+02 -0.26339310490E+02 -0.10751495875E+04  0.10798567434E+04  0.79983834226E+02 0.  0.
         25    2    1    2    0    0  0.37748532024E+02 -0.20838981485E+02 -0.15566906398E+03  0.20427192041E+03  0.12503977434E+03 0.  0.
         24    2    1    2    0    0  0.17503415506E+02  0.47178291975E+02  0.13978574699E+03  0.16831598668E+03  0.79107872705E+02 0.  0.
        -13    1    5    5    0    0  0.15060502280E+02 -0.95310634960E+01  0.41295302590E+00  0.17827799373E+02  0.00000000000E+00 0.  1.
         14    1    5    5    0    0  0.24429132265E+01  0.56709355471E+02  0.13937279396E+03  0.15048818731E+03  0.00000000000E+00 0. -1.
         13    1    3    3    0    0 -0.23390262804E+02 -0.16588492889E+02 -0.97247969593E+02  0.10138762291E+03  0.00000000000E+00 0. -1.
        -14    1    3    3    0    0 -0.31861684727E+02 -0.97508176009E+01 -0.97790161790E+03  0.97846912046E+03  0.00000000000E+00 0.  1.
          5    1    4    4  501    0 -0.35530811094E+02  0.61748103993E+01 -0.80094662658E+01  0.37177826326E+02  0.41800000000E+01 0.  1.
         -5    1    4    4    0  501  0.73279343118E+02 -0.27013791884E+02 -0.14765959771E+03  0.16709409408E+03  0.41800000000E+01 0.  1.
</event>
<event>
11    1  0.5813833E-009  0.1731263E+03  0.7561462E-02  0.1075343E+00
         22   -1    0    0    0    0  0.00000000000E+00  0.00000000000E+00  0.89334771451E+03  0.89334771451E+03  0.00000000000E+00 0.  1.
         22   -1    0    0    0    0 -0.00000000000E+00 -0.00000000000E+00 -0.36957875143E+03  0.36957875143E+03  0.00000000000E+00 0. -1.
        -24    2    1    2    0    0 -0.74125539059E+02  0.93758996663E+02 -0.33409292720E+03  0.36360284972E+03  0.79395234894E+02 0.  0.
         25    2    1    2    0    0  0.96417599835E+02 -0.83204404044E+02  0.47896600711E+03  0.51115189331E+03  0.12509394734E+03 0.  0.
         24    2    1    2    0    0 -0.22292060776E+02 -0.10554592619E+02  0.37889588317E+03  0.38817172292E+03  0.80665115086E+02 0.  0.
        -11    1    5    5    0    0 -0.35198108454E+02  0.27178421184E+02  0.20126775937E+03  0.20612201332E+03  0.00000000000E+00 0.  1.
         12    1    5    5    0    0  0.12906047678E+02 -0.37733013803E+02  0.17762812380E+03  0.18204970959E+03  0.00000000000E+00 0. -1.
         13    1    3    3    0    0 -0.86989353224E+02  0.55681949791E+02 -0.24268984902E+03  0.26375365386E+03  0.00000000000E+00 0. -1.
        -14    1    3    3    0    0  0.12863814165E+02  0.38077046872E+02 -0.91403078173E+02  0.99849195854E+02  0.00000000000E+00 0.  1.
          5    1    4    4  501    0  0.60217030065E+02  0.21494223983E+02  0.12882064865E+03  0.14387607270E+03  0.41800000000E+01 0.  1.
         -5    1    4    4    0  501  0.36200569770E+02 -0.10469862803E+03  0.35014535845E+03  0.36727582061E+03  0.41800000000E+01 0.  1.
</event>
<event>
11    1  0.6332740E-009  0.1547474E+03  0.7561462E-02  0.1092124E+00
         22   -1    0    0    0    0  0.00000000000E+00  0.00000000000E+00  0.34680032710E+03  0.34680032710E+03  0.00000000000E+00 0.  1.
         22   -1    0    0    0    0 -0.00000000000E+00 -0.00000000000E+00 -0.16295519683E+04  0.16295519683E+04  0.00000000000E+00 0. -1.
        -24    2    1    2    0    0 -0.53742091803E+02 -0.87343998065E+02 -0.12606388309E+04  0.12676734920E+04  0.85256283575E+02 0.  0.
         25    2    1    2    0    0  0.40444045679E+02  0.32707437434E+02 -0.34533603511E+03  0.37095720101E+03  0.12508705187E+03 0.  0.
         24    2    1    2    0    0  0.13298046125E+02  0.54636560630E+02  0.32322322486E+03  0.33772160235E+03  0.80128870053E+02 0.  0.
        -11    1    5    5    0    0 -0.10053270095E+02  0.54982067425E+02  0.29859455562E+03  0.30378084967E+03  0.00000000000E+00 0.  1.
         12    1    5    5    0    0  0.23351316220E+02 -0.34550679494E+00  0.24628669240E+02  0.33940752683E+02  0.00000000000E+00 0. -1.
         13    1    3    3    0    0 -0.30778993273E+02 -0.86472043121E+02 -0.11867390579E+04  0.11902833075E+04  0.00000000000E+00 0. -1.
        -14    1    3    3    0    0 -0.22963098530E+02 -0.87195494322E+00 -0.73899773048E+02  0.77390184495E+02  0.00000000000E+00 0.  1.
          5    1    4    4  501    0 -0.38928912996E+02 -0.32885463848E+01 -0.17748680702E+03  0.18178370079E+03  0.41800000000E+01 0.  1.
         -5    1    4    4    0  501  0.79372958675E+02  0.35995983819E+02 -0.16784922808E+03  0.18917350023E+03  0.41800000000E+01 0.  1.
</event>
<event>
11    1  0.5813833E-009  0.1376728E+03  0.7561462E-02  0.1110185E+00
         22   -1    0    0    0    0  0.00000000000E+00  0.00000000000E+00  0.38867674919E+03  0.38867674919E+03  0.00000000000E+00 0. -1.
         22   -1    0    0    0    0 -0.00000000000E+00 -0.00000000000E+00 -0.13128320394E+03  0.13128320394E+03  0.00000000000E+00 0.  1.
        -24    2    1    2    0    0 -0.27903644581E+01  0.59767585673E+02 -0.65841263930E+02  0.12049909318E+03  0.81271206404E+02 0.  0.
         25    2    1    2    0    0  0.33935599119E+02 -0.40883303627E+02  0.13415493689E+03  0.19096298133E+03  0.12508494611E+03 0.  0.
         24    2    1    2    0    0 -0.31145234661E+02 -0.18884282046E+02  0.18907987230E+03  0.20849787862E+03  0.79959524322E+02 0.  0.
        -13    1    5    5    0    0 -0.22029427362E+02 -0.33939462411E+02  0.35246415714E+02  0.53660903825E+02  0.00000000000E+00 0.  1.
         14    1    5    5    0    0 -0.91158072987E+01  0.15055180365E+02  0.15383345659E+03  0.15483697480E+03  0.00000000000E+00 0. -1.
         13    1    3    3    0    0  0.12026583807E+01  0.61601856218E+01  0.19028705862E+02  0.20037113586E+02  0.00000000000E+00 0. -1.
        -14    1    3    3    0    0 -0.39930228388E+01  0.53607400051E+02 -0.84869969792E+02  0.10046197959E+03  0.00000000000E+00 0.  1.
          5    1    4    4  501    0 -0.80542071898E+01 -0.73416322803E+02  0.10976023789E+03  0.13236165959E+03  0.41800000000E+01 0.  1.
         -5    1    4    4    0  501  0.41989806309E+02  0.32533019175E+02  0.24394698991E+02  0.58601321738E+02  0.41800000000E+01 0.  1.
</event>
<event>
11    1  0.5813833E-009  0.1765318E+03  0.7561462E-02  0.1072483E+00
         22   -1    0    0    0    0  0.00000000000E+00  0.00000000000E+00  0.51069397277E+03  0.51069397277E+03  0.00000000000E+00 0.  1.
         22   -1    0    0    0    0 -0.00000000000E+00 -0.00000000000E+00 -0.57054912944E+03  0.57054912944E+03  0.00000000000E+00 0.  1.
         24    2    1    2    0    0 -0.91210206579E+02  0.49657243799E+01 -0.48625609375E+03  0.50121647676E+03  0.80181092885E+02 0.  0.
         25    2    1    2    0    0  0.72455013212E+02 -0.12856419117E+03  0.89051490279E+02  0.21296944610E+03  0.12508931554E+03 0.  0.
        -24    2    1    2    0    0  0.18755193367E+02  0.12359846679E+03  0.33734944681E+03  0.36705717935E+03  0.72787261126E+02 0.  0.
        -13    1    3    3    0    0 -0.22939634088E+02  0.38009364471E+02 -0.21622474514E+03  0.22073531437E+03  0.00000000000E+00 0.  1.
         14    1    3    3    0    0 -0.68270572491E+02 -0.33043640091E+02 -0.27003134861E+03  0.28048116239E+03  0.00000000000E+00 0. -1.
         11    1    5    5    0    0  0.36045587073E+02  0.23680437888E+02  0.10785225717E+03  0.11615574399E+03  0.00000000000E+00 0. -1.
        -12    1    5    5    0    0 -0.17290393706E+02  0.99918028898E+02  0.22949718964E+03  0.25090143536E+03  0.00000000000E+00 0.  1.
          5    1    4    4  501    0 -0.20129294706E+02  0.12145523244E+02  0.18928652495E+02  0.30470781505E+02  0.41800000000E+01 0.  1.
         -5    1    4    4    0  501  0.92584307917E+02 -0.14070971441E+03  0.70122837783E+02  0.18249866460E+03  0.41800000000E+01 0.  1.
</event>
<event>
11    1  0.5813833E-009  0.2384902E+03  0.7561462E-02  0.1030216E+00
         22   -1    0    0    0    0  0.00000000000E+00  0.00000000000E+00  0.39829993880E+03  0.39829993880E+03  0.00000000000E+00 0. -1.
         22   -1    0    0    0    0 -0.00000000000E+00 -0.00000000000E+00 -0.27450409546E+03  0.27450409546E+03  0.00000000000E+00 0. -1.
         24    2    1    2    0    0  0.19128977767E+02  0.14167809682E+02 -0.11903252850E+03  0.14582772241E+03  0.80810501543E+02 0.  0.
         25    2    1    2    0    0 -0.58768288948E+02 -0.20249545900E+03  0.19477285348E+03  0.31311636794E+03  0.12508905915E+03 0.  0.
        -24    2    1    2    0    0  0.39639311181E+02  0.18832764932E+03  0.48055518367E+02  0.21385994391E+03  0.79925992485E+02 0.  0.
        -11    1    3    3    0    0  0.42253142989E+02 -0.16450992328E+02 -0.56265045131E+02  0.72261459607E+02  0.00000000000E+00 0.  1.
         12    1    3    3    0    0 -0.23124165222E+02  0.30618802010E+02 -0.62767483373E+02  0.73566262803E+02  0.00000000000E+00 0. -1.
         13    1    5    5    0    0  0.10642580026E+02  0.12734811498E+03  0.66229039422E+02  0.14393433420E+03  0.00000000000E+00 0. -1.
        -14    1    5    5    0    0  0.28996731155E+02  0.60979534341E+02 -0.18173521056E+02  0.69925609712E+02  0.00000000000E+00 0.  1.
          5    1    4    4  501    0 -0.89908267037E+02 -0.86066319841E+02  0.96218003019E+02  0.15737307393E+03  0.41800000000E+01 0.  1.
         -5    1    4    4    0  501  0.31139978089E+02 -0.11642913916E+03  0.98554850457E+02  0.15574329401E+03  0.41800000000E+01 0.  1.
</event>
<event>
11    1  0.5813833E-009  0.3152690E+03  0.7561462E-02  0.9939284E-01
         22   -1    0    0    0    0  0.00000000000E+00  0.00000000000E+00  0.59997196404E+03  0.59997196404E+03  0.00000000000E+00 0. -1.
         22   -1    0    0    0    0 -0.00000000000E+00 -0.00000000000E+00 -0.40394796748E+03  0.40394796748E+03  0.00000000000E+00 0.  1.
        -24    2    1    2    0    0  0.12270380246E+03  0.56799821783E+02 -0.19620751317E+03  0.25167927245E+03  0.81010030640E+02 0.  0.
         25    2    1    2    0    0  0.24557271528E+02  0.23771704279E+03  0.58417362139E+02  0.27598527252E+03  0.12507130139E+03 0.  0.
         24    2    1    2    0    0 -0.14726107399E+03 -0.29451686457E+03  0.33381414759E+03  0.47625538654E+03  0.83434409268E+02 0.  0.
        -13    1    5    5    0    0  0.44651008724E+01  0.23662586999E+01  0.11329716475E+02  0.12405594764E+02  0.00000000000E+00 0.  1.
         14    1    5    5    0    0 -0.15172617487E+03 -0.29688312327E+03  0.32248443112E+03  0.46384979178E+03  0.00000000000E+00 0. -1.
         11    1    3    3    0    0  0.97508987044E+02  0.19026282814E+02 -0.82139360490E+02  0.12890646428E+03  0.00000000000E+00 0. -1.
        -12    1    3    3    0    0  0.25194815421E+02  0.37773538970E+02 -0.11406815268E+03  0.12277280817E+03  0.00000000000E+00 0.  1.
          5    1    4    4  501    0 -0.42190838977E+02  0.84781389027E+02 -0.10554733441E+02  0.95377280402E+02  0.41800000000E+01 0. -1.
         -5    1    4    4    0  501  0.66748110505E+02  0.15293565376E+03  0.68972095580E+02  0.18060799211E+03  0.41800000000E+01 0. -1.
</event>
<event>
11    1  0.5813833E-009  0.1493945E+03  0.7561462E-02  0.1097499E+00
         22   -1    0    0    0    0  0.00000000000E+00  0.00000000000E+00  0.65642236394E+03  0.65642236394E+03  0.00000000000E+00 0. -1.
         22   -1    0    0    0    0 -0.00000000000E+00 -0.00000000000E+00 -0.23642943562E+03  0.23642943562E+03  0.00000000000E+00 0. -1.
        -24    2    1    2    0    0 -0.76123743978E+02 -0.27168158592E+02 -0.19276425708E+03  0.22349804901E+03  0.79122600225E+02 0.  0.
         25    2    1    2    0    0  0.11432615080E+03 -0.15759234473E+02  0.36693883635E+03  0.40448780083E+03  0.12508976444E+03 0.  0.
         24    2    1    2    0    0 -0.38202406821E+02  0.42927393065E+02  0.24581834906E+03  0.26486594972E+03  0.80156881332E+02 0.  0.
        -13    1    5    5    0    0  0.19392411411E+02  0.35633998346E+02  0.10005134396E+03  0.10796350720E+03  0.00000000000E+00 0.  1.
         14    1    5    5    0    0 -0.57594818232E+02  0.72933947190E+01  0.14576700510E+03  0.15690244252E+03  0.00000000000E+00 0. -1.
         11    1    3    3    0    0 -0.60002754561E+02 -0.40215999982E+01 -0.18457689688E+03  0.19412659448E+03  0.00000000000E+00 0. -1.
        -12    1    3    3    0    0 -0.16120989416E+02 -0.23146558594E+02 -0.81873602007E+01  0.29371454536E+02  0.00000000000E+00 0.  1.
          5    1    4    4  501    0  0.78891915914E+02 -0.48060529135E+02  0.11293413050E+03  0.14596348547E+03  0.41800000000E+01 0. -1.
         -5    1    4    4    0  501  0.35434234885E+02  0.32301294661E+02  0.25400470585E+03  0.25852431536E+03  0.41800000000E+01 0. -1.
</event>
<event>
11    1  0.5813833E-009  0.1585652E+03  0.7561462E-02  0.1088435E+00
         22   -1    0    0    0    0  0.00000000000E+00  0.00000000000E+00  0.58860239643E+03  0.58860239643E+03  0.00000000000E+00 0.  1.
         22   -1    0    0    0    0 -0.00000000000E+00 -0.00000000000E+00 -0.38727201314E+03  0.38727201314E+03  0.00000000000E+00 0.  1.
        -24    2    1    2    0    0  0.38287610156E+02 -0.90477867562E+01 -0.30581957310E+03  0.31846054149E+03  0.79647358167E+02 0.  0.
         25    2    1    2    0    0 -0.12148049214E+03 -0.35225201739E+02  0.50854230110E+02  0.18501823515E+03  0.12508904753E+03 0.  0.
         24    2    1    2    0    0  0.83192881980E+02  0.44272988495E+02  0.45629572627E+03  0.47239563292E+03  0.77914639630E+02 0.  0.
        -13    1    5    5    0    0  0.46660237433E+02 -0.17796400565E+02  0.20375067358E+03  0.20978137814E+03  0.00000000000E+00 0.  1.
         14    1    5    5    0    0  0.36532644547E+02  0.62069389060E+02  0.25254505270E+03  0.26261425479E+03  0.00000000000E+00 0. -1.
         11    1    3    3    0    0  0.52422863833E+02 -0.52075648997E+01 -0.10865452336E+03  0.12075214628E+03  0.00000000000E+00 0. -1.
        -12    1    3    3    0    0 -0.14135253677E+02 -0.38402218565E+01 -0.19716504974E+03  0.19770839521E+03  0.00000000000E+00 0.  1.
          5    1    4    4  501    0 -0.10567491918E+03  0.30567650949E+02  0.32508956918E+02  0.11478621219E+03  0.41800000000E+01 0.  1.
         -5    1    4    4    0  501 -0.15805572952E+02 -0.65792852687E+02  0.18345273192E+02  0.70232022964E+02  0.41800000000E+01 0.  1.
</event>
<event>
11    1  0.5813833E-009  0.1397367E+03  0.7561462E-02  0.1107853E+00
         22   -1    0    0    0    0  0.00000000000E+00  0.00000000000E+00  0.12296535897E+04  0.12296535897E+04  0.00000000000E+00 0. -1.
         22   -1    0    0    0    0 -0.00000000000E+00 -0.00000000000E+00 -0.41018753779E+03  0.41018753779E+03  0.00000000000E+00 0. -1.
        -24    2    1    2    0    0 -0.67353159004E+01 -0.12008983860E+02 -0.36683722163E+03  0.37583089703E+03  0.80558896539E+02 0.  0.
         25    2    1    2    0    0 -0.42225270669E+02  0.50291035091E+02  0.10024582275E+03  0.17322985959E+03  0.12508875882E+03 0.  0.
         24    2    1    2    0    0  0.48960586569E+02 -0.38282051231E+02  0.10860574508E+04  0.10907803708E+04  0.80114771139E+02 0.  0.
        -13    1    5    5    0    0  0.30415085835E+01 -0.15176780678E+01  0.27996977143E+00  0.34106457239E+01  0.00000000000E+00 0.  1.
         14    1    5    5    0    0  0.45919077986E+02 -0.36764373163E+02  0.10857774810E+04  0.10873697251E+04  0.00000000000E+00 0. -1.
         13    1    3    3    0    0 -0.23632013609E+02 -0.32528863056E+02 -0.31519607989E+03  0.31775016566E+03  0.00000000000E+00 0. -1.
        -14    1    3    3    0    0  0.16896697708E+02  0.20519879196E+02 -0.51641141739E+02  0.58080731364E+02  0.00000000000E+00 0.  1.
          5    1    4    4  501    0 -0.84801362511E+02  0.22727581821E+02  0.47386254774E+02  0.99853610854E+02  0.41800000000E+01 0. -1.
         -5    1    4    4    0  501  0.42576091842E+02  0.27563453270E+02  0.52859567973E+02  0.73376248739E+02  0.41800000000E+01 0. -1.
</event>
<event>
11    1  0.5813833E-009  0.1432321E+03  0.7561462E-02  0.1104002E+00
         22   -1    0    0    0    0  0.00000000000E+00  0.00000000000E+00  0.50265252748E+03  0.50265252748E+03  0.00000000000E+00 0.  1.
         22   -1    0    0    0    0 -0.00000000000E+00 -0.00000000000E+00 -0.10479233898E+04  0.10479233898E+04  0.00000000000E+00 0.  1.
         24    2    1    2    0    0 -0.40491531326E+02 -0.56648682435E+02 -0.97995676129E+03  0.98729019621E+03  0.97867462368E+02 0.  0.
         25    2    1    2    0    0  0.54489734622E+02  0.50775142032E+02  0.27497289395E+02  0.14815876151E+03  0.12509065297E+03 0.  0.
        -24    2    1    2    0    0 -0.13998203296E+02  0.58735404027E+01  0.40718860956E+03  0.41512695958E+03  0.79356037198E+02 0.  0.
        -13    1    3    3    0    0  0.12344956245E+02 -0.17297809667E+02 -0.67336183488E+03  0.67369709279E+03  0.00000000000E+00 0.  1.
         14    1    3    3    0    0 -0.52836487572E+02 -0.39350872768E+02 -0.30659492641E+03  0.31359310341E+03  0.00000000000E+00 0. -1.
         11    1    5    5    0    0 -0.38458378227E+02  0.17857151932E+02  0.13316120516E+03  0.13974917277E+03  0.00000000000E+00 0. -1.
        -12    1    5    5    0    0  0.24460174931E+02 -0.11983611529E+02  0.27402740440E+03  0.27537778681E+03  0.00000000000E+00 0.  1.
          5    1    4    4  501    0  0.39852067883E+02 -0.24206719812E+01 -0.42811749372E+02  0.58688714858E+02  0.41800000000E+01 0.  1.
         -5    1    4    4    0  501  0.14637666739E+02  0.53195814014E+02  0.70309038767E+02  0.89470046655E+02  0.41800000000E+01 0.  1.
</event>
<event>
11    1  0.5813833E-009  0.1325798E+03  0.7561462E-02  0.1116139E+00
         22   -1    0    0    0    0  0.00000000000E+00  0.00000000000E+00  0.85550853171E+03  0.85550853171E+03  0.00000000000E+00 0.  1.
         22   -1    0    0    0    0 -0.00000000000E+00 -0.00000000000E+00 -0.98113767679E+03  0.98113767679E+03  0.00000000000E+00 0. -1.
         24    2    1    2    0    0 -0.30215068998E+02  0.93389940713E+01 -0.90503624623E+03  0.90907049988E+03  0.79488361185E+02 0.  0.
         25    2    1    2    0    0  0.69730736541E+02 -0.25778230194E+02  0.27275414014E+01  0.14553773597E+03  0.12508757068E+03 0.  0.
        -24    2    1    2    0    0 -0.39515667543E+02  0.16439236122E+02  0.77667955975E+03  0.78203797265E+03  0.80749710060E+02 0.  0.
        -13    1    3    3    0    0  0.23393514456E+02  0.23303201546E+01 -0.12696766052E+03  0.12912580582E+03  0.00000000000E+00 0.  1.
         14    1    3    3    0    0 -0.53608583455E+02  0.70086739167E+01 -0.77806858571E+03  0.77994469406E+03  0.00000000000E+00 0. -1.
         13    1    5    5    0    0  0.42772443771E+01 -0.24924756307E+02  0.37666659163E+03  0.37751458190E+03  0.00000000000E+00 0. -1.
        -14    1    5    5    0    0 -0.43792911920E+02  0.41363992429E+02  0.40001296812E+03  0.40452339076E+03  0.00000000000E+00 0.  1.
          5    1    4    4  501    0 -0.22324656676E+02  0.24602850391E+02  0.20149671141E+02  0.39079050528E+02  0.41800000000E+01 0. -1.
         -5    1    4    4    0  501  0.92055393217E+02 -0.50381080585E+02 -0.17422129740E+02  0.10645868544E+03  0.41800000000E+01 0.  1.
</event>
<event>
11    1  0.5813833E-009  0.2804186E+03  0.7561462E-02  0.1008837E+00
         22   -1    0    0    0    0  0.00000000000E+00  0.00000000000E+00  0.27551301592E+03  0.27551301592E+03  0.00000000000E+00 0. -1.
         22   -1    0    0    0    0 -0.00000000000E+00 -0.00000000000E+00 -0.21683509400E+04  0.21683509400E+04  0.00000000000E+00 0. -1.
        -24    2    1    2    0    0  0.11599385536E+03  0.22224800100E+03 -0.20001889572E+04  0.20174589516E+04  0.80845582745E+02 0.  0.
         25    2    1    2    0    0 -0.17862440225E+03 -0.19508804767E+03  0.24931205551E+02  0.29365754742E+03  0.12508863547E+03 0.  0.
         24    2    1    2    0    0  0.62630546894E+02 -0.27159953330E+02  0.82419827608E+02  0.13274745691E+03  0.78540504611E+02 0.  0.
        -11    1    5    5    0    0  0.76619709580E+02 -0.36336555275E+02  0.56502661611E+02  0.10189934207E+03  0.00000000000E+00 0.  1.
         12    1    5    5    0    0 -0.13989162686E+02  0.91766019446E+01  0.25917165998E+02  0.30848114841E+02  0.00000000000E+00 0. -1.
         11    1    3    3    0    0  0.49080845581E+02  0.17407294799E+03 -0.13992107878E+04  0.14108512145E+04  0.00000000000E+00 0. -1.
        -12    1    3    3    0    0  0.66913009777E+02  0.48175053010E+02 -0.60097816937E+03  0.60660773707E+03  0.00000000000E+00 0.  1.
          5    1    4    4  501    0 -0.35582487532E+02  0.14590093754E+02  0.52509956959E+01  0.39038821839E+02  0.41800000000E+01 0.  1.
         -5    1    4    4    0  501 -0.14304191472E+03 -0.20967814143E+03  0.19680209855E+02  0.25461872558E+03  0.41800000000E+01 0.  1.
</event>
<event>
11    1  0.5813833E-009  0.1364042E+03  0.7561462E-02  0.1111641E+00
         22   -1    0    0    0    0  0.00000000000E+00  0.00000000000E+00  0.16475680859E+04  0.16475680859E+04  0.00000000000E+00 0. -1.
         22   -1    0    0    0    0 -0.00000000000E+00 -0.00000000000E+00 -0.69690681062E+02  0.69690681062E+02  0.00000000000E+00 0.  1.
         24    2    1    2    0    0  0.16712728726E+02  0.16236739635E+02 -0.25332415851E+02  0.90285655659E+02  0.83467486541E+02 0.  0.
         25    2    1    2    0    0 -0.29071804749E+02  0.38817083148E+02  0.44964543416E+03  0.46923357630E+03  0.12508875604E+03 0.  0.
        -24    2    1    2    0    0  0.12359076023E+02 -0.55053822783E+02  0.11535643866E+04  0.11577395351E+04  0.80413723255E+02 0.  0.
        -13    1    3    3    0    0 -0.24870140885E+02 -0.69029673754E+01 -0.33199509420E+02  0.42052137781E+02  0.00000000000E+00 0.  1.
         14    1    3    3    0    0  0.41582869611E+02  0.23139707011E+02  0.78670935693E+01  0.48233517878E+02  0.00000000000E+00 0. -1.
         11    1    5    5    0    0  0.14244511750E+02 -0.75800200758E+02  0.94190725064E+03  0.94505970465E+03  0.00000000000E+00 0. -1.
        -12    1    5    5    0    0 -0.18854357274E+01  0.20746377975E+02  0.21165713593E+03  0.21267983040E+03  0.00000000000E+00 0.  1.
          5    1    4    4  501    0 -0.35743150994E+02  0.81671866885E+02  0.33170500432E+03  0.34350189079E+03  0.41800000000E+01 0.  1.
         -5    1    4    4    0  501  0.66713462453E+01 -0.42854783737E+02  0.11794042984E+03  0.12573168551E+03  0.41800000000E+01 0.  1.
</event>
<event>
11    1  0.5813833E-009  0.1325530E+03  0.7561462E-02  0.1116171E+00
         22   -1    0    0    0    0  0.00000000000E+00  0.00000000000E+00  0.15873214495E+04  0.15873214495E+04  0.00000000000E+00 0.  1.
         22   -1    0    0    0    0 -0.00000000000E+00 -0.00000000000E+00 -0.99070600523E+03  0.99070600523E+03  0.00000000000E+00 0.  1.
         24    2    1    2    0    0  0.10951797391E+02  0.42436458770E+02 -0.97949701711E+03  0.98503131838E+03  0.94612349868E+02 0.  0.
         25    2    1    2    0    0 -0.13319443536E+02 -0.47406147422E+02  0.66224744439E+03  0.67575438241E+03  0.12509019684E+03 0.  0.
        -24    2    1    2    0    0  0.23676461444E+01  0.49696886521E+01  0.91386501699E+03  0.91724175394E+03  0.78440183206E+02 0.  0.
        -11    1    3    3    0    0 -0.39411070073E+02  0.26735124067E+02 -0.59971525663E+03  0.60160318179E+03  0.00000000000E+00 0.  1.
         12    1    3    3    0    0  0.50362867465E+02  0.15701334703E+02 -0.37978176048E+03  0.38342813659E+03  0.00000000000E+00 0. -1.
         13    1    5    5    0    0 -0.21565900345E+02  0.11222468713E+02  0.96928478500E+02  0.99930785077E+02  0.00000000000E+00 0. -1.
        -14    1    5    5    0    0  0.23933546490E+02 -0.62527800612E+01  0.81693653849E+03  0.81731096886E+03  0.00000000000E+00 0.  1.
          5    1    4    4  501    0 -0.68128957884E+02 -0.14612355573E+02  0.31290101512E+03  0.32059256619E+03  0.41800000000E+01 0. -1.
         -5    1    4    4    0  501  0.54809514348E+02 -0.32793791850E+02  0.34934642928E+03  0.35516181621E+03  0.41800000000E+01 0. -1.
</event>
<event>
11    1  0.5813833E-009  0.1952992E+03  0.7561462E-02  0.1057899E+00
         22   -1    0    0    0    0  0.00000000000E+00  0.00000000000E+00  0.29816054741E+03  0.29816054741E+03  0.00000000000E+00 0.  1.
         22   -1    0    0    0    0 -0.00000000000E+00 -0.00000000000E+00 -0.20426762039E+04  0.20426762039E+04  0.00000000000E+00 0. -1.
         24    2    1    2    0    0 -0.28202753421E+02  0.14704848386E+03 -0.17868118306E+04  0.17948965937E+04  0.80861685633E+02 0.  0.
         25    2    1    2    0    0  0.66540634348E+01 -0.15384989597E+03 -0.20463549672E+03  0.28502085235E+03  0.12508849949E+03 0.  0.
        -24    2    1    2    0    0  0.21548689986E+02  0.68014121142E+01  0.24693167080E+03  0.26091930529E+03  0.81197466576E+02 0.  0.
        -13    1    3    3    0    0 -0.48035111482E+02  0.48196728484E+02 -0.61397984551E+03  0.61773906082E+03  0.00000000000E+00 0.  1.
         14    1    3    3    0    0  0.19832358061E+02  0.98851755373E+02 -0.11728319851E+04  0.11771575328E+04  0.00000000000E+00 0. -1.
         11    1    5    5    0    0 -0.11995111323E+02 -0.30216737752E+02  0.12482344872E+03  0.12898770207E+03  0.00000000000E+00 0. -1.
        -12    1    5    5    0    0  0.33543801309E+02  0.37018149866E+02  0.12210822209E+03  0.13193160322E+03  0.00000000000E+00 0.  1.
          5    1    4    4  501    0  0.36380825565E+02 -0.16260277877E+03 -0.17901688877E+03  0.24459711158E+03  0.41800000000E+01 0. -1.
         -5    1    4    4    0  501 -0.29726762130E+02  0.87528827940E+01 -0.25618607958E+02  0.40423740768E+02  0.41800000000E+01 0. -1.
</event>
<event>
11    1  0.5813833E-009  0.1496346E+03  0.7561462E-02  0.1097253E+00
         22   -1    0    0    0    0  0.00000000000E+00  0.00000000000E+00  0.85927013335E+03  0.85927013335E+03  0.00000000000E+00 0.  1.
         22   -1    0    0    0    0 -0.00000000000E+00 -0.00000000000E+00 -0.43003229986E+03  0.43003229986E+03  0.00000000000E+00 0. -1.
         24    2    1    2    0    0  0.24285751825E+02  0.81334416137E+02 -0.31471017279E+03  0.33635089173E+03  0.82971950233E+02 0.  0.
         25    2    1    2    0    0 -0.76421471802E+02 -0.43702195283E+02 -0.43164815560E+02  0.15893856878E+03  0.12509254222E+03 0.  0.
        -24    2    1    2    0    0  0.52135719977E+02 -0.37632220854E+02  0.78711282184E+03  0.79401297270E+03  0.82314574478E+02 0.  0.
        -13    1    3    3    0    0  0.43630106775E+02  0.22476911003E+02 -0.82287093048E+02  0.95812125683E+02  0.00000000000E+00 0.  1.
         14    1    3    3    0    0 -0.19344354950E+02  0.58857505134E+02 -0.23242307974E+03  0.24053876605E+03  0.00000000000E+00 0. -1.
         11    1    5    5    0    0  0.15189352792E+02 -0.17621365941E+02  0.44517087714E+02  0.50229474161E+02  0.00000000000E+00 0. -1.
        -12    1    5    5    0    0  0.36946367184E+02 -0.20010854913E+02  0.74259573412E+03  0.74378349854E+03  0.00000000000E+00 0.  1.
          5    1    4    4  501    0 -0.51624985207E+02 -0.55722612033E+01  0.38903205427E+02  0.65016313222E+02  0.41800000000E+01 0. -1.
         -5    1    4    4    0  501 -0.24796486595E+02 -0.38129934080E+02 -0.82068020987E+02  0.93922255558E+02  0.41800000000E+01 0. -1.
</event>
<event>
11    1  0.5813833E-009  0.1497215E+03  0.7561462E-02  0.1097164E+00
         22   -1    0    0    0    0  0.00000000000E+00  0.00000000000E+00  0.40601880061E+03  0.40601880061E+03  0.00000000000E+00 0. -1.
         22   -1    0    0    0    0 -0.00000000000E+00 -0.00000000000E+00 -0.65429202124E+03  0.65429202124E+03  0.00000000000E+00 0. -1.
         24    2    1    2    0    0 -0.32264588319E+02  0.75003930526E+02 -0.59161150727E+03  0.60260754798E+03  0.80405771528E+02 0.  0.
         25    2    1    2    0    0  0.21890807529E+02 -0.95343685762E+02  0.72796603011E+02  0.17469016294E+03  0.12509069409E+03 0.  0.
        -24    2    1    2    0    0  0.10373780791E+02  0.20339755236E+02  0.27054168363E+03  0.28301311093E+03  0.79889282150E+02 0.  0.
        -11    1    3    3    0    0 -0.12880075850E+02  0.23197920017E+02 -0.38620800184E+02  0.46857294564E+02  0.00000000000E+00 0.  1.
         12    1    3    3    0    0 -0.19384512469E+02  0.51806010509E+02 -0.55299070709E+03  0.55575025342E+03  0.00000000000E+00 0. -1.
         13    1    5    5    0    0  0.20878777557E+02  0.39772486938E+02  0.24569032475E+03  0.24976290707E+03  0.00000000000E+00 0. -1.
        -14    1    5    5    0    0 -0.10504996766E+02 -0.19432731702E+02  0.24851358878E+02  0.33250203857E+02  0.00000000000E+00 0.  1.
          5    1    4    4  501    0 -0.12838682116E+02 -0.40506522796E+02  0.96450378287E+02  0.10547870884E+03  0.41800000000E+01 0.  1.
         -5    1    4    4    0  501  0.34729489644E+02 -0.54837162966E+02 -0.23653775276E+02  0.69211454095E+02  0.41800000000E+01 0.  1.
</event>
<event>
11    1  0.5813833E-009  0.1541120E+03  0.7561462E-02  0.1092750E+00
         22   -1    0    0    0    0  0.00000000000E+00  0.00000000000E+00  0.11098045884E+04  0.11098045884E+04  0.00000000000E+00 0. -1.
         22   -1    0    0    0    0 -0.00000000000E+00 -0.00000000000E+00 -0.16667910198E+03  0.16667910198E+03  0.00000000000E+00 0.  1.
        -24    2    1    2    0    0  0.75895325203E+02 -0.28020231322E+02 -0.49838630451E+02  0.12345139878E+03  0.78810691050E+02 0.  0.
         25    2    1    2    0    0 -0.77478340793E+02  0.10465422344E+03  0.29281403005E+02  0.18292175971E+03  0.12509024677E+03 0.  0.
         24    2    1    2    0    0  0.15830155900E+01 -0.76633992122E+02  0.96368271388E+03  0.97011053190E+03  0.80961697034E+02 0.  0.
        -13    1    5    5    0    0  0.20687653906E+02  0.98387906729E+01  0.20632215706E+03  0.20759001257E+03  0.00000000000E+00 0.  1.
         14    1    5    5    0    0 -0.19104638316E+02 -0.86472782795E+02  0.75736055682E+03  0.76252051933E+03  0.00000000000E+00 0. -1.
         11    1    3    3    0    0 -0.42779660628E+01  0.11253483025E+02  0.10271234199E+02  0.15825300180E+02  0.00000000000E+00 0. -1.
        -12    1    3    3    0    0  0.80173291266E+02 -0.39273714347E+02 -0.60109864650E+02  0.10762609860E+03  0.00000000000E+00 0.  1.
          5    1    4    4  501    0 -0.25490862704E+02 -0.16954605345E+02  0.39566155435E+02  0.50201551567E+02  0.41800000000E+01 0.  1.
         -5    1    4    4    0  501 -0.51987478090E+02  0.12160882879E+03 -0.10284752430E+02  0.13272020814E+03  0.41800000000E+01 0.  1.
</event>
<event>
11    1  0.5813833E-009  0.1301135E+03  0.7561462E-02  0.1119130E+00
         22   -1    0    0    0    0  0.00000000000E+00  0.00000000000E+00  0.73722274041E+03  0.73722274041E+03  0.00000000000E+00 0.  1.
         22   -1    0    0    0    0 -0.00000000000E+00 -0.00000000000E+00 -0.19664979003E+03  0.19664979003E+03  0.00000000000E+00 0.  1.
        -24    2    1    2    0    0  0.13087236646E+02 -0.33703168497E+02 -0.16273707425E+03  0.18565085586E+03  0.81704991380E+02 0.  0.
         25    2    1    2    0    0 -0.30796121263E+02  0.16296395128E+02  0.20404222726E+03  0.24187343358E+03  0.12512215546E+03 0.  0.
         24    2    1    2    0    0  0.17708884617E+02  0.17406773368E+02  0.49926779737E+03  0.50634824101E+03  0.80644946067E+02 0.  0.
        -11    1    5    5    0    0  0.50989151767E+01 -0.28062024945E+02  0.30913740401E+03  0.31045033539E+03  0.00000000000E+00 0.  1.
         12    1    5    5    0    0  0.12609969440E+02  0.45468798313E+02  0.19013039336E+03  0.19589790562E+03  0.00000000000E+00 0. -1.
         13    1    3    3    0    0 -0.87053644608E+01  0.48731044690E+01  0.56958853765E+01  0.11487977532E+02  0.00000000000E+00 0. -1.
        -14    1    3    3    0    0  0.21792601107E+02 -0.38576272966E+02 -0.16843295963E+03  0.17416287833E+03  0.00000000000E+00 0.  1.
          5    1    4    4  501    0 -0.16379717767E+02  0.66859392034E+02  0.72061037067E+02  0.99743365296E+02  0.41800000000E+01 0. -1.
         -5    1    4    4    0  501 -0.14416403496E+02 -0.50562996906E+02  0.13198119019E+03  0.14213006828E+03  0.41800000000E+01 0. -1.
</event>
<event>
11    1  0.5813833E-009  0.1379953E+03  0.7561462E-02  0.1109818E+00
         22   -1    0    0    0    0  0.00000000000E+00  0.00000000000E+00  0.10281836992E+04  0.10281836992E+04  0.00000000000E+00 0.  1.
         22   -1    0    0    0    0 -0.00000000000E+00 -0.00000000000E+00 -0.19624162974E+03  0.19624162974E+03  0.00000000000E+00 0. -1.
        -24    2    1    2    0    0  0.25057469118E+02 -0.17247620149E+02 -0.14264882759E+03  0.16721355316E+03  0.81769965088E+02 0.  0.
         25    2    1    2    0    0 -0.26467764745E+02 -0.42059622913E+02  0.78854558104E+02  0.15600535295E+03  0.12510025725E+03 0.  0.
         24    2    1    2    0    0  0.14102956273E+01  0.59307243063E+02  0.89573633895E+03  0.90120642284E+03  0.79436072650E+02 0.  0.
        -11    1    5    5    0    0 -0.29332523372E+02  0.58566204745E+02  0.49910481770E+03  0.50338456107E+03  0.00000000000E+00 0.  1.
         12    1    5    5    0    0  0.30742819000E+02  0.74103831707E+00  0.39663152125E+03  0.39782186177E+03  0.00000000000E+00 0. -1.
         11    1    3    3    0    0  0.54584262633E+02 -0.84084045116E+01 -0.77761910864E+02  0.95378497445E+02  0.00000000000E+00 0. -1.
        -12    1    3    3    0    0 -0.29526793515E+02 -0.88392156375E+01 -0.64886916722E+02  0.71835055719E+02  0.00000000000E+00 0.  1.
          5    1    4    4  501    0  0.18273358993E+02  0.31388103688E+02 -0.36664300658E+01  0.36742942335E+02  0.41800000000E+01 0. -1.
         -5    1    4    4    0  501 -0.44741123738E+02 -0.73447726601E+02  0.82520988170E+02  0.11926241061E+03  0.41800000000E+01 0. -1.
</event>
<event>
11    1  0.5813833E-009  0.1441539E+03  0.7561462E-02  0.1103007E+00
         22   -1    0    0    0    0  0.00000000000E+00  0.00000000000E+00  0.28771833340E+04  0.28771833340E+04  0.00000000000E+00 0. -1.
         22   -1    0    0    0    0 -0.00000000000E+00 -0.00000000000E+00 -0.37660414535E+03  0.37660414535E+03  0.00000000000E+00 0.  1.
         24    2    1    2    0    0  0.61800015633E+02  0.34143568953E+02 -0.34867224806E+03  0.36493573393E+03  0.81367856637E+02 0.  0.
         25    2    1    2    0    0 -0.11727448420E+03 -0.47673919381E+02  0.40487077808E+03  0.44226016676E+03  0.12509037105E+03 0.  0.
        -24    2    1    2    0    0  0.55474468562E+02  0.13530350428E+02  0.24443806587E+04  0.24465915787E+04  0.86908350679E+02 0.  0.
        -11    1    3    3    0    0  0.19481907960E+02  0.45550848046E+02 -0.27323858319E+03  0.27769362225E+03  0.00000000000E+00 0.  1.
         12    1    3    3    0    0  0.42318107673E+02 -0.11407279093E+02 -0.75433664878E+02  0.87242111680E+02  0.00000000000E+00 0. -1.
         11    1    5    5    0    0  0.18210374264E+02  0.32989708955E+02  0.19676991044E+04  0.19680598833E+04  0.00000000000E+00 0. -1.
        -12    1    5    5    0    0  0.37264094297E+02 -0.19459358527E+02  0.47668155429E+03  0.47853169545E+03  0.00000000000E+00 0.  1.
          5    1    4    4  501    0 -0.93830225374E+02 -0.65946689216E+02  0.16776833703E+03  0.20326525606E+03  0.41800000000E+01 0. -1.
         -5    1    4    4    0  501 -0.23444258821E+02  0.18272769835E+02  0.23710244104E+03  0.23899491069E+03  0.41800000000E+01 0. -1.
</event>
<event>
11    1  0.5813833E-009  0.1794347E+03  0.7561462E-02  0.1070101E+00
         22   -1    0    0    0    0  0.00000000000E+00  0.00000000000E+00  0.50301469817E+03  0.50301469817E+03  0.00000000000E+00 0.  1.
         22   -1    0    0    0    0 -0.00000000000E+00 -0.00000000000E+00 -0.31065384627E+03  0.31065384627E+03  0.00000000000E+00 0. -1.
        -24    2    1    2    0    0 -0.21303363808E+02  0.13862939972E+03 -0.22695535236E+03  0.28008995372E+03  0.85262573459E+02 0.  0.
         25    2    1    2    0    0 -0.51449184300E+02 -0.76981119901E+02  0.86528669742E+02  0.17806646326E+03  0.12508934113E+03 0.  0.
         24    2    1    2    0    0  0.72752548108E+02 -0.61648279819E+02  0.33278753451E+03  0.35551212747E+03  0.80919008831E+02 0.  0.
        -11    1    5    5    0    0  0.83880242079E+02 -0.34459183828E+02  0.28808342816E+03  0.30201886024E+03  0.00000000000E+00 0.  1.
         12    1    5    5    0    0 -0.11127693971E+02 -0.27189095991E+02  0.44704106353E+02  0.53493267228E+02  0.00000000000E+00 0. -1.
         11    1    3    3    0    0 -0.53050599609E+02  0.74699912538E+02 -0.14372355751E+03  0.17044325753E+03  0.00000000000E+00 0. -1.
        -12    1    3    3    0    0  0.31747235801E+02  0.63929487181E+02 -0.83231794845E+02  0.10964669619E+03  0.00000000000E+00 0.  1.
          5    1    4    4  501    0 -0.69885417802E+02  0.37379812807E+01  0.55968395949E+02  0.89709965280E+02  0.41800000000E+01 0. -1.
         -5    1    4    4    0  501  0.18436233501E+02 -0.80719101181E+02  0.30560273793E+02  0.88356497981E+02  0.41800000000E+01 0. -1.
</event>
<event>
11    1  0.5813833E-009  0.1403236E+03  0.7561462E-02  0.1107198E+00
         22   -1    0    0    0    0  0.00000000000E+00  0.00000000000E+00  0.37072447079E+03  0.37072447079E+03  0.00000000000E+00 0.  1.
         22   -1    0    0    0    0 -0.00000000000E+00 -0.00000000000E+00 -0.34107944429E+04  0.34107944429E+04  0.00000000000E+00 0.  1.
         24    2    1    2    0    0  0.46042065322E+02 -0.43319027396E+02 -0.33348450340E+04  0.33366318439E+04  0.89018260375E+02 0.  0.
         25    2    1    2    0    0 -0.10759811873E+03  0.50360525545E+02  0.49187236567E+02  0.17938307381E+03  0.12508143443E+03 0.  0.
        -24    2    1    2    0    0  0.61556053409E+02 -0.70414981494E+01  0.24558782529E+03  0.26550399607E+03  0.79625759606E+02 0.  0.
        -11    1    3    3    0    0  0.32236997757E+02 -0.64023025953E+02 -0.30028863063E+04  0.30037417233E+04  0.00000000000E+00 0.  1.
         12    1    3    3    0    0  0.13805067564E+02  0.20703998557E+02 -0.33195872770E+03  0.33289012052E+03  0.00000000000E+00 0. -1.
         11    1    5    5    0    0 -0.16198621700E+02 -0.11990844101E+02  0.28887553618E+02  0.35223095282E+02  0.00000000000E+00 0. -1.
        -12    1    5    5    0    0  0.77754675108E+02  0.49493459515E+01  0.21670027167E+03  0.23028090079E+03  0.00000000000E+00 0.  1.
          5    1    4    4  501    0 -0.34918794762E+02 -0.24928561276E+02 -0.26107426389E+02  0.50396681514E+02  0.41800000000E+01 0. -1.
         -5    1    4    4    0  501 -0.72679323968E+02  0.75289086822E+02  0.75294662956E+02  0.12898639229E+03  0.41800000000E+01 0. -1.
</event>
<event>
11    1  0.5813833E-009  0.1792821E+03  0.7561462E-02  0.1070225E+00
         22   -1    0    0    0    0  0.00000000000E+00  0.00000000000E+00  0.62973971209E+03  0.62973971209E+03  0.00000000000E+00 0. -1.
         22   -1    0    0    0    0 -0.00000000000E+00 -0.00000000000E+00 -0.48618120690E+03  0.48618120690E+03  0.00000000000E+00 0.  1.
         24    2    1    2    0    0 -0.14818166229E+02 -0.56017122977E+02 -0.41670068590E+03  0.42827923797E+03  0.80163257975E+02 0.  0.
         25    2    1    2    0    0  0.13806571786E+03  0.70605417681E+02  0.13925744429E+03  0.24307681582E+03  0.12508571118E+03 0.  0.
        -24    2    1    2    0    0 -0.12324755164E+03 -0.14588294704E+02  0.42100174680E+03  0.44456486520E+03  0.70658836930E+02 0.  0.
        -13    1    3    3    0    0 -0.27096279800E+01 -0.69740221736E+02 -0.38809092628E+03  0.39431663378E+03  0.00000000000E+00 0.  1.
         14    1    3    3    0    0 -0.12108538250E+02  0.13723098759E+02 -0.28609759621E+02  0.33962604194E+02  0.00000000000E+00 0. -1.
         13    1    5    5    0    0 -0.12781573816E+03 -0.25933051330E+02  0.37855735755E+03  0.40039363011E+03  0.00000000000E+00 0. -1.
        -14    1    5    5    0    0  0.45681865295E+01  0.11344756626E+02  0.42444389250E+02  0.44171235096E+02  0.00000000000E+00 0.  1.
          5    1    4    4  501    0  0.13392395515E+03  0.29869574524E+02  0.14706951849E+03  0.20118333160E+03  0.41800000000E+01 0.  1.
         -5    1    4    4    0  501  0.41417627194E+01  0.40735843158E+02 -0.78120742070E+01  0.41893484214E+02  0.41800000000E+01 0.  1.
</event>
<event>
11    1  0.5813833E-009  0.1738346E+03  0.7561462E-02  0.1074742E+00
         22   -1    0    0    0    0  0.00000000000E+00  0.00000000000E+00  0.11162095647E+04  0.11162095647E+04  0.00000000000E+00 0.  1.
         22   -1    0    0    0    0 -0.00000000000E+00 -0.00000000000E+00 -0.14181727695E+03  0.14181727695E+03  0.00000000000E+00 0.  1.
         24    2    1    2    0    0 -0.24029424696E+02 -0.15374178588E+02 -0.76944595827E+02  0.11327786750E+03  0.78087296153E+02 0.  0.
         25    2    1    2    0    0  0.99685966715E+02  0.10502383347E+03  0.18304414992E+03  0.26480125662E+03  0.12508895687E+03 0.  0.
        -24    2    1    2    0    0 -0.75656542019E+02 -0.89649654878E+02  0.86829273362E+03  0.87994771749E+03  0.81331059855E+02 0.  0.
        -11    1    3    3    0    0 -0.84285553743E+01  0.31902693950E+02 -0.25629380482E+02  0.41781426147E+02  0.00000000000E+00 0.  1.
         12    1    3    3    0    0 -0.15600869322E+02 -0.47276872539E+02 -0.51315215345E+02  0.71496441356E+02  0.00000000000E+00 0. -1.
         13    1    5    5    0    0 -0.49424860408E+01 -0.63599612244E+01  0.44095900350E+01  0.91826880224E+01  0.00000000000E+00 0. -1.
        -14    1    5    5    0    0 -0.70714055978E+02 -0.83289693653E+02  0.86388314358E+03  0.87076502947E+03  0.00000000000E+00 0.  1.
          5    1    4    4  501    0  0.73119958848E+02  0.10751261979E+03  0.68312914268E+02  0.14693406158E+03  0.41800000000E+01 0. -1.
         -5    1    4    4    0  501  0.26566007868E+02 -0.24887863267E+01  0.11473123566E+03  0.11786719504E+03  0.41800000000E+01 0. -1.
</event>
<event>
11    1  0.5813833E-009  0.1417806E+03  0.7561462E-02  0.1105586E+00
         22   -1    0    0    0    0  0.00000000000E+00  0.00000000000E+00  0.52516723558E+03  0.52516723558E+03  0.00000000000E+00 0.  1.
         22   -1    0    0    0    0 -0.00000000000E+00 -0.00000000000E+00 -0.14778889656E+04  0.14778889656E+04  0.00000000000E+00 0. -1.
        -24    2    1    2    0    0 -0.49611322720E+02 -0.43448066085E+02 -0.14128867485E+04  0.14168541384E+04  0.82931703909E+02 0.  0.
         25    2    1    2    0    0 -0.14177332966E+02  0.70392710552E+01  0.13924381423E+02  0.12685350963E+03  0.12508947358E+03 0.  0.
         24    2    1    2    0    0  0.63788655686E+02  0.36408795029E+02  0.44624063704E+03  0.45934855320E+03  0.80472319665E+02 0.  0.
        -11    1    5    5    0    0  0.59027099964E+02  0.44475885316E+02  0.20482420016E+03  0.21775044404E+03  0.00000000000E+00 0.  1.
         12    1    5    5    0    0  0.47615557225E+01 -0.80670902863E+01  0.24141643688E+03  0.24159810917E+03  0.00000000000E+00 0. -1.
         13    1    3    3    0    0 -0.67866699811E+02 -0.49356058038E+02 -0.12556543095E+04  0.12584552651E+04  0.00000000000E+00 0. -1.
        -14    1    3    3    0    0  0.18255377091E+02  0.59079919533E+01 -0.15723243904E+03  0.15839887325E+03  0.00000000000E+00 0.  1.
          5    1    4    4  501    0  0.41940151205E+02 -0.22244016641E+02 -0.23567395733E+02  0.53166409519E+02  0.41800000000E+01 0.  1.
         -5    1    4    4    0  501 -0.56117484171E+02  0.29283287696E+02  0.37491777157E+02  0.73687100108E+02  0.41800000000E+01 0.  1.
</event>
<event>
11    1  0.5813833E-009  0.1852349E+03  0.7561462E-02  0.1065485E+00
         22   -1    0    0    0    0  0.00000000000E+00  0.00000000000E+00  0.13971938948E+04  0.13971938948E+04  0.00000000000E+00 0.  1.
         22   -1    0    0    0    0 -0.00000000000E+00 -0.00000000000E+00 -0.70401713112E+03  0.70401713112E+03  0.00000000000E+00 0. -1.
        -24    2    1    2    0    0  0.76377575716E+02 -0.32592912988E+02 -0.61463754696E+03  0.62537454746E+03  0.80113534635E+02 0.  0.
         25    2    1    2    0    0  0.20720411010E+00 -0.85748633769E+02 -0.55910662092E+01  0.15176037897E+03  0.12508829473E+03 0.  0.
         24    2    1    2    0    0 -0.76584779826E+02  0.11834154676E+03  0.13134053768E+04  0.13240760995E+04  0.90960887908E+02 0.  0.
        -13    1    5    5    0    0 -0.37879917070E+02  0.11933610175E+03  0.86682827849E+03  0.87582375949E+03  0.00000000000E+00 0.  1.
         14    1    5    5    0    0 -0.38704862756E+02 -0.99455499688E+00  0.44657709835E+03  0.44825234000E+03  0.00000000000E+00 0. -1.
         11    1    3    3    0    0  0.56455816946E+02 -0.26046969819E+02 -0.58891323201E+03  0.59218620276E+03  0.00000000000E+00 0. -1.
        -12    1    3    3    0    0  0.19921758770E+02 -0.65459431690E+01 -0.25724314954E+02  0.33188344706E+02  0.00000000000E+00 0.  1.
          5    1    4    4  501    0  0.29980367301E+02 -0.44932112883E+02  0.51959416716E+02  0.75066441085E+02  0.41800000000E+01 0.  1.
         -5    1    4    4    0  501 -0.29773163191E+02 -0.40816520886E+02 -0.57550482926E+02  0.76693937887E+02  0.41800000000E+01 0.  1.
</event>
<event>
11    1  0.5813833E-009  0.1453594E+03  0.7561462E-02  0.1101717E+00
         22   -1    0    0    0    0  0.00000000000E+00  0.00000000000E+00  0.46732738255E+03  0.46732738255E+03  0.00000000000E+00 0.  1.
         22   -1    0    0    0    0 -0.00000000000E+00 -0.00000000000E+00 -0.84750971276E+03  0.84750971276E+03  0.00000000000E+00 0. -1.
        -24    2    1    2    0    0 -0.10140096319E+02  0.60096586613E+02 -0.50628176529E+03  0.51623549752E+03  0.80395533196E+02 0.  0.
         25    2    1    2    0    0  0.74942224642E+02 -0.23344478203E+02 -0.31207690709E+03  0.34525458433E+03  0.12508968928E+03 0.  0.
         24    2    1    2    0    0 -0.64802128323E+02 -0.36752108410E+02  0.43817634217E+03  0.45334701346E+03  0.89302712521E+02 0.  0.
        -13    1    5    5    0    0 -0.86187028233E+02 -0.30084803863E+02  0.38442349519E+03  0.39511355698E+03  0.00000000000E+00 0.  1.
         14    1    5    5    0    0  0.21384899910E+02 -0.66673045468E+01  0.53752846987E+02  0.58233456478E+02  0.00000000000E+00 0. -1.
         11    1    3    3    0    0 -0.10983996881E+02  0.58533529602E+02 -0.17327578849E+03  0.18322478313E+03  0.00000000000E+00 0. -1.
        -12    1    3    3    0    0  0.84390056206E+00  0.15630570110E+01 -0.33300597680E+03  0.33301071440E+03  0.00000000000E+00 0.  1.
          5    1    4    4  501    0  0.37436224022E+02 -0.53421043950E+02 -0.27947303160E+03  0.28701555114E+03  0.41800000000E+01 0.  1.
         -5    1    4    4    0  501  0.37506000620E+02  0.30076565747E+02 -0.32603875490E+02  0.58239033188E+02  0.41800000000E+01 0.  1.
</event>
<event>
11    1  0.5813833E-009  0.1365212E+03  0.7561462E-02  0.1111506E+00
         22   -1    0    0    0    0  0.00000000000E+00  0.00000000000E+00  0.18406599958E+03  0.18406599958E+03  0.00000000000E+00 0.  1.
         22   -1    0    0    0    0 -0.00000000000E+00 -0.00000000000E+00 -0.62195173671E+03  0.62195173671E+03  0.00000000000E+00 0.  1.
         24    2    1    2    0    0 -0.52293601316E+02  0.13763601798E+02 -0.32396501651E+03  0.33861941676E+03  0.82375481862E+02 0.  0.
         25    2    1    2    0    0  0.60501299095E+02  0.27526976526E+02 -0.25959371127E+03  0.29572577590E+03  0.12508676177E+03 0.  0.
        -24    2    1    2    0    0 -0.82076977786E+01 -0.41290578323E+02  0.14567299066E+03  0.17167254363E+03  0.80489526451E+02 0.  0.
        -11    1    3    3    0    0 -0.54162483519E+02  0.30881333922E+02 -0.31067072172E+03  0.31686515861E+03  0.00000000000E+00 0.  1.
         12    1    3    3    0    0  0.18688822025E+01 -0.17117732124E+02 -0.13294294787E+02  0.21754258150E+02  0.00000000000E+00 0. -1.
         11    1    5    5    0    0 -0.46999583394E+01 -0.29744221933E+00 -0.97866186577E+01  0.10860754348E+02  0.00000000000E+00 0. -1.
        -12    1    5    5    0    0 -0.35077394392E+01 -0.40993136104E+02  0.15545960931E+03  0.16081178928E+03  0.00000000000E+00 0.  1.
          5    1    4    4  501    0  0.20428175033E+02 -0.45945108983E+02 -0.54999698364E+02  0.74637139514E+02  0.41800000000E+01 0. -1.
         -5    1    4    4    0  501  0.40073124061E+02  0.73472085508E+02 -0.20459401291E+03  0.22108863639E+03  0.41800000000E+01 0. -1.
</event>
<event>
11    1  0.5813833E-009  0.1667469E+03  0.7561462E-02  0.1080898E+00
         22   -1    0    0    0    0  0.00000000000E+00  0.00000000000E+00  0.34936698257E+03  0.34936698257E+03  0.00000000000E+00 0.  1.
         22   -1    0    0    0    0 -0.00000000000E+00 -0.00000000000E+00 -0.35590674217E+03  0.35590674217E+03  0.00000000000E+00 0. -1.
         24    2    1    2    0    0  0.65278312000E+02 -0.21499390332E+02 -0.15713964391E+03  0.19106947817E+03  0.84209239386E+02 0.  0.
         25    2    1    2    0    0 -0.16963099593E+03  0.15298000543E+02 -0.98157934613E+02  0.23300402610E+03  0.12508873830E+03 0.  0.
        -24    2    1    2    0    0  0.10435268393E+03  0.62013897887E+01  0.24875781892E+03  0.28120022047E+03  0.79152837246E+02 0.  0.
        -11    1    3    3    0    0  0.57834289337E+02 -0.28879812837E+02 -0.45768473285E+02  0.79206071481E+02  0.00000000000E+00 0.  1.
         12    1    3    3    0    0  0.74440226635E+01  0.73804225059E+01 -0.11137117063E+03  0.11186340669E+03  0.00000000000E+00 0. -1.
         13    1    5    5    0    0  0.96347682104E+02 -0.78844158445E+01  0.13358747399E+03  0.16489588553E+03  0.00000000000E+00 0. -1.
        -14    1    5    5    0    0  0.80050018262E+01  0.14085805633E+02  0.11517034493E+03  0.11630433494E+03  0.00000000000E+00 0.  1.
          5    1    4    4  501    0  0.87287021540E+01 -0.86364717102E+01 -0.42731755344E+02  0.44657073344E+02  0.41800000000E+01 0.  1.
         -5    1    4    4    0  501 -0.17835969808E+03  0.23934472253E+02 -0.55426179269E+02  0.18834695275E+03  0.41800000000E+01 0.  1.
</event>
<event>
11    1  0.5813833E-009  0.2018119E+03  0.7561462E-02  0.1053250E+00
         22   -1    0    0    0    0  0.00000000000E+00  0.00000000000E+00  0.10802010803E+04  0.10802010803E+04  0.00000000000E+00 0.  1.
         22   -1    0    0    0    0 -0.00000000000E+00 -0.00000000000E+00 -0.69151004642E+03  0.69151004642E+03  0.00000000000E+00 0. -1.
         24    2    1    2    0    0  0.45654288794E+02  0.49497221167E+02 -0.63130331239E+03  0.63977569452E+03  0.78960610925E+02 0.  0.
         25    2    1    2    0    0 -0.63469452561E+02  0.11518704869E+03  0.13070978944E+03  0.22367193353E+03  0.12509059598E+03 0.  0.
        -24    2    1    2    0    0  0.17815163766E+02 -0.16468426985E+03  0.88928455684E+03  0.90826349867E+03  0.81714571464E+02 0.  0.
        -11    1    3    3    0    0  0.45064048835E+02  0.55370068294E+02 -0.29843722801E+03  0.30685728283E+03  0.00000000000E+00 0.  1.
         12    1    3    3    0    0  0.59023995950E+00 -0.58728471267E+01 -0.33286608437E+03  0.33291841169E+03  0.00000000000E+00 0. -1.
         11    1    5    5    0    0 -0.19690959778E+02 -0.15272866666E+02  0.63144274736E+02  0.67883678341E+02  0.00000000000E+00 0. -1.
        -12    1    5    5    0    0  0.37506123544E+02 -0.14941140319E+03  0.82614028210E+03  0.84037982033E+03  0.00000000000E+00 0.  1.
          5    1    4    4  501    0  0.16630653173E+02  0.97342362684E+02  0.79549515269E+02  0.12687675901E+03  0.41800000000E+01 0. -1.
         -5    1    4    4    0  501 -0.80100105734E+02  0.17844686001E+02  0.51160274170E+02  0.96795174519E+02  0.41800000000E+01 0. -1.
</event>
<event>
11    1  0.5813833E-009  0.1490540E+03  0.7561462E-02  0.1097849E+00
         22   -1    0    0    0    0  0.00000000000E+00  0.00000000000E+00  0.86880009182E+03  0.86880009182E+03  0.00000000000E+00 0. -1.
         22   -1    0    0    0    0 -0.00000000000E+00 -0.00000000000E+00 -0.32234603464E+03  0.32234603464E+03  0.00000000000E+00 0. -1.
        -24    2    1    2    0    0 -0.53959777708E+01  0.68537798414E+02 -0.26344924357E+03  0.28445578730E+03  0.82359241145E+02 0.  0.
         25    2    1    2    0    0 -0.24203802197E+02  0.13623419139E+02  0.49930210339E+02  0.13752273508E+03  0.12509218668E+03 0.  0.
         24    2    1    2    0    0  0.29599779968E+02 -0.82161217553E+02  0.75997309041E+03  0.76916760409E+03  0.80206560790E+02 0.  0.
        -11    1    5    5    0    0 -0.14537002651E+02 -0.33736147502E+02  0.11155964897E+03  0.11745214929E+03  0.00000000000E+00 0.  1.
         12    1    5    5    0    0  0.44136782619E+02 -0.48425070052E+02  0.64841344144E+03  0.65171545480E+03  0.00000000000E+00 0. -1.
         13    1    3    3    0    0 -0.20374734534E+02  0.68285953281E+02 -0.25929598201E+03  0.26890985015E+03  0.00000000000E+00 0. -1.
        -14    1    3    3    0    0  0.14978756763E+02  0.25184513289E+00 -0.41532615601E+01  0.15545937145E+02  0.00000000000E+00 0.  1.
          5    1    4    4  501    0 -0.37795836600E+02 -0.50035050441E+02  0.22294822009E+02  0.66682554130E+02  0.41800000000E+01 0.  1.
         -5    1    4    4    0  501  0.13592034403E+02  0.63658469580E+02  0.27635388329E+02  0.70840180947E+02  0.41800000000E+01 0.  1.
</event>
<event>
11    1  0.5813833E-009  0.1585336E+03  0.7561462E-02  0.1088465E+00
         22   -1    0    0    0    0  0.00000000000E+00  0.00000000000E+00  0.86433914101E+03  0.86433914101E+03  0.00000000000E+00 0. -1.
         22   -1    0    0    0    0 -0.00000000000E+00 -0.00000000000E+00 -0.94430188210E+03  0.94430188210E+03  0.00000000000E+00 0.  1.
        -24    2    1    2    0    0  0.10428319591E+03 -0.50925856156E+01 -0.77567126186E+03  0.78604508270E+03  0.72801416100E+02 0.  0.
         25    2    1    2    0    0 -0.54113209695E+02  0.31212838089E+02 -0.12999232875E+03  0.19091496830E+03  0.12509212150E+03 0.  0.
         24    2    1    2    0    0 -0.50169986215E+02 -0.26120252473E+02  0.82570084953E+03  0.83168097211E+03  0.81927110049E+02 0.  0.
        -11    1    5    5    0    0 -0.20668772256E+02 -0.22042985199E+02  0.82105203440E+02  0.87489175188E+02  0.00000000000E+00 0.  1.
         12    1    5    5    0    0 -0.29501213958E+02 -0.40772672746E+01  0.74359564608E+03  0.74419179692E+03  0.00000000000E+00 0. -1.
         13    1    3    3    0    0  0.27629946332E+02 -0.34704442053E+02 -0.23264377152E+03  0.23683525215E+03  0.00000000000E+00 0. -1.
        -14    1    3    3    0    0  0.76653249578E+02  0.29611856438E+02 -0.54302749034E+03  0.54920983055E+03  0.00000000000E+00 0.  1.
          5    1    4    4  501    0  0.20348226205E+01  0.39954217849E+01 -0.12820611883E+03  0.12835258160E+03  0.41800000000E+01 0. -1.
         -5    1    4    4    0  501 -0.56148032316E+02  0.27217416304E+02 -0.17862099186E+01  0.62562386696E+02  0.41800000000E+01 0. -1.
</event>
<event>
11    1  0.5813833E-009  0.1906550E+03  0.7561462E-02  0.1061336E+00
         22   -1    0    0    0    0  0.00000000000E+00  0.00000000000E+00  0.16075119632E+04  0.16075119632E+04  0.00000000000E+00 0. -1.
         22   -1    0    0    0    0 -0.00000000000E+00 -0.00000000000E+00 -0.10017299610E+03  0.10017299610E+03  0.00000000000E+00 0. -1.
        -24    2    1    2    0    0  0.13856460864E+03 -0.42041866024E+02  0.17235902237E+02  0.16620259522E+03  0.79740560985E+02 0.  0.
         25    2    1    2    0    0 -0.12265318643E+03  0.75133758402E+02  0.35400975889E+03  0.40206933126E+03  0.12509177412E+03 0.  0.
         24    2    1    2    0    0 -0.15911422214E+02 -0.33091892378E+02  0.11360933060E+04  0.11394130328E+04  0.78776981304E+02 0.  0.
        -13    1    5    5    0    0  0.18136348323E+02 -0.11778612276E+02  0.90480094008E+02  0.93028545347E+02  0.00000000000E+00 0.  1.
         14    1    5    5    0    0 -0.34047770537E+02 -0.21313280102E+02  0.10456132120E+04  0.10463844875E+04  0.00000000000E+00 0. -1.
         13    1    3    3    0    0  0.90799851126E+02 -0.70487978407E+01 -0.23836358031E+02  0.94140695131E+02  0.00000000000E+00 0. -1.
        -14    1    3    3    0    0  0.47764757515E+02 -0.34993068183E+02  0.41072260268E+02  0.72061900092E+02  0.00000000000E+00 0.  1.
          5    1    4    4  501    0 -0.78896510723E+02  0.36562598100E+02  0.68898159860E+02  0.11102212309E+03  0.41800000000E+01 0.  1.
         -5    1    4    4    0  501 -0.43756675704E+02  0.38571160301E+02  0.28511159903E+03  0.29104720816E+03  0.41800000000E+01 0.  1.
</event>
<event>
11    1  0.5813833E-009  0.1578946E+03  0.7561462E-02  0.1089074E+00
         22   -1    0    0    0    0  0.00000000000E+00  0.00000000000E+00  0.31404779987E+04  0.31404779987E+04  0.00000000000E+00 0. -1.
         22   -1    0    0    0    0 -0.00000000000E+00 -0.00000000000E+00 -0.11141706526E+03  0.11141706526E+03  0.00000000000E+00 0.  1.
        -24    2    1    2    0    0  0.34852760187E+02  0.94390086282E+02 -0.50582679573E+02  0.13698432594E+03  0.77986503950E+02 0.  0.
         25    2    1    2    0    0  0.70911460954E+01 -0.71978259864E+02  0.29297617218E+03  0.32667162217E+03  0.12509259378E+03 0.  0.
         24    2    1    2    0    0 -0.41943906282E+02 -0.22411826418E+02  0.27866674408E+04  0.27882391159E+04  0.80624811115E+02 0.  0.
        -11    1    5    5    0    0 -0.47925584199E+02 -0.46387222051E+02  0.17353034824E+04  0.17365848128E+04  0.00000000000E+00 0.  1.
         12    1    5    5    0    0  0.59816779161E+01  0.23975395633E+02  0.10513639584E+04  0.10516543030E+04  0.00000000000E+00 0. -1.
         13    1    3    3    0    0 -0.59881814823E+01  0.95900258209E+01  0.17489419737E+02  0.20825626412E+02  0.00000000000E+00 0. -1.
        -14    1    3    3    0    0  0.40840941669E+02  0.84800060461E+02 -0.68072099310E+02  0.11615869952E+03  0.00000000000E+00 0.  1.
          5    1    4    4  501    0 -0.30133207704E+01  0.81534781998E+01  0.21202286216E+03  0.21224213952E+03  0.41800000000E+01 0.  1.
         -5    1    4    4    0  501  0.10104466866E+02 -0.80131738064E+02  0.80953310017E+02  0.11442948265E+03  0.41800000000E+01 0.  1.
</event>
<event>
11    1  0.5813833E-009  0.1651790E+03  0.7561462E-02  0.1082305E+00
         22   -1    0    0    0    0  0.00000000000E+00  0.00000000000E+00  0.27235506511E+03  0.27235506511E+03  0.00000000000E+00 0.  1.
         22   -1    0    0    0    0 -0.00000000000E+00 -0.00000000000E+00 -0.53678618494E+03  0.53678618494E+03  0.00000000000E+00 0.  1.
        -24    2    1    2    0    0 -0.47856227300E+02  0.11425339339E+02 -0.41517107878E+03  0.42577221438E+03  0.80586580855E+02 0.  0.
         25    2    1    2    0    0 -0.39437767671E+02  0.66108438581E+02 -0.33702577010E+02  0.15069637336E+03  0.12509144685E+03 0.  0.
         24    2    1    2    0    0  0.87293994971E+02 -0.77533777921E+02  0.18444253596E+03  0.23267266231E+03  0.80534405309E+02 0.  0.
        -11    1    5    5    0    0  0.18188899536E+02 -0.66695662959E+02  0.68881672422E+02  0.97590124088E+02  0.00000000000E+00 0.  1.
         12    1    5    5    0    0  0.69105095435E+02 -0.10838114962E+02  0.11556086354E+03  0.13508253822E+03  0.00000000000E+00 0. -1.
         11    1    3    3    0    0  0.19396156749E+02  0.50308019936E+01 -0.41994719580E+02  0.46530380806E+02  0.00000000000E+00 0. -1.
        -12    1    3    3    0    0 -0.67252384049E+02  0.63945373457E+01 -0.37317635920E+03  0.37924183358E+03  0.00000000000E+00 0.  1.
          5    1    4    4  501    0  0.31659249894E+00  0.14627822822E+02  0.45585146060E+02  0.48057792007E+02  0.41800000000E+01 0.  1.
         -5    1    4    4    0  501 -0.39754360170E+02  0.51480615759E+02 -0.79287723070E+02  0.10263858135E+03  0.41800000000E+01 0.  1.
</event>
<event>
11    1  0.5813833E-009  0.1835376E+03  0.7561462E-02  0.1066817E+00
         22   -1    0    0    0    0  0.00000000000E+00  0.00000000000E+00  0.15020749129E+04  0.15020749129E+04  0.00000000000E+00 0.  1.
         22   -1    0    0    0    0 -0.00000000000E+00 -0.00000000000E+00 -0.75401175618E+02  0.75401175618E+02  0.00000000000E+00 0. -1.
         24    2    1    2    0    0 -0.28597863825E+02  0.81593656349E+02  0.18744220773E+02  0.11955417711E+03  0.80414506648E+02 0.  0.
         25    2    1    2    0    0  0.93410954836E+02 -0.17225033898E+03  0.72589244610E+03  0.76220827447E+03  0.12508327068E+03 0.  0.
        -24    2    1    2    0    0 -0.64813091010E+02  0.90656682629E+02  0.68203707040E+03  0.69571363693E+03  0.80146917232E+02 0.  0.
        -13    1    3    3    0    0  0.15549441459E+02 -0.40046072556E+01  0.16775913563E+02  0.23221827767E+02  0.00000000000E+00 0.  1.
         14    1    3    3    0    0 -0.44147305284E+02  0.85598263605E+02  0.19683072097E+01  0.96332349340E+02  0.00000000000E+00 0. -1.
         11    1    5    5    0    0 -0.12032029287E+01  0.89102997680E-01 -0.22399914175E+01  0.25442480583E+01  0.00000000000E+00 0. -1.
        -12    1    5    5    0    0 -0.63609888082E+02  0.90567579631E+02  0.68427706182E+03  0.69316938888E+03  0.00000000000E+00 0.  1.
          5    1    4    4  501    0  0.41550929223E+02 -0.68217841086E+02  0.51668532585E+03  0.52283970001E+03  0.41800000000E+01 0.  1.
         -5    1    4    4    0  501  0.51860025612E+02 -0.10403249789E+03  0.20920712025E+03  0.23936857446E+03  0.41800000000E+01 0.  1.
</event>
<event>
11    1  0.5813833E-009  0.1760239E+03  0.7561462E-02  0.1072905E+00
         22   -1    0    0    0    0  0.00000000000E+00  0.00000000000E+00  0.10712515602E+04  0.10712515602E+04  0.00000000000E+00 0. -1.
         22   -1    0    0    0    0 -0.00000000000E+00 -0.00000000000E+00 -0.33349871845E+04  0.33349871845E+04  0.00000000000E+00 0. -1.
         24    2    1    2    0    0 -0.27018062098E+01  0.32323949272E+02 -0.26632222686E+04  0.26646862251E+04  0.82144314684E+02 0.  0.
         25    2    1    2    0    0 -0.24987437203E+02  0.88635147109E+02 -0.65686921546E+03  0.67498513113E+03  0.12508876731E+03 0.  0.
        -24    2    1    2    0    0  0.27689243413E+02 -0.12095909638E+03  0.10563558598E+04  0.10665673885E+04  0.79249570749E+02 0.  0.
        -11    1    3    3    0    0  0.30392879241E+02 -0.10637393387E+02 -0.74135714493E+03  0.74205612833E+03  0.00000000000E+00 0.  1.
         12    1    3    3    0    0 -0.33094685451E+02  0.42961342658E+02 -0.19218651237E+04  0.19226300967E+04  0.00000000000E+00 0. -1.
         13    1    5    5    0    0  0.15410515243E+02 -0.13033207463E+03  0.91361718299E+03  0.92299528207E+03  0.00000000000E+00 0. -1.
        -14    1    5    5    0    0  0.12278728170E+02  0.93729782529E+01  0.14273867677E+03  0.14357210639E+03  0.00000000000E+00 0.  1.
          5    1    4    4  501    0  0.45379094932E+02  0.61971240159E+02 -0.26519235360E+03  0.27612343919E+03  0.41800000000E+01 0. -1.
         -5    1    4    4    0  501 -0.70366532135E+02  0.26663906951E+02 -0.39167686186E+03  0.39886169193E+03  0.41800000000E+01 0. -1.
</event>
<event>
11    1  0.5813833E-009  0.2509090E+03  0.7561462E-02  0.1023416E+00
         22   -1    0    0    0    0  0.00000000000E+00  0.00000000000E+00  0.12105218222E+04  0.12105218222E+04  0.00000000000E+00 0. -1.
         22   -1    0    0    0    0 -0.00000000000E+00 -0.00000000000E+00 -0.77292613952E+03  0.77292613952E+03  0.00000000000E+00 0. -1.
        -24    2    1    2    0    0  0.88789053705E+02  0.78772042223E+01 -0.67540769175E+03  0.68579800629E+03  0.78726164313E+02 0.  0.
         25    2    1    2    0    0  0.13747147853E+03 -0.50153111778E+02  0.39129923411E+02  0.19645028586E+03  0.12509125420E+03 0.  0.
         24    2    1    2    0    0 -0.22626053223E+03  0.42275907556E+02  0.10738734511E+04  0.11011996696E+04  0.80345769398E+02 0.  0.
        -11    1    5    5    0    0  0.43103161617E+01  0.62023963970E+01  0.13705084265E+02  0.15648574414E+02  0.00000000000E+00 0.  1.
         12    1    5    5    0    0 -0.23057084840E+03  0.36073511159E+02  0.10601683668E+04  0.10855510952E+04  0.00000000000E+00 0. -1.
         13    1    3    3    0    0  0.77292800860E+02 -0.29253949606E+01 -0.65707682345E+03  0.66161369916E+03  0.00000000000E+00 0. -1.
        -14    1    3    3    0    0  0.11496252845E+02  0.10802599183E+02 -0.18330868300E+02  0.24184307127E+02  0.00000000000E+00 0.  1.
          5    1    4    4  501    0  0.51641661154E+01  0.28618310592E+02 -0.15242308289E+02  0.33097985963E+02  0.41800000000E+01 0. -1.
         -5    1    4    4    0  501  0.13230731241E+03 -0.78771422370E+02  0.54372231700E+02  0.16335229989E+03  0.41800000000E+01 0. -1.
</event>
<event>
11    1  0.5813833E-009  0.1397376E+03  0.7561462E-02  0.1107852E+00
         22   -1    0    0    0    0  0.00000000000E+00  0.00000000000E+00  0.60004349297E+02  0.60004349297E+02  0.00000000000E+00 0. -1.
         22   -1    0    0    0    0 -0.00000000000E+00 -0.00000000000E+00 -0.13700089816E+04  0.13700089816E+04  0.00000000000E+00 0. -1.
         24    2    1    2    0    0 -0.16017274859E+01 -0.34739598818E+02 -0.10634429910E+04  0.10669869245E+04  0.79628491212E+02 0.  0.
         25    2    1    2    0    0 -0.43163345505E+02 -0.16760160738E+02 -0.21723413340E+03  0.25491700631E+03  0.12509210210E+03 0.  0.
        -24    2    1    2    0    0  0.44765072991E+02  0.51499759555E+02 -0.29327507864E+02  0.10810940008E+03  0.78558275662E+02 0.  0.
        -13    1    3    3    0    0 -0.38926219941E+01 -0.69240424417E+01 -0.83492131432E+01  0.11524071756E+02  0.00000000000E+00 0.  1.
         14    1    3    3    0    0  0.22908945082E+01 -0.27815556376E+02 -0.10550937779E+04  0.10554628527E+04  0.00000000000E+00 0. -1.
         13    1    5    5    0    0  0.22105152087E+02  0.99586758085E+01  0.25836432782E+02  0.35430696176E+02  0.00000000000E+00 0. -1.
        -14    1    5    5    0    0  0.22659920905E+02  0.41541083747E+02 -0.55163940646E+02  0.72678703909E+02  0.00000000000E+00 0.  1.
          5    1    4    4  501    0  0.35472818290E+01  0.29562028564E+02 -0.23590733026E+01  0.30158487496E+02  0.41800000000E+01 0.  1.
         -5    1    4    4    0  501 -0.46710627334E+02 -0.46322189302E+02 -0.21487506010E+03  0.22475851881E+03  0.41800000000E+01 0.  1.
</event>
<event>
11    1  0.5813833E-009  0.1319446E+03  0.7561462E-02  0.1116902E+00
         22   -1    0    0    0    0  0.00000000000E+00  0.00000000000E+00  0.45213203828E+03  0.45213203828E+03  0.00000000000E+00 0. -1.
         22   -1    0    0    0    0 -0.00000000000E+00 -0.00000000000E+00 -0.62240836263E+03  0.62240836263E+03  0.00000000000E+00 0.  1.
         24    2    1    2    0    0 -0.23955151798E+02 -0.35196447940E+02 -0.57821491475E+03  0.58530234281E+03  0.80210383460E+02 0.  0.
         25    2    1    2    0    0 -0.14477733877E+02  0.34793295308E+02  0.89451616593E+02  0.15833309029E+03  0.12509035771E+03 0.  0.
        -24    2    1    2    0    0  0.38432885675E+02  0.40315263232E+00  0.31848697381E+03  0.33090496782E+03  0.81159694473E+02 0.  0.
        -11    1    3    3    0    0 -0.56675878727E+01  0.26033456031E+02 -0.15051037160E+03  0.15285036586E+03  0.00000000000E+00 0.  1.
         12    1    3    3    0    0 -0.18287563926E+02 -0.61229903972E+02 -0.42770454315E+03  0.43245197695E+03  0.00000000000E+00 0. -1.
         11    1    5    5    0    0  0.24513921026E+02  0.29200519593E+02  0.27088804224E+03  0.27355791726E+03  0.00000000000E+00 0. -1.
        -12    1    5    5    0    0  0.13918964650E+02 -0.28797366960E+02  0.47598931567E+02  0.57347050552E+02  0.00000000000E+00 0.  1.
          5    1    4    4  501    0  0.38007963050E+02  0.18715042182E+02 -0.10835917686E+02  0.43928892215E+02  0.41800000000E+01 0. -1.
         -5    1    4    4    0  501 -0.52485696927E+02  0.16078253126E+02  0.10028753428E+03  0.11440419808E+03  0.41800000000E+01 0. -1.
</event>
<event>
11    1  0.5813833E-009  0.1284019E+03  0.7561462E-02  0.1121248E+00
         22   -1    0    0    0    0  0.00000000000E+00  0.00000000000E+00  0.71726803523E+03  0.71726803523E+03  0.00000000000E+00 0. -1.
         22   -1    0    0    0    0 -0.00000000000E+00 -0.00000000000E+00 -0.20558658099E+03  0.20558658099E+03  0.00000000000E+00 0.  1.
         24    2    1    2    0    0 -0.32955684940E+02 -0.23189596287E+02 -0.77477862793E+02  0.11879354662E+03  0.80531068225E+02 0.  0.
         25    2    1    2    0    0  0.98540519741E+01  0.40393078248E+00 -0.67808658476E+02  0.14262845334E+03  0.12509035149E+03 0.  0.
        -24    2    1    2    0    0  0.23101632966E+02  0.22785665504E+02  0.65696797551E+03  0.66143261626E+03  0.69522032576E+02 0.  0.
        -11    1    3    3    0    0 -0.49329020620E+02 -0.37001154641E+02 -0.75203798330E+02  0.97252501271E+02  0.00000000000E+00 0.  1.
         12    1    3    3    0    0  0.16373335680E+02  0.13811558355E+02 -0.22740644629E+01  0.21541045348E+02  0.00000000000E+00 0. -1.
         11    1    5    5    0    0  0.24132531365E+02  0.31729655420E+02  0.64606131752E+03  0.64729002472E+03  0.00000000000E+00 0. -1.
        -12    1    5    5    0    0 -0.10308983988E+01 -0.89439899159E+01  0.10906657989E+02  0.14142591546E+02  0.00000000000E+00 0.  1.
          5    1    4    4  501    0 -0.42928599790E+02  0.27651282153E+02 -0.65337660745E+02  0.83029756090E+02  0.41800000000E+01 0.  1.
         -5    1    4    4    0  501  0.52782651764E+02 -0.27247351371E+02 -0.24709977311E+01  0.59598697249E+02  0.41800000000E+01 0.  1.
</event>
<event>
11    1  0.5813833E-009  0.1361091E+03  0.7561462E-02  0.1111983E+00
         22   -1    0    0    0    0  0.00000000000E+00  0.00000000000E+00  0.62258078503E+03  0.62258078503E+03  0.00000000000E+00 0. -1.
         22   -1    0    0    0    0 -0.00000000000E+00 -0.00000000000E+00 -0.64248086308E+02  0.64248086308E+02  0.00000000000E+00 0. -1.
         24    2    1    2    0    0 -0.40814194875E+02  0.36752490599E+02  0.33546225348E+02  0.10097027030E+03  0.77801684951E+02 0.  0.
         25    2    1    2    0    0  0.14294271662E+02 -0.55352944904E+02  0.15928368051E+03  0.21044429383E+03  0.12508890924E+03 0.  0.
        -24    2    1    2    0    0  0.26519923214E+02  0.18600454305E+02  0.36550279286E+03  0.37541430721E+03  0.79336796253E+02 0.  0.
        -13    1    3    3    0    0 -0.23244286958E+02  0.43346087406E+01  0.53895959352E+02  0.58854567738E+02  0.00000000000E+00 0.  1.
         14    1    3    3    0    0 -0.17569907918E+02  0.32417881858E+02 -0.20349734004E+02  0.42115702564E+02  0.00000000000E+00 0. -1.
         13    1    5    5    0    0  0.31984610147E+02  0.26937062881E+02  0.36264044555E+03  0.36504344042E+03  0.00000000000E+00 0. -1.
        -14    1    5    5    0    0 -0.54646869332E+01 -0.83366085762E+01  0.28623473087E+01  0.10370866789E+02  0.00000000000E+00 0.  1.
          5    1    4    4  501    0  0.52624316524E+02 -0.56065750892E+02  0.15311588796E+03  0.17139029920E+03  0.41800000000E+01 0.  1.
         -5    1    4    4    0  501 -0.38330044862E+02  0.71280598772E+00  0.61677925488E+01  0.39053994628E+02  0.41800000000E+01 0.  1.
</event>
<event>
11    1  0.5813833E-009  0.2768531E+03  0.7561462E-02  0.1010493E+00
         22   -1    0    0    0    0  0.00000000000E+00  0.00000000000E+00  0.66711096613E+03  0.66711096613E+03  0.00000000000E+00 0. -1.
         22   -1    0    0    0    0 -0.00000000000E+00 -0.00000000000E+00 -0.45078633788E+03  0.45078633788E+03  0.00000000000E+00 0. -1.
         24    2    1    2    0    0 -0.87965007476E+02  0.40560569204E+02 -0.24993577541E+03  0.28051372070E+03  0.82686476245E+02 0.  0.
         25    2    1    2    0    0  0.30985128991E+03  0.34346035486E+02  0.32445293764E+02  0.33745153160E+03  0.12503346384E+03 0.  0.
        -24    2    1    2    0    0 -0.22188628244E+03 -0.74906604690E+02  0.43381510990E+03  0.49993205171E+03  0.83017979935E+02 0.  0.
        -11    1    3    3    0    0 -0.39664067604E+02  0.53260502379E+02 -0.83164503957E+02  0.10642487534E+03  0.00000000000E+00 0.  1.
         12    1    3    3    0    0 -0.48300939872E+02 -0.12699933175E+02 -0.16677127145E+03  0.17408884536E+03  0.00000000000E+00 0. -1.
         11    1    5    5    0    0 -0.18260278737E+03 -0.25535311741E+02  0.30285142276E+03  0.35456284967E+03  0.00000000000E+00 0. -1.
        -12    1    5    5    0    0 -0.39283495067E+02 -0.49371292949E+02  0.13096368714E+03  0.14536920204E+03  0.00000000000E+00 0.  1.
          5    1    4    4  501    0  0.15571285439E+03 -0.26643220814E+02  0.60614868024E+02  0.16925716783E+03  0.41800000000E+01 0. -1.
         -5    1    4    4    0  501  0.15413843552E+03  0.60989256300E+02 -0.28169574260E+02  0.16819436377E+03  0.41800000000E+01 0. -1.
</event>
<event>
11    1  0.5813833E-009  0.1398654E+03  0.7561462E-02  0.1107709E+00
         22   -1    0    0    0    0  0.00000000000E+00  0.00000000000E+00  0.26612042358E+03  0.26612042358E+03  0.00000000000E+00 0.  1.
         22   -1    0    0    0    0 -0.00000000000E+00 -0.00000000000E+00 -0.18413974225E+03  0.18413974225E+03  0.00000000000E+00 0. -1.
         24    2    1    2    0    0  0.63344870573E+02 -0.29837977626E+01 -0.11046051951E+03  0.14734852277E+03  0.74084985763E+02 0.  0.
         25    2    1    2    0    0 -0.57363461542E+02 -0.25584213520E+02  0.82023999230E+02  0.16223757703E+03  0.12509187123E+03 0.  0.
        -24    2    1    2    0    0 -0.59814090308E+01  0.28568011282E+02  0.11041720160E+03  0.14067406603E+03  0.82129933173E+02 0.  0.
        -11    1    3    3    0    0  0.69751893181E+02  0.16576472228E+02 -0.62326646214E+02  0.94998509789E+02  0.00000000000E+00 0.  1.
         12    1    3    3    0    0 -0.64070226082E+01 -0.19560269991E+02 -0.48133873294E+02  0.52350012981E+02  0.00000000000E+00 0. -1.
         11    1    5    5    0    0  0.25012792216E+02 -0.12649962934E+02  0.14000383717E+02  0.31331646636E+02  0.00000000000E+00 0. -1.
        -12    1    5    5    0    0 -0.30994201247E+02  0.41217974216E+02  0.96416817882E+02  0.10934241940E+03  0.00000000000E+00 0.  1.
          5    1    4    4  501    0 -0.87594783228E+02  0.27058246971E+01  0.82769427564E+02  0.12061682335E+03  0.41800000000E+01 0. -1.
         -5    1    4    4    0  501  0.30231321686E+02 -0.28290038217E+02 -0.74542833382E+00  0.41620753676E+02  0.41800000000E+01 0. -1.
</event>
<event>
11    1  0.5813833E-009  0.2131904E+03  0.7561462E-02  0.1045569E+00
         22   -1    0    0    0    0  0.00000000000E+00  0.00000000000E+00  0.19124092207E+04  0.19124092207E+04  0.00000000000E+00 0. -1.
         22   -1    0    0    0    0 -0.00000000000E+00 -0.00000000000E+00 -0.83453478027E+03  0.83453478027E+03  0.00000000000E+00 0.  1.
         24    2    1    2    0    0 -0.71812977630E+02  0.28711208201E+02 -0.78700950832E+03  0.79504272334E+03  0.82021512535E+02 0.  0.
         25    2    1    2    0    0  0.21191823124E+03 -0.11104995216E+03  0.44494861143E+03  0.52044994329E+03  0.12508975996E+03 0.  0.
        -24    2    1    2    0    0 -0.14010525361E+03  0.82338743957E+02  0.14199353373E+04  0.14314513343E+04  0.80171126631E+02 0.  0.
        -11    1    3    3    0    0 -0.50209733423E+02  0.10904411098E+02 -0.72711596356E+03  0.72892904180E+03  0.00000000000E+00 0.  1.
         12    1    3    3    0    0 -0.21603244207E+02  0.17806797103E+02 -0.59893544762E+02  0.66113681546E+02  0.00000000000E+00 0. -1.
         11    1    5    5    0    0 -0.95992719124E+01 -0.14942591000E+01  0.36928546874E+03  0.36941323237E+03  0.00000000000E+00 0. -1.
        -12    1    5    5    0    0 -0.13050598170E+03  0.83833003057E+02  0.10506498686E+04  0.10620381020E+04  0.00000000000E+00 0.  1.
          5    1    4    4  501    0  0.19640412132E+03 -0.67683354580E+02  0.27711354163E+03  0.34635964360E+03  0.41800000000E+01 0. -1.
         -5    1    4    4    0  501  0.15514109930E+02 -0.43366597578E+02  0.16783506980E+03  0.17409029969E+03  0.41800000000E+01 0. -1.
</event>
<event>
11    1  0.6719264E-009  0.1695328E+03  0.7561462E-02  0.1078439E+00
         22   -1    0    0    0    0  0.00000000000E+00  0.00000000000E+00  0.12075017957E+03  0.12075017957E+03  0.00000000000E+00 0.  1.
         22   -1    0    0    0    0 -0.00000000000E+00 -0.00000000000E+00 -0.21029002670E+04  0.21029002670E+04  0.00000000000E+00 0. -1.
        -24    2    1    2    0    0  0.68809770463E+02 -0.10934630782E+03 -0.16836752863E+04  0.16905576516E+04  0.80816484650E+02 0.  0.
         25    2    1    2    0    0  0.45780205793E+02  0.49481515818E+02 -0.34510958785E+03  0.37321886841E+03  0.12508976162E+03 0.  0.
         24    2    1    2    0    0 -0.11458997626E+03  0.59864792003E+02  0.46634786661E+02  0.15987392661E+03  0.81671372603E+02 0.  0.
        -11    1    5    5    0    0 -0.11082551549E+03  0.53235801742E+02  0.65656695537E+02  0.13938130125E+03  0.00000000000E+00 0.  1.
         12    1    5    5    0    0 -0.37644607705E+01  0.66289902615E+01 -0.19021908877E+02  0.20492625359E+02  0.00000000000E+00 0. -1.
         13    1    3    3    0    0  0.13015404022E+02 -0.61807299065E+02 -0.11670759455E+04  0.11687839003E+04  0.00000000000E+00 0. -1.
        -14    1    3    3    0    0  0.55794366440E+02 -0.47539008756E+02 -0.51659934076E+03  0.52177375131E+03  0.00000000000E+00 0.  1.
          5    1    4    4  501    0 -0.36804462713E+02 -0.81739076308E+00 -0.47342205457E+02  0.60116498740E+02  0.41800000000E+01 0.  1.
         -5    1    4    4    0  501  0.82584668506E+02  0.50298906581E+02 -0.29776738239E+03  0.31310236967E+03  0.41800000000E+01 0.  1.
</event>
<event>
11    1  0.5813833E-009  0.1346435E+03  0.7561462E-02  0.1113692E+00
         22   -1    0    0    0    0  0.00000000000E+00  0.00000000000E+00  0.78293270405E+03  0.78293270405E+03  0.00000000000E+00 0. -1.
         22   -1    0    0    0    0 -0.00000000000E+00 -0.00000000000E+00 -0.12717911346E+04  0.12717911346E+04  0.00000000000E+00 0.  1.
        -24    2    1    2    0    0  0.31103665635E+02 -0.28143290299E+01 -0.77265427297E+03  0.77734297740E+03  0.79322887721E+02 0.  0.
         25    2    1    2    0    0 -0.69077997100E+02 -0.29222351682E+02 -0.48314236020E+03  0.50467814737E+03  0.12509107362E+03 0.  0.
         24    2    1    2    0    0  0.37974331465E+02  0.32036680711E+02  0.76693820264E+03  0.77270271384E+03  0.80042979378E+02 0.  0.
        -11    1    5    5    0    0  0.22444241460E+02  0.30607763103E+01  0.48676574798E+02  0.53689116778E+02  0.00000000000E+00 0.  1.
         12    1    5    5    0    0  0.15530090005E+02  0.28975904401E+02  0.71826162784E+03  0.71901359706E+03  0.00000000000E+00 0. -1.
         13    1    3    3    0    0 -0.20898352799E+02  0.65996135559E+01 -0.89363240713E+02  0.92011329952E+02  0.00000000000E+00 0. -1.
        -14    1    3    3    0    0  0.52002018434E+02 -0.94139425858E+01 -0.68329103225E+03  0.68533164745E+03  0.00000000000E+00 0.  1.
          5    1    4    4  501    0  0.36661067187E+02 -0.55469816347E+01 -0.13214860728E+03  0.13731543853E+03  0.41800000000E+01 0.  1.
         -5    1    4    4    0  501 -0.10573906429E+03 -0.23675370047E+02 -0.35099375292E+03  0.36736270885E+03  0.41800000000E+01 0.  1.
</event>
<event>
11    1  0.5813833E-009  0.1417138E+03  0.7561462E-02  0.1105660E+00
         22   -1    0    0    0    0  0.00000000000E+00  0.00000000000E+00  0.29297076947E+03  0.29297076947E+03  0.00000000000E+00 0.  1.
         22   -1    0    0    0    0 -0.00000000000E+00 -0.00000000000E+00 -0.15103601606E+04  0.15103601606E+04  0.00000000000E+00 0.  1.
        -24    2    1    2    0    0 -0.40895687197E+02  0.75932538124E+01 -0.14335992690E+04  0.14363864308E+04  0.79177014837E+02 0.  0.
         25    2    1    2    0    0  0.98894739629E+02 -0.19240791070E+02  0.42361167501E+02  0.16610714724E+03  0.12508692292E+03 0.  0.
         24    2    1    2    0    0 -0.57999052432E+02  0.11647537257E+02  0.17384871039E+03  0.20083735204E+03  0.81318587448E+02 0.  0.
        -13    1    5    5    0    0 -0.22856632272E+02  0.10675504639E+02  0.16167820498E+03  0.16363445237E+03  0.00000000000E+00 0.  1.
         14    1    5    5    0    0 -0.35142420160E+02  0.97203261802E+00  0.12170505414E+02  0.37202899674E+02  0.00000000000E+00 0. -1.
         13    1    3    3    0    0  0.83333348475E+01 -0.26757292981E+02 -0.34674901186E+03  0.34787968383E+03  0.00000000000E+00 0. -1.
        -14    1    3    3    0    0 -0.49229022045E+02  0.34350546793E+02 -0.10868502571E+04  0.10885067469E+04  0.00000000000E+00 0.  1.
          5    1    4    4  501    0  0.68897844882E+02  0.49760743860E+02  0.18674949438E+02  0.87116420928E+02  0.41800000000E+01 0.  1.
         -5    1    4    4    0  501  0.29996894747E+02 -0.69001534930E+02  0.23686218063E+02  0.78990726312E+02  0.41800000000E+01 0.  1.
</event>
<event>
11    1  0.5813833E-009  0.1341221E+03  0.7561462E-02  0.1114306E+00
         22   -1    0    0    0    0  0.00000000000E+00  0.00000000000E+00  0.20600357706E+04  0.20600357706E+04  0.00000000000E+00 0. -1.
         22   -1    0    0    0    0 -0.00000000000E+00 -0.00000000000E+00 -0.88983976986E+03  0.88983976986E+03  0.00000000000E+00 0.  1.
         24    2    1    2    0    0  0.25886165613E+02  0.68473494077E+01 -0.66176928458E+03  0.66737674109E+03  0.82074044408E+02 0.  0.
         25    2    1    2    0    0  0.19226787286E+02 -0.24630589079E+02 -0.20567008109E+03  0.24274195439E+03  0.12508852425E+03 0.  0.
        -24    2    1    2    0    0 -0.45112952899E+02  0.17783239671E+02  0.20376353664E+04  0.20397568449E+04  0.79364211475E+02 0.  0.
        -11    1    3    3    0    0  0.21780115242E+02  0.31558361043E+02 -0.59211084931E+03  0.59335112829E+03  0.00000000000E+00 0.  1.
         12    1    3    3    0    0  0.41060503705E+01 -0.24711011635E+02 -0.69658435266E+02  0.74025612793E+02  0.00000000000E+00 0. -1.
         13    1    5    5    0    0 -0.54026822136E+02  0.15727626146E+02  0.20069080923E+04  0.20076967766E+04  0.00000000000E+00 0. -1.
        -14    1    5    5    0    0  0.89138692368E+01  0.20556135259E+01  0.30727274086E+02  0.32060068379E+02  0.00000000000E+00 0.  1.
          5    1    4    4  501    0 -0.43531240213E+02 -0.26158569031E+02 -0.15108743465E+03  0.15944944314E+03  0.41800000000E+01 0.  1.
         -5    1    4    4    0  501  0.62758027499E+02  0.15279799521E+01 -0.54582646443E+02  0.83292511254E+02  0.41800000000E+01 0.  1.
</event>
<event>
11    1  0.5813833E-009  0.2953262E+03  0.7561462E-02  0.1002189E+00
         22   -1    0    0    0    0  0.00000000000E+00  0.00000000000E+00  0.18741420159E+03  0.18741420159E+03  0.00000000000E+00 0. -1.
         22   -1    0    0    0    0 -0.00000000000E+00 -0.00000000000E+00 -0.66215926897E+03  0.66215926897E+03  0.00000000000E+00 0. -1.
        -24    2    1    2    0    0  0.20325935561E+03  0.18797158835E+03 -0.34513558009E+03  0.44900440919E+03  0.76411433449E+02 0.  0.
         25    2    1    2    0    0 -0.15162906574E+03 -0.20166014166E+03 -0.97835655221E+02  0.29812306948E+03  0.12508941925E+03 0.  0.
         24    2    1    2    0    0 -0.51630289865E+02  0.13688553310E+02 -0.31773832076E+02  0.10244599189E+03  0.81440417031E+02 0.  0.
        -13    1    5    5    0    0 -0.22547556369E+01  0.21931985721E+02 -0.45481939554E+02  0.50544067370E+02  0.00000000000E+00 0.  1.
         14    1    5    5    0    0 -0.49375534228E+02 -0.82434324120E+01  0.13708107478E+02  0.51901924520E+02  0.00000000000E+00 0. -1.
         13    1    3    3    0    0  0.19190029232E+03  0.14646020154E+03 -0.26814940694E+03  0.36080523453E+03  0.00000000000E+00 0. -1.
        -14    1    3    3    0    0  0.11359063291E+02  0.41511386814E+02 -0.76986173152E+02  0.88199174660E+02  0.00000000000E+00 0.  1.
          5    1    4    4  501    0 -0.12339794097E+03 -0.16653410016E+03 -0.12808358717E+03  0.24368737361E+03  0.41800000000E+01 0.  1.
         -5    1    4    4    0  501 -0.28231124779E+02 -0.35126041499E+02  0.30247931954E+02  0.54435695873E+02  0.41800000000E+01 0.  1.
</event>
<event>
11    1  0.5813833E-009  0.1461079E+03  0.7561462E-02  0.1100923E+00
         22   -1    0    0    0    0  0.00000000000E+00  0.00000000000E+00  0.13815692358E+04  0.13815692358E+04  0.00000000000E+00 0.  1.
         22   -1    0    0    0    0 -0.00000000000E+00 -0.00000000000E+00 -0.14331153612E+03  0.14331153612E+03  0.00000000000E+00 0. -1.
         24    2    1    2    0    0  0.32733365239E+02  0.26795225269E+00 -0.11219497046E+03  0.14132539199E+03  0.79458228177E+02 0.  0.
         25    2    1    2    0    0 -0.99460978158E+02 -0.18914152281E+02  0.47327400166E+03  0.49988607375E+03  0.12509026640E+03 0.  0.
        -24    2    1    2    0    0  0.66727612919E+02  0.18646200029E+02  0.87717866851E+03  0.88366930622E+03  0.81417265787E+02 0.  0.
        -13    1    3    3    0    0 -0.12503577900E+02 -0.75153008555E+01  0.50322389478E+01  0.15431870790E+02  0.00000000000E+00 0.  1.
         14    1    3    3    0    0  0.45236943139E+02  0.77832531082E+01 -0.11722720941E+03  0.12589352120E+03  0.00000000000E+00 0. -1.
         11    1    5    5    0    0  0.31110524988E+02  0.20871079885E+02  0.12140771461E+03  0.12705628638E+03  0.00000000000E+00 0. -1.
        -12    1    5    5    0    0  0.35617087931E+02 -0.22248798560E+01  0.75577095390E+03  0.75661301985E+03  0.00000000000E+00 0.  1.
          5    1    4    4  501    0 -0.26087235610E+02  0.50587648950E+02  0.21679672084E+03  0.22418283755E+03  0.41800000000E+01 0. -1.
         -5    1    4    4    0  501 -0.73373742548E+02 -0.69501801231E+02  0.25647728082E+03  0.27570323620E+03  0.41800000000E+01 0. -1.
</event>
<event>
11    1  0.5813833E-009  0.1436657E+03  0.7561462E-02  0.1103533E+00
         22   -1    0    0    0    0  0.00000000000E+00  0.00000000000E+00  0.28135961731E+03  0.28135961731E+03  0.00000000000E+00 0. -1.
         22   -1    0    0    0    0 -0.00000000000E+00 -0.00000000000E+00 -0.34194052010E+03  0.34194052010E+03  0.00000000000E+00 0.  1.
        -24    2    1    2    0    0  0.19319122759E+02  0.23869287548E+02 -0.26491066467E+03  0.27833856670E+03  0.79697716796E+02 0.  0.
         25    2    1    2    0    0  0.48169602586E+02 -0.50296306648E+02  0.40700939732E+02  0.14884208382E+03  0.12508944937E+03 0.  0.
         24    2    1    2    0    0 -0.67488725345E+02  0.26427019100E+02  0.16362882215E+03  0.19611948690E+03  0.80220610287E+02 0.  0.
        -13    1    5    5    0    0 -0.67232096166E+02  0.28963835548E+02  0.66326983306E+02  0.98784245905E+02  0.00000000000E+00 0.  1.
         14    1    5    5    0    0 -0.25662917905E+00 -0.25368164483E+01  0.97301838845E+02  0.97335240992E+02  0.00000000000E+00 0. -1.
         13    1    3    3    0    0  0.20967846098E+02 -0.78231898218E+01 -0.16240441806E+02  0.27651488550E+02  0.00000000000E+00 0. -1.
        -14    1    3    3    0    0 -0.16487233382E+01  0.31692477370E+02 -0.24867022287E+03  0.25068707815E+03  0.00000000000E+00 0.  1.
          5    1    4    4  501    0  0.56333060399E+02 -0.80322457545E+02  0.96691139907E+00  0.98201416475E+02  0.41800000000E+01 0. -1.
         -5    1    4    4    0  501 -0.81634578129E+01  0.30026150898E+02  0.39734028333E+02  0.50640667341E+02  0.41800000000E+01 0. -1.
</event>
<event>
11    1  0.5813833E-009  0.2153311E+03  0.7561462E-02  0.1044182E+00
         22   -1    0    0    0    0  0.00000000000E+00  0.00000000000E+00  0.50942642542E+03  0.50942642542E+03  0.00000000000E+00 0. -1.
         22   -1    0    0    0    0 -0.00000000000E+00 -0.00000000000E+00 -0.10030876754E+04  0.10030876754E+04  0.00000000000E+00 0. -1.
        -24    2    1    2    0    0 -0.72828299590E+02 -0.42878596913E+01 -0.33504233946E+03  0.35373240547E+03  0.86895906057E+02 0.  0.
         25    2    1    2    0    0  0.19652143480E+03  0.12618247031E+03 -0.61197668391E+03  0.66686190692E+03  0.12508657442E+03 0.  0.
         24    2    1    2    0    0 -0.12369313521E+03 -0.12189461062E+03  0.45335777343E+03  0.49191978839E+03  0.79331706640E+02 0.  0.
        -11    1    5    5    0    0 -0.39432201801E+02 -0.47970031250E+02  0.26970676016E+03  0.27676300135E+03  0.00000000000E+00 0.  1.
         12    1    5    5    0    0 -0.84260933414E+02 -0.73924579369E+02  0.18365101327E+03  0.21515678704E+03  0.00000000000E+00 0. -1.
         13    1    3    3    0    0 -0.18572248939E+02 -0.25598647587E+02 -0.24116448049E+03  0.24322936878E+03  0.00000000000E+00 0. -1.
        -14    1    3    3    0    0 -0.54256050651E+02  0.21310787895E+02 -0.93877858970E+02  0.11050303669E+03  0.00000000000E+00 0.  1.
          5    1    4    4  501    0  0.41559830801E+02 -0.21159726809E+02 -0.16225593707E+03  0.16887692290E+03  0.41800000000E+01 0.  1.
         -5    1    4    4    0  501  0.15496160400E+03  0.14734219712E+03 -0.44972074684E+03  0.49798498402E+03  0.41800000000E+01 0.  1.
</event>
<event>
11    1  0.5813833E-009  0.1534709E+03  0.7561462E-02  0.1093384E+00
         22   -1    0    0    0    0  0.00000000000E+00  0.00000000000E+00  0.39009498374E+03  0.39009498374E+03  0.00000000000E+00 0. -1.
         22   -1    0    0    0    0 -0.00000000000E+00 -0.00000000000E+00 -0.53686014017E+03  0.53686014017E+03  0.00000000000E+00 0. -1.
         24    2    1    2    0    0  0.66458785069E+02  0.13794871900E+01 -0.42362859887E+03  0.43626269164E+03  0.80282459073E+02 0.  0.
         25    2    1    2    0    0 -0.12057569799E+03 -0.65693477623E+02 -0.50897117086E+01  0.18581574037E+03  0.12508977679E+03 0.  0.
        -24    2    1    2    0    0  0.54116912917E+02  0.64313990433E+02  0.28195315415E+03  0.30487669191E+03  0.79920501146E+02 0.  0.
        -13    1    3    3    0    0  0.27335313510E+02  0.19477686666E+02 -0.50404855709E+02  0.60557816354E+02  0.00000000000E+00 0.  1.
         14    1    3    3    0    0  0.39123471559E+02 -0.18098199476E+02 -0.37322374316E+03  0.37570487528E+03  0.00000000000E+00 0. -1.
         13    1    5    5    0    0  0.41040049001E+02  0.68223310616E+02  0.27998757105E+03  0.29108717882E+03  0.00000000000E+00 0. -1.
        -14    1    5    5    0    0  0.13076863916E+02 -0.39093201831E+01  0.19655831029E+01  0.13789513085E+02  0.00000000000E+00 0.  1.
          5    1    4    4  501    0 -0.18805672466E+02  0.34183121524E+02 -0.16798980708E+02  0.42682751397E+02  0.41800000000E+01 0. -1.
         -5    1    4    4    0  501 -0.10177002552E+03 -0.99876599147E+02  0.11709268999E+02  0.14313298897E+03  0.41800000000E+01 0. -1.
</event>
<event>
11    1  0.5813833E-009  0.1814167E+03  0.7561462E-02  0.1068503E+00
         22   -1    0    0    0    0  0.00000000000E+00  0.00000000000E+00  0.16482936074E+03  0.16482936074E+03  0.00000000000E+00 0. -1.
         22   -1    0    0    0    0 -0.00000000000E+00 -0.00000000000E+00 -0.12523547288E+04  0.12523547288E+04  0.00000000000E+00 0. -1.
        -24    2    1    2    0    0 -0.59598015982E+02  0.40470900103E+02 -0.82021009776E+03  0.82695880585E+03  0.76983406270E+02 0.  0.
         25    2    1    2    0    0  0.32530873386E+02 -0.16604923781E+03 -0.35626065097E+03  0.41376270126E+03  0.12508922586E+03 0.  0.
         24    2    1    2    0    0  0.27067142596E+02  0.12557833771E+03  0.88945380686E+02  0.17646258241E+03  0.82007396835E+02 0.  0.
        -13    1    5    5    0    0  0.98886089360E+01  0.39072842628E+00 -0.11406419426E+02  0.15101114512E+02  0.00000000000E+00 0.  1.
         14    1    5    5    0    0  0.17178533660E+02  0.12518760928E+03  0.10035180011E+03  0.16136146790E+03  0.00000000000E+00 0. -1.
         13    1    3    3    0    0 -0.35672040947E+02  0.62762131480E+02 -0.52411661999E+03  0.52906503476E+03  0.00000000000E+00 0. -1.
        -14    1    3    3    0    0 -0.23925975035E+02 -0.22291231377E+02 -0.29609347777E+03  0.29789377109E+03  0.00000000000E+00 0.  1.
          5    1    4    4  501    0  0.31760546701E+02 -0.18421311180E+03 -0.29103623575E+03  0.34592306342E+03  0.41800000000E+01 0. -1.
         -5    1    4    4    0  501  0.77032668489E+00  0.18163873995E+02 -0.65224415222E+02  0.67839637844E+02  0.41800000000E+01 0. -1.
</event>
<event>
11    1  0.5813833E-009  0.1486340E+03  0.7561462E-02  0.1098283E+00
         22   -1    0    0    0    0  0.00000000000E+00  0.00000000000E+00  0.16694506473E+03  0.16694506473E+03  0.00000000000E+00 0. -1.
         22   -1    0    0    0    0 -0.00000000000E+00 -0.00000000000E+00 -0.74588882195E+03  0.74588882195E+03  0.00000000000E+00 0.  1.
         24    2    1    2    0    0 -0.13555532129E+02 -0.19145604307E+02 -0.56420760809E+03  0.57024824987E+03  0.79388505655E+02 0.  0.
         25    2    1    2    0    0 -0.59419507622E+02  0.53815941931E+02 -0.11703570087E+03  0.18913161768E+03  0.12508629036E+03 0.  0.
        -24    2    1    2    0    0  0.72975039751E+02 -0.34670337624E+02  0.10229955175E+03  0.15345401913E+03  0.80966344618E+02 0.  0.
        -13    1    3    3    0    0  0.32900099842E+02 -0.13265018014E+01 -0.23848510439E+03  0.24074742198E+03  0.00000000000E+00 0.  1.
         14    1    3    3    0    0 -0.46455631970E+02 -0.17819102505E+02 -0.32572250371E+03  0.32950082789E+03  0.00000000000E+00 0. -1.
         13    1    5    5    0    0  0.52479464974E+01 -0.44772937951E+02  0.49765451812E+02  0.67147279240E+02  0.00000000000E+00 0. -1.
        -14    1    5    5    0    0  0.67727093253E+02  0.10102600327E+02  0.52534099933E+02  0.86306739886E+02  0.00000000000E+00 0.  1.
          5    1    4    4  501    0  0.20864069661E+01  0.77249907619E+02 -0.38071807381E+02  0.86248688329E+02  0.41800000000E+01 0.  1.
         -5    1    4    4    0  501 -0.61505914588E+02 -0.23433965688E+02 -0.78963893494E+02  0.10288292936E+03  0.41800000000E+01 0.  1.
</event>
<event>
11    1  0.5813833E-009  0.1356121E+03  0.7561462E-02  0.1112560E+00
         22   -1    0    0    0    0  0.00000000000E+00  0.00000000000E+00  0.84587240046E+03  0.84587240046E+03  0.00000000000E+00 0. -1.
         22   -1    0    0    0    0 -0.00000000000E+00 -0.00000000000E+00 -0.58307383551E+02  0.58307383551E+02  0.00000000000E+00 0. -1.
        -24    2    1    2    0    0  0.39484134582E+02  0.33565562206E+02  0.16693840378E+02  0.97400987625E+02  0.80762765145E+02 0.  0.
         25    2    1    2    0    0 -0.17978352158E+02 -0.63146019161E+02  0.38466486496E+03  0.40978715265E+03  0.12509121175E+03 0.  0.
         24    2    1    2    0    0 -0.21505782424E+02  0.29580456955E+02  0.38620631157E+03  0.39699164374E+03  0.84318135601E+02 0.  0.
        -11    1    5    5    0    0 -0.24649319724E+01  0.31146500691E+02  0.42468847824E+02  0.52723651528E+02  0.00000000000E+00 0.  1.
         12    1    5    5    0    0 -0.19040850451E+02 -0.15660437360E+01  0.34373746375E+03  0.34426799221E+03  0.00000000000E+00 0. -1.
         13    1    3    3    0    0 -0.12708621867E+00  0.15210043162E+02 -0.29902068971E+02  0.33548402237E+02  0.00000000000E+00 0. -1.
        -14    1    3    3    0    0  0.39611220801E+02  0.18355519044E+02  0.46595909349E+02  0.63852585388E+02  0.00000000000E+00 0.  1.
          5    1    4    4  501    0  0.16258689146E+01  0.19807226253E+02  0.53652618326E+01  0.21005430157E+02  0.41800000000E+01 0.  1.
         -5    1    4    4    0  501 -0.19604221073E+02 -0.82953245414E+02  0.37929960313E+03  0.38878172249E+03  0.41800000000E+01 0.  1.
</event>
<event>
11    1  0.5813833E-009  0.1822524E+03  0.7561462E-02  0.1067835E+00
         22   -1    0    0    0    0  0.00000000000E+00  0.00000000000E+00  0.26889297522E+04  0.26889297522E+04  0.00000000000E+00 0. -1.
         22   -1    0    0    0    0 -0.00000000000E+00 -0.00000000000E+00 -0.21750516536E+02  0.21750516536E+02  0.00000000000E+00 0.  1.
        -24    2    1    2    0    0  0.78181656397E+01 -0.67585908310E+01  0.15796600618E+03  0.17776094531E+03  0.80863417598E+02 0.  0.
         25    2    1    2    0    0 -0.13673672302E+03 -0.10623245279E+02  0.11216420653E+04  0.11368975790E+04  0.12508156465E+03 0.  0.
         24    2    1    2    0    0  0.12891855738E+03  0.17381836110E+02  0.13875711642E+04  0.13960217444E+04  0.81245630357E+02 0.  0.
        -11    1    5    5    0    0  0.14349619648E+02  0.93656313063E+01  0.58745542759E+03  0.58770528843E+03  0.00000000000E+00 0.  1.
         12    1    5    5    0    0  0.11456893774E+03  0.80162048035E+01  0.80011573660E+03  0.80831645597E+03  0.00000000000E+00 0. -1.
         13    1    3    3    0    0  0.43436060671E+01 -0.38113281435E+02  0.13020727398E+03  0.13574027896E+03  0.00000000000E+00 0. -1.
        -14    1    3    3    0    0  0.34745595727E+01  0.31354690605E+02  0.27758732202E+02  0.42020666351E+02  0.00000000000E+00 0.  1.
          5    1    4    4  501    0 -0.82805364836E+02  0.58590345347E+01  0.99178996981E+03  0.99526673477E+03  0.41800000000E+01 0. -1.
         -5    1    4    4    0  501 -0.53931358188E+02 -0.16482279814E+02  0.12985209545E+03  0.14163084423E+03  0.41800000000E+01 0. -1.
</event>
<event>
11    1  0.5813833E-009  0.1552054E+03  0.7561462E-02  0.1091675E+00
         22   -1    0    0    0    0  0.00000000000E+00  0.00000000000E+00  0.71265497982E+03  0.71265497982E+03  0.00000000000E+00 0.  1.
         22   -1    0    0    0    0 -0.00000000000E+00 -0.00000000000E+00 -0.14708083015E+03  0.14708083015E+03  0.00000000000E+00 0.  1.
         24    2    1    2    0    0 -0.17800355740E+02  0.29304749259E+02 -0.81406844178E+02  0.12115425346E+03  0.82919586699E+02 0.  0.
         25    2    1    2    0    0  0.10516515465E+03 -0.68191657683E+01  0.13376642689E+03  0.21129876137E+03  0.12508996290E+03 0.  0.
        -24    2    1    2    0    0 -0.87364798911E+02 -0.22485583490E+02  0.51321456695E+03  0.52728279513E+03  0.80620994523E+02 0.  0.
        -13    1    3    3    0    0  0.11389748386E+02  0.25244821342E+02 -0.86872727952E+02  0.91180580360E+02  0.00000000000E+00 0.  1.
         14    1    3    3    0    0 -0.29190104125E+02  0.40599279162E+01  0.54658837745E+01  0.29973673098E+02  0.00000000000E+00 0. -1.
         13    1    5    5    0    0 -0.29310992571E+02 -0.42543663193E+02  0.33067941757E+03  0.33469086449E+03  0.00000000000E+00 0. -1.
        -14    1    5    5    0    0 -0.58053806339E+02  0.20058079703E+02  0.18253514938E+03  0.19259193065E+03  0.00000000000E+00 0.  1.
          5    1    4    4  501    0  0.23417814261E+02 -0.23559881194E+02  0.12250144445E+03  0.12699424522E+03  0.41800000000E+01 0.  1.
         -5    1    4    4    0  501  0.81747340389E+02  0.16740715426E+02  0.11264982440E+02  0.84304516148E+02  0.41800000000E+01 0.  1.
</event>
<event>
11    1  0.5813833E-009  0.1413832E+03  0.7561462E-02  0.1106024E+00
         22   -1    0    0    0    0  0.00000000000E+00  0.00000000000E+00  0.10639420000E+04  0.10639420000E+04  0.00000000000E+00 0. -1.
         22   -1    0    0    0    0 -0.00000000000E+00 -0.00000000000E+00 -0.42827333514E+03  0.42827333514E+03  0.00000000000E+00 0. -1.
         24    2    1    2    0    0  0.55550073098E+02 -0.35939229627E+02 -0.39830216509E+03  0.41146920424E+03  0.79277061495E+02 0.  0.
         25    2    1    2    0    0 -0.70597691340E+02 -0.80159258751E+01  0.22984600320E+03  0.27115665419E+03  0.12509379215E+03 0.  0.
        -24    2    1    2    0    0  0.15047618242E+02  0.43955155502E+02  0.80412482672E+03  0.80958947667E+03  0.81608193685E+02 0.  0.
        -13    1    3    3    0    0  0.64940627085E+02 -0.39907953454E+00 -0.28692346463E+03  0.29418109876E+03  0.00000000000E+00 0.  1.
         14    1    3    3    0    0 -0.93905539862E+01 -0.35540150093E+02 -0.11137870046E+03  0.11728810548E+03  0.00000000000E+00 0. -1.
         11    1    5    5    0    0  0.37190510079E+02  0.42791720057E+02  0.73053561093E+03  0.73273224590E+03  0.00000000000E+00 0. -1.
        -12    1    5    5    0    0 -0.22142891837E+02  0.11634354451E+01  0.73589215795E+02  0.76857230774E+02  0.00000000000E+00 0.  1.
          5    1    4    4  501    0  0.19815420869E+02 -0.16321478778E+01  0.14665961633E+03  0.14806022516E+03  0.41800000000E+01 0.  1.
         -5    1    4    4    0  501 -0.90413112210E+02 -0.63837779973E+01  0.83186386867E+02  0.12309642903E+03  0.41800000000E+01 0.  1.
</event>
<event>
11    1  0.5813833E-009  0.1444693E+03  0.7561462E-02  0.1102668E+00
         22   -1    0    0    0    0  0.00000000000E+00  0.00000000000E+00  0.41303074362E+03  0.41303074362E+03  0.00000000000E+00 0. -1.
         22   -1    0    0    0    0 -0.00000000000E+00 -0.00000000000E+00 -0.26695105718E+03  0.26695105718E+03  0.00000000000E+00 0. -1.
         24    2    1    2    0    0  0.70994148357E+02  0.49200656649E+02 -0.58319008958E+02  0.12756805339E+03  0.73563766374E+02 0.  0.
         25    2    1    2    0    0 -0.66557308945E+02  0.21313427004E+00 -0.13802337499E+03  0.19781178353E+03  0.12509647820E+03 0.  0.
        -24    2    1    2    0    0 -0.44368394124E+01 -0.49413790919E+02  0.34242207039E+03  0.35460196388E+03  0.77641935973E+02 0.  0.
        -13    1    3    3    0    0 -0.70661986516E+01  0.14658296985E+02 -0.35741006081E+02  0.39271062496E+02  0.00000000000E+00 0.  1.
         14    1    3    3    0    0  0.78060347009E+02  0.34542359664E+02 -0.22578002876E+02  0.88296990889E+02  0.00000000000E+00 0. -1.
         13    1    5    5    0    0 -0.37996619114E+02 -0.43920103753E+02  0.20984143205E+03  0.21772952300E+03  0.00000000000E+00 0. -1.
        -14    1    5    5    0    0  0.33559779701E+02 -0.54936871657E+01  0.13258063834E+03  0.13687244089E+03  0.00000000000E+00 0.  1.
          5    1    4    4  501    0  0.25668605179E+02 -0.10515458592E+02 -0.87790897908E+02  0.92163801554E+02  0.41800000000E+01 0.  1.
         -5    1    4    4    0  501 -0.92225914124E+02  0.10728592862E+02 -0.50232477086E+02  0.10564798197E+03  0.41800000000E+01 0.  1.
</event>
<event>
11    1  0.5813833E-009  0.1363410E+03  0.7561462E-02  0.1111714E+00
         22   -1    0    0    0    0  0.00000000000E+00  0.00000000000E+00  0.79252741111E+03  0.79252741111E+03  0.00000000000E+00 0. -1.
         22   -1    0    0    0    0 -0.00000000000E+00 -0.00000000000E+00 -0.28227998416E+03  0.28227998416E+03  0.00000000000E+00 0.  1.
        -24    2    1    2    0    0 -0.18519822006E+02  0.24922405484E+01 -0.25396349298E+03  0.26726340371E+03  0.81136157937E+02 0.  0.
         25    2    1    2    0    0  0.13071356991E+01  0.50728022995E+02  0.25556880172E+03  0.28902977323E+03  0.12509099278E+03 0.  0.
         24    2    1    2    0    0  0.17212686307E+02 -0.53220263544E+02  0.50864211820E+03  0.51851421833E+03  0.83734802708E+02 0.  0.
        -13    1    5    5    0    0  0.70483405403E+01 -0.12173801378E+02  0.81874093972E+01  0.16276185579E+02  0.00000000000E+00 0.  1.
         14    1    5    5    0    0  0.10164345767E+02 -0.41046462165E+02  0.50045470880E+03  0.50223803276E+03  0.00000000000E+00 0. -1.
         13    1    3    3    0    0  0.69576099046E+01  0.99424043721E+01 -0.22182992338E+00  0.12137089799E+02  0.00000000000E+00 0. -1.
        -14    1    3    3    0    0 -0.25477431911E+02 -0.74501638237E+01 -0.25374166306E+03  0.25512631391E+03  0.00000000000E+00 0.  1.
          5    1    4    4  501    0  0.35440604723E+02 -0.30243499824E+02  0.97106749387E+02  0.10778635777E+03  0.41800000000E+01 0.  1.
         -5    1    4    4    0  501 -0.34133469024E+02  0.80971522819E+02  0.15846205234E+03  0.18124341546E+03  0.41800000000E+01 0.  1.
</event>
<event>
11    1  0.5813833E-009  0.1299855E+03  0.7561462E-02  0.1119287E+00
         22   -1    0    0    0    0  0.00000000000E+00  0.00000000000E+00  0.19084726254E+03  0.19084726254E+03  0.00000000000E+00 0.  1.
         22   -1    0    0    0    0 -0.00000000000E+00 -0.00000000000E+00 -0.78977172307E+03  0.78977172307E+03  0.00000000000E+00 0. -1.
        -24    2    1    2    0    0 -0.23904791398E+02 -0.95306744954E+00 -0.63255221884E+03  0.63816179539E+03  0.80968019267E+02 0.  0.
         25    2    1    2    0    0  0.44921655465E+02  0.27787292087E+02 -0.10976115238E+03  0.17459891835E+03  0.12508870047E+03 0.  0.
         24    2    1    2    0    0 -0.21016864066E+02 -0.26834224637E+02  0.14338891069E+03  0.16785827187E+03  0.80338257014E+02 0.  0.
        -11    1    5    5    0    0 -0.18431244868E+00 -0.44894970114E+02  0.12934723796E+03  0.13691712924E+03  0.00000000000E+00 0.  1.
         12    1    5    5    0    0 -0.20832551618E+02  0.18060745477E+02  0.14041672732E+02  0.30941142630E+02  0.00000000000E+00 0. -1.
         13    1    3    3    0    0 -0.53743499291E+02  0.13600364364E+01 -0.36434582818E+03  0.36829077632E+03  0.00000000000E+00 0. -1.
        -14    1    3    3    0    0  0.29838707893E+02 -0.23131038859E+01 -0.26820639066E+03  0.26987101907E+03  0.00000000000E+00 0.  1.
          5    1    4    4  501    0 -0.37599163987E+02  0.36582874546E+02 -0.45197266417E+02  0.69370520642E+02  0.41800000000E+01 0.  1.
         -5    1    4    4    0  501  0.82520819452E+02 -0.87955824591E+01 -0.64563885965E+02  0.10522839771E+03  0.41800000000E+01 0.  1.
</event>
<event>
11    1  0.5813833E-009  0.1650959E+03  0.7561462E-02  0.1082380E+00
         22   -1    0    0    0    0  0.00000000000E+00  0.00000000000E+00  0.12246137679E+04  0.12246137679E+04  0.00000000000E+00 0. -1.
         22   -1    0    0    0    0 -0.00000000000E+00 -0.00000000000E+00 -0.25594114940E+03  0.25594114940E+03  0.00000000000E+00 0.  1.
         24    2    1    2    0    0  0.30303624330E+02 -0.21294583168E+02 -0.17874282194E+03  0.19951440657E+03  0.80530945087E+02 0.  0.
         25    2    1    2    0    0  0.78710554791E+02  0.30959750631E+02  0.27997618785E+02  0.15357430220E+03  0.12508933625E+03 0.  0.
        -24    2    1    2    0    0 -0.10901417912E+03 -0.96651674630E+01  0.11194178216E+04  0.11274662085E+04  0.78142723588E+02 0.  0.
        -11    1    3    3    0    0  0.84901311660E+01 -0.81711254150E+01 -0.17302178641E+03  0.17342257117E+03  0.00000000000E+00 0.  1.
         12    1    3    3    0    0  0.21813493164E+02 -0.13123457753E+02 -0.57210355281E+01  0.26091835407E+02  0.00000000000E+00 0. -1.
         11    1    5    5    0    0 -0.70501539532E+02 -0.10107332223E+02  0.35474578660E+03  0.36182481721E+03  0.00000000000E+00 0. -1.
        -12    1    5    5    0    0 -0.38512639589E+02  0.44216476026E+00  0.76467203505E+03  0.76564139132E+03  0.00000000000E+00 0.  1.
          5    1    4    4  501    0  0.20680310440E+02 -0.48019548502E+02  0.15457978022E+02  0.54680652545E+02  0.41800000000E+01 0. -1.
         -5    1    4    4    0  501  0.58030244351E+02  0.78979299133E+02  0.12539640764E+02  0.98893649652E+02  0.41800000000E+01 0. -1.
</event>
<event>
11    1  0.5813833E-009  0.1307938E+03  0.7561462E-02  0.1118298E+00
         22   -1    0    0    0    0  0.00000000000E+00  0.00000000000E+00  0.40601674433E+03  0.40601674433E+03  0.00000000000E+00 0.  1.
         22   -1    0    0    0    0 -0.00000000000E+00 -0.00000000000E+00 -0.91437408881E+02  0.91437408881E+02  0.00000000000E+00 0. -1.
        -24    2    1    2    0    0  0.22473001578E+02 -0.37606627111E+02  0.20096233516E+01  0.91342389189E+02  0.80125521989E+02 0.  0.
         25    2    1    2    0    0  0.18365713203E+02  0.34731040111E+02  0.72649314921E+02  0.14989715443E+03  0.12509072460E+03 0.  0.
         24    2    1    2    0    0 -0.40838714781E+02  0.28755870002E+01  0.23992039718E+03  0.25621460959E+03  0.80050356403E+02 0.  0.
        -13    1    5    5    0    0  0.54731990938E+01 -0.24216050662E+02  0.14560029620E+03  0.14770179170E+03  0.00000000000E+00 0.  1.
         14    1    5    5    0    0 -0.46311913875E+02  0.27091637662E+02  0.94320100975E+02  0.10851281789E+03  0.00000000000E+00 0. -1.
         13    1    3    3    0    0 -0.18909664019E+01  0.53216346154E+01 -0.31292816061E+02  0.31798362944E+02  0.00000000000E+00 0. -1.
        -14    1    3    3    0    0  0.24363967980E+02 -0.42928261727E+02  0.33302439412E+02  0.59544026245E+02  0.00000000000E+00 0.  1.
          5    1    4    4  501    0 -0.24558041922E+02  0.18239226032E+02  0.94063204424E+02  0.99000634421E+02  0.41800000000E+01 0.  1.
         -5    1    4    4    0  501  0.42923755125E+02  0.16491814079E+02 -0.21413889503E+02  0.50896520012E+02  0.41800000000E+01 0.  1.
</event>
<event>
11    1  0.5813833E-009  0.2043854E+03  0.7561462E-02  0.1051465E+00
         22   -1    0    0    0    0  0.00000000000E+00  0.00000000000E+00  0.43280797113E+03  0.43280797113E+03  0.00000000000E+00 0.  1.
         22   -1    0    0    0    0 -0.00000000000E+00 -0.00000000000E+00 -0.46413954914E+03  0.46413954914E+03  0.00000000000E+00 0.  1.
        -24    2    1    2    0    0  0.27974478267E+02 -0.12776320033E+02 -0.33147715318E+03  0.34301415244E+03  0.82678896359E+02 0.  0.
         25    2    1    2    0    0 -0.17177747582E+03  0.71952477288E+02  0.22291629504E+02  0.22545430974E+03  0.12509224136E+03 0.  0.
         24    2    1    2    0    0  0.14380299755E+03 -0.59176157255E+02  0.27785394567E+03  0.32847905809E+03  0.80712804356E+02 0.  0.
        -13    1    5    5    0    0  0.15281893322E+03 -0.62211379250E+02  0.26845281481E+03  0.31510442053E+03  0.00000000000E+00 0.  1.
         14    1    5    5    0    0 -0.90159356642E+01  0.30352219943E+01  0.94011308615E+01  0.13374637563E+02  0.00000000000E+00 0. -1.
         13    1    3    3    0    0  0.47463968275E+02 -0.15877804599E+02 -0.11227233788E+03  0.12292278396E+03  0.00000000000E+00 0. -1.
        -14    1    3    3    0    0 -0.19489490007E+02  0.31014845661E+01 -0.21920481530E+03  0.22009136848E+03  0.00000000000E+00 0.  1.
          5    1    4    4  501    0 -0.57173741049E+02  0.50132919434E+02 -0.47202795803E+02  0.89597559164E+02  0.41800000000E+01 0. -1.
         -5    1    4    4    0  501 -0.11460373477E+03  0.21819557854E+02  0.69494425307E+02  0.13585675058E+03  0.41800000000E+01 0. -1.
</event>
<event>
11    1  0.5813833E-009  0.1386582E+03  0.7561462E-02  0.1109066E+00
         22   -1    0    0    0    0  0.00000000000E+00  0.00000000000E+00  0.93840754025E+03  0.93840754025E+03  0.00000000000E+00 0.  1.
         22   -1    0    0    0    0 -0.00000000000E+00 -0.00000000000E+00 -0.16507932145E+03  0.16507932145E+03  0.00000000000E+00 0. -1.
         24    2    1    2    0    0 -0.17689733676E+02  0.23583788727E+02 -0.13237135262E+03  0.15781297282E+03  0.80707110154E+02 0.  0.
         25    2    1    2    0    0  0.43022119540E+02  0.33559788184E+02  0.27638268199E+03  0.30824168169E+03  0.12509350613E+03 0.  0.
        -24    2    1    2    0    0 -0.25332385864E+02 -0.57143576911E+02  0.62931688944E+03  0.63743220719E+03  0.79830778989E+02 0.  0.
        -13    1    3    3    0    0  0.22881621758E+02 -0.38798538354E+01 -0.90301618305E+02  0.93236281289E+02  0.00000000000E+00 0.  1.
         14    1    3    3    0    0 -0.40571355433E+02  0.27463642562E+02 -0.42069734313E+02  0.64576691536E+02  0.00000000000E+00 0. -1.
         13    1    5    5    0    0 -0.16466311018E+02  0.18507395265E+02  0.13001334161E+03  0.13235230287E+03  0.00000000000E+00 0. -1.
        -14    1    5    5    0    0 -0.88660748454E+01 -0.75650972176E+02  0.49930354782E+03  0.50507990432E+03  0.00000000000E+00 0.  1.
          5    1    4    4  501    0  0.16540519073E+02 -0.44927175183E+02  0.62494840664E+02  0.78836015569E+02  0.41800000000E+01 0.  1.
         -5    1    4    4    0  501  0.26481600467E+02  0.78486963367E+02  0.21388784133E+03  0.22940566612E+03  0.41800000000E+01 0.  1.
</event>
<event>
11    1  0.5813833E-009  0.1319988E+03  0.7561462E-02  0.1116837E+00
         22   -1    0    0    0    0  0.00000000000E+00  0.00000000000E+00  0.48969092346E+02  0.48969092346E+02  0.00000000000E+00 0.  1.
         22   -1    0    0    0    0 -0.00000000000E+00 -0.00000000000E+00 -0.18610733972E+04  0.18610733972E+04  0.00000000000E+00 0.  1.
         24    2    1    2    0    0  0.28453237886E+02 -0.29815118580E+02 -0.10423482884E+04  0.10457603194E+04  0.73662495857E+02 0.  0.
         25    2    1    2    0    0 -0.22784850372E+02  0.40345886850E+02 -0.77210258490E+03  0.78354117849E+03  0.12508971496E+03 0.  0.
        -24    2    1    2    0    0 -0.56683875146E+01 -0.10530768269E+02  0.23465684059E+01  0.80740991678E+02  0.79815873462E+02 0.  0.
        -13    1    3    3    0    0  0.23827444945E+02 -0.20928287015E+02 -0.10266358384E+04  0.10271255449E+04  0.00000000000E+00 0.  1.
         14    1    3    3    0    0  0.46257929415E+01 -0.88868315651E+01 -0.15712449974E+02  0.18634774476E+02  0.00000000000E+00 0. -1.
         11    1    5    5    0    0  0.10710725344E+02 -0.41760752226E+02 -0.83005643472E+01  0.43904207456E+02  0.00000000000E+00 0. -1.
        -12    1    5    5    0    0 -0.16379112859E+02  0.31229983957E+02  0.10647132753E+02  0.36836784222E+02  0.00000000000E+00 0.  1.
          5    1    4    4  501    0  0.24934674041E+02  0.22503134165E+02 -0.65369731746E+03  0.65457297857E+03  0.41800000000E+01 0. -1.
         -5    1    4    4    0  501 -0.47719524413E+02  0.17842752685E+02 -0.11840526744E+03  0.12896819992E+03  0.41800000000E+01 0. -1.
</event>
<event>
11    1  0.5813833E-009  0.2000713E+03  0.7561462E-02  0.1054473E+00
         22   -1    0    0    0    0  0.00000000000E+00  0.00000000000E+00  0.52037686894E+03  0.52037686894E+03  0.00000000000E+00 0. -1.
         22   -1    0    0    0    0 -0.00000000000E+00 -0.00000000000E+00 -0.13005559834E+04  0.13005559834E+04  0.00000000000E+00 0.  1.
        -24    2    1    2    0    0  0.13472030896E+03 -0.72071445875E+02 -0.11696514235E+04  0.11821696737E+04  0.78082199848E+02 0.  0.
         25    2    1    2    0    0 -0.24318634030E+03  0.86850660608E+02  0.74781326898E+02  0.29652006883E+03  0.12509704638E+03 0.  0.
         24    2    1    2    0    0  0.10846603133E+03 -0.14779214734E+02  0.31469098217E+03  0.34224310980E+03  0.78208866530E+02 0.  0.
        -13    1    5    5    0    0  0.68561278008E+01 -0.25767116334E+02  0.11339880652E+03  0.11649137347E+03  0.00000000000E+00 0.  1.
         14    1    5    5    0    0  0.10160990353E+03  0.10987901600E+02  0.20129217565E+03  0.22575173633E+03  0.00000000000E+00 0. -1.
         11    1    3    3    0    0  0.42448946210E+02 -0.40534155509E+02 -0.22613976287E+03  0.23363245311E+03  0.00000000000E+00 0. -1.
        -12    1    3    3    0    0  0.92271362752E+02 -0.31537290365E+02 -0.94351166066E+03  0.94853722060E+03  0.00000000000E+00 0.  1.
          5    1    4    4  501    0 -0.40114536287E+02  0.58835500436E+02  0.55878620328E+02  0.90612828798E+02  0.41800000000E+01 0.  1.
         -5    1    4    4    0  501 -0.20307180401E+03  0.28015160172E+02  0.18902706570E+02  0.20590724003E+03  0.41800000000E+01 0.  1.
</event>
<event>
11    1  0.5813833E-009  0.1482456E+03  0.7561462E-02  0.1098685E+00
         22   -1    0    0    0    0  0.00000000000E+00  0.00000000000E+00  0.26352421472E+03  0.26352421472E+03  0.00000000000E+00 0. -1.
         22   -1    0    0    0    0 -0.00000000000E+00 -0.00000000000E+00 -0.33838954851E+03  0.33838954851E+03  0.00000000000E+00 0.  1.
        -24    2    1    2    0    0  0.13906177691E+02  0.13359887246E+02 -0.16625818857E+03  0.18590684037E+03  0.80917857518E+02 0.  0.
         25    2    1    2    0    0 -0.90317127568E+02  0.53540316059E+01 -0.10806921724E+03  0.18843893247E+03  0.12507768134E+03 0.  0.
         24    2    1    2    0    0  0.76410949877E+02 -0.18713918852E+02  0.19946207202E+03  0.22756799039E+03  0.76244528035E+02 0.  0.
        -11    1    5    5    0    0 -0.75809224586E+01 -0.15924397818E+02  0.77331613869E+02  0.79317307914E+02  0.00000000000E+00 0.  1.
         12    1    5    5    0    0  0.83991872336E+02 -0.27895210336E+01  0.12213045815E+03  0.14825068248E+03  0.00000000000E+00 0. -1.
         11    1    3    3    0    0  0.14949980363E+01  0.22741369763E+02 -0.42869841096E+01  0.23190152018E+02  0.00000000000E+00 0. -1.
        -12    1    3    3    0    0  0.12411179655E+02 -0.93814825176E+01 -0.16197120446E+03  0.16271668835E+03  0.00000000000E+00 0.  1.
          5    1    4    4  501    0 -0.10647662127E+03 -0.33813427092E+02 -0.78248543211E+02  0.13645851253E+03  0.41800000000E+01 0. -1.
         -5    1    4    4    0  501  0.16159493700E+02  0.39167458697E+02 -0.29820674026E+02  0.51980419937E+02  0.41800000000E+01 0. -1.
</event>
<event>
11    1  0.5813833E-009  0.1664104E+03  0.7561462E-02  0.1081198E+00
         22   -1    0    0    0    0  0.00000000000E+00  0.00000000000E+00  0.12439306224E+03  0.12439306224E+03  0.00000000000E+00 0.  1.
         22   -1    0    0    0    0 -0.00000000000E+00 -0.00000000000E+00 -0.10675768262E+04  0.10675768262E+04  0.00000000000E+00 0. -1.
         24    2    1    2    0    0 -0.10331600241E+03  0.31661093438E+02 -0.60330268242E+03  0.61812166644E+03  0.80147655702E+02 0.  0.
         25    2    1    2    0    0  0.10192295218E+03 -0.52717271596E+02 -0.42309313717E+03  0.45587537319E+03  0.12508858565E+03 0.  0.
        -24    2    1    2    0    0  0.13930502343E+01  0.21056178157E+02  0.83212055664E+02  0.11797284877E+03  0.80919982774E+02 0.  0.
        -11    1    3    3    0    0  0.10179651297E+02  0.12609813649E+02 -0.39533371898E+02  0.42726106708E+02  0.00000000000E+00 0.  1.
         12    1    3    3    0    0 -0.11349565371E+03  0.19051279790E+02 -0.56376931052E+03  0.57539555973E+03  0.00000000000E+00 0. -1.
         11    1    5    5    0    0 -0.15719219036E+02  0.20294486926E+02 -0.66298921942E+01  0.26512553955E+02  0.00000000000E+00 0. -1.
        -12    1    5    5    0    0  0.17112269270E+02  0.76169123092E+00  0.89841947858E+02  0.91460294817E+02  0.00000000000E+00 0.  1.
          5    1    4    4  501    0  0.13417047206E+02 -0.19688282675E+02 -0.29841775054E+03  0.29939651279E+03  0.41800000000E+01 0. -1.
         -5    1    4    4    0  501  0.88505904970E+02 -0.33028988921E+02 -0.12467538662E+03  0.15647886041E+03  0.41800000000E+01 0. -1.
</event>
<event>
11    1  0.5813833E-009  0.1477085E+03  0.7561462E-02  0.1099243E+00
         22   -1    0    0    0    0  0.00000000000E+00  0.00000000000E+00  0.93148947563E+02  0.93148947563E+02  0.00000000000E+00 0.  1.
         22   -1    0    0    0    0 -0.00000000000E+00 -0.00000000000E+00 -0.16974480559E+04  0.16974480559E+04  0.00000000000E+00 0. -1.
         24    2    1    2    0    0  0.43109689134E+02 -0.50025240990E+02 -0.87955010402E+03  0.88578472593E+03  0.81518250558E+02 0.  0.
         25    2    1    2    0    0 -0.11167186723E+03  0.13239218712E+02 -0.76621812271E+03  0.78446269104E+03  0.12508244969E+03 0.  0.
        -24    2    1    2    0    0  0.68562178099E+02  0.36786022278E+02  0.41469118351E+02  0.12034958654E+03  0.81916735178E+02 0.  0.
        -11    1    3    3    0    0 -0.14436370666E+01  0.21008759283E+02 -0.17432843640E+03  0.17559571690E+03  0.00000000000E+00 0.  1.
         12    1    3    3    0    0  0.44553326200E+02 -0.71034000273E+02 -0.70522166762E+03  0.71018900903E+03  0.00000000000E+00 0. -1.
         13    1    5    5    0    0 -0.14584915802E+02  0.15673616843E+01 -0.86955180889E+01  0.17052519651E+02  0.00000000000E+00 0. -1.
        -14    1    5    5    0    0  0.83147093901E+02  0.35218660594E+02  0.50164636440E+02  0.10329706689E+03  0.00000000000E+00 0.  1.
          5    1    4    4  501    0  0.82753020066E+01  0.23232176628E+02 -0.32944620199E+02  0.41364659484E+02  0.41800000000E+01 0.  1.
         -5    1    4    4    0  501 -0.11994716924E+03 -0.99929579155E+01 -0.73327350252E+03  0.74309803156E+03  0.41800000000E+01 0.  1.
</event>
<event>
11    1  0.5813833E-009  0.1596891E+03  0.7561462E-02  0.1087370E+00
         22   -1    0    0    0    0  0.00000000000E+00  0.00000000000E+00  0.10097441830E+04  0.10097441830E+04  0.00000000000E+00 0. -1.
         22   -1    0    0    0    0 -0.00000000000E+00 -0.00000000000E+00 -0.50884300499E+02  0.50884300499E+02  0.00000000000E+00 0. -1.
        -24    2    1    2    0    0 -0.39678296237E+02  0.72660892330E+01  0.49227166044E+02  0.10195800965E+03  0.79655248484E+02 0.  0.
         25    2    1    2    0    0 -0.47136721094E+02  0.60553955380E+02  0.30122968686E+03  0.33507558940E+03  0.12509066464E+03 0.  0.
         24    2    1    2    0    0  0.86815017331E+02 -0.67820044613E+02  0.60840302957E+03  0.62359488441E+03  0.81116754099E+02 0.  0.
        -13    1    5    5    0    0  0.38221848678E+01 -0.51202285433E+02  0.19749530433E+03  0.20406047722E+03  0.00000000000E+00 0.  1.
         14    1    5    5    0    0  0.82992832463E+02 -0.16617759180E+02  0.41090772524E+03  0.41953440719E+03  0.00000000000E+00 0. -1.
         13    1    3    3    0    0 -0.23784734879E+02  0.29599973249E+02 -0.77272989749E+01  0.38750266826E+02  0.00000000000E+00 0. -1.
        -14    1    3    3    0    0 -0.15893561358E+02 -0.22333884016E+02  0.56954465019E+02  0.63207742829E+02  0.00000000000E+00 0.  1.
          5    1    4    4  501    0 -0.21978254183E+02  0.35007256596E+02  0.11502595289E+02  0.43108395582E+02  0.41800000000E+01 0.  1.
         -5    1    4    4    0  501 -0.25158466911E+02  0.25546698784E+02  0.28972709157E+03  0.29196719382E+03  0.41800000000E+01 0.  1.
</event>
<event>
11    1  0.5813833E-009  0.1612554E+03  0.7561462E-02  0.1085902E+00
         22   -1    0    0    0    0  0.00000000000E+00  0.00000000000E+00  0.53539464024E+03  0.53539464024E+03  0.00000000000E+00 0.  1.
         22   -1    0    0    0    0 -0.00000000000E+00 -0.00000000000E+00 -0.53296221007E+03  0.53296221007E+03  0.00000000000E+00 0.  1.
         24    2    1    2    0    0 -0.52142595341E+02  0.89931337087E+02 -0.42894841998E+03  0.44873276495E+03  0.80980563712E+02 0.  0.
         25    2    1    2    0    0  0.24103120677E+02 -0.86428104359E+02 -0.24139661022E+02  0.15582339288E+03  0.12508968337E+03 0.  0.
        -24    2    1    2    0    0  0.28039474664E+02 -0.35032327276E+01  0.45552051117E+03  0.46380069248E+03  0.82544905751E+02 0.  0.
        -11    1    3    3    0    0  0.87998913236E+01 -0.41112891135E+01 -0.11452767310E+03  0.11493880411E+03  0.00000000000E+00 0.  1.
         12    1    3    3    0    0 -0.60942486664E+02  0.94042626200E+02 -0.31442074689E+03  0.33379396084E+03  0.00000000000E+00 0. -1.
         13    1    5    5    0    0 -0.29094748221E+02 -0.38109589034E+01  0.18497613257E+03  0.18728907444E+03  0.00000000000E+00 0. -1.
        -14    1    5    5    0    0  0.57134222885E+02  0.30772617575E+00  0.27054437860E+03  0.27651161804E+03  0.00000000000E+00 0.  1.
          5    1    4    4  501    0  0.18245686258E+02  0.23518680102E+02 -0.33783895243E+02  0.45220099055E+02  0.41800000000E+01 0.  1.
         -5    1    4    4    0  501  0.58574344182E+01 -0.10994678446E+03  0.96442342207E+01  0.11060329383E+03  0.41800000000E+01 0.  1.
</event>
<event>
11    1  0.5813833E-009  0.2411863E+03  0.7561462E-02  0.1028702E+00
         22   -1    0    0    0    0  0.00000000000E+00  0.00000000000E+00  0.26845202489E+04  0.26845202489E+04  0.00000000000E+00 0.  1.
         22   -1    0    0    0    0 -0.00000000000E+00 -0.00000000000E+00 -0.53211833764E+03  0.53211833764E+03  0.00000000000E+00 0. -1.
        -24    2    1    2    0    0 -0.92629932660E+01  0.34557229377E+02 -0.42217385621E+03  0.43131624776E+03  0.80764692593E+02 0.  0.
         25    2    1    2    0    0 -0.18989768532E+03  0.22107354686E+02  0.29257967802E+02  0.23032079101E+03  0.12506707028E+03 0.  0.
         24    2    1    2    0    0  0.19916067859E+03 -0.56664584064E+02  0.25453177997E+04  0.25550015478E+04  0.80711565580E+02 0.  0.
        -13    1    5    5    0    0  0.13217740376E+03 -0.59017883801E+00  0.17208133355E+04  0.17258823106E+04  0.00000000000E+00 0.  1.
         14    1    5    5    0    0  0.66983274824E+02 -0.56074405226E+02  0.82450446423E+03  0.82911923724E+03  0.00000000000E+00 0. -1.
         11    1    3    3    0    0  0.17354426994E+02 -0.54580129889E+01 -0.29179797515E+03  0.29236454016E+03  0.00000000000E+00 0. -1.
        -12    1    3    3    0    0 -0.26617420260E+02  0.40015242366E+02 -0.13037588106E+03  0.13895170760E+03  0.00000000000E+00 0.  1.
          5    1    4    4  501    0 -0.20454039478E+03  0.56094369384E+01  0.33750952287E+02  0.20742429477E+03  0.41800000000E+01 0. -1.
         -5    1    4    4    0  501  0.14642709460E+02  0.16497917748E+02 -0.44929844843E+01  0.22896496237E+02  0.41800000000E+01 0. -1.
</event>
<event>
11    1  0.5813833E-009  0.2237032E+03  0.7561462E-02  0.1038922E+00
         22   -1    0    0    0    0  0.00000000000E+00  0.00000000000E+00  0.16097815139E+03  0.16097815139E+03  0.00000000000E+00 0. -1.
         22   -1    0    0    0    0 -0.00000000000E+00 -0.00000000000E+00 -0.20593150859E+04  0.20593150859E+04  0.00000000000E+00 0.  1.
         24    2    1    2    0    0  0.43221689659E+02 -0.10124500320E+02 -0.12663004771E+04  0.12696756082E+04  0.81170387321E+02 0.  0.
         25    2    1    2    0    0 -0.17642546020E+03  0.13403794868E+03 -0.69650282022E+03  0.74152250687E+03  0.12508930779E+03 0.  0.
        -24    2    1    2    0    0  0.13320377054E+03 -0.12391344836E+03  0.64466362743E+02  0.20909512229E+03  0.80418101614E+02 0.  0.
        -11    1    3    3    0    0  0.44031518970E+02 -0.41292644118E+02 -0.91793500916E+03  0.91991768010E+03  0.00000000000E+00 0.  1.
         12    1    3    3    0    0 -0.80982931095E+00  0.31168143799E+02 -0.34836546790E+03  0.34975792805E+03  0.00000000000E+00 0. -1.
         13    1    5    5    0    0  0.51407711557E+02 -0.79291186476E+02  0.67074366161E+02  0.11588276687E+03  0.00000000000E+00 0. -1.
        -14    1    5    5    0    0  0.81796058987E+02 -0.44622261880E+02 -0.26080034178E+01  0.93212355420E+02  0.00000000000E+00 0.  1.
          5    1    4    4  501    0 -0.72312307177E+02 -0.26094432454E+01 -0.12236791310E+03  0.14222256333E+03  0.41800000000E+01 0. -1.
         -5    1    4    4    0  501 -0.10411315303E+03  0.13664739192E+03 -0.57413490712E+03  0.59929994354E+03  0.41800000000E+01 0. -1.
</event>
<event>
11    1  0.5813833E-009  0.1551833E+03  0.7561462E-02  0.1091697E+00
         22   -1    0    0    0    0  0.00000000000E+00  0.00000000000E+00  0.66285669692E+03  0.66285669692E+03  0.00000000000E+00 0.  1.
         22   -1    0    0    0    0 -0.00000000000E+00 -0.00000000000E+00 -0.72535657120E+03  0.72535657120E+03  0.00000000000E+00 0. -1.
         24    2    1    2    0    0  0.57020380507E+02  0.76770453965E+02 -0.64545491213E+03  0.65755024990E+03  0.81334255733E+02 0.  0.
         25    2    1    2    0    0 -0.15203807212E+02 -0.51215343549E+02 -0.35330353090E+01  0.13606484149E+03  0.12508793540E+03 0.  0.
        -24    2    1    2    0    0 -0.41816573295E+02 -0.25555110416E+02  0.58648807317E+03  0.59459817673E+03  0.84717426352E+02 0.  0.
        -11    1    3    3    0    0 -0.13094829273E+02 -0.25300985339E+00 -0.23229519725E+02  0.26667379968E+02  0.00000000000E+00 0.  1.
         12    1    3    3    0    0  0.70115209779E+02  0.77023463818E+02 -0.62222539241E+03  0.63088286994E+03  0.00000000000E+00 0. -1.
         13    1    5    5    0    0  0.14019190219E+02 -0.55515357900E+01  0.20171596549E+02  0.25184331466E+02  0.00000000000E+00 0. -1.
        -14    1    5    5    0    0 -0.55835763514E+02 -0.20003574626E+02  0.56631647662E+03  0.56941384526E+03  0.00000000000E+00 0.  1.
          5    1    4    4  501    0 -0.19761626694E+00 -0.89086211489E+02  0.16142725454E+02  0.90633614707E+02  0.41800000000E+01 0.  1.
         -5    1    4    4    0  501 -0.15006190945E+02  0.37870867941E+02 -0.19675760764E+02  0.45431226782E+02  0.41800000000E+01 0.  1.
</event>
<event>
11    1  0.5813833E-009  0.1497143E+03  0.7561462E-02  0.1097171E+00
         22   -1    0    0    0    0  0.00000000000E+00  0.00000000000E+00  0.16268027530E+03  0.16268027530E+03  0.00000000000E+00 0. -1.
         22   -1    0    0    0    0 -0.00000000000E+00 -0.00000000000E+00 -0.11677915984E+04  0.11677915984E+04  0.00000000000E+00 0. -1.
         24    2    1    2    0    0  0.19379489283E+02  0.20705288270E+02 -0.96050257015E+03  0.96438982287E+03  0.81720680588E+02 0.  0.
         25    2    1    2    0    0  0.65235792294E+02 -0.16968558941E+02 -0.15232325584E+03  0.20831060587E+03  0.12508914285E+03 0.  0.
        -24    2    1    2    0    0 -0.84615281577E+02 -0.37367293290E+01  0.10771450286E+03  0.15777144498E+03  0.78202977574E+02 0.  0.
        -13    1    3    3    0    0 -0.21464744117E+01  0.42170854415E+02 -0.27588846670E+03  0.27910111854E+03  0.00000000000E+00 0.  1.
         14    1    3    3    0    0  0.21525963695E+02 -0.21465566145E+02 -0.68461410345E+03  0.68528870433E+03  0.00000000000E+00 0. -1.
         13    1    5    5    0    0 -0.84540623717E+02 -0.83800110278E+01  0.11862815240E+03  0.14591086384E+03  0.00000000000E+00 0. -1.
        -14    1    5    5    0    0 -0.74657860578E-01  0.46432816988E+01 -0.10913649540E+02  0.11860581142E+02  0.00000000000E+00 0.  1.
          5    1    4    4  501    0  0.30989940670E+02 -0.40324780847E+02 -0.15820860396E+03  0.16623447038E+03  0.41800000000E+01 0.  1.
         -5    1    4    4    0  501  0.34245851624E+02  0.23356221906E+02  0.58853481245E+01  0.42076135489E+02  0.41800000000E+01 0.  1.
</event>
<event>
11    1  0.5813833E-009  0.1508932E+03  0.7561462E-02  0.1095970E+00
         22   -1    0    0    0    0  0.00000000000E+00  0.00000000000E+00  0.12116566508E+04  0.12116566508E+04  0.00000000000E+00 0. -1.
         22   -1    0    0    0    0 -0.00000000000E+00 -0.00000000000E+00 -0.10775806550E+04  0.10775806550E+04  0.00000000000E+00 0. -1.
        -24    2    1    2    0    0  0.69100683863E+02 -0.46451747824E+02 -0.10090103319E+04  0.10157088763E+04  0.81424826000E+02 0.  0.
         25    2    1    2    0    0 -0.12281858045E+03  0.47052041253E+02  0.67782532568E+02  0.19375310122E+03  0.12508994452E+03 0.  0.
         24    2    1    2    0    0  0.53717896584E+02 -0.60029342858E+00  0.10753037951E+04  0.10797753283E+04  0.82161640125E+02 0.  0.
        -11    1    5    5    0    0 -0.18910049505E+02 -0.10487623113E+02  0.14695076390E+03  0.14853318559E+03  0.00000000000E+00 0.  1.
         12    1    5    5    0    0  0.72627946089E+02  0.98873296849E+01  0.92835303120E+03  0.93124214272E+03  0.00000000000E+00 0. -1.
         13    1    3    3    0    0  0.34804325200E+02 -0.40446214043E+02 -0.89283697515E+03  0.89443004280E+03  0.00000000000E+00 0. -1.
        -14    1    3    3    0    0  0.34296358663E+02 -0.60055337808E+01 -0.11617335671E+03  0.12127883353E+03  0.00000000000E+00 0.  1.
          5    1    4    4  501    0 -0.91038803849E+02  0.64819327997E+02 -0.53380379187E+01  0.11196238715E+03  0.41800000000E+01 0. -1.
         -5    1    4    4    0  501 -0.31779776597E+02 -0.17767286744E+02  0.73120570486E+02  0.81790714064E+02  0.41800000000E+01 0. -1.
</event>
<event>
11    1  0.5813833E-009  0.1749824E+03  0.7561462E-02  0.1073775E+00
         22   -1    0    0    0    0  0.00000000000E+00  0.00000000000E+00  0.16755188679E+03  0.16755188679E+03  0.00000000000E+00 0. -1.
         22   -1    0    0    0    0 -0.00000000000E+00 -0.00000000000E+00 -0.67938136806E+03  0.67938136806E+03  0.00000000000E+00 0.  1.
         24    2    1    2    0    0 -0.98237168645E+02 -0.68482561034E+02 -0.48305204905E+03  0.50409021060E+03  0.80170168118E+02 0.  0.
         25    2    1    2    0    0  0.11800879062E+03  0.66550229955E+02 -0.11577360591E+03  0.21772970536E+03  0.12509072307E+03 0.  0.
        -24    2    1    2    0    0 -0.19771621975E+02  0.19323310796E+01  0.86996173689E+02  0.12511333889E+03  0.87694711323E+02 0.  0.
        -11    1    3    3    0    0 -0.91327716664E+02 -0.37877654079E+02 -0.43906830382E+03  0.45006271111E+03  0.00000000000E+00 0.  1.
         12    1    3    3    0    0 -0.69094519815E+01 -0.30604906955E+02 -0.43983745232E+02  0.54027499489E+02  0.00000000000E+00 0. -1.
         13    1    5    5    0    0  0.23487334105E+01  0.32538894799E+02  0.80415293103E+02  0.86780848050E+02  0.00000000000E+00 0. -1.
        -14    1    5    5    0    0 -0.22120355386E+02 -0.30606563719E+02  0.65808805859E+01  0.38332490845E+02  0.00000000000E+00 0.  1.
          5    1    4    4  501    0  0.76197007611E+02  0.89657260313E+02 -0.33346149640E+02  0.12236766890E+03  0.41800000000E+01 0.  1.
         -5    1    4    4    0  501  0.41811783010E+02 -0.23107030359E+02 -0.82427456268E+02  0.95362036457E+02  0.41800000000E+01 0.  1.
</event>
<event>
11    1  0.5813833E-009  0.2567992E+03  0.7561462E-02  0.1020338E+00
         22   -1    0    0    0    0  0.00000000000E+00  0.00000000000E+00  0.11464320837E+04  0.11464320837E+04  0.00000000000E+00 0. -1.
         22   -1    0    0    0    0 -0.00000000000E+00 -0.00000000000E+00 -0.26750782665E+03  0.26750782665E+03  0.00000000000E+00 0. -1.
         24    2    1    2    0    0  0.44314835746E+02 -0.35367746794E+02 -0.16628755780E+03  0.19325937639E+03  0.80516783996E+02 0.  0.
         25    2    1    2    0    0  0.20088098869E+02 -0.18812746230E+03  0.10728315613E+03  0.25090370060E+03  0.12509003797E+03 0.  0.
        -24    2    1    2    0    0 -0.64402934615E+02  0.22349520910E+03  0.93792865866E+03  0.96977683331E+03  0.81603254881E+02 0.  0.
        -13    1    3    3    0    0 -0.18965551719E+02 -0.15043007810E+02 -0.16238984117E+02  0.29149422655E+02  0.00000000000E+00 0.  1.
         14    1    3    3    0    0  0.63280387465E+02 -0.20324738985E+02 -0.15004857368E+03  0.16410995374E+03  0.00000000000E+00 0. -1.
         13    1    5    5    0    0 -0.41549906500E+02  0.54346285231E+02  0.38745827592E+03  0.39345117744E+03  0.00000000000E+00 0. -1.
        -14    1    5    5    0    0 -0.22853028115E+02  0.16914892386E+03  0.55047038274E+03  0.57632565587E+03  0.00000000000E+00 0.  1.
          5    1    4    4  501    0 -0.16205228426E+02 -0.17702405778E+03  0.54928295375E+02  0.18610404750E+03  0.41800000000E+01 0. -1.
         -5    1    4    4    0  501  0.36293327295E+02 -0.11103404522E+02  0.52354860757E+02  0.64799653108E+02  0.41800000000E+01 0. -1.
</event>
<event>
11    1  0.5813833E-009  0.1357710E+03  0.7561462E-02  0.1112375E+00
         22   -1    0    0    0    0  0.00000000000E+00  0.00000000000E+00  0.18844248687E+04  0.18844248687E+04  0.00000000000E+00 0. -1.
         22   -1    0    0    0    0 -0.00000000000E+00 -0.00000000000E+00 -0.40324968715E+03  0.40324968715E+03  0.00000000000E+00 0.  1.
        -24    2    1    2    0    0 -0.17587519157E+02 -0.40775130589E+02 -0.35027970900E+03  0.36247300537E+03  0.81968731739E+02 0.  0.
         25    2    1    2    0    0 -0.21307215129E+01 -0.94986777968E+01  0.40767588052E+02  0.13192797825E+03  0.12509288691E+03 0.  0.
         24    2    1    2    0    0  0.19718240670E+02  0.50273808386E+02  0.17906873025E+04  0.17932735722E+04  0.79704609106E+02 0.  0.
        -11    1    5    5    0    0 -0.31088506942E+02  0.22398715193E+02  0.72393976733E+03  0.72495309119E+03  0.00000000000E+00 0.  1.
         12    1    5    5    0    0  0.50806747612E+02  0.27875093193E+02  0.10667475351E+04  0.10683204810E+04  0.00000000000E+00 0. -1.
         13    1    3    3    0    0 -0.49116060532E+02 -0.12226482224E+02 -0.19761465066E+03  0.20399368722E+03  0.00000000000E+00 0. -1.
        -14    1    3    3    0    0  0.31528541376E+02 -0.28548648366E+02 -0.15266505834E+03  0.15847931816E+03  0.00000000000E+00 0.  1.
          5    1    4    4  501    0 -0.23336076378E+02 -0.57178261276E+02 -0.53938336680E+01  0.62132856565E+02  0.41800000000E+01 0. -1.
         -5    1    4    4    0  501  0.21205354865E+02  0.47679583479E+02  0.46161421720E+02  0.69795121684E+02  0.41800000000E+01 0. -1.
</event>
<event>
11    1  0.5813833E-009  0.1895027E+03  0.7561462E-02  0.1062205E+00
         22   -1    0    0    0    0  0.00000000000E+00  0.00000000000E+00  0.22764606805E+03  0.22764606805E+03  0.00000000000E+00 0.  1.
         22   -1    0    0    0    0 -0.00000000000E+00 -0.00000000000E+00 -0.53995800216E+03  0.53995800216E+03  0.00000000000E+00 0. -1.
        -24    2    1    2    0    0 -0.77314126701E+02  0.11864482991E+03 -0.40493812738E+03  0.43621321100E+03  0.79075967256E+02 0.  0.
         25    2    1    2    0    0  0.11219901215E+03 -0.10113362826E+03 -0.10168819818E+02  0.19638629952E+03  0.12509014609E+03 0.  0.
         24    2    1    2    0    0 -0.34884885453E+02 -0.17511201648E+02  0.10279501308E+03  0.13500455970E+03  0.78331468827E+02 0.  0.
        -11    1    5    5    0    0 -0.36368665567E+02 -0.10191320361E+02  0.11480685390E+03  0.12086007012E+03  0.00000000000E+00 0.  1.
         12    1    5    5    0    0  0.14837801140E+01 -0.73198812864E+01 -0.12011840823E+02  0.14144489578E+02  0.00000000000E+00 0. -1.
         11    1    3    3    0    0 -0.70615880734E+02  0.10663341760E+03 -0.25142020708E+03  0.28208050073E+03  0.00000000000E+00 0. -1.
        -12    1    3    3    0    0 -0.66982459664E+01  0.12011412304E+02 -0.15351792030E+03  0.15413271028E+03  0.00000000000E+00 0.  1.
          5    1    4    4  501    0  0.10856991716E+03 -0.75997387140E+02 -0.55912775576E+02  0.14389836913E+03  0.41800000000E+01 0.  1.
         -5    1    4    4    0  501  0.36290949904E+01 -0.25136241120E+02  0.45743955758E+02  0.52487930389E+02  0.41800000000E+01 0.  1.
</event>
<event>
11    1  0.5813833E-009  0.1508861E+03  0.7561462E-02  0.1095977E+00
         22   -1    0    0    0    0  0.00000000000E+00  0.00000000000E+00  0.20351053163E+03  0.20351053163E+03  0.00000000000E+00 0.  1.
         22   -1    0    0    0    0 -0.00000000000E+00 -0.00000000000E+00 -0.45529582180E+03  0.45529582180E+03  0.00000000000E+00 0. -1.
        -24    2    1    2    0    0  0.75673281475E+02 -0.13050717046E+02 -0.27118695669E+03  0.29332785852E+03  0.81253309872E+02 0.  0.
         25    2    1    2    0    0 -0.10973246577E+03  0.44836689200E+02 -0.11134918877E+03  0.20517892815E+03  0.12509279746E+03 0.  0.
         24    2    1    2    0    0  0.34059184291E+02 -0.31785972154E+02  0.13075085528E+03  0.16029956676E+03  0.80185964399E+02 0.  0.
        -13    1    5    5    0    0 -0.23886321115E+02 -0.20803586008E+02  0.62710483097E+02  0.70256317990E+02  0.00000000000E+00 0.  1.
         14    1    5    5    0    0  0.57945505406E+02 -0.10982386146E+02  0.68040372183E+02  0.90043248770E+02  0.00000000000E+00 0. -1.
         13    1    3    3    0    0  0.27998726414E+02  0.31344215714E+02 -0.14956657339E+03  0.15535941688E+03  0.00000000000E+00 0. -1.
        -14    1    3    3    0    0  0.47674555061E+02 -0.44394932760E+02 -0.12162038330E+03  0.13796844164E+03  0.00000000000E+00 0.  1.
          5    1    4    4  501    0 -0.32525944078E+02  0.77189106200E+02 -0.79372468244E+02  0.11547101917E+03  0.41800000000E+01 0.  1.
         -5    1    4    4    0  501 -0.77206521689E+02 -0.32352417000E+02 -0.31976720525E+02  0.89707908974E+02  0.41800000000E+01 0.  1.
</event>
<event>
11    1  0.5813833E-009  0.1285531E+03  0.7561462E-02  0.1121060E+00
         22   -1    0    0    0    0  0.00000000000E+00  0.00000000000E+00  0.11016592204E+04  0.11016592204E+04  0.00000000000E+00 0.  1.
         22   -1    0    0    0    0 -0.00000000000E+00 -0.00000000000E+00 -0.15314899356E+03  0.15314899356E+03  0.00000000000E+00 0.  1.
         24    2    1    2    0    0  0.30668815815E+02 -0.11498745386E+02 -0.87056581174E+02  0.12334519960E+03  0.81008595403E+02 0.  0.
         25    2    1    2    0    0 -0.19061313975E+02 -0.14028736022E+02  0.41778024474E+02  0.13400707043E+03  0.12510936205E+03 0.  0.
        -24    2    1    2    0    0 -0.11607501841E+02  0.25527481408E+02  0.99378878351E+03  0.99745594389E+03  0.80720675043E+02 0.  0.
        -11    1    3    3    0    0  0.36712146394E+01  0.73650176838E+01 -0.89910957562E+02  0.90286774182E+02  0.00000000000E+00 0.  1.
         12    1    3    3    0    0  0.26997601176E+02 -0.18863763070E+02  0.28543763881E+01  0.33058425416E+02  0.00000000000E+00 0. -1.
         11    1    5    5    0    0  0.13195235747E+02 -0.17514843657E+02  0.10426648078E+03  0.10654756219E+03  0.00000000000E+00 0. -1.
        -12    1    5    5    0    0 -0.24802737588E+02  0.43042325065E+02  0.88952230273E+03  0.89090838171E+03  0.00000000000E+00 0.  1.
          5    1    4    4  501    0 -0.79204355295E+01 -0.66836354902E+02  0.42793192629E+02  0.79865896170E+02  0.41800000000E+01 0.  1.
         -5    1    4    4    0  501 -0.11140878445E+02  0.52807618880E+02 -0.10151681550E+01  0.54141174264E+02  0.41800000000E+01 0.  1.
</event>
<event>
11    1  0.5813833E-009  0.1465916E+03  0.7561462E-02  0.1100413E+00
         22   -1    0    0    0    0  0.00000000000E+00  0.00000000000E+00  0.17990025396E+03  0.17990025396E+03  0.00000000000E+00 0.  1.
         22   -1    0    0    0    0 -0.00000000000E+00 -0.00000000000E+00 -0.49568672787E+03  0.49568672787E+03  0.00000000000E+00 0. -1.
         24    2    1    2    0    0 -0.36130199235E+02  0.48372550889E+01 -0.32089458912E+03  0.33288037613E+03  0.80667323960E+02 0.  0.
         25    2    1    2    0    0  0.10562233313E+03  0.15873286328E+02 -0.10366631161E+03  0.19443114673E+03  0.12509487672E+03 0.  0.
        -24    2    1    2    0    0 -0.69492133900E+02 -0.20710541417E+02  0.10877442683E+03  0.14827545896E+03  0.69968940240E+02 0.  0.
        -13    1    3    3    0    0 -0.14197176951E+02  0.10464316906E+02 -0.83448572261E+01  0.19511494146E+02  0.00000000000E+00 0.  1.
         14    1    3    3    0    0 -0.21933022283E+02 -0.56270618172E+01 -0.31254973189E+03  0.31336888199E+03  0.00000000000E+00 0. -1.
         13    1    5    5    0    0 -0.24167912487E+02 -0.12848548762E+02 -0.28742048962E+01  0.27521523451E+02  0.00000000000E+00 0. -1.
        -14    1    5    5    0    0 -0.45324221414E+02 -0.78619926543E+01  0.11164863172E+03  0.12075393551E+03  0.00000000000E+00 0.  1.
          5    1    4    4  501    0 -0.14329541554E+02  0.28868805825E+02  0.39042792190E+01  0.32733156083E+02  0.41800000000E+01 0.  1.
         -5    1    4    4    0  501  0.11995187469E+03 -0.12995519498E+02 -0.10757059083E+03  0.16169799065E+03  0.41800000000E+01 0.  1.
</event>
<event>
11    1  0.5813833E-009  0.1521554E+03  0.7561462E-02  0.1094697E+00
         22   -1    0    0    0    0  0.00000000000E+00  0.00000000000E+00  0.39160400993E+03  0.39160400993E+03  0.00000000000E+00 0. -1.
         22   -1    0    0    0    0 -0.00000000000E+00 -0.00000000000E+00 -0.27870715733E+04  0.27870715733E+04  0.00000000000E+00 0. -1.
        -24    2    1    2    0    0 -0.69571825234E+02  0.46336991420E+02 -0.23310380667E+04  0.23338886189E+04  0.79437152666E+02 0.  0.
         25    2    1    2    0    0  0.16230121494E+02 -0.11472632489E+03 -0.42905044476E+03  0.46169017100E+03  0.12509189976E+03 0.  0.
         24    2    1    2    0    0  0.53341703740E+02  0.68389333472E+02  0.36462094815E+03  0.38309679331E+03  0.79323886227E+02 0.  0.
        -11    1    5    5    0    0 -0.74828957724E+01  0.47994430930E+01  0.16137200761E+03  0.16161668609E+03  0.00000000000E+00 0.  1.
         12    1    5    5    0    0  0.60824599512E+02  0.63589890379E+02  0.20324894054E+03  0.22148010722E+03  0.00000000000E+00 0. -1.
         13    1    3    3    0    0 -0.47371933615E+02  0.19667007066E+01 -0.17773063768E+04  0.17779386730E+04  0.00000000000E+00 0. -1.
        -14    1    3    3    0    0 -0.22199891619E+02  0.44370290714E+02 -0.55373168995E+03  0.55594994589E+03  0.00000000000E+00 0.  1.
          5    1    4    4  501    0 -0.23197434295E+02 -0.12685211520E+03 -0.32129228358E+03  0.34623082470E+03  0.41800000000E+01 0. -1.
         -5    1    4    4    0  501  0.39427555789E+02  0.12125790310E+02 -0.10775816118E+03  0.11545934630E+03  0.41800000000E+01 0. -1.
</event>
<event>
11    1  0.5813833E-009  0.1833153E+03  0.7561462E-02  0.1066992E+00
         22   -1    0    0    0    0  0.00000000000E+00  0.00000000000E+00  0.56756079462E+03  0.56756079462E+03  0.00000000000E+00 0. -1.
         22   -1    0    0    0    0 -0.00000000000E+00 -0.00000000000E+00 -0.31653891231E+03  0.31653891231E+03  0.00000000000E+00 0.  1.
         24    2    1    2    0    0 -0.64385414361E+02 -0.10364805946E+03 -0.17300815376E+03  0.22608223005E+03  0.79328126562E+02 0.  0.
         25    2    1    2    0    0  0.12017850551E+03  0.14359940568E+03  0.43822071807E+01  0.22523147421E+03  0.12508537379E+03 0.  0.
        -24    2    1    2    0    0 -0.55793091149E+02 -0.39951346220E+02  0.41964782889E+03  0.43278600267E+03  0.80563296436E+02 0.  0.
        -13    1    3    3    0    0 -0.56185786222E+01 -0.81915569251E+02 -0.86468929332E+02  0.11924179071E+03  0.00000000000E+00 0.  1.
         14    1    3    3    0    0 -0.58766835739E+02 -0.21732490204E+02 -0.86539224427E+02  0.10684043934E+03  0.00000000000E+00 0. -1.
         13    1    5    5    0    0  0.75618749359E+01 -0.33486154754E+02  0.23432455323E+03  0.23682588701E+03  0.00000000000E+00 0. -1.
        -14    1    5    5    0    0 -0.63354966085E+02 -0.64651914656E+01  0.18532327566E+03  0.19596011566E+03  0.00000000000E+00 0.  1.
          5    1    4    4  501    0  0.29585202939E+02  0.30986636834E+01  0.44093435829E+02  0.53353438809E+02  0.41800000000E+01 0.  1.
         -5    1    4    4    0  501  0.90593302571E+02  0.14050074199E+03 -0.39711228648E+02  0.17187803540E+03  0.41800000000E+01 0.  1.
</event>
<event>
11    1  0.5813833E-009  0.2309915E+03  0.7561462E-02  0.1034543E+00
         22   -1    0    0    0    0  0.00000000000E+00  0.00000000000E+00  0.14112404159E+04  0.14112404159E+04  0.00000000000E+00 0. -1.
         22   -1    0    0    0    0 -0.00000000000E+00 -0.00000000000E+00 -0.38637997282E+03  0.38637997282E+03  0.00000000000E+00 0.  1.
         24    2    1    2    0    0  0.18256484346E+03  0.70961856679E+02 -0.34094369274E+03  0.39806390981E+03  0.62022314566E+02 0.  0.
         25    2    1    2    0    0 -0.14546521089E+03 -0.46770385468E+02  0.69290413049E+03  0.72049417850E+03  0.12509248843E+03 0.  0.
        -24    2    1    2    0    0 -0.37099632573E+02 -0.24191471211E+02  0.67290000530E+03  0.67906230039E+03  0.79809652665E+02 0.  0.
        -13    1    3    3    0    0  0.12000386888E+03  0.16792796909E+02 -0.22592514596E+03  0.25636906629E+03  0.00000000000E+00 0.  1.
         14    1    3    3    0    0  0.62560974585E+02  0.54169059770E+02 -0.11501854678E+03  0.14169484352E+03  0.00000000000E+00 0. -1.
         11    1    5    5    0    0 -0.23199699987E+02 -0.17254989738E+02  0.65381581735E+03  0.65445479887E+03  0.00000000000E+00 0. -1.
        -12    1    5    5    0    0 -0.13899932587E+02 -0.69364814734E+01  0.19084187954E+02  0.24607501519E+02  0.00000000000E+00 0.  1.
          5    1    4    4  501    0 -0.11449620142E+03 -0.15019242768E+01  0.26025229556E+03  0.28435957107E+03  0.41800000000E+01 0.  1.
         -5    1    4    4    0  501 -0.30969009474E+02 -0.45268461191E+02  0.43265183493E+03  0.43613460743E+03  0.41800000000E+01 0.  1.
</event>
<event>
11    1  0.5813833E-009  0.1319507E+03  0.7561462E-02  0.1116895E+00
         22   -1    0    0    0    0  0.00000000000E+00  0.00000000000E+00  0.34052589377E+03  0.34052589377E+03  0.00000000000E+00 0. -1.
         22   -1    0    0    0    0 -0.00000000000E+00 -0.00000000000E+00 -0.73012977553E+03  0.73012977553E+03  0.00000000000E+00 0.  1.
         24    2    1    2    0    0 -0.58259777307E+01 -0.32314860206E+02 -0.65834725555E+03  0.66390167784E+03  0.79158933447E+02 0.  0.
         25    2    1    2    0    0  0.46414149195E+02  0.20742619099E+02  0.15618823661E+02  0.13592529729E+03  0.12508880565E+03 0.  0.
        -24    2    1    2    0    0 -0.40588171464E+02  0.11572241108E+02  0.25312455013E+03  0.27082869416E+03  0.86572670487E+02 0.  0.
        -13    1    3    3    0    0  0.18261757642E+02 -0.51286058166E+02 -0.38228699830E+03  0.38614388591E+03  0.00000000000E+00 0.  1.
         14    1    3    3    0    0 -0.24087735373E+02  0.18971197960E+02 -0.27606025724E+03  0.27775779193E+03  0.00000000000E+00 0. -1.
         13    1    5    5    0    0 -0.19801752413E+02 -0.37826391191E+02  0.11518090415E+03  0.12283967580E+03  0.00000000000E+00 0. -1.
        -14    1    5    5    0    0 -0.20786419051E+02  0.49398632299E+02  0.13794364598E+03  0.14798901836E+03  0.00000000000E+00 0.  1.
          5    1    4    4  501    0  0.80118241690E+02 -0.95036756535E+01  0.32959989570E+02  0.87252998888E+02  0.41800000000E+01 0. -1.
         -5    1    4    4    0  501 -0.33704092495E+02  0.30246294752E+02 -0.17341165909E+02  0.48672298407E+02  0.41800000000E+01 0. -1.
</event>
<event>
11    1  0.5813833E-009  0.1513156E+03  0.7561462E-02  0.1095542E+00
         22   -1    0    0    0    0  0.00000000000E+00  0.00000000000E+00  0.14969837615E+04  0.14969837615E+04  0.00000000000E+00 0.  1.
         22   -1    0    0    0    0 -0.00000000000E+00 -0.00000000000E+00 -0.42651253806E+03  0.42651253806E+03  0.00000000000E+00 0. -1.
        -24    2    1    2    0    0  0.74943682634E+02  0.56307281995E+02 -0.35437905379E+03  0.37725515434E+03  0.89162055514E+02 0.  0.
         25    2    1    2    0    0 -0.27812585400E+02 -0.15966835254E+02  0.12044077685E+02  0.12969795415E+03  0.12509204519E+03 0.  0.
         24    2    1    2    0    0 -0.47131097234E+02 -0.40340446741E+02  0.14128061995E+04  0.14165431911E+04  0.82003431232E+02 0.  0.
        -13    1    5    5    0    0  0.89778812807E+00 -0.12057814665E+02  0.99059879913E+03  0.99067258858E+03  0.00000000000E+00 0.  1.
         14    1    5    5    0    0 -0.48028885362E+02 -0.28282632075E+02  0.42220740040E+03  0.42587060248E+03  0.00000000000E+00 0. -1.
         11    1    3    3    0    0  0.28570307228E+02  0.40392214066E+02 -0.29993833533E+03  0.30399144464E+03  0.00000000000E+00 0. -1.
        -12    1    3    3    0    0  0.46373375406E+02  0.15915067928E+02 -0.54440718456E+02  0.73263709705E+02  0.00000000000E+00 0.  1.
          5    1    4    4  501    0 -0.33188965481E+02  0.10236367669E+02  0.62963224516E+02  0.72028679664E+02  0.41800000000E+01 0.  1.
         -5    1    4    4    0  501  0.53763800805E+01 -0.26203202923E+02 -0.50919146831E+02  0.57669274490E+02  0.41800000000E+01 0.  1.
</event>
<event>
11    1  0.5813833E-009  0.1858489E+03  0.7561462E-02  0.1065008E+00
         22   -1    0    0    0    0  0.00000000000E+00  0.00000000000E+00  0.12776116404E+04  0.12776116404E+04  0.00000000000E+00 0. -1.
         22   -1    0    0    0    0 -0.00000000000E+00 -0.00000000000E+00 -0.86813227936E+02  0.86813227936E+02  0.00000000000E+00 0.  1.
        -24    2    1    2    0    0 -0.12479973055E+03 -0.45796995094E+02  0.66447585871E+02  0.17017794191E+03  0.82903032147E+02 0.  0.
         25    2    1    2    0    0  0.18178790703E+03 -0.71368700760E+02  0.49783964301E+03  0.54920989219E+03  0.12508741320E+03 0.  0.
         24    2    1    2    0    0 -0.56988176479E+02  0.11716569585E+03  0.62651118358E+03  0.64503703423E+03  0.81123731649E+02 0.  0.
        -13    1    5    5    0    0 -0.35318711173E+02  0.38906864911E+01  0.10248408736E+03  0.10846905993E+03  0.00000000000E+00 0.  1.
         14    1    5    5    0    0 -0.21669465306E+02  0.11327500936E+03  0.52402709622E+03  0.53656797430E+03  0.00000000000E+00 0. -1.
         13    1    3    3    0    0 -0.39568720365E+02 -0.57481080968E+02  0.38639860160E+02  0.79767142946E+02  0.00000000000E+00 0. -1.
        -14    1    3    3    0    0 -0.85231010184E+02  0.11684085874E+02  0.27807725711E+02  0.90410798962E+02  0.00000000000E+00 0.  1.
          5    1    4    4  501    0  0.15989561581E+03 -0.28820153148E+02  0.26037549514E+03  0.30693660592E+03  0.41800000000E+01 0.  1.
         -5    1    4    4    0  501  0.21892291214E+02 -0.42548547612E+02  0.23746414787E+03  0.24227328627E+03  0.41800000000E+01 0.  1.
</event>
<event>
11    1  0.5813833E-009  0.1442126E+03  0.7561462E-02  0.1102944E+00
         22   -1    0    0    0    0  0.00000000000E+00  0.00000000000E+00  0.21455770176E+03  0.21455770176E+03  0.00000000000E+00 0.  1.
         22   -1    0    0    0    0 -0.00000000000E+00 -0.00000000000E+00 -0.74838342965E+03  0.74838342965E+03  0.00000000000E+00 0.  1.
         24    2    1    2    0    0 -0.36796874921E+02 -0.35912488403E+02 -0.44006791385E+03  0.45034939441E+03  0.80691334208E+02 0.  0.
         25    2    1    2    0    0 -0.22920475807E+02  0.76545610849E+02 -0.26883074535E+03  0.30708636144E+03  0.12508990760E+03 0.  0.
        -24    2    1    2    0    0  0.59717350727E+02 -0.40633122446E+02  0.17507293131E+03  0.20550537556E+03  0.79779167004E+02 0.  0.
        -11    1    3    3    0    0 -0.14681875596E+02 -0.60382577126E+02 -0.30979107130E+03  0.31596221443E+03  0.00000000000E+00 0.  1.
         12    1    3    3    0    0 -0.22114999325E+02  0.24470088723E+02 -0.13027684256E+03  0.13438717998E+03  0.00000000000E+00 0. -1.
         13    1    5    5    0    0  0.35448385961E+02 -0.63823871473E+02  0.10601894444E+03  0.12872486635E+03  0.00000000000E+00 0. -1.
        -14    1    5    5    0    0  0.24268964766E+02  0.23190749027E+02  0.69053986872E+02  0.76780509207E+02  0.00000000000E+00 0.  1.
          5    1    4    4  501    0  0.53720299073E+01  0.26801353234E+02 -0.24229513127E+03  0.24386794434E+03  0.41800000000E+01 0.  1.
         -5    1    4    4    0  501 -0.28292505714E+02  0.49744257615E+02 -0.26535614082E+02  0.63218417095E+02  0.41800000000E+01 0.  1.
</event>
<event>
11    1  0.5813833E-009  0.1500190E+03  0.7561462E-02  0.1096859E+00
         22   -1    0    0    0    0  0.00000000000E+00  0.00000000000E+00  0.26671644928E+04  0.26671644928E+04  0.00000000000E+00 0.  1.
         22   -1    0    0    0    0 -0.00000000000E+00 -0.00000000000E+00 -0.63787425036E+02  0.63787425036E+02  0.00000000000E+00 0. -1.
        -24    2    1    2    0    0  0.13759745095E+02 -0.80469254305E+01 -0.84167798480E+01  0.83285246053E+02  0.81311170409E+02 0.  0.
         25    2    1    2    0    0 -0.84446592491E+02  0.48658872355E+02  0.36471455700E+03  0.39769895010E+03  0.12509529958E+03 0.  0.
         24    2    1    2    0    0  0.70686847397E+02 -0.40611946924E+02  0.22470792906E+04  0.22499677217E+04  0.79645776520E+02 0.  0.
        -11    1    5    5    0    0  0.83986193481E+02 -0.20543425052E+02  0.14906746314E+04  0.14931800192E+04  0.00000000000E+00 0.  1.
         12    1    5    5    0    0 -0.13299346084E+02 -0.20068521872E+02  0.75640465919E+03  0.75678770248E+03  0.00000000000E+00 0. -1.
         13    1    3    3    0    0  0.15360124959E+02 -0.23489288350E+02 -0.39549762080E+02  0.48496018254E+02  0.00000000000E+00 0. -1.
        -14    1    3    3    0    0 -0.16003798648E+01  0.15442362919E+02  0.31132982232E+02  0.34789227799E+02  0.00000000000E+00 0.  1.
          5    1    4    4  501    0 -0.91693923838E+01  0.81462500258E+01 -0.80365809025E+01  0.15247890961E+02  0.41800000000E+01 0.  1.
         -5    1    4    4    0  501 -0.75277200108E+02  0.40512622329E+02  0.37275113791E+03  0.38245105914E+03  0.41800000000E+01 0.  1.
</event>
<event>
11    1  0.7531377E-009  0.1614396E+03  0.7561462E-02  0.1085731E+00
         22   -1    0    0    0    0  0.00000000000E+00  0.00000000000E+00  0.65344413304E+03  0.65344413304E+03  0.00000000000E+00 0. -1.
         22   -1    0    0    0    0 -0.00000000000E+00 -0.00000000000E+00 -0.15322899320E+04  0.15322899320E+04  0.00000000000E+00 0.  1.
         24    2    1    2    0    0 -0.28973897557E+02  0.58878680750E+02 -0.78965006866E+03  0.79622848663E+03  0.78271234794E+02 0.  0.
         25    2    1    2    0    0  0.13009085380E+03 -0.46557811450E+02 -0.72101459067E+03  0.74471510891E+03  0.12508914197E+03 0.  0.
        -24    2    1    2    0    0 -0.10111695624E+03 -0.12320869300E+02  0.63181886040E+03  0.64479046946E+03  0.78633545603E+02 0.  0.
        -11    1    3    3    0    0 -0.54163252193E+02  0.36725969436E+02 -0.60758291157E+03  0.61109692288E+03  0.00000000000E+00 0.  1.
         12    1    3    3    0    0  0.25189354636E+02  0.22152711315E+02 -0.18206715709E+03  0.18513156375E+03  0.00000000000E+00 0. -1.
         11    1    5    5    0    0 -0.10814257350E+03 -0.23432157124E+02  0.48876408088E+03  0.50113292543E+03  0.00000000000E+00 0. -1.
        -12    1    5    5    0    0  0.70256172521E+01  0.11111287824E+02  0.14305477952E+03  0.14365754403E+03  0.00000000000E+00 0.  1.
          5    1    4    4  501    0  0.10742396070E+03 -0.83162985070E+02 -0.62178310195E+03  0.63646499330E+03  0.41800000000E+01 0.  1.
         -5    1    4    4    0  501  0.22666893101E+02  0.36605173619E+02 -0.99231488713E+02  0.10825011562E+03  0.41800000000E+01 0.  1.
</event>
<event>
11    1  0.5813833E-009  0.1542923E+03  0.7561462E-02  0.1092572E+00
         22   -1    0    0    0    0  0.00000000000E+00  0.00000000000E+00  0.73989775171E+03  0.73989775171E+03  0.00000000000E+00 0. -1.
         22   -1    0    0    0    0 -0.00000000000E+00 -0.00000000000E+00 -0.20511712915E+03  0.20511712915E+03  0.00000000000E+00 0. -1.
        -24    2    1    2    0    0 -0.27413176090E+02  0.52658987625E+02 -0.10909731617E+03  0.14828179463E+03  0.80998858147E+02 0.  0.
         25    2    1    2    0    0  0.11550079758E+03 -0.53476058874E+02  0.42303409941E+02  0.18340350089E+03  0.12508853878E+03 0.  0.
         24    2    1    2    0    0 -0.88087621486E+02  0.81707124898E+00  0.60157452880E+03  0.61332958534E+03  0.80753760891E+02 0.  0.
        -11    1    5    5    0    0 -0.31123270372E+02  0.21504561967E+02  0.82866826718E+02  0.91093441665E+02  0.00000000000E+00 0.  1.
         12    1    5    5    0    0 -0.56964351114E+02 -0.20687490718E+02  0.51870770208E+03  0.52223614368E+03  0.00000000000E+00 0. -1.
         13    1    3    3    0    0  0.29225595257E+00  0.59737951669E+02 -0.10295925837E+03  0.11903494095E+03  0.00000000000E+00 0. -1.
        -14    1    3    3    0    0 -0.27705432042E+02 -0.70789640445E+01 -0.61380578076E+01  0.29246853681E+02  0.00000000000E+00 0.  1.
          5    1    4    4  501    0  0.26391281864E+02 -0.12217840698E+02  0.74414319213E+02  0.80004616702E+02  0.41800000000E+01 0. -1.
         -5    1    4    4    0  501  0.89109515712E+02 -0.41258218175E+02 -0.32110909272E+02  0.10339888419E+03  0.41800000000E+01 0. -1.
</event>
<event>
11    1  0.5813833E-009  0.2746374E+03  0.7561462E-02  0.1011536E+00
         22   -1    0    0    0    0  0.00000000000E+00  0.00000000000E+00  0.99944094377E+03  0.99944094377E+03  0.00000000000E+00 0.  1.
         22   -1    0    0    0    0 -0.00000000000E+00 -0.00000000000E+00 -0.16358786407E+04  0.16358786407E+04  0.00000000000E+00 0. -1.
         24    2    1    2    0    0 -0.52664350051E+01  0.30910880011E+02 -0.13733617068E+04  0.13760639035E+04  0.80288673322E+02 0.  0.
         25    2    1    2    0    0 -0.15464570899E+03 -0.21405464652E+03 -0.15551119608E+03  0.33100625255E+03  0.12508685028E+03 0.  0.
        -24    2    1    2    0    0  0.15991214399E+03  0.18314376651E+03  0.89243520594E+03  0.92824942840E+03  0.78056847903E+02 0.  0.
        -13    1    3    3    0    0 -0.17591326377E+02 -0.23825747737E+02 -0.40842443494E+03  0.40949681326E+03  0.00000000000E+00 0.  1.
         14    1    3    3    0    0  0.12324891372E+02  0.54736627748E+02 -0.96493727184E+03  0.96656709025E+03  0.00000000000E+00 0. -1.
         13    1    5    5    0    0  0.13054842537E+03  0.13966042040E+03  0.56082308056E+03  0.59251198476E+03  0.00000000000E+00 0. -1.
        -14    1    5    5    0    0  0.29363718619E+02  0.43483346116E+02  0.33161212538E+03  0.33573744363E+03  0.00000000000E+00 0.  1.
          5    1    4    4  501    0 -0.70965661910E+02 -0.11469949902E+03 -0.91252821202E+01  0.13525103852E+03  0.41800000000E+01 0. -1.
         -5    1    4    4    0  501 -0.83680047078E+02 -0.99355147501E+02 -0.14638591396E+03  0.19575521403E+03  0.41800000000E+01 0. -1.
</event>
<event>
11    1  0.5813833E-009  0.1401520E+03  0.7561462E-02  0.1107389E+00
         22   -1    0    0    0    0  0.00000000000E+00  0.00000000000E+00  0.13156943103E+04  0.13156943103E+04  0.00000000000E+00 0.  1.
         22   -1    0    0    0    0 -0.00000000000E+00 -0.00000000000E+00 -0.76956539188E+03  0.76956539188E+03  0.00000000000E+00 0. -1.
         24    2    1    2    0    0 -0.15866452492E+02 -0.61405464725E+02 -0.74555040508E+03  0.75257752950E+03  0.80654547149E+02 0.  0.
         25    2    1    2    0    0  0.64893259738E+02  0.24662962482E+02  0.26650851505E+03  0.30249283114E+03  0.12512284932E+03 0.  0.
        -24    2    1    2    0    0 -0.49026807246E+02  0.36742502243E+02  0.10251708085E+04  0.10301893416E+04  0.81001565383E+02 0.  0.
        -11    1    3    3    0    0 -0.15524973356E+02  0.27596937644E+01 -0.27768067668E+02  0.31932840296E+02  0.00000000000E+00 0.  1.
         12    1    3    3    0    0 -0.34147913567E+00 -0.64165158489E+02 -0.71778233742E+03  0.72064468920E+03  0.00000000000E+00 0. -1.
         13    1    5    5    0    0 -0.10945041260E+02  0.13886222501E+02  0.36862511837E+02  0.40883564943E+02  0.00000000000E+00 0. -1.
        -14    1    5    5    0    0 -0.38081765986E+02  0.22856279742E+02  0.98830829667E+03  0.98930577664E+03  0.00000000000E+00 0.  1.
          5    1    4    4  501    0  0.16587101459E+02  0.72625181187E+02  0.14863037417E+03  0.16630697340E+03  0.41800000000E+01 0.  1.
         -5    1    4    4    0  501  0.48306158279E+02 -0.47962218705E+02  0.11787814088E+03  0.13618585774E+03  0.41800000000E+01 0.  1.
</event>
<event>
11    1  0.5813833E-009  0.1620536E+03  0.7561462E-02  0.1085162E+00
         22   -1    0    0    0    0  0.00000000000E+00  0.00000000000E+00  0.98765586131E+03  0.98765586131E+03  0.00000000000E+00 0. -1.
         22   -1    0    0    0    0 -0.00000000000E+00 -0.00000000000E+00 -0.52634889720E+03  0.52634889720E+03  0.00000000000E+00 0.  1.
         24    2    1    2    0    0  0.57954360608E+02  0.83795218269E+02 -0.48114969173E+03  0.49810224472E+03  0.78869980479E+02 0.  0.
         25    2    1    2    0    0 -0.79668322276E+02 -0.11158424539E+03  0.21862979813E+03  0.28678208006E+03  0.12508751904E+03 0.  0.
        -24    2    1    2    0    0  0.21713961667E+02  0.27789027118E+02  0.72382685771E+03  0.72912043373E+03  0.80296704706E+02 0.  0.
        -11    1    3    3    0    0 -0.11780533808E+02  0.48948473142E+02 -0.21151304593E+03  0.21742240593E+03  0.00000000000E+00 0.  1.
         12    1    3    3    0    0  0.69734894416E+02  0.34846745127E+02 -0.26963664580E+03  0.28067983879E+03  0.00000000000E+00 0. -1.
         13    1    5    5    0    0 -0.10499875770E+02  0.30785157636E+02  0.60773385176E+03  0.60860365419E+03  0.00000000000E+00 0. -1.
        -14    1    5    5    0    0  0.32213837437E+02 -0.29961305171E+01  0.11609300595E+03  0.12051677954E+03  0.00000000000E+00 0.  1.
          5    1    4    4  501    0 -0.92466544608E+02 -0.43348261301E+02  0.18059031666E+03  0.20750775528E+03  0.41800000000E+01 0.  1.
         -5    1    4    4    0  501  0.12798222332E+02 -0.68235984087E+02  0.38039481473E+02  0.79274324783E+02  0.41800000000E+01 0.  1.
</event>
<event>
11    1  0.5813833E-009  0.1663649E+03  0.7561462E-02  0.1081239E+00
         22   -1    0    0    0    0  0.00000000000E+00  0.00000000000E+00  0.54988080063E+03  0.54988080063E+03  0.00000000000E+00 0. -1.
         22   -1    0    0    0    0 -0.00000000000E+00 -0.00000000000E+00 -0.12102622739E+04  0.12102622739E+04  0.00000000000E+00 0.  1.
         24    2    1    2    0    0 -0.36387178788E+02  0.16733134127E+02 -0.98278664497E+03  0.98684021363E+03  0.79874859262E+02 0.  0.
         25    2    1    2    0    0 -0.72919585530E+02 -0.35940628366E+02 -0.19081442276E+03  0.24221230531E+03  0.12509061591E+03 0.  0.
        -24    2    1    2    0    0  0.10930676432E+03  0.19207494239E+02  0.51321959446E+03  0.53109055559E+03  0.79661342789E+02 0.  0.
        -13    1    3    3    0    0  0.20515955429E+02  0.18565128087E+02 -0.48902640017E+03  0.48980852225E+03  0.00000000000E+00 0.  1.
         14    1    3    3    0    0 -0.56903134216E+02 -0.18319939599E+01 -0.49376024480E+03  0.49703169138E+03  0.00000000000E+00 0. -1.
         13    1    5    5    0    0  0.11340592043E+03  0.23418887643E+02  0.51219870140E+03  0.52512556289E+03  0.00000000000E+00 0. -1.
        -14    1    5    5    0    0 -0.40991561134E+01 -0.42113934042E+01  0.10208930649E+01  0.59649926988E+01  0.00000000000E+00 0.  1.
          5    1    4    4  501    0  0.28866582333E+02 -0.35974917049E+02 -0.73114136536E+02  0.86548388741E+02  0.41800000000E+01 0. -1.
         -5    1    4    4    0  501 -0.10178616786E+03  0.34288683257E-01 -0.11770028622E+03  0.15566391656E+03  0.41800000000E+01 0. -1.
</event>
<event>
11    1  0.5813833E-009  0.1937818E+03  0.7561462E-02  0.1059010E+00
         22   -1    0    0    0    0  0.00000000000E+00  0.00000000000E+00  0.16257201071E+04  0.16257201071E+04  0.00000000000E+00 0. -1.
         22   -1    0    0    0    0 -0.00000000000E+00 -0.00000000000E+00 -0.17995836082E+03  0.17995836082E+03  0.00000000000E+00 0. -1.
        -24    2    1    2    0    0 -0.73639999270E+02 -0.12764889022E+03 -0.11891043001E+03  0.20629264090E+03  0.81852762061E+02 0.  0.
         25    2    1    2    0    0  0.70829221330E+02  0.14093306528E+03  0.64892931474E+03  0.67943944997E+03  0.12509917329E+03 0.  0.
         24    2    1    2    0    0  0.28107779405E+01 -0.13284175061E+02  0.91574286151E+03  0.91994637701E+03  0.86786971399E+02 0.  0.
        -13    1    5    5    0    0 -0.11677950998E+02  0.13264945386E+01  0.15420005089E+02  0.19388416238E+02  0.00000000000E+00 0.  1.
         14    1    5    5    0    0  0.14488728939E+02 -0.14610669599E+02  0.90032285642E+03  0.90055796078E+03  0.00000000000E+00 0. -1.
         13    1    3    3    0    0 -0.47900707339E+02 -0.10649937343E+03 -0.44864317222E+02  0.12509756698E+03  0.00000000000E+00 0. -1.
        -14    1    3    3    0    0 -0.25739291932E+02 -0.21149516789E+02 -0.74046112791E+02  0.81195073921E+02  0.00000000000E+00 0.  1.
          5    1    4    4  501    0  0.94897845122E+02  0.12790992747E+03  0.42637411030E+03  0.45516909483E+03  0.41800000000E+01 0. -1.
         -5    1    4    4    0  501 -0.24068623792E+02  0.13023137808E+02  0.22255520444E+03  0.22427035514E+03  0.41800000000E+01 0. -1.
</event>
<event>
11    1  0.5813833E-009  0.1422934E+03  0.7561462E-02  0.1105024E+00
         22   -1    0    0    0    0  0.00000000000E+00  0.00000000000E+00  0.20508299675E+04  0.20508299675E+04  0.00000000000E+00 0.  1.
         22   -1    0    0    0    0 -0.00000000000E+00 -0.00000000000E+00 -0.33871955987E+03  0.33871955987E+03  0.00000000000E+00 0.  1.
        -24    2    1    2    0    0  0.38210787594E+02 -0.57727785671E+02 -0.31512088313E+03  0.33206312066E+03  0.78563245783E+02 0.  0.
         25    2    1    2    0    0 -0.15166045365E+02  0.13243585243E+02  0.27854438862E+03  0.30600574835E+03  0.12508852909E+03 0.  0.
         24    2    1    2    0    0 -0.23044742229E+02  0.44484200428E+02  0.17486869022E+04  0.17514806584E+04  0.85256733868E+02 0.  0.
        -11    1    5    5    0    0 -0.30759074681E+02  0.51466712054E+02  0.17185955079E+04  0.17196410855E+04  0.00000000000E+00 0.  1.
         12    1    5    5    0    0  0.77143324521E+01 -0.69825116257E+01  0.30091394319E+02  0.31839572954E+02  0.00000000000E+00 0. -1.
         11    1    3    3    0    0  0.29337143704E+02 -0.65913468299E+01 -0.30798542181E+02  0.43042584195E+02  0.00000000000E+00 0. -1.
        -12    1    3    3    0    0  0.88736438902E+01 -0.51136438841E+02 -0.28432234095E+03  0.28902053646E+03  0.00000000000E+00 0.  1.
          5    1    4    4  501    0 -0.68380828100E+01  0.36282003277E+01 -0.12151409181E+02  0.15001745206E+02  0.41800000000E+01 0. -1.
         -5    1    4    4    0  501 -0.83279625549E+01  0.96153849149E+01  0.29069579780E+03  0.29100400314E+03  0.41800000000E+01 0. -1.
</event>
<event>
11    1  0.5813833E-009  0.1254507E+03  0.7561462E-02  0.1124988E+00
         22   -1    0    0    0    0  0.00000000000E+00  0.00000000000E+00  0.21111444995E+03  0.21111444995E+03  0.00000000000E+00 0. -1.
         22   -1    0    0    0    0 -0.00000000000E+00 -0.00000000000E+00 -0.66960894879E+03  0.66960894879E+03  0.00000000000E+00 0.  1.
        -24    2    1    2    0    0 -0.16512996155E+02 -0.48194732393E+01 -0.58458033594E+03  0.59020782198E+03  0.79468217555E+02 0.  0.
         25    2    1    2    0    0  0.18382615808E+02  0.12757643432E+02 -0.14426323417E+02  0.12789139828E+03  0.12508961954E+03 0.  0.
         24    2    1    2    0    0 -0.18696196538E+01 -0.79381701928E+01  0.14051216052E+03  0.16262417847E+03  0.81464385763E+02 0.  0.
        -13    1    5    5    0    0  0.35452863479E+02  0.14506023712E+02  0.64222853192E+02  0.74779042017E+02  0.00000000000E+00 0.  1.
         14    1    5    5    0    0 -0.37322483133E+02 -0.22444193905E+02  0.76289307324E+02  0.87845136458E+02  0.00000000000E+00 0. -1.
         13    1    3    3    0    0 -0.20044333889E+02  0.16386878570E+02 -0.62040807174E+02  0.67226236434E+02  0.00000000000E+00 0. -1.
        -14    1    3    3    0    0  0.35313377341E+01 -0.21206351809E+02 -0.52253952876E+03  0.52298158555E+03  0.00000000000E+00 0.  1.
          5    1    4    4  501    0  0.12101418015E+02  0.59744527498E+02 -0.40811771034E+02  0.73477383859E+02  0.41800000000E+01 0.  1.
         -5    1    4    4    0  501  0.62811977937E+01 -0.46986884065E+02  0.26385447617E+02  0.54414014425E+02  0.41800000000E+01 0.  1.
</event>
<event>
11    1  0.5813833E-009  0.1864708E+03  0.7561462E-02  0.1064526E+00
         22   -1    0    0    0    0  0.00000000000E+00  0.00000000000E+00  0.47583796709E+02  0.47583796709E+02  0.00000000000E+00 0. -1.
         22   -1    0    0    0    0 -0.00000000000E+00 -0.00000000000E+00 -0.22646548438E+04  0.22646548438E+04  0.00000000000E+00 0.  1.
         24    2    1    2    0    0 -0.10382608407E+03  0.74239647774E+02 -0.11839239638E+04  0.11935554065E+04  0.81284532994E+02 0.  0.
         25    2    1    2    0    0  0.70018795666E+02 -0.17634888117E+03 -0.90498845674E+03  0.93308827018E+03  0.12509217995E+03 0.  0.
        -24    2    1    2    0    0  0.33807288406E+02  0.10210923340E+03 -0.12815862655E+03  0.18559496382E+03  0.80322031482E+02 0.  0.
        -11    1    3    3    0    0 -0.39259258369E+02  0.63868906840E+02 -0.84922637689E+03  0.85252915835E+03  0.00000000000E+00 0.  1.
         12    1    3    3    0    0 -0.64566825704E+02  0.10370740933E+02 -0.33469758691E+03  0.34102624816E+03  0.00000000000E+00 0. -1.
         13    1    5    5    0    0  0.42602796992E+02  0.11019052048E+03 -0.12721938789E+03  0.17361371424E+03  0.00000000000E+00 0. -1.
        -14    1    5    5    0    0 -0.87955085862E+01 -0.80812870846E+01 -0.93923865447E+00  0.11981249579E+02  0.00000000000E+00 0.  1.
          5    1    4    4  501    0  0.16645611698E+02 -0.67816805682E+02 -0.12060934876E+03  0.13942841507E+03  0.41800000000E+01 0. -1.
         -5    1    4    4    0  501  0.53373183969E+02 -0.10853207549E+03 -0.78437910798E+03  0.79365985510E+03  0.41800000000E+01 0. -1.
</event>
<event>
11    1  0.5813833E-009  0.1322873E+03  0.7561462E-02  0.1116490E+00
         22   -1    0    0    0    0  0.00000000000E+00  0.00000000000E+00  0.97511647375E+03  0.97511647375E+03  0.00000000000E+00 0.  1.
         22   -1    0    0    0    0 -0.00000000000E+00 -0.00000000000E+00 -0.12216765769E+03  0.12216765769E+03  0.00000000000E+00 0.  1.
        -24    2    1    2    0    0  0.12532460687E+01 -0.14986507560E+02 -0.73868239613E+02  0.11499213558E+03  0.86836100720E+02 0.  0.
         25    2    1    2    0    0 -0.44269914470E+02  0.12500259200E+02  0.15107481562E+03  0.20143983893E+03  0.12505329658E+03 0.  0.
         24    2    1    2    0    0  0.43016668401E+02  0.24862483596E+01  0.77574224005E+03  0.78085215693E+03  0.78086188215E+02 0.  0.
        -11    1    5    5    0    0  0.33883225116E+02  0.36608233089E+02  0.56214946228E+03  0.56435826707E+03  0.00000000000E+00 0.  1.
         12    1    5    5    0    0  0.91334432854E+01 -0.34121984730E+02  0.21359277777E+03  0.21649388985E+03  0.00000000000E+00 0. -1.
         11    1    3    3    0    0 -0.36625782595E+02  0.10862324409E+02 -0.16672442930E+02  0.41682231172E+02  0.00000000000E+00 0. -1.
        -12    1    3    3    0    0  0.37879028663E+02 -0.25848831969E+02 -0.57195796683E+02  0.73309904412E+02  0.00000000000E+00 0.  1.
          5    1    4    4  501    0 -0.87500460416E+02  0.18068650661E+02  0.10277585653E+03  0.13624667260E+03  0.41800000000E+01 0.  1.
         -5    1    4    4    0  501  0.43230545946E+02 -0.55683914605E+01  0.48298959089E+02  0.65193166324E+02  0.41800000000E+01 0.  1.
</event>
<event>
11    1  0.5813833E-009  0.1701029E+03  0.7561462E-02  0.1077942E+00
         22   -1    0    0    0    0  0.00000000000E+00  0.00000000000E+00  0.24987743020E+03  0.24987743020E+03  0.00000000000E+00 0.  1.
         22   -1    0    0    0    0 -0.00000000000E+00 -0.00000000000E+00 -0.48743239326E+03  0.48743239326E+03  0.00000000000E+00 0.  1.
        -24    2    1    2    0    0  0.82122826456E+01  0.46947647973E+01 -0.32802446755E+03  0.33772124605E+03  0.79787883306E+02 0.  0.
         25    2    1    2    0    0 -0.44402159259E+02  0.10508499871E+03 -0.72530728156E+02  0.18417440709E+03  0.12508036216E+03 0.  0.
         24    2    1    2    0    0  0.36189876614E+02 -0.10977976351E+03  0.16300023264E+03  0.21541417032E+03  0.80454243450E+02 0.  0.
        -11    1    5    5    0    0  0.41314421504E+02 -0.30477690155E+02  0.10549031264E+03  0.11731997734E+03  0.00000000000E+00 0.  1.
         12    1    5    5    0    0 -0.51245448903E+01 -0.79302073354E+02  0.57509919994E+02  0.98094192980E+02  0.00000000000E+00 0. -1.
         13    1    3    3    0    0  0.37819246425E+02  0.99794212687E+01 -0.94598630268E+02  0.10236593719E+03  0.00000000000E+00 0. -1.
        -14    1    3    3    0    0 -0.29606963779E+02 -0.52846564713E+01 -0.23342583728E+03  0.23535530886E+03  0.00000000000E+00 0.  1.
          5    1    4    4  501    0 -0.46074210975E+02  0.79122766599E+02  0.14900641428E+02  0.92858745556E+02  0.41800000000E+01 0.  1.
         -5    1    4    4    0  501  0.16720517160E+01  0.25962232113E+02 -0.87431369584E+02  0.91315661529E+02  0.41800000000E+01 0.  1.
</event>
<event>
11    1  0.5813833E-009  0.1506739E+03  0.7561462E-02  0.1096192E+00
         22   -1    0    0    0    0  0.00000000000E+00  0.00000000000E+00  0.45391266511E+03  0.45391266511E+03  0.00000000000E+00 0.  1.
         22   -1    0    0    0    0 -0.00000000000E+00 -0.00000000000E+00 -0.83084921812E+03  0.83084921812E+03  0.00000000000E+00 0.  1.
        -24    2    1    2    0    0  0.94638223910E+01  0.81517013217E+02 -0.69521156070E+03  0.70493546695E+03  0.82947640420E+02 0.  0.
         25    2    1    2    0    0  0.53040377739E+02 -0.11443734789E+03 -0.58879077691E+02  0.18714795948E+03  0.12509366365E+03 0.  0.
         24    2    1    2    0    0 -0.62504200130E+02  0.32920334673E+02  0.37715408538E+03  0.39267845680E+03  0.83430467130E+02 0.  0.
        -11    1    5    5    0    0 -0.71921804796E+02  0.51001865883E+02  0.32286785346E+03  0.33469028538E+03  0.00000000000E+00 0.  1.
         12    1    5    5    0    0  0.94176046662E+01 -0.18081531210E+02  0.54286231920E+02  0.57988171420E+02  0.00000000000E+00 0. -1.
         13    1    3    3    0    0  0.34467670602E+02  0.25048354808E+02 -0.14109378752E+03  0.14738689654E+03  0.00000000000E+00 0. -1.
        -14    1    3    3    0    0 -0.25003848211E+02  0.56468658409E+02 -0.55411777319E+03  0.55754857041E+03  0.00000000000E+00 0.  1.
          5    1    4    4  501    0  0.92742674475E+02 -0.68236642123E+02 -0.27305134850E+02  0.11840813226E+03  0.41800000000E+01 0. -1.
         -5    1    4    4    0  501 -0.39702296736E+02 -0.46200705767E+02 -0.31573942841E+02  0.68739827219E+02  0.41800000000E+01 0. -1.
</event>
<event>
11    1  0.5813833E-009  0.1610217E+03  0.7561462E-02  0.1086120E+00
         22   -1    0    0    0    0  0.00000000000E+00  0.00000000000E+00  0.17202628200E+03  0.17202628200E+03  0.00000000000E+00 0. -1.
         22   -1    0    0    0    0 -0.00000000000E+00 -0.00000000000E+00 -0.12290263061E+04  0.12290263061E+04  0.00000000000E+00 0. -1.
         24    2    1    2    0    0 -0.52670101445E+02 -0.35214837646E+02 -0.86295037501E+03  0.86914791311E+03  0.81978782313E+02 0.  0.
         25    2    1    2    0    0  0.14768639421E+03  0.53499131708E+02 -0.30412867212E+03  0.36443810914E+03  0.12508979999E+03 0.  0.
        -24    2    1    2    0    0 -0.95016292767E+02 -0.18284294061E+02  0.11007902302E+03  0.16746656587E+03  0.81026218428E+02 0.  0.
        -11    1    3    3    0    0  0.18566450763E+02 -0.79265044038E+01 -0.80699298672E+02  0.83186052750E+02  0.00000000000E+00 0.  1.
         12    1    3    3    0    0 -0.71236552208E+02 -0.27288333242E+02 -0.78225107634E+03  0.78596186036E+03  0.00000000000E+00 0. -1.
         11    1    5    5    0    0 -0.20111258435E+02 -0.14875446271E+02  0.84682476238E+02  0.88299849374E+02  0.00000000000E+00 0. -1.
        -12    1    5    5    0    0 -0.74905034332E+02 -0.34088477899E+01  0.25396546784E+02  0.79166716492E+02  0.00000000000E+00 0.  1.
          5    1    4    4  501    0 -0.16478839729E+02  0.26726637409E+02 -0.73681746683E+02  0.80201854718E+02  0.41800000000E+01 0.  1.
         -5    1    4    4    0  501  0.16416523394E+03  0.26772494299E+02 -0.23044692543E+03  0.28423625442E+03  0.41800000000E+01 0.  1.
</event>
<event>
11    1  0.5813833E-009  0.1391228E+03  0.7561462E-02  0.1108542E+00
         22   -1    0    0    0    0  0.00000000000E+00  0.00000000000E+00  0.44340596904E+03  0.44340596904E+03  0.00000000000E+00 0. -1.
         22   -1    0    0    0    0 -0.00000000000E+00 -0.00000000000E+00 -0.15851476880E+04  0.15851476880E+04  0.00000000000E+00 0. -1.
         24    2    1    2    0    0 -0.75517117327E+01 -0.12916855179E+02 -0.11121390148E+04  0.11151817471E+04  0.80952253527E+02 0.  0.
         25    2    1    2    0    0  0.51618897864E+02  0.54818185944E+02 -0.45414740669E+03  0.47702725768E+03  0.12504236659E+03 0.  0.
        -24    2    1    2    0    0 -0.44067186132E+02 -0.41901330765E+02  0.42454470251E+03  0.43634465226E+03  0.80379180836E+02 0.  0.
        -13    1    3    3    0    0  0.24404795438E+02  0.20339934948E+02 -0.64206227836E+03  0.64284778625E+03  0.00000000000E+00 0.  1.
         14    1    3    3    0    0 -0.31956507170E+02 -0.33256790128E+02 -0.47007673644E+03  0.47233396086E+03  0.00000000000E+00 0. -1.
         13    1    5    5    0    0 -0.67126636537E+02 -0.25396628276E+02  0.28058397491E+03  0.28961757722E+03  0.00000000000E+00 0. -1.
        -14    1    5    5    0    0  0.23059450405E+02 -0.16504702489E+02  0.14396072760E+03  0.14672707504E+03  0.00000000000E+00 0.  1.
          5    1    4    4  501    0  0.89723411444E+02  0.49911892121E+02 -0.27055292585E+03  0.28940947742E+03  0.41800000000E+01 0. -1.
         -5    1    4    4    0  501 -0.38104513580E+02  0.49062938231E+01 -0.18359448085E+03  0.18761778026E+03  0.41800000000E+01 0. -1.
</event>
<event>
11    1  0.5813833E-009  0.2239723E+03  0.7561462E-02  0.1038757E+00
         22   -1    0    0    0    0  0.00000000000E+00  0.00000000000E+00  0.10167159848E+04  0.10167159848E+04  0.00000000000E+00 0. -1.
         22   -1    0    0    0    0 -0.00000000000E+00 -0.00000000000E+00 -0.47875720286E+03  0.47875720286E+03  0.00000000000E+00 0.  1.
        -24    2    1    2    0    0  0.30534481175E+01  0.61227134419E+01 -0.30501443132E+03  0.31561471885E+03  0.80821013821E+02 0.  0.
         25    2    1    2    0    0 -0.16775075415E+03  0.79867105546E+02 -0.77826856938E+02  0.23711407843E+03  0.12508795491E+03 0.  0.
         24    2    1    2    0    0  0.16469730604E+03 -0.85989818988E+02  0.92080007016E+03  0.94274439033E+03  0.79842123674E+02 0.  0.
        -11    1    5    5    0    0  0.10461528754E+03 -0.41197315603E+02  0.36528678799E+03  0.38219892030E+03  0.00000000000E+00 0.  1.
         12    1    5    5    0    0  0.60082018500E+02 -0.44792503385E+02  0.55551328216E+03  0.56054547003E+03  0.00000000000E+00 0. -1.
         13    1    3    3    0    0 -0.31934357706E+02  0.22576824315E+02 -0.10850941894E+03  0.11534214406E+03  0.00000000000E+00 0. -1.
        -14    1    3    3    0    0  0.34987805824E+02 -0.16454110873E+02 -0.19650501238E+03  0.20027257478E+03  0.00000000000E+00 0.  1.
          5    1    4    4  501    0 -0.10573823882E+03  0.40320895773E+01 -0.89129674219E+02  0.13841388703E+03  0.41800000000E+01 0.  1.
         -5    1    4    4    0  501 -0.62012515329E+02  0.75835015969E+02  0.11302817281E+02  0.98700191403E+02  0.41800000000E+01 0.  1.
</event>
<event>
11    1  0.5813833E-009  0.1948176E+03  0.7561462E-02  0.1058250E+00
         22   -1    0    0    0    0  0.00000000000E+00  0.00000000000E+00  0.25801257059E+04  0.25801257059E+04  0.00000000000E+00 0. -1.
         22   -1    0    0    0    0 -0.00000000000E+00 -0.00000000000E+00 -0.11117094986E+03  0.11117094986E+03  0.00000000000E+00 0. -1.
         24    2    1    2    0    0  0.69375855479E+02 -0.12300676724E+03 -0.14087929748E+01  0.16235859865E+03  0.80091546035E+02 0.  0.
         25    2    1    2    0    0 -0.79650956885E+02  0.18428287707E+03  0.47206176143E+03  0.52801078493E+03  0.12509447903E+03 0.  0.
        -24    2    1    2    0    0  0.10275101406E+02 -0.61276109828E+02  0.19983017876E+04  0.20009272722E+04  0.81483587062E+02 0.  0.
        -13    1    3    3    0    0  0.14851930157E+02  0.47190916807E+01  0.16071301469E+02  0.22386075730E+02  0.00000000000E+00 0.  1.
         14    1    3    3    0    0  0.54523925322E+02 -0.12772585892E+03 -0.17480094443E+02  0.13997252292E+03  0.00000000000E+00 0. -1.
         13    1    5    5    0    0  0.86286812971E+01 -0.48293334774E+02  0.19567169617E+04  0.19573318493E+04  0.00000000000E+00 0. -1.
        -14    1    5    5    0    0  0.16464201094E+01 -0.12982775054E+02  0.41584825927E+02  0.43595422864E+02  0.00000000000E+00 0.  1.
          5    1    4    4  501    0 -0.73441307973E+02  0.52847697315E+02  0.10844005627E+03  0.14129127019E+03  0.41800000000E+01 0.  1.
         -5    1    4    4    0  501 -0.62096489123E+01  0.13143517976E+03  0.36362170515E+03  0.38671951473E+03  0.41800000000E+01 0.  1.
</event>
<event>
11    1  0.5813833E-009  0.1276170E+03  0.7561462E-02  0.1122232E+00
         22   -1    0    0    0    0  0.00000000000E+00  0.00000000000E+00  0.71247941899E+02  0.71247941899E+02  0.00000000000E+00 0. -1.
         22   -1    0    0    0    0 -0.00000000000E+00 -0.00000000000E+00 -0.12929701393E+04  0.12929701393E+04  0.00000000000E+00 0.  1.
         24    2    1    2    0    0 -0.16281782189E+02 -0.23320409527E+02 -0.77637537497E+03  0.78088509412E+03  0.78828100430E+02 0.  0.
         25    2    1    2    0    0  0.30274705554E+02  0.42023007428E+02 -0.47030836327E+03  0.48940810288E+03  0.12509134123E+03 0.  0.
        -24    2    1    2    0    0 -0.13992923366E+02 -0.18702597900E+02  0.24961540871E+02  0.93924884176E+02  0.87482662696E+02 0.  0.
        -11    1    3    3    0    0 -0.13495143738E+02 -0.18923589954E+02 -0.77520022019E+03  0.77554858168E+03  0.00000000000E+00 0.  1.
         12    1    3    3    0    0 -0.27866384513E+01 -0.43968195732E+01 -0.11751547807E+01  0.53365124357E+01  0.00000000000E+00 0. -1.
         13    1    5    5    0    0 -0.40516430871E+02 -0.35698302063E+02  0.30382836917E+02  0.61960202710E+02  0.00000000000E+00 0. -1.
        -14    1    5    5    0    0  0.26523507506E+02  0.16995704163E+02 -0.54212960465E+01  0.31964681466E+02  0.00000000000E+00 0.  1.
          5    1    4    4  501    0 -0.21946270565E+01  0.82223272839E+02 -0.31918942222E+03  0.32964350841E+03  0.41800000000E+01 0. -1.
         -5    1    4    4    0  501  0.32469332611E+02 -0.40200265411E+02 -0.15111894106E+03  0.15976459447E+03  0.41800000000E+01 0. -1.
</event>
<event>
11    1  0.5813833E-009  0.1259874E+03  0.7561462E-02  0.1124300E+00
         22   -1    0    0    0    0  0.00000000000E+00  0.00000000000E+00  0.48733977660E+03  0.48733977660E+03  0.00000000000E+00 0. -1.
         22   -1    0    0    0    0 -0.00000000000E+00 -0.00000000000E+00 -0.10320917501E+03  0.10320917501E+03  0.00000000000E+00 0.  1.
         24    2    1    2    0    0  0.20937463521E+02 -0.26939906339E+01 -0.28055493973E+02  0.85683458904E+02  0.78159512687E+02 0.  0.
         25    2    1    2    0    0 -0.15519849672E+02  0.17058644823E+02  0.55193463128E+02  0.13865701825E+03  0.12509031633E+03 0.  0.
        -24    2    1    2    0    0 -0.54176138489E+01 -0.14364654189E+02  0.35699263244E+03  0.36620847446E+03  0.80182375365E+02 0.  0.
        -13    1    3    3    0    0 -0.58079885297E+01 -0.27255748954E+01 -0.50415723481E+02  0.50822304783E+02  0.00000000000E+00 0.  1.
         14    1    3    3    0    0  0.26745452051E+02  0.31584261551E-01  0.22360229509E+02  0.34861154121E+02  0.00000000000E+00 0. -1.
         11    1    5    5    0    0  0.27169197071E+02  0.13088004318E+02  0.23627274694E+03  0.23818957171E+03  0.00000000000E+00 0. -1.
        -12    1    5    5    0    0 -0.32586810920E+02 -0.27452658507E+02  0.12071988550E+03  0.12801890275E+03  0.00000000000E+00 0.  1.
          5    1    4    4  501    0 -0.10881003663E+02  0.71036946164E+02  0.23368020753E+02  0.75684745853E+02  0.41800000000E+01 0.  1.
         -5    1    4    4    0  501 -0.46388460099E+01 -0.53978301341E+02  0.31825442375E+02  0.62972272393E+02  0.41800000000E+01 0.  1.
</event>
<event>
11    1  0.5813833E-009  0.1320182E+03  0.7561462E-02  0.1116814E+00
         22   -1    0    0    0    0  0.00000000000E+00  0.00000000000E+00  0.14716560977E+04  0.14716560977E+04  0.00000000000E+00 0.  1.
         22   -1    0    0    0    0 -0.00000000000E+00 -0.00000000000E+00 -0.26605949258E+03  0.26605949258E+03  0.00000000000E+00 0. -1.
         24    2    1    2    0    0 -0.16103788992E+01  0.79406839828E+01 -0.24514485924E+03  0.25899455208E+03  0.83165667273E+02 0.  0.
         25    2    1    2    0    0  0.15664011715E+02  0.32790510199E+02  0.33559525544E+03  0.35999028761E+03  0.12509297693E+03 0.  0.
        -24    2    1    2    0    0 -0.14053632816E+02 -0.40731194182E+02  0.11151462089E+04  0.11187307506E+04  0.78427611420E+02 0.  0.
        -11    1    3    3    0    0 -0.31048382455E+01 -0.62058914136E+01  0.49320256546E+01  0.85134003681E+01  0.00000000000E+00 0.  1.
         12    1    3    3    0    0  0.14944593463E+01  0.14146575396E+02 -0.25007688490E+03  0.25048115172E+03  0.00000000000E+00 0. -1.
         11    1    5    5    0    0 -0.32739378513E+01 -0.11724083074E+02  0.21971345055E+02  0.25117977556E+02  0.00000000000E+00 0. -1.
        -12    1    5    5    0    0 -0.10779694965E+02 -0.29007111108E+02  0.10931748639E+04  0.10936127730E+04  0.00000000000E+00 0.  1.
          5    1    4    4  501    0  0.32093077928E+02 -0.36091064411E+02  0.21211933234E+03  0.21758817554E+03  0.41800000000E+01 0.  1.
         -5    1    4    4    0  501 -0.16429066213E+02  0.68881574610E+02  0.12347592309E+03  0.14240211207E+03  0.41800000000E+01 0.  1.
</event>
<event>
11    1  0.5813833E-009  0.1429485E+03  0.7561462E-02  0.1104310E+00
         22   -1    0    0    0    0  0.00000000000E+00  0.00000000000E+00  0.38441509524E+04  0.38441509524E+04  0.00000000000E+00 0.  1.
         22   -1    0    0    0    0 -0.00000000000E+00 -0.00000000000E+00 -0.19943352076E+03  0.19943352076E+03  0.00000000000E+00 0. -1.
        -24    2    1    2    0    0 -0.42563878988E+01 -0.70242421405E+02 -0.16268328482E+03  0.19481555804E+03  0.80840187370E+02 0.  0.
         25    2    1    2    0    0 -0.46669584265E+02  0.52206625623E+02  0.23666855658E+03  0.27669911849E+03  0.12508722814E+03 0.  0.
         24    2    1    2    0    0  0.50925972164E+02  0.18035795782E+02  0.35707321599E+04  0.35720697967E+04  0.81459989277E+02 0.  0.
        -13    1    5    5    0    0  0.69273029561E+02  0.28382085439E+02  0.30362563319E+04  0.30371790873E+04  0.00000000000E+00 0.  1.
         14    1    5    5    0    0 -0.18347057397E+02 -0.10346289657E+02  0.53447582803E+03  0.53489070937E+03  0.00000000000E+00 0. -1.
         11    1    3    3    0    0  0.21904048830E+02 -0.71611104204E+02 -0.14504106839E+03  0.16323250020E+03  0.00000000000E+00 0. -1.
        -12    1    3    3    0    0 -0.26160436729E+02  0.13686827990E+01 -0.17642216423E+02  0.31583057843E+02  0.00000000000E+00 0.  1.
          5    1    4    4  501    0 -0.13249637784E+01  0.88056692664E+01  0.20684873594E+03  0.20708251327E+03  0.41800000000E+01 0. -1.
         -5    1    4    4    0  501 -0.45344620486E+02  0.43400956357E+02  0.29819820639E+02  0.69616605223E+02  0.41800000000E+01 0. -1.
</event>
<event>
11    1  0.5813833E-009  0.1993464E+03  0.7561462E-02  0.1054987E+00
         22   -1    0    0    0    0  0.00000000000E+00  0.00000000000E+00  0.97129255851E+02  0.97129255851E+02  0.00000000000E+00 0. -1.
         22   -1    0    0    0    0 -0.00000000000E+00 -0.00000000000E+00 -0.18989445499E+04  0.18989445499E+04  0.00000000000E+00 0. -1.
         24    2    1    2    0    0  0.10968658863E+03 -0.11408418400E+03 -0.15291017857E+04  0.15394875296E+04  0.82602868611E+02 0.  0.
         25    2    1    2    0    0 -0.14086564032E+03  0.52775700091E+02 -0.28990467465E+03  0.34974216273E+03  0.12508579800E+03 0.  0.
        -24    2    1    2    0    0  0.31179051693E+02  0.61308483914E+02  0.17191166255E+02  0.10684411350E+03  0.79932877639E+02 0.  0.
        -11    1    3    3    0    0 -0.12366579778E+02 -0.23309279055E+02 -0.21701625373E+03  0.21861452186E+03  0.00000000000E+00 0.  1.
         12    1    3    3    0    0  0.12205316841E+03 -0.90774904950E+02 -0.13120855320E+04  0.13208730077E+04  0.00000000000E+00 0. -1.
         11    1    5    5    0    0 -0.24083864204E+02  0.25710017933E+02  0.20973775507E+02  0.40999229214E+02  0.00000000000E+00 0. -1.
        -12    1    5    5    0    0  0.55262915897E+02  0.35598465981E+02 -0.37826092518E+01  0.65844884284E+02  0.00000000000E+00 0.  1.
          5    1    4    4  501    0  0.19074440532E+02  0.27261082338E+02 -0.53802906403E+02  0.63397366107E+02  0.41800000000E+01 0. -1.
         -5    1    4    4    0  501 -0.15994008086E+03  0.25514617753E+02 -0.23610176825E+03  0.28634479662E+03  0.41800000000E+01 0. -1.
</event>
<event>
11    1  0.5813833E-009  0.1282998E+03  0.7561462E-02  0.1121376E+00
         22   -1    0    0    0    0  0.00000000000E+00  0.00000000000E+00  0.81202121084E+03  0.81202121084E+03  0.00000000000E+00 0. -1.
         22   -1    0    0    0    0 -0.00000000000E+00 -0.00000000000E+00 -0.91854113249E+03  0.91854113249E+03  0.00000000000E+00 0.  1.
        -24    2    1    2    0    0 -0.92556651554E+01 -0.27927620589E+02 -0.86759005995E+03  0.87238175346E+03  0.86439529881E+02 0.  0.
         25    2    1    2    0    0 -0.20830721958E+01 -0.32894463121E+01  0.38971004611E+02  0.13107948506E+03  0.12509169659E+03 0.  0.
         24    2    1    2    0    0  0.11338737351E+02  0.31217066901E+02  0.72209913368E+03  0.72710110480E+03  0.78395060439E+02 0.  0.
        -11    1    5    5    0    0  0.25636981799E+02  0.51507276607E+02  0.41011692317E+03  0.41413300406E+03  0.00000000000E+00 0.  1.
         12    1    5    5    0    0 -0.14298244448E+02 -0.20290209706E+02  0.31198221051E+03  0.31296810074E+03  0.00000000000E+00 0. -1.
         13    1    3    3    0    0  0.10295658014E+01  0.28068188407E+02 -0.15525268996E+03  0.15777287772E+03  0.00000000000E+00 0. -1.
        -14    1    3    3    0    0 -0.10285230957E+02 -0.55995808996E+02 -0.71233736999E+03  0.71460887574E+03  0.00000000000E+00 0.  1.
          5    1    4    4  501    0 -0.31726790152E+02 -0.46130067576E+02  0.52742643514E+02  0.77031364994E+02  0.41800000000E+01 0. -1.
         -5    1    4    4    0  501  0.29643717956E+02  0.42840621264E+02 -0.13771638903E+02  0.54048120066E+02  0.41800000000E+01 0. -1.
</event>
<event>
11    1  0.5813833E-009  0.1530711E+03  0.7561462E-02  0.1093781E+00
         22   -1    0    0    0    0  0.00000000000E+00  0.00000000000E+00  0.17122147102E+03  0.17122147102E+03  0.00000000000E+00 0.  1.
         22   -1    0    0    0    0 -0.00000000000E+00 -0.00000000000E+00 -0.19005761631E+04  0.19005761631E+04  0.00000000000E+00 0. -1.
        -24    2    1    2    0    0 -0.56284086198E+02 -0.22958950503E+02 -0.11370875863E+04  0.11415949727E+04  0.81091868118E+02 0.  0.
         25    2    1    2    0    0  0.28260229668E+02 -0.61830347660E+02 -0.73369732894E+03  0.74738107845E+03  0.12508026807E+03 0.  0.
         24    2    1    2    0    0  0.28023856530E+02  0.84789298164E+02  0.14143022320E+03  0.18282158289E+03  0.73801500780E+02 0.  0.
        -11    1    5    5    0    0 -0.43465956269E+00  0.87253750554E+02  0.10832796887E+03  0.13909836359E+03  0.00000000000E+00 0.  1.
         12    1    5    5    0    0  0.28458516093E+02 -0.24644523907E+01  0.33102254335E+02  0.43723219299E+02  0.00000000000E+00 0. -1.
         13    1    3    3    0    0 -0.75743438052E+02 -0.23428126207E+02 -0.99915715391E+03  0.10022978418E+04  0.00000000000E+00 0. -1.
        -14    1    3    3    0    0  0.19459351854E+02  0.46917570343E+00 -0.13793043240E+03  0.13929713092E+03  0.00000000000E+00 0.  1.
          5    1    4    4  501    0 -0.41210348619E+02 -0.59337760278E+02 -0.34748073431E+03  0.35493604458E+03  0.41800000000E+01 0.  1.
         -5    1    4    4    0  501  0.69470578287E+02 -0.24925873827E+01 -0.38621659463E+03  0.39244503387E+03  0.41800000000E+01 0.  1.
</event>
<event>
11    1  0.5813833E-009  0.1420210E+03  0.7561462E-02  0.1105322E+00
         22   -1    0    0    0    0  0.00000000000E+00  0.00000000000E+00  0.39031938422E+03  0.39031938422E+03  0.00000000000E+00 0.  1.
         22   -1    0    0    0    0 -0.00000000000E+00 -0.00000000000E+00 -0.25938265139E+03  0.25938265139E+03  0.00000000000E+00 0.  1.
         24    2    1    2    0    0 -0.31490510602E+02 -0.59191366226E+02 -0.20305824855E+03  0.22644139991E+03  0.74483455861E+02 0.  0.
         25    2    1    2    0    0  0.41242056534E+02  0.56887069476E+02  0.99145298121E+02  0.17439614311E+03  0.12508868331E+03 0.  0.
        -24    2    1    2    0    0 -0.97515459317E+01  0.23042967501E+01  0.23484968325E+03  0.24886449258E+03  0.81723677808E+02 0.  0.
        -11    1    3    3    0    0 -0.38963064752E+02 -0.46567642463E+01 -0.12435600218E+03  0.13040023446E+03  0.00000000000E+00 0.  1.
         12    1    3    3    0    0  0.74725541503E+01 -0.54534601980E+02 -0.78702246366E+02  0.96041165454E+02  0.00000000000E+00 0. -1.
         11    1    5    5    0    0  0.32830335127E+02  0.14425954435E+02  0.13418245792E+03  0.13889158031E+03  0.00000000000E+00 0. -1.
        -12    1    5    5    0    0 -0.42581881058E+02 -0.12121657685E+02  0.10066722532E+03  0.10997291227E+03  0.00000000000E+00 0.  1.
          5    1    4    4  501    0  0.12314259261E+02  0.91702488692E+02  0.42886083968E+02  0.10206701726E+03  0.41800000000E+01 0.  1.
         -5    1    4    4    0  501  0.28927797273E+02 -0.34815419217E+02  0.56259214153E+02  0.72329125858E+02  0.41800000000E+01 0.  1.
</event>
<event>
11    1  0.5813833E-009  0.1463523E+03  0.7561462E-02  0.1100665E+00
         22   -1    0    0    0    0  0.00000000000E+00  0.00000000000E+00  0.30108644194E+04  0.30108644194E+04  0.00000000000E+00 0.  1.
         22   -1    0    0    0    0 -0.00000000000E+00 -0.00000000000E+00 -0.45497052405E+03  0.45497052405E+03  0.00000000000E+00 0. -1.
         24    2    1    2    0    0  0.38685441195E+01 -0.59440855801E+02 -0.43268108161E+03  0.44428864298E+03  0.81432787734E+02 0.  0.
         25    2    1    2    0    0  0.32299292253E+02  0.12214889369E+03  0.50091287458E+03  0.53153163940E+03  0.12509428146E+03 0.  0.
        -24    2    1    2    0    0 -0.36167836373E+02 -0.62708037891E+02  0.24876621024E+04  0.24900146611E+04  0.80435479020E+02 0.  0.
        -11    1    3    3    0    0 -0.88922731677E+01 -0.77406540847E+02 -0.30983421858E+03  0.31948096671E+03  0.00000000000E+00 0.  1.
         12    1    3    3    0    0  0.12760817287E+02  0.17965685046E+02 -0.12284686303E+03  0.12480767626E+03  0.00000000000E+00 0. -1.
         11    1    5    5    0    0  0.89162109588E+01 -0.30449257063E+02  0.30443536506E+03  0.30608421647E+03  0.00000000000E+00 0. -1.
        -12    1    5    5    0    0 -0.45084047332E+02 -0.32258780827E+02  0.21832267373E+04  0.21839304446E+04  0.00000000000E+00 0.  1.
          5    1    4    4  501    0 -0.24800092533E+02  0.92793583268E+02  0.17832967704E+03  0.20259476745E+03  0.41800000000E+01 0. -1.
         -5    1    4    4    0  501  0.57099384786E+02  0.29355310424E+02  0.32258319754E+03  0.32893687195E+03  0.41800000000E+01 0. -1.
</event>
<event>
11    1  0.5813833E-009  0.1681530E+03  0.7561462E-02  0.1079650E+00
         22   -1    0    0    0    0  0.00000000000E+00  0.00000000000E+00  0.45155936716E+03  0.45155936716E+03  0.00000000000E+00 0. -1.
         22   -1    0    0    0    0 -0.00000000000E+00 -0.00000000000E+00 -0.50338171036E+03  0.50338171036E+03  0.00000000000E+00 0. -1.
         24    2    1    2    0    0  0.33359353689E+02 -0.12439111578E+02 -0.43930547739E+03  0.44775551615E+03  0.78918450318E+02 0.  0.
         25    2    1    2    0    0 -0.22428663227E+02  0.12123860284E+03  0.13794332452E+03  0.22333349482E+03  0.12509054870E+03 0.  0.
        -24    2    1    2    0    0 -0.10930690462E+02 -0.10879949127E+03  0.24953980968E+03  0.28385206655E+03  0.79655946264E+02 0.  0.
        -11    1    3    3    0    0  0.23650396229E+02  0.86616034971E+01 -0.36877297558E+02  0.44657582694E+02  0.00000000000E+00 0.  1.
         12    1    3    3    0    0  0.97089574608E+01 -0.21100715075E+02 -0.40242817984E+03  0.40309793346E+03  0.00000000000E+00 0. -1.
         13    1    5    5    0    0 -0.11248871364E+02 -0.10483209001E+03  0.14522833564E+03  0.17946468643E+03  0.00000000000E+00 0. -1.
        -14    1    5    5    0    0  0.31818090224E+00 -0.39674012589E+01  0.10431147404E+03  0.10438738012E+03  0.00000000000E+00 0.  1.
          5    1    4    4  501    0 -0.69132218650E+02  0.36878051894E+02  0.52295942461E+02  0.94295240414E+02  0.41800000000E+01 0.  1.
         -5    1    4    4    0  501  0.46703555422E+02  0.84360550951E+02  0.85647382056E+02  0.12903825440E+03  0.41800000000E+01 0.  1.
</event>
<event>
11    1  0.5813833E-009  0.1571675E+03  0.7561462E-02  0.1089772E+00
         22   -1    0    0    0    0  0.00000000000E+00  0.00000000000E+00  0.53864935354E+03  0.53864935354E+03  0.00000000000E+00 0.  1.
         22   -1    0    0    0    0 -0.00000000000E+00 -0.00000000000E+00 -0.46756648490E+03  0.46756648490E+03  0.00000000000E+00 0. -1.
        -24    2    1    2    0    0  0.38050989996E+02  0.20271387281E+02 -0.40580450652E+03  0.41559842391E+03  0.78650781674E+02 0.  0.
         25    2    1    2    0    0  0.30044266192E+02 -0.89448325587E+02  0.85047640538E+02  0.17828096223E+03  0.12508932589E+03 0.  0.
         24    2    1    2    0    0 -0.68095256187E+02  0.69176938307E+02  0.39183973462E+03  0.41233645230E+03  0.84027135859E+02 0.  0.
        -13    1    5    5    0    0 -0.48912453124E+02  0.88289155742E+02  0.32116773350E+03  0.33665429766E+03  0.00000000000E+00 0.  1.
         14    1    5    5    0    0 -0.19182803063E+02 -0.19112217436E+02  0.70672001121E+02  0.75682154641E+02  0.00000000000E+00 0. -1.
         11    1    3    3    0    0 -0.15296655657E+02 -0.15767215550E+01 -0.23145895606E+03  0.23196922655E+03  0.00000000000E+00 0. -1.
        -12    1    3    3    0    0  0.53347645653E+02  0.21848108836E+02 -0.17434555047E+03  0.18362919736E+03  0.00000000000E+00 0.  1.
          5    1    4    4  501    0  0.51079474908E+02  0.48836655136E+01  0.32325905599E+01  0.51583766705E+02  0.41800000000E+01 0.  1.
         -5    1    4    4    0  501 -0.21035208717E+02 -0.94331991101E+02  0.81815049978E+02  0.12669719552E+03  0.41800000000E+01 0.  1.
</event>
<event>
11    1  0.5813833E-009  0.1663080E+03  0.7561462E-02  0.1081290E+00
         22   -1    0    0    0    0  0.00000000000E+00  0.00000000000E+00  0.74404511831E+02  0.74404511831E+02  0.00000000000E+00 0.  1.
         22   -1    0    0    0    0 -0.00000000000E+00 -0.00000000000E+00 -0.69575727239E+03  0.69575727239E+03  0.00000000000E+00 0. -1.
         24    2    1    2    0    0 -0.64256736126E+01 -0.44748658466E+02 -0.19682015311E+03  0.21754666083E+03  0.80898981768E+02 0.  0.
         25    2    1    2    0    0  0.38647648251E+02 -0.90582914247E+02 -0.92039605610E+02  0.18389565141E+03  0.12508963402E+03 0.  0.
        -24    2    1    2    0    0 -0.32221974638E+02  0.13533157271E+03 -0.33249300184E+03  0.36871947198E+03  0.77778933669E+02 0.  0.
        -11    1    3    3    0    0  0.37265506515E+02 -0.18776869986E+02 -0.94199268239E+02  0.10302810762E+03  0.00000000000E+00 0.  1.
         12    1    3    3    0    0 -0.43691180128E+02 -0.25971788481E+02 -0.10262088487E+03  0.11451855321E+03  0.00000000000E+00 0. -1.
         11    1    5    5    0    0  0.20665815890E+02  0.80055793479E+02 -0.18189724398E+03  0.19980643979E+03  0.00000000000E+00 0. -1.
        -12    1    5    5    0    0 -0.52887790528E+02  0.55275779235E+02 -0.15059575786E+03  0.16891303219E+03  0.00000000000E+00 0.  1.
          5    1    4    4  501    0 -0.36031594071E+01 -0.10951657069E+03 -0.47453705928E+02  0.11948300557E+03  0.41800000000E+01 0. -1.
         -5    1    4    4    0  501  0.42250807658E+02  0.18933656443E+02 -0.44585899682E+02  0.64412645843E+02  0.41800000000E+01 0. -1.
</event>
<event>
11    1  0.5813833E-009  0.1325726E+03  0.7561462E-02  0.1116148E+00
         22   -1    0    0    0    0  0.00000000000E+00  0.00000000000E+00  0.12721372980E+03  0.12721372980E+03  0.00000000000E+00 0. -1.
         22   -1    0    0    0    0 -0.00000000000E+00 -0.00000000000E+00 -0.22416975424E+04  0.22416975424E+04  0.00000000000E+00 0.  1.
         24    2    1    2    0    0 -0.23504578476E+01 -0.42722091712E+02 -0.21044389452E+04  0.21063609273E+04  0.79135201799E+02 0.  0.
         25    2    1    2    0    0 -0.38076925395E+02  0.52772636848E+02 -0.65459608707E+02  0.15545839217E+03  0.12509015900E+03 0.  0.
        -24    2    1    2    0    0  0.40427383243E+02 -0.10050545136E+02  0.55414741375E+02  0.10709195266E+03  0.81624175279E+02 0.  0.
        -13    1    3    3    0    0 -0.66312803870E+01 -0.61324599617E+02 -0.19079825786E+04  0.19089793610E+04  0.00000000000E+00 0.  1.
         14    1    3    3    0    0  0.42808225393E+01  0.18602507904E+02 -0.19645636662E+03  0.19738156633E+03  0.00000000000E+00 0. -1.
         13    1    5    5    0    0  0.31124724450E+01  0.19058897271E+02  0.56545647705E+02  0.59752316476E+02  0.00000000000E+00 0. -1.
        -14    1    5    5    0    0  0.37314910798E+02 -0.29109442406E+02 -0.11309063304E+01  0.47339636186E+02  0.00000000000E+00 0.  1.
          5    1    4    4  501    0  0.90019719048E+01  0.31967712469E+02 -0.91639046923E+02  0.97561044786E+02  0.41800000000E+01 0. -1.
         -5    1    4    4    0  501 -0.47078897300E+02  0.20804924379E+02  0.26179438216E+02  0.57897347389E+02  0.41800000000E+01 0. -1.
</event>
<event>
11    1  0.5813833E-009  0.1407020E+03  0.7561462E-02  0.1106777E+00
         22   -1    0    0    0    0  0.00000000000E+00  0.00000000000E+00  0.40386034013E+03  0.40386034013E+03  0.00000000000E+00 0.  1.
         22   -1    0    0    0    0 -0.00000000000E+00 -0.00000000000E+00 -0.42699057477E+04  0.42699057477E+04  0.00000000000E+00 0.  1.
        -24    2    1    2    0    0  0.63434920506E+02 -0.12853697074E+02 -0.42094003962E+04  0.42112472592E+04  0.10659538740E+03 0.  0.
         25    2    1    2    0    0 -0.18090830370E+02  0.62779377155E+02  0.50046279786E+02  0.14973832342E+03  0.12509359313E+03 0.  0.
         24    2    1    2    0    0 -0.45344090136E+02 -0.49925680081E+02  0.29330870886E+03  0.31278050511E+03  0.85164462317E+02 0.  0.
        -13    1    5    5    0    0 -0.29624861538E+01 -0.40086634054E+02  0.43567411888E+02  0.59277600597E+02  0.00000000000E+00 0.  1.
         14    1    5    5    0    0 -0.42381603982E+02 -0.98390460270E+01  0.24974129697E+03  0.25350290451E+03  0.00000000000E+00 0. -1.
         13    1    3    3    0    0  0.33480729299E+02  0.27600587147E+02 -0.62979748533E+03  0.63129044359E+03  0.00000000000E+00 0. -1.
        -14    1    3    3    0    0  0.29954191207E+02 -0.40454284221E+02 -0.35796029108E+04  0.35799568157E+04  0.00000000000E+00 0.  1.
          5    1    4    4  501    0  0.34962151120E+02  0.55232991540E+01  0.61155969584E+02  0.70784065017E+02  0.41800000000E+01 0. -1.
         -5    1    4    4    0  501 -0.53052981490E+02  0.57256078001E+02 -0.11109689798E+02  0.78954258406E+02  0.41800000000E+01 0. -1.
</event>
<event>
11    1  0.5813833E-009  0.2613216E+03  0.7561462E-02  0.1018035E+00
         22   -1    0    0    0    0  0.00000000000E+00  0.00000000000E+00  0.83486811963E+03  0.83486811963E+03  0.00000000000E+00 0. -1.
         22   -1    0    0    0    0 -0.00000000000E+00 -0.00000000000E+00 -0.38074675829E+03  0.38074675829E+03  0.00000000000E+00 0.  1.
        -24    2    1    2    0    0  0.20980609369E+03 -0.77172047303E+02 -0.22405220148E+03  0.32710115237E+03  0.82593299115E+02 0.  0.
         25    2    1    2    0    0 -0.23681105259E+03  0.84707729554E+02  0.91034017190E+02  0.29528121258E+03  0.12509567596E+03 0.  0.
         24    2    1    2    0    0  0.27004958895E+02 -0.75356822508E+01  0.58713954564E+03  0.59323251297E+03  0.80036954470E+02 0.  0.
        -11    1    5    5    0    0 -0.10971424948E+02  0.14352719419E+02  0.35294438416E+02  0.39649339253E+02  0.00000000000E+00 0.  1.
         12    1    5    5    0    0  0.37976383842E+02 -0.21888401670E+02  0.55184510722E+03  0.55358317372E+03  0.00000000000E+00 0. -1.
         13    1    3    3    0    0  0.82867911013E+02 -0.37726199474E+02 -0.38516936689E+02  0.98863093287E+02  0.00000000000E+00 0. -1.
        -14    1    3    3    0    0  0.12693818268E+03 -0.39445847829E+02 -0.18553526479E+03  0.22823805908E+03  0.00000000000E+00 0.  1.
          5    1    4    4  501    0 -0.95530404939E+02 -0.27317058839E+02  0.44946053152E+02  0.10913248859E+03  0.41800000000E+01 0. -1.
         -5    1    4    4    0  501 -0.14128064765E+03  0.11202478839E+03  0.46087964037E+02  0.18614872399E+03  0.41800000000E+01 0. -1.
</event>
<event>
11    1  0.5813833E-009  0.2841244E+03  0.7561462E-02  0.1007143E+00
         22   -1    0    0    0    0  0.00000000000E+00  0.00000000000E+00  0.25913563257E+03  0.25913563257E+03  0.00000000000E+00 0.  1.
         22   -1    0    0    0    0 -0.00000000000E+00 -0.00000000000E+00 -0.14456240527E+04  0.14456240527E+04  0.00000000000E+00 0.  1.
         24    2    1    2    0    0  0.99142967069E+02  0.50688888220E+02 -0.10643609463E+04  0.10729199457E+04  0.76774308542E+02 0.  0.
         25    2    1    2    0    0  0.17280306788E+03 -0.10874331267E+03 -0.22118582321E+03  0.32596741279E+03  0.12508228289E+03 0.  0.
        -24    2    1    2    0    0 -0.27194603495E+03  0.58054424450E+02  0.99058349404E+02  0.30587232680E+03  0.80127158912E+02 0.  0.
        -13    1    3    3    0    0  0.87201882205E+01 -0.99623462207E+01 -0.35544394333E+03  0.35569043686E+03  0.00000000000E+00 0.  1.
         14    1    3    3    0    0  0.90422778848E+02  0.60651234441E+02 -0.70891700299E+03  0.71722950881E+03  0.00000000000E+00 0. -1.
         11    1    5    5    0    0 -0.31555714616E+02 -0.88549166254E+01 -0.89449626262E+01  0.33973298777E+02  0.00000000000E+00 0. -1.
        -12    1    5    5    0    0 -0.24039032033E+03  0.66909341076E+02  0.10800331203E+03  0.27189902803E+03  0.00000000000E+00 0.  1.
          5    1    4    4  501    0  0.12711945767E+03 -0.23019010718E+02 -0.17700089291E+03  0.21917121130E+03  0.41800000000E+01 0.  1.
         -5    1    4    4    0  501  0.45683610212E+02 -0.85724301952E+02 -0.44184930301E+02  0.10679620149E+03  0.41800000000E+01 0.  1.
</event>
<event>
11    1  0.5813833E-009  0.1432011E+03  0.7561462E-02  0.1104036E+00
         22   -1    0    0    0    0  0.00000000000E+00  0.00000000000E+00  0.29084679087E+03  0.29084679087E+03  0.00000000000E+00 0. -1.
         22   -1    0    0    0    0 -0.00000000000E+00 -0.00000000000E+00 -0.35295969040E+03  0.35295969040E+03  0.00000000000E+00 0.  1.
        -24    2    1    2    0    0  0.37461248502E+02 -0.53199511251E+02 -0.24239688554E+03  0.26335155412E+03  0.79776298522E+02 0.  0.
         25    2    1    2    0    0 -0.98249501948E+02  0.58021207790E+02 -0.59686868026E+01  0.16942322910E+03  0.12509668321E+03 0.  0.
         24    2    1    2    0    0  0.60788253446E+02 -0.48216965393E+01  0.18625267280E+03  0.21103169804E+03  0.78267866570E+02 0.  0.
        -13    1    5    5    0    0 -0.84800358142E+01 -0.14525563308E+02  0.62950216677E+01  0.17959128448E+02  0.00000000000E+00 0.  1.
         14    1    5    5    0    0  0.69268289260E+02  0.97038667684E+01  0.17995765113E+03  0.19307256959E+03  0.00000000000E+00 0. -1.
         11    1    3    3    0    0 -0.14368040664E+02 -0.47073706987E+02 -0.95085390479E+02  0.10706823042E+03  0.00000000000E+00 0. -1.
        -12    1    3    3    0    0  0.51829289167E+02 -0.61258042635E+01 -0.14731149506E+03  0.15628332371E+03  0.00000000000E+00 0.  1.
          5    1    4    4  501    0 -0.12117905167E+03  0.53973237995E+02  0.20084570715E+02  0.13423239312E+03  0.41800000000E+01 0. -1.
         -5    1    4    4    0  501  0.22929549717E+02  0.40479697951E+01 -0.26053257518E+02  0.35190835980E+02  0.41800000000E+01 0. -1.
</event>
<event>
11    1  0.5813833E-009  0.1463015E+03  0.7561462E-02  0.1100719E+00
         22   -1    0    0    0    0  0.00000000000E+00  0.00000000000E+00  0.12330647888E+04  0.12330647888E+04  0.00000000000E+00 0.  1.
         22   -1    0    0    0    0 -0.00000000000E+00 -0.00000000000E+00 -0.33535743023E+03  0.33535743023E+03  0.00000000000E+00 0. -1.
        -24    2    1    2    0    0 -0.15514303630E+02  0.81234389043E+02 -0.23222516293E+03  0.25827267322E+03  0.77048866670E+02 0.  0.
         25    2    1    2    0    0  0.92696500185E+01 -0.31314191293E+01 -0.42335514521E+02  0.13242652497E+03  0.12509499002E+03 0.  0.
         24    2    1    2    0    0  0.62446536113E+01 -0.78102969914E+02  0.11722680360E+04  0.11777230208E+04  0.81731853810E+02 0.  0.
        -13    1    5    5    0    0  0.10032631803E+02 -0.94849467081E+02  0.10349804222E+04  0.10393659362E+04  0.00000000000E+00 0.  1.
         14    1    5    5    0    0 -0.37879781913E+01  0.16746497167E+02  0.13728761385E+03  0.13835708461E+03  0.00000000000E+00 0. -1.
         11    1    3    3    0    0 -0.35894911930E+02  0.43899094775E+02 -0.19021858482E+03  0.19849102054E+03  0.00000000000E+00 0. -1.
        -12    1    3    3    0    0  0.20380608301E+02  0.37335294268E+02 -0.42006578112E+02  0.59781652683E+02  0.00000000000E+00 0.  1.
          5    1    4    4  501    0  0.21404487066E+02  0.19622380641E+02 -0.80782112878E+02  0.85944238024E+02  0.41800000000E+01 0. -1.
         -5    1    4    4    0  501 -0.12134837048E+02 -0.22753799770E+02  0.38446598357E+02  0.46482286942E+02  0.41800000000E+01 0. -1.
</event>
<event>
11    1  0.5813833E-009  0.1574235E+03  0.7561462E-02  0.1089526E+00
         22   -1    0    0    0    0  0.00000000000E+00  0.00000000000E+00  0.10663972043E+03  0.10663972043E+03  0.00000000000E+00 0.  1.
         22   -1    0    0    0    0 -0.00000000000E+00 -0.00000000000E+00 -0.65708341392E+03  0.65708341392E+03  0.00000000000E+00 0. -1.
         24    2    1    2    0    0 -0.91528544387E+02 -0.69563822295E+02 -0.37864531001E+03  0.40367871061E+03  0.79797436037E+02 0.  0.
         25    2    1    2    0    0  0.76599852292E+02 -0.20284672441E+02 -0.18553847356E+03  0.23738129497E+03  0.12508536575E+03 0.  0.
        -24    2    1    2    0    0  0.14928692095E+02  0.89848494736E+02  0.13740090072E+02  0.12266312877E+03  0.81005155575E+02 0.  0.
        -13    1    3    3    0    0 -0.33630733316E+02 -0.67165136072E+02 -0.14936163850E+03  0.16718576729E+03  0.00000000000E+00 0.  1.
         14    1    3    3    0    0 -0.57897811071E+02 -0.23986862232E+01 -0.22928367151E+03  0.23649294333E+03  0.00000000000E+00 0. -1.
         11    1    5    5    0    0  0.11452878264E+02  0.14387085110E+02 -0.30136391426E+02  0.35303806121E+02  0.00000000000E+00 0. -1.
        -12    1    5    5    0    0  0.34758138309E+01  0.75461409626E+02  0.43876481497E+02  0.87359322646E+02  0.00000000000E+00 0.  1.
          5    1    4    4  501    0  0.90571124262E+02 -0.32544889811E+02 -0.67045395033E+02  0.11736633162E+03  0.41800000000E+01 0.  1.
         -5    1    4    4    0  501 -0.13971271970E+02  0.12260217370E+02 -0.11849307852E+03  0.12001496335E+03  0.41800000000E+01 0.  1.
</event>
<event>
11    1  0.5813833E-009  0.1393399E+03  0.7561462E-02  0.1108298E+00
         22   -1    0    0    0    0  0.00000000000E+00  0.00000000000E+00  0.16331520760E+03  0.16331520760E+03  0.00000000000E+00 0. -1.
         22   -1    0    0    0    0 -0.00000000000E+00 -0.00000000000E+00 -0.91444579827E+03  0.91444579827E+03  0.00000000000E+00 0. -1.
         24    2    1    2    0    0 -0.30690259598E+02  0.35287002939E+02 -0.49349700683E+03  0.50193733725E+03  0.78833559882E+02 0.  0.
         25    2    1    2    0    0 -0.29978355906E+02 -0.49306951947E+02 -0.38764694309E+03  0.41139710289E+03  0.12509015325E+03 0.  0.
        -24    2    1    2    0    0  0.60668615505E+02  0.14019949008E+02  0.13001335926E+03  0.16442656573E+03  0.79090973284E+02 0.  0.
        -13    1    3    3    0    0 -0.36178071541E+01  0.34312111999E+02 -0.74899897068E+02  0.82464562930E+02  0.00000000000E+00 0.  1.
         14    1    3    3    0    0 -0.27072452444E+02  0.97489094047E+00 -0.41859710977E+03  0.41947277432E+03  0.00000000000E+00 0. -1.
         11    1    5    5    0    0  0.70743044295E+02  0.21560316539E+02  0.13236564100E+03  0.15162482806E+03  0.00000000000E+00 0. -1.
        -12    1    5    5    0    0 -0.10074428791E+02 -0.75403675319E+01 -0.23522817473E+01  0.12801737671E+02  0.00000000000E+00 0.  1.
          5    1    4    4  501    0 -0.41194816257E+02  0.76856042348E+01 -0.31725590460E+03  0.32003884577E+03  0.41800000000E+01 0. -1.
         -5    1    4    4    0  501  0.11216460351E+02 -0.56992556182E+02 -0.70391038491E+02  0.91358257114E+02  0.41800000000E+01 0. -1.
</event>
<event>
11    1  0.5813833E-009  0.1301692E+03  0.7561462E-02  0.1119061E+00
         22   -1    0    0    0    0  0.00000000000E+00  0.00000000000E+00  0.94009947487E+03  0.94009947487E+03  0.00000000000E+00 0.  1.
         22   -1    0    0    0    0 -0.00000000000E+00 -0.00000000000E+00 -0.48049603412E+03  0.48049603412E+03  0.00000000000E+00 0.  1.
         24    2    1    2    0    0  0.29614995659E+02  0.76134470651E+01 -0.17902655288E+03  0.19906057944E+03  0.81483710680E+02 0.  0.
         25    2    1    2    0    0 -0.23612202295E+02 -0.43075984008E+02 -0.27360187851E+03  0.30482781419E+03  0.12509569092E+03 0.  0.
        -24    2    1    2    0    0 -0.60027933635E+01  0.35462536943E+02  0.91223187214E+03  0.91670711535E+03  0.83013985133E+02 0.  0.
        -11    1    3    3    0    0  0.29445743944E+02  0.27815720242E+02 -0.17342890166E+03  0.17809646279E+03  0.00000000000E+00 0.  1.
         12    1    3    3    0    0  0.16925171476E+00 -0.20202273177E+02 -0.55976512262E+01  0.20964116650E+02  0.00000000000E+00 0. -1.
         11    1    5    5    0    0  0.30523290647E+01  0.37013050397E+01  0.10299420758E+01  0.49068475007E+01  0.00000000000E+00 0. -1.
        -12    1    5    5    0    0 -0.90551224281E+01  0.31761231903E+02  0.91120193007E+03  0.91180026785E+03  0.00000000000E+00 0.  1.
          5    1    4    4  501    0  0.26029002826E+02 -0.61185052251E+02 -0.21823705755E+03  0.22817976530E+03  0.41800000000E+01 0. -1.
         -5    1    4    4    0  501 -0.49641205121E+02  0.18109068243E+02 -0.55364820958E+02  0.76648048887E+02  0.41800000000E+01 0. -1.
</event>
<event>
11    1  0.5813833E-009  0.1363719E+03  0.7561462E-02  0.1111679E+00
         22   -1    0    0    0    0  0.00000000000E+00  0.00000000000E+00  0.11720176289E+04  0.11720176289E+04  0.00000000000E+00 0. -1.
         22   -1    0    0    0    0 -0.00000000000E+00 -0.00000000000E+00 -0.77330992100E+03  0.77330992100E+03  0.00000000000E+00 0.  1.
         24    2    1    2    0    0  0.93214944464E+01  0.35835547555E+02 -0.47874828315E+03  0.48697349677E+03  0.81069052066E+02 0.  0.
         25    2    1    2    0    0  0.37484856665E+02 -0.63255259231E+02 -0.27014772028E+03  0.30664797288E+03  0.12508735429E+03 0.  0.
        -24    2    1    2    0    0 -0.46806351112E+02  0.27419711676E+02  0.11476037113E+04  0.11517060802E+04  0.80560175837E+02 0.  0.
        -13    1    3    3    0    0 -0.24540200012E+02  0.88220934246E+01 -0.35322484481E+03  0.35418616820E+03  0.00000000000E+00 0.  1.
         14    1    3    3    0    0  0.33861694459E+02  0.27013454130E+02 -0.12552343834E+03  0.13278732857E+03  0.00000000000E+00 0. -1.
         11    1    5    5    0    0 -0.60872059547E+02  0.37750165708E+02  0.67693677712E+03  0.68071571369E+03  0.00000000000E+00 0. -1.
        -12    1    5    5    0    0  0.14065708435E+02 -0.10330454032E+02  0.47066693418E+03  0.47099036653E+03  0.00000000000E+00 0.  1.
          5    1    4    4  501    0  0.73999042583E+02 -0.52494152442E+02 -0.11338834584E+03  0.14527864164E+03  0.41800000000E+01 0.  1.
         -5    1    4    4    0  501 -0.36514185917E+02 -0.10761106789E+02 -0.15675937443E+03  0.16136933124E+03  0.41800000000E+01 0.  1.
</event>
<event>
11    1  0.5813833E-009  0.1377659E+03  0.7561462E-02  0.1110079E+00
         22   -1    0    0    0    0  0.00000000000E+00  0.00000000000E+00  0.28628635936E+03  0.28628635936E+03  0.00000000000E+00 0. -1.
         22   -1    0    0    0    0 -0.00000000000E+00 -0.00000000000E+00 -0.51001328577E+03  0.51001328577E+03  0.00000000000E+00 0. -1.
         24    2    1    2    0    0 -0.12106349659E+02 -0.22545466243E+02 -0.35358657482E+03  0.36314473152E+03  0.78713203427E+02 0.  0.
         25    2    1    2    0    0  0.62880825706E+02  0.46849651578E+02 -0.10258719408E+03  0.17977801511E+03  0.12508842565E+03 0.  0.
        -24    2    1    2    0    0 -0.50774476047E+02 -0.24304185335E+02  0.23244684249E+03  0.25337689850E+03  0.83663476311E+02 0.  0.
        -11    1    3    3    0    0 -0.31833077308E+02 -0.17229736097E+02 -0.69832675399E+02  0.78656285002E+02  0.00000000000E+00 0.  1.
         12    1    3    3    0    0  0.19726727649E+02 -0.53157301464E+01 -0.28375389942E+03  0.28448844652E+03  0.00000000000E+00 0. -1.
         13    1    5    5    0    0 -0.20730651140E+02 -0.43056111724E+02  0.56953832923E+02  0.74346000149E+02  0.00000000000E+00 0. -1.
        -14    1    5    5    0    0 -0.30043824907E+02  0.18751926390E+02  0.17549300957E+03  0.17903089835E+03  0.00000000000E+00 0.  1.
          5    1    4    4  501    0  0.37076169562E+02  0.76871955212E+02 -0.10999648511E+03  0.13928617658E+03  0.41800000000E+01 0.  1.
         -5    1    4    4    0  501  0.25804656145E+02 -0.30022303634E+02  0.74092910307E+01  0.40491838533E+02  0.41800000000E+01 0.  1.
</event>
<event>
11    1  0.5813833E-009  0.2129239E+03  0.7561462E-02  0.1045743E+00
         22   -1    0    0    0    0  0.00000000000E+00  0.00000000000E+00  0.13111767261E+04  0.13111767261E+04  0.00000000000E+00 0. -1.
         22   -1    0    0    0    0 -0.00000000000E+00 -0.00000000000E+00 -0.20136561180E+03  0.20136561180E+03  0.00000000000E+00 0. -1.
         24    2    1    2    0    0  0.15355045166E+03 -0.79700589871E+02 -0.12227715655E+03  0.22644608476E+03  0.79976253095E+02 0.  0.
         25    2    1    2    0    0 -0.16252964974E+03  0.47150444231E+02  0.42448288107E+03  0.47378449327E+03  0.12508788232E+03 0.  0.
        -24    2    1    2    0    0  0.89791980830E+01  0.32550145640E+02  0.80760538974E+03  0.81231175983E+03  0.80521994751E+02 0.  0.
        -13    1    3    3    0    0  0.36429490186E+02 -0.41643081566E+02 -0.77891571464E+02  0.95542403689E+02  0.00000000000E+00 0.  1.
         14    1    3    3    0    0  0.11712096147E+03 -0.38057508305E+02 -0.44385585088E+02  0.13090368107E+03  0.00000000000E+00 0. -1.
         13    1    5    5    0    0  0.24302659920E+02  0.11221550559E+02  0.72788245300E+03  0.72837449699E+03  0.00000000000E+00 0. -1.
        -14    1    5    5    0    0 -0.15323461837E+02  0.21328595080E+02  0.79722936740E+02  0.83937262841E+02  0.00000000000E+00 0.  1.
          5    1    4    4  501    0 -0.16802336168E+03  0.34392068053E+02  0.27862056007E+03  0.32720261813E+03  0.41800000000E+01 0. -1.
         -5    1    4    4    0  501  0.54937119333E+01  0.12758376178E+02  0.14586232100E+03  0.14658187514E+03  0.41800000000E+01 0. -1.
</event>
<event>
11    1  0.5813833E-009  0.1262917E+03  0.7561462E-02  0.1123911E+00
         22   -1    0    0    0    0  0.00000000000E+00  0.00000000000E+00  0.16227404652E+04  0.16227404652E+04  0.00000000000E+00 0.  1.
         22   -1    0    0    0    0 -0.00000000000E+00 -0.00000000000E+00 -0.29817529627E+03  0.29817529627E+03  0.00000000000E+00 0. -1.
         24    2    1    2    0    0  0.12757336907E+02  0.26074135495E+02 -0.27678257049E+03  0.28734202214E+03  0.71513887947E+02 0.  0.
         25    2    1    2    0    0 -0.48098386068E+01 -0.78450337001E+01  0.25250416942E+03  0.28194090176E+03  0.12509051685E+03 0.  0.
        -24    2    1    2    0    0 -0.79474982997E+01 -0.18229101795E+02  0.13488435700E+04  0.13516328376E+04  0.84480106463E+02 0.  0.
        -11    1    3    3    0    0 -0.43990477666E+01 -0.35143349509E+01  0.23649418478E+01  0.61069731736E+01  0.00000000000E+00 0.  1.
         12    1    3    3    0    0  0.17156384673E+02  0.29588470446E+02 -0.27914751234E+03  0.28123504896E+03  0.00000000000E+00 0. -1.
         11    1    5    5    0    0  0.34896974081E+02 -0.16186383388E+02  0.40724445545E+03  0.40905726286E+03  0.00000000000E+00 0. -1.
        -12    1    5    5    0    0 -0.42844472381E+02 -0.20427184072E+01  0.94159911455E+03  0.94257557471E+03  0.00000000000E+00 0.  1.
          5    1    4    4  501    0 -0.46533682591E+02 -0.25287393364E+02  0.45296833440E+02  0.69814836520E+02  0.41800000000E+01 0. -1.
         -5    1    4    4    0  501  0.41723843985E+02  0.17442359664E+02  0.20720733598E+03  0.21212606524E+03  0.41800000000E+01 0. -1.
</event>
<event>
11    1  0.5813833E-009  0.1975628E+03  0.7561462E-02  0.1056261E+00
         22   -1    0    0    0    0  0.00000000000E+00  0.00000000000E+00  0.11143783079E+04  0.11143783079E+04  0.00000000000E+00 0. -1.
         22   -1    0    0    0    0 -0.00000000000E+00 -0.00000000000E+00 -0.27242655816E+03  0.27242655816E+03  0.00000000000E+00 0. -1.
        -24    2    1    2    0    0 -0.62063948350E+02  0.78346309291E+01 -0.11816655853E+03  0.15621103771E+03  0.80778942940E+02 0.  0.
         25    2    1    2    0    0  0.83227332269E+02 -0.15836053769E+03 -0.34854590921E+02  0.22105423969E+03  0.12508111624E+03 0.  0.
         24    2    1    2    0    0 -0.21163383918E+02  0.15052590676E+03  0.99497289923E+03  0.10095395887E+04  0.78058782473E+02 0.  0.
        -13    1    5    5    0    0  0.21633190081E-01  0.13487400273E+03  0.66634635710E+03  0.67985915064E+03  0.00000000000E+00 0.  1.
         14    1    5    5    0    0 -0.21185017109E+02  0.15651904032E+02  0.32862654212E+03  0.32968043806E+03  0.00000000000E+00 0. -1.
         11    1    3    3    0    0 -0.40977841794E+02  0.35442475017E+01 -0.12658888891E+03  0.13310331327E+03  0.00000000000E+00 0. -1.
        -12    1    3    3    0    0 -0.21086106557E+02  0.42903834274E+01  0.84223303845E+01  0.23107724440E+02  0.00000000000E+00 0.  1.
          5    1    4    4  501    0  0.77637200370E+02 -0.97613293089E+02  0.33628909201E+02  0.12924498367E+03  0.41800000000E+01 0.  1.
         -5    1    4    4    0  501  0.55901318993E+01 -0.60747244604E+02 -0.68483500122E+02  0.91809256019E+02  0.41800000000E+01 0.  1.
</event>
<event>
11    1  0.5813833E-009  0.1262542E+03  0.7561462E-02  0.1123959E+00
         22   -1    0    0    0    0  0.00000000000E+00  0.00000000000E+00  0.39592335937E+03  0.39592335937E+03  0.00000000000E+00 0. -1.
         22   -1    0    0    0    0 -0.00000000000E+00 -0.00000000000E+00 -0.13674213015E+03  0.13674213015E+03  0.00000000000E+00 0.  1.
         24    2    1    2    0    0 -0.12003634545E+02 -0.14470251199E+02 -0.69383921209E+02  0.10977682303E+03  0.82965938430E+02 0.  0.
         25    2    1    2    0    0 -0.30068400287E+01  0.13412824266E+02  0.56618779923E+02  0.13799197768E+03  0.12508858750E+03 0.  0.
        -24    2    1    2    0    0  0.15010474574E+02  0.10574269335E+01  0.27194637051E+03  0.28489668881E+03  0.83575488986E+02 0.  0.
        -13    1    3    3    0    0  0.12341866171E+02 -0.11332021556E+02 -0.80932684301E+02  0.82648870296E+02  0.00000000000E+00 0.  1.
         14    1    3    3    0    0 -0.24345500717E+02 -0.31382296429E+01  0.11548763092E+02  0.27127952731E+02  0.00000000000E+00 0. -1.
         11    1    5    5    0    0  0.12464747086E+02 -0.35656915941E+01  0.27716881986E+03  0.27747187025E+03  0.00000000000E+00 0. -1.
        -12    1    5    5    0    0  0.25457274878E+01  0.46231185275E+01 -0.52224493504E+01  0.74248185553E+01  0.00000000000E+00 0.  1.
          5    1    4    4  501    0 -0.32219065947E+02 -0.45920237258E+02  0.10412970194E+02  0.57206981642E+02  0.41800000000E+01 0. -1.
         -5    1    4    4    0  501  0.29212225919E+02  0.59333061524E+02  0.46205809729E+02  0.80784996043E+02  0.41800000000E+01 0. -1.
</event>
<event>
11    1  0.5813833E-009  0.1452000E+03  0.7561462E-02  0.1101887E+00
         22   -1    0    0    0    0  0.00000000000E+00  0.00000000000E+00  0.23514942364E+02  0.23514942364E+02  0.00000000000E+00 0.  1.
         22   -1    0    0    0    0 -0.00000000000E+00 -0.00000000000E+00 -0.32708264877E+04  0.32708264877E+04  0.00000000000E+00 0.  1.
        -24    2    1    2    0    0 -0.19712303743E+02 -0.67922794234E+02 -0.22848827594E+04  0.22874254995E+04  0.81388638374E+02 0.  0.
         25    2    1    2    0    0  0.59836958970E+02 -0.62263756644E+01 -0.75630116267E+03  0.76892527904E+03  0.12504161977E+03 0.  0.
         24    2    1    2    0    0 -0.40124655227E+02  0.74149169899E+02 -0.20612762328E+03  0.23799065158E+03  0.83921783877E+02 0.  0.
        -13    1    5    5    0    0  0.13551037642E+02  0.50862472021E+02 -0.55951299301E+02  0.76819070384E+02  0.00000000000E+00 0.  1.
         14    1    5    5    0    0 -0.53675692869E+02  0.23286697878E+02 -0.15017632397E+03  0.16117158120E+03  0.00000000000E+00 0. -1.
         11    1    3    3    0    0 -0.43408040237E+02 -0.71700774514E+02 -0.17614347377E+04  0.17634277967E+04  0.00000000000E+00 0. -1.
        -12    1    3    3    0    0  0.23695736494E+02  0.37779802799E+01 -0.52344802172E+03  0.52399770276E+03  0.00000000000E+00 0.  1.
          5    1    4    4  501    0  0.45603070983E+02  0.45783872274E+02 -0.20516420419E+03  0.21514094479E+03  0.41800000000E+01 0.  1.
         -5    1    4    4    0  501  0.14233887987E+02 -0.52010247939E+02 -0.55113695849E+03  0.55378433426E+03  0.41800000000E+01 0.  1.
</event>
<event>
11    1  0.5813833E-009  0.1943825E+03  0.7561462E-02  0.1058569E+00
         22   -1    0    0    0    0  0.00000000000E+00  0.00000000000E+00  0.30030592362E+03  0.30030592362E+03  0.00000000000E+00 0. -1.
         22   -1    0    0    0    0 -0.00000000000E+00 -0.00000000000E+00 -0.89357219743E+03  0.89357219743E+03  0.00000000000E+00 0.  1.
         24    2    1    2    0    0 -0.92821195486E+02  0.46474476669E+02 -0.75562577663E+03  0.76693128117E+03  0.80234808023E+02 0.  0.
         25    2    1    2    0    0  0.11663158823E+03  0.10712073142E+03  0.20333253992E+02  0.20282535518E+03  0.12508758937E+03 0.  0.
        -24    2    1    2    0    0 -0.23810392747E+02 -0.15359520808E+03  0.14202624883E+03  0.22412148470E+03  0.76815114395E+02 0.  0.
        -11    1    3    3    0    0 -0.10309019246E+03  0.32834415531E+02 -0.54631252388E+03  0.55692284957E+03  0.00000000000E+00 0.  1.
         12    1    3    3    0    0  0.10268996977E+02  0.13640061138E+02 -0.20931325275E+03  0.21000843160E+03  0.00000000000E+00 0. -1.
         13    1    5    5    0    0 -0.21734110649E+02 -0.11684407460E+03  0.14465690391E+03  0.18721786556E+03  0.00000000000E+00 0. -1.
        -14    1    5    5    0    0 -0.20762820986E+01 -0.36751133485E+02 -0.26306550835E+01  0.36903619144E+02  0.00000000000E+00 0.  1.
          5    1    4    4  501    0  0.37524183525E+02  0.78331247896E+01  0.58617574108E+02  0.70163484716E+02  0.41800000000E+01 0.  1.
         -5    1    4    4    0  501  0.79107404708E+02  0.99287606626E+02 -0.38284320115E+02  0.13266187047E+03  0.41800000000E+01 0.  1.
</event>
<event>
11    1  0.5813833E-009  0.2603598E+03  0.7561462E-02  0.1018521E+00
         22   -1    0    0    0    0  0.00000000000E+00  0.00000000000E+00  0.98315148791E+03  0.98315148791E+03  0.00000000000E+00 0. -1.
         22   -1    0    0    0    0 -0.00000000000E+00 -0.00000000000E+00 -0.16665219311E+04  0.16665219311E+04  0.00000000000E+00 0.  1.
        -24    2    1    2    0    0  0.12568410061E+03  0.15736231036E+03 -0.13987225440E+04  0.14153155100E+04  0.78318884746E+02 0.  0.
         25    2    1    2    0    0 -0.28050024177E+03  0.12791868546E+02 -0.14522350609E+03  0.33997342955E+03  0.12509216021E+03 0.  0.
         24    2    1    2    0    0  0.15481614116E+03 -0.17015417891E+03  0.86057560696E+03  0.89438447947E+03  0.80079583380E+02 0.  0.
        -13    1    5    5    0    0  0.25991342821E+02 -0.83762121942E+02  0.27742121912E+03  0.29095390665E+03  0.00000000000E+00 0.  1.
         14    1    5    5    0    0  0.12882479833E+03 -0.86392056967E+02  0.58315438783E+03  0.60343057283E+03  0.00000000000E+00 0. -1.
         13    1    3    3    0    0  0.25707592862E+02  0.93679492776E+02 -0.58703857733E+03  0.59502186428E+03  0.00000000000E+00 0. -1.
        -14    1    3    3    0    0  0.99976507752E+02  0.63682817587E+02 -0.81168396672E+03  0.82029364571E+03  0.00000000000E+00 0.  1.
          5    1    4    4  501    0 -0.20869972934E+03  0.32351689781E+02 -0.46530764145E+02  0.21629792711E+03  0.41800000000E+01 0.  1.
         -5    1    4    4    0  501 -0.71800512430E+02 -0.19559821235E+02 -0.98692741948E+02  0.12367550245E+03  0.41800000000E+01 0.  1.
</event>
<event>
11    1  0.5813833E-009  0.4056161E+03  0.7561462E-02  0.9633331E-01
         22   -1    0    0    0    0  0.00000000000E+00  0.00000000000E+00  0.29421857133E+04  0.29421857133E+04  0.00000000000E+00 0. -1.
         22   -1    0    0    0    0 -0.00000000000E+00 -0.00000000000E+00 -0.47176834464E+03  0.47176834464E+03  0.00000000000E+00 0.  1.
         24    2    1    2    0    0  0.20138759822E+02 -0.38574370825E+03 -0.35372572793E+03  0.52965255139E+03  0.78779162827E+02 0.  0.
         25    2    1    2    0    0  0.16349034297E+02  0.38039347865E+03  0.13673838670E+04  0.14249044754E+04  0.12509050688E+03 0.  0.
        -24    2    1    2    0    0 -0.36487794119E+02  0.53502296028E+01  0.14567592296E+04  0.14593970311E+04  0.79575481836E+02 0.  0.
        -13    1    3    3    0    0  0.33981062293E+02 -0.37262340607E+03 -0.32767793046E+03  0.49736881834E+03  0.00000000000E+00 0.  1.
         14    1    3    3    0    0 -0.13842302471E+02 -0.13120302186E+02 -0.26047797466E+02  0.32283733056E+02  0.00000000000E+00 0. -1.
         13    1    5    5    0    0  0.25431455769E+02  0.37118154369E+01  0.40232978151E+03  0.40314983518E+03  0.00000000000E+00 0. -1.
        -14    1    5    5    0    0 -0.61919249888E+02  0.16384141659E+01  0.10544294481E+04  0.10562471960E+04  0.00000000000E+00 0.  1.
          5    1    4    4  501    0 -0.12293028844E+02  0.16579411032E+03  0.39280280724E+03  0.42655635425E+03  0.41800000000E+01 0.  1.
         -5    1    4    4    0  501  0.28642063140E+02  0.21459936833E+03  0.97458105973E+03  0.99834812117E+03  0.41800000000E+01 0.  1.
</event>
<event>
11    1  0.5813833E-009  0.1794902E+03  0.7561462E-02  0.1070056E+00
         22   -1    0    0    0    0  0.00000000000E+00  0.00000000000E+00  0.37285841360E+03  0.37285841360E+03  0.00000000000E+00 0. -1.
         22   -1    0    0    0    0 -0.00000000000E+00 -0.00000000000E+00 -0.52368179150E+03  0.52368179150E+03  0.00000000000E+00 0. -1.
         24    2    1    2    0    0 -0.45840224528E+02 -0.12572680168E+03 -0.39999858536E+03  0.42944562251E+03  0.80722484820E+02 0.  0.
         25    2    1    2    0    0 -0.12211701311E+02  0.11352846546E+03 -0.28420313736E+02  0.17170241047E+03  0.12504465367E+03 0.  0.
        -24    2    1    2    0    0  0.58051925838E+02  0.12198336217E+02  0.27759552120E+03  0.29539217213E+03  0.81721701297E+02 0.  0.
        -11    1    3    3    0    0  0.20039581842E+02 -0.10572768857E+02 -0.43211435715E+02  0.48791356389E+02  0.00000000000E+00 0.  1.
         12    1    3    3    0    0 -0.65879806369E+02 -0.11515403282E+03 -0.35678714965E+03  0.38065426612E+03  0.00000000000E+00 0. -1.
         11    1    5    5    0    0  0.74093978954E+02  0.25989457771E+02  0.19713588948E+03  0.21219785238E+03  0.00000000000E+00 0. -1.
        -12    1    5    5    0    0 -0.16042053116E+02 -0.13791121555E+02  0.80459631716E+02  0.83194319745E+02  0.00000000000E+00 0.  1.
          5    1    4    4  501    0 -0.30238405435E+02  0.12486800246E+03  0.85536591776E+01  0.12882940925E+03  0.41800000000E+01 0. -1.
         -5    1    4    4    0  501  0.18026704125E+02 -0.11339537001E+02 -0.36973972914E+02  0.42873001225E+02  0.41800000000E+01 0. -1.
</event>
<event>
11    1  0.5813833E-009  0.1317132E+03  0.7561462E-02  0.1117182E+00
         22   -1    0    0    0    0  0.00000000000E+00  0.00000000000E+00  0.15104420069E+04  0.15104420069E+04  0.00000000000E+00 0. -1.
         22   -1    0    0    0    0 -0.00000000000E+00 -0.00000000000E+00 -0.57558547843E+02  0.57558547843E+02  0.00000000000E+00 0. -1.
         24    2    1    2    0    0  0.21484089651E+02 -0.34640981997E+02 -0.11351448569E+01  0.89532885520E+02  0.79707498353E+02 0.  0.
         25    2    1    2    0    0  0.13990670258E+02  0.54973156381E+02  0.45578317782E+03  0.47602876045E+03  0.12508912350E+03 0.  0.
        -24    2    1    2    0    0 -0.35474759909E+02 -0.20332174384E+02  0.99823542615E+03  0.10024389088E+04  0.82084980367E+02 0.  0.
        -11    1    3    3    0    0  0.18607882680E+02  0.21284015480E+02  0.13967200413E+02  0.31533241193E+02  0.00000000000E+00 0.  1.
         12    1    3    3    0    0  0.28762069705E+01 -0.55924997477E+02 -0.15102345270E+02  0.57999644326E+02  0.00000000000E+00 0. -1.
         13    1    5    5    0    0 -0.18143143999E+02  0.31597567075E+02  0.34763760247E+03  0.34954181806E+03  0.00000000000E+00 0. -1.
        -14    1    5    5    0    0 -0.17331615910E+02 -0.51929741459E+02  0.65059782367E+03  0.65289709076E+03  0.00000000000E+00 0.  1.
          5    1    4    4  501    0  0.35524319773E+02  0.18811607192E+02  0.36008931393E+02  0.54129191760E+02  0.41800000000E+01 0. -1.
         -5    1    4    4    0  501 -0.21533649515E+02  0.36161549189E+02  0.41977424642E+03  0.42189956869E+03  0.41800000000E+01 0. -1.
</event>
<event>
11    1  0.5813833E-009  0.1633526E+03  0.7561462E-02  0.1083966E+00
         22   -1    0    0    0    0  0.00000000000E+00  0.00000000000E+00  0.38257679585E+03  0.38257679585E+03  0.00000000000E+00 0.  1.
         22   -1    0    0    0    0 -0.00000000000E+00 -0.00000000000E+00 -0.36332328917E+03  0.36332328917E+03  0.00000000000E+00 0.  1.
        -24    2    1    2    0    0  0.92495050550E+01  0.72804681370E+02 -0.29070616211E+03  0.31052246507E+03  0.80796371548E+02 0.  0.
         25    2    1    2    0    0  0.82203548028E+02 -0.10028050477E+03  0.18670529201E+03  0.25945844588E+03  0.12508483572E+03 0.  0.
         24    2    1    2    0    0 -0.91453053083E+02  0.27475823400E+02  0.12325437677E+03  0.17591917406E+03  0.81469826432E+02 0.  0.
        -13    1    5    5    0    0 -0.95387259740E+02 -0.14900706593E+01  0.10277636948E+03  0.14022814181E+03  0.00000000000E+00 0.  1.
         14    1    5    5    0    0  0.39342066569E+01  0.28965894059E+02  0.20478007294E+02  0.35691032255E+02  0.00000000000E+00 0. -1.
         13    1    3    3    0    0  0.27318934508E+02  0.43266772787E+02 -0.67796437618E+02  0.84939359333E+02  0.00000000000E+00 0. -1.
        -14    1    3    3    0    0 -0.18069429453E+02  0.29537908583E+02 -0.22290972449E+03  0.22558310574E+03  0.00000000000E+00 0.  1.
          5    1    4    4  501    0  0.10780982993E+03 -0.92249345242E+02  0.11469795513E+03  0.18249929983E+03  0.41800000000E+01 0. -1.
         -5    1    4    4    0  501 -0.25606281901E+02 -0.80311595274E+01  0.72007336879E+02  0.76959146048E+02  0.41800000000E+01 0. -1.
</event>
<event>
11    1  0.5813833E-009  0.1369135E+03  0.7561462E-02  0.1111055E+00
         22   -1    0    0    0    0  0.00000000000E+00  0.00000000000E+00  0.20507579963E+03  0.20507579963E+03  0.00000000000E+00 0. -1.
         22   -1    0    0    0    0 -0.00000000000E+00 -0.00000000000E+00 -0.46359730536E+03  0.46359730536E+03  0.00000000000E+00 0.  1.
         24    2    1    2    0    0 -0.18248961530E+02 -0.59413403753E+02 -0.31148942424E+03  0.32727264968E+03  0.78859043093E+02 0.  0.
         25    2    1    2    0    0 -0.35290864821E+02  0.35446285101E+02 -0.94018597447E+02  0.16428253884E+03  0.12508945452E+03 0.  0.
        -24    2    1    2    0    0  0.53539826351E+02  0.23967118651E+02  0.14698651595E+03  0.17711791647E+03  0.79528514890E+02 0.  0.
        -11    1    3    3    0    0  0.39250822665E+01  0.18179043641E+02 -0.79561764199E+02  0.81706537198E+02  0.00000000000E+00 0.  1.
         12    1    3    3    0    0 -0.22174043797E+02 -0.77592447393E+02 -0.23192766004E+03  0.24556611248E+03  0.00000000000E+00 0. -1.
         11    1    5    5    0    0  0.66268462182E+02  0.74616388272E+01  0.14010758804E+03  0.15516868679E+03  0.00000000000E+00 0. -1.
        -12    1    5    5    0    0 -0.12728635831E+02  0.16505479824E+02  0.68789279147E+01  0.21949229681E+02  0.00000000000E+00 0.  1.
          5    1    4    4  501    0 -0.86247586241E+01 -0.35940749757E+02  0.68220354837E+01  0.37817145881E+02  0.41800000000E+01 0. -1.
         -5    1    4    4    0  501 -0.26666106197E+02  0.71387034858E+02 -0.10084063293E+03  0.12646539296E+03  0.41800000000E+01 0. -1.
</event>
<event>
11    1  0.5813833E-009  0.1387112E+03  0.7561462E-02  0.1109006E+00
         22   -1    0    0    0    0  0.00000000000E+00  0.00000000000E+00  0.57296239346E+03  0.57296239346E+03  0.00000000000E+00 0. -1.
         22   -1    0    0    0    0 -0.00000000000E+00 -0.00000000000E+00 -0.46931655383E+03  0.46931655383E+03  0.00000000000E+00 0.  1.
         24    2    1    2    0    0  0.81654499150E+01 -0.30363647828E+02 -0.29731844113E+03  0.30945659188E+03  0.79852997083E+02 0.  0.
         25    2    1    2    0    0 -0.30602022798E+02  0.85003054416E+02 -0.12431168777E+03  0.19814687476E+03  0.12508711046E+03 0.  0.
        -24    2    1    2    0    0  0.22436572883E+02 -0.54639406589E+02  0.52527596852E+03  0.53467548065E+03  0.80462177081E+02 0.  0.
        -11    1    3    3    0    0  0.42151493371E+02 -0.29965943170E+02 -0.18714280428E+03  0.19415750137E+03  0.00000000000E+00 0.  1.
         12    1    3    3    0    0 -0.33986043456E+02 -0.39770465796E+00 -0.11017563685E+03  0.11529909051E+03  0.00000000000E+00 0. -1.
         13    1    5    5    0    0  0.39913969803E+01 -0.96422455717E+01  0.40226745118E+03  0.40240279127E+03  0.00000000000E+00 0. -1.
        -14    1    5    5    0    0  0.18445175903E+02 -0.44997161017E+02  0.12300851735E+03  0.13227268937E+03  0.00000000000E+00 0.  1.
          5    1    4    4  501    0 -0.48035748667E+02 -0.13370095398E+02 -0.64490796051E+02  0.81625533850E+02  0.41800000000E+01 0.  1.
         -5    1    4    4    0  501  0.17433725869E+02  0.98373149815E+02 -0.59820891719E+02  0.11652134091E+03  0.41800000000E+01 0.  1.
</event>
<event>
11    1  0.5813833E-009  0.1688289E+03  0.7561462E-02  0.1079055E+00
         22   -1    0    0    0    0  0.00000000000E+00  0.00000000000E+00  0.17909200115E+03  0.17909200115E+03  0.00000000000E+00 0. -1.
         22   -1    0    0    0    0 -0.00000000000E+00 -0.00000000000E+00 -0.82233116018E+03  0.82233116018E+03  0.00000000000E+00 0. -1.
        -24    2    1    2    0    0 -0.42702593864E+01  0.33952951252E+02 -0.54528764777E+03  0.55206030500E+03  0.79125997882E+02 0.  0.
         25    2    1    2    0    0  0.10722985339E+03  0.16551015338E+02 -0.21162327727E+03  0.26870622270E+03  0.12508575086E+03 0.  0.
         24    2    1    2    0    0 -0.10295959400E+03 -0.50503966591E+02  0.11367176601E+03  0.18065663362E+03  0.81019875631E+02 0.  0.
        -13    1    5    5    0    0 -0.25866158435E+01  0.18232406285E+02  0.19434105307E+02  0.26773039975E+02  0.00000000000E+00 0.  1.
         14    1    5    5    0    0 -0.10037297816E+03 -0.68736372875E+02  0.94237660699E+02  0.15388359365E+03  0.00000000000E+00 0. -1.
         11    1    3    3    0    0  0.34936559392E+02  0.23182117600E+02 -0.35564116949E+03  0.35810419600E+03  0.00000000000E+00 0. -1.
        -12    1    3    3    0    0 -0.39206818779E+02  0.10770833652E+02 -0.18964647827E+03  0.19395610900E+03  0.00000000000E+00 0.  1.
          5    1    4    4  501    0  0.40262089208E+02 -0.21696423067E+02 -0.17911629670E+03  0.18491049387E+03  0.41800000000E+01 0. -1.
         -5    1    4    4    0  501  0.66967764180E+02  0.38247438405E+02 -0.32506980572E+02  0.83795728828E+02  0.41800000000E+01 0. -1.
</event>
<event>
11    1  0.5813833E-009  0.1811236E+03  0.7561462E-02  0.1068738E+00
         22   -1    0    0    0    0  0.00000000000E+00  0.00000000000E+00  0.98244027180E+03  0.98244027180E+03  0.00000000000E+00 0. -1.
         22   -1    0    0    0    0 -0.00000000000E+00 -0.00000000000E+00 -0.19251670224E+03  0.19251670224E+03  0.00000000000E+00 0. -1.
         24    2    1    2    0    0  0.27014273790E+02 -0.13396771489E+03 -0.13413795119E+03  0.20814765363E+03  0.81580243590E+02 0.  0.
         25    2    1    2    0    0 -0.15191603700E+02  0.80863546062E+02  0.29988856512E+03  0.33518796584E+03  0.12509245800E+03 0.  0.
        -24    2    1    2    0    0 -0.11822670089E+02  0.53104168824E+02  0.62417295564E+03  0.63162135457E+03  0.79961420221E+02 0.  0.
        -11    1    3    3    0    0  0.25183576167E+02 -0.94196089022E+01 -0.26353069665E+01  0.27016409518E+02  0.00000000000E+00 0.  1.
         12    1    3    3    0    0  0.18306976231E+01 -0.12454810598E+03 -0.13150264422E+03  0.18113124412E+03  0.00000000000E+00 0. -1.
         11    1    5    5    0    0 -0.20476814778E+02  0.55441537726E+02  0.61780491156E+03  0.62062546902E+03  0.00000000000E+00 0. -1.
        -12    1    5    5    0    0  0.86541446881E+01 -0.23373689016E+01  0.63680440813E+01  0.10995885553E+02  0.00000000000E+00 0.  1.
          5    1    4    4  501    0  0.53817403064E+02  0.31610703054E+02  0.15677034153E+03  0.16878969697E+03  0.41800000000E+01 0.  1.
         -5    1    4    4    0  501 -0.69009006764E+02  0.49252843008E+02  0.14311822359E+03  0.16639826887E+03  0.41800000000E+01 0.  1.
</event>
<event>
11    1  0.5813833E-009  0.1393994E+03  0.7561462E-02  0.1108231E+00
         22   -1    0    0    0    0  0.00000000000E+00  0.00000000000E+00  0.27013352097E+03  0.27013352097E+03  0.00000000000E+00 0. -1.
         22   -1    0    0    0    0 -0.00000000000E+00 -0.00000000000E+00 -0.16702153547E+04  0.16702153547E+04  0.00000000000E+00 0.  1.
        -24    2    1    2    0    0 -0.44997786088E+01  0.61489973523E+02 -0.15362663633E+04  0.15396432721E+04  0.81152950636E+02 0.  0.
         25    2    1    2    0    0 -0.25539089987E+02 -0.60198706284E+02 -0.83832121081E+02  0.16416677790E+03  0.12508707801E+03 0.  0.
         24    2    1    2    0    0  0.30038868596E+02 -0.12912672388E+01  0.22001665066E+03  0.23653882569E+03  0.81481829230E+02 0.  0.
        -11    1    5    5    0    0  0.33723301069E+02  0.86267135294E+01  0.29216091821E+02  0.45445145424E+02  0.00000000000E+00 0.  1.
         12    1    5    5    0    0 -0.36844324732E+01 -0.99179807682E+01  0.19080055884E+03  0.19109368027E+03  0.00000000000E+00 0. -1.
         13    1    3    3    0    0  0.11514010552E+02 -0.13906175889E+02 -0.57804697051E+03  0.57832884615E+03  0.00000000000E+00 0. -1.
        -14    1    3    3    0    0 -0.16013789161E+02  0.75396149412E+02 -0.95821939277E+03  0.96131442591E+03  0.00000000000E+00 0.  1.
          5    1    4    4  501    0 -0.60545977515E+02 -0.64030997441E+02 -0.18964448905E+02  0.90238055990E+02  0.41800000000E+01 0. -1.
         -5    1    4    4    0  501  0.35006887527E+02  0.38322911576E+01 -0.64867672176E+02  0.73928721911E+02  0.41800000000E+01 0. -1.
</event>
<event>
11    1  0.5813833E-009  0.1504500E+03  0.7561462E-02  0.1096420E+00
         22   -1    0    0    0    0  0.00000000000E+00  0.00000000000E+00  0.29527239255E+03  0.29527239255E+03  0.00000000000E+00 0. -1.
         22   -1    0    0    0    0 -0.00000000000E+00 -0.00000000000E+00 -0.96082891179E+03  0.96082891179E+03  0.00000000000E+00 0.  1.
         24    2    1    2    0    0 -0.32799566869E+01  0.58211084723E+02 -0.87754813124E+03  0.88312507804E+03  0.80124230610E+02 0.  0.
         25    2    1    2    0    0  0.77647271297E+02 -0.86181621103E+01  0.24142292752E+02  0.14945203106E+03  0.12509871234E+03 0.  0.
        -24    2    1    2    0    0 -0.74367314610E+02 -0.49592922613E+02  0.18784931924E+03  0.22352419524E+03  0.81766396906E+02 0.  0.
        -11    1    3    3    0    0 -0.15213266545E+02  0.75525716666E+02 -0.73638901274E+03  0.74040823566E+03  0.00000000000E+00 0.  1.
         12    1    3    3    0    0  0.11933309858E+02 -0.17314631943E+02 -0.14115911850E+03  0.14271684238E+03  0.00000000000E+00 0. -1.
         13    1    5    5    0    0 -0.82552649759E+02 -0.46685560319E+02  0.19181144573E+03  0.21397689650E+03  0.00000000000E+00 0. -1.
        -14    1    5    5    0    0  0.81853351490E+01 -0.29073622933E+01 -0.39621264824E+01  0.95472987420E+01  0.00000000000E+00 0.  1.
          5    1    4    4  501    0  0.74918595198E+02 -0.30771431476E+00 -0.39691113045E+02  0.84886674157E+02  0.41800000000E+01 0. -1.
         -5    1    4    4    0  501  0.27286760981E+01 -0.83104477955E+01  0.63833405797E+02  0.64565356899E+02  0.41800000000E+01 0. -1.
</event>
<event>
11    1  0.5813833E-009  0.3065754E+03  0.7561462E-02  0.9974462E-01
         22   -1    0    0    0    0  0.00000000000E+00  0.00000000000E+00  0.28200075206E+03  0.28200075206E+03  0.00000000000E+00 0. -1.
         22   -1    0    0    0    0 -0.00000000000E+00 -0.00000000000E+00 -0.22466592490E+03  0.22466592490E+03  0.00000000000E+00 0.  1.
        -24    2    1    2    0    0 -0.98312971371E+02 -0.98033840744E+02  0.43300328395E+02  0.16266334719E+03  0.72858574018E+02 0.  0.
         25    2    1    2    0    0 -0.30904720863E+02 -0.44691216515E+01 -0.65766642315E+02  0.14473411891E+03  0.12509052368E+03 0.  0.
         24    2    1    2    0    0  0.12921769223E+03  0.10250296240E+03  0.79801141084E+02  0.19926921086E+03  0.78332158109E+02 0.  0.
        -13    1    5    5    0    0  0.16548034340E+02 -0.30262563766E+01 -0.11068798545E+02  0.20137377421E+02  0.00000000000E+00 0.  1.
         14    1    5    5    0    0  0.11266965789E+03  0.10552921877E+03  0.90869939628E+02  0.17913183344E+03  0.00000000000E+00 0. -1.
         11    1    3    3    0    0 -0.92569356923E+02 -0.10859348964E+03  0.32158056885E+02  0.14627293822E+03  0.00000000000E+00 0. -1.
        -12    1    3    3    0    0 -0.57436144481E+01  0.10559648894E+02  0.11142271510E+02  0.16390408966E+02  0.00000000000E+00 0.  1.
          5    1    4    4  501    0 -0.74563082280E+02 -0.10911065961E+02 -0.66216579830E+02  0.10040324917E+03  0.41800000000E+01 0. -1.
         -5    1    4    4    0  501  0.43658361417E+02  0.64419443093E+01  0.44993751487E+00  0.44330869740E+02  0.41800000000E+01 0. -1.
</event>
<event>
11    1  0.5813833E-009  0.1682288E+03  0.7561462E-02  0.1079583E+00
         22   -1    0    0    0    0  0.00000000000E+00  0.00000000000E+00  0.50067475796E+03  0.50067475796E+03  0.00000000000E+00 0.  1.
         22   -1    0    0    0    0 -0.00000000000E+00 -0.00000000000E+00 -0.12841519773E+04  0.12841519773E+04  0.00000000000E+00 0.  1.
         24    2    1    2    0    0 -0.25552403952E+02 -0.93825257667E+02 -0.95365780063E+03  0.96196202272E+03  0.80322027665E+02 0.  0.
         25    2    1    2    0    0  0.35390719022E+02  0.20292397685E+03 -0.27039456749E+03  0.36220295409E+03  0.12508842652E+03 0.  0.
        -24    2    1    2    0    0 -0.98383150698E+01 -0.10909871918E+03  0.44057514882E+03  0.46066175842E+03  0.78124714034E+02 0.  0.
        -13    1    3    3    0    0 -0.19433250224E+02 -0.49950128246E+02 -0.80654743531E+03  0.80832631525E+03  0.00000000000E+00 0.  1.
         14    1    3    3    0    0 -0.61191537284E+01 -0.43875129421E+02 -0.14711036532E+03  0.15363570747E+03  0.00000000000E+00 0. -1.
         13    1    5    5    0    0 -0.37164026668E+01  0.12655172172E+01 -0.20603954820E+01  0.44337807965E+01  0.00000000000E+00 0. -1.
        -14    1    5    5    0    0 -0.61219124030E+01 -0.11036423640E+03  0.44263554430E+03  0.45622797762E+03  0.00000000000E+00 0.  1.
          5    1    4    4  501    0  0.39660847674E+02  0.17419766215E+03 -0.13580183054E+03  0.22444914327E+03  0.41800000000E+01 0.  1.
         -5    1    4    4    0  501 -0.42701286514E+01  0.28726314700E+02 -0.13459273695E+03  0.13775381082E+03  0.41800000000E+01 0.  1.
</event>
<event>
11    1  0.5813833E-009  0.1338928E+03  0.7561462E-02  0.1114576E+00
         22   -1    0    0    0    0  0.00000000000E+00  0.00000000000E+00  0.17775784713E+04  0.17775784713E+04  0.00000000000E+00 0. -1.
         22   -1    0    0    0    0 -0.00000000000E+00 -0.00000000000E+00 -0.22454802384E+04  0.22454802384E+04  0.00000000000E+00 0.  1.
         24    2    1    2    0    0 -0.38594374612E+02  0.10714110099E+02 -0.67633974170E+03  0.68222239383E+03  0.79922653460E+02 0.  0.
         25    2    1    2    0    0 -0.65115532351E+01 -0.26404554227E+02 -0.15623473369E+04  0.15675834341E+04  0.12509604705E+03 0.  0.
        -24    2    1    2    0    0  0.45105927847E+02  0.15690444128E+02  0.17707853115E+04  0.17732528818E+04  0.80401670188E+02 0.  0.
        -13    1    3    3    0    0 -0.60555575880E+02  0.14629403273E+02 -0.57988153231E+03  0.58321830280E+03  0.00000000000E+00 0.  1.
         14    1    3    3    0    0  0.21961201268E+02 -0.39152931739E+01 -0.96458209394E+02  0.99004091033E+02  0.00000000000E+00 0. -1.
         13    1    5    5    0    0  0.38836723987E+02  0.39253050781E+02  0.15732097311E+04  0.15741785004E+04  0.00000000000E+00 0. -1.
        -14    1    5    5    0    0  0.62692038604E+01 -0.23562606653E+02  0.19757558043E+03  0.19907438141E+03  0.00000000000E+00 0.  1.
          5    1    4    4  501    0 -0.48370411407E+02  0.28924439817E+02 -0.56586413224E+03  0.56867917886E+03  0.41800000000E+01 0.  1.
         -5    1    4    4    0  501  0.41858858172E+02 -0.55328994044E+02 -0.99648320465E+03  0.99890425525E+03  0.41800000000E+01 0.  1.
</event>
<event>
11    1  0.5813833E-009  0.1839176E+03  0.7561462E-02  0.1066517E+00
         22   -1    0    0    0    0  0.00000000000E+00  0.00000000000E+00  0.19798806292E+03  0.19798806292E+03  0.00000000000E+00 0. -1.
         22   -1    0    0    0    0 -0.00000000000E+00 -0.00000000000E+00 -0.16227233871E+04  0.16227233871E+04  0.00000000000E+00 0. -1.
        -24    2    1    2    0    0 -0.52645205854E+02  0.12987256050E+03 -0.14079600325E+04  0.14171643142E+04  0.79779950226E+02 0.  0.
         25    2    1    2    0    0 -0.18251547369E+02 -0.10682695200E+03 -0.15549230168E+03  0.22709099625E+03  0.12508936022E+03 0.  0.
         24    2    1    2    0    0  0.70896753224E+02 -0.23045608496E+02  0.13871701005E+03  0.17645613959E+03  0.79604714891E+02 0.  0.
        -13    1    5    5    0    0 -0.16126366755E+02  0.55364769473E+01  0.16522344203E+02  0.23742370136E+02  0.00000000000E+00 0.  1.
         14    1    5    5    0    0  0.87023119979E+02 -0.28582085443E+02  0.12219466584E+03  0.15271376945E+03  0.00000000000E+00 0. -1.
         13    1    3    3    0    0 -0.65496237779E+02  0.12591792584E+03 -0.11299402552E+04  0.11388195913E+04  0.00000000000E+00 0. -1.
        -14    1    3    3    0    0  0.12851031925E+02  0.39546346628E+01 -0.27801977736E+03  0.27834472289E+03  0.00000000000E+00 0.  1.
          5    1    4    4  501    0  0.41737788341E+02 -0.82043288394E+02 -0.54768848358E+02  0.10719255243E+03  0.41800000000E+01 0.  1.
         -5    1    4    4    0  501 -0.59989335711E+02 -0.24783663611E+02 -0.10072345333E+03  0.11989844382E+03  0.41800000000E+01 0.  1.
</event>
<event>
11    1  0.5813833E-009  0.1425986E+03  0.7561462E-02  0.1104691E+00
         22   -1    0    0    0    0  0.00000000000E+00  0.00000000000E+00  0.21103517313E+04  0.21103517313E+04  0.00000000000E+00 0.  1.
         22   -1    0    0    0    0 -0.00000000000E+00 -0.00000000000E+00 -0.13223896971E+03  0.13223896971E+03  0.00000000000E+00 0. -1.
        -24    2    1    2    0    0 -0.17654486497E+02 -0.56098376505E+01 -0.62410998802E+02  0.10342879060E+03  0.80369339814E+02 0.  0.
         25    2    1    2    0    0  0.35285268283E+02 -0.60562199527E+02  0.59377015629E+02  0.15519786722E+03  0.12509163775E+03 0.  0.
         24    2    1    2    0    0 -0.17630781786E+02  0.66172037178E+02  0.19811467448E+04  0.19839640432E+04  0.80506629341E+02 0.  0.
        -13    1    5    5    0    0 -0.39020741964E+02  0.65316016017E+02  0.17911330062E+04  0.17927482384E+04  0.00000000000E+00 0.  1.
         14    1    5    5    0    0  0.21389960177E+02  0.85602116087E+00  0.19001373852E+03  0.19121580478E+03  0.00000000000E+00 0. -1.
         11    1    3    3    0    0 -0.30728333854E+02 -0.81604603145E+01 -0.77220912388E+02  0.83509837289E+02  0.00000000000E+00 0. -1.
        -12    1    3    3    0    0  0.13073847358E+02  0.25506226640E+01  0.14809913585E+02  0.19918953314E+02  0.00000000000E+00 0.  1.
          5    1    4    4  501    0  0.55038970691E+02 -0.61477895690E+02  0.87643990475E+02  0.12044816902E+03  0.41800000000E+01 0.  1.
         -5    1    4    4    0  501 -0.19753702408E+02  0.91569616273E+00 -0.28266974846E+02  0.34749698203E+02  0.41800000000E+01 0.  1.
</event>
<event>
11    1  0.5813833E-009  0.1557494E+03  0.7561462E-02  0.1091145E+00
         22   -1    0    0    0    0  0.00000000000E+00  0.00000000000E+00  0.39606987053E+03  0.39606987053E+03  0.00000000000E+00 0.  1.
         22   -1    0    0    0    0 -0.00000000000E+00 -0.00000000000E+00 -0.84122005252E+03  0.84122005252E+03  0.00000000000E+00 0.  1.
         24    2    1    2    0    0 -0.54970737947E+02 -0.75911848796E+02 -0.74918598607E+03  0.76156340789E+03  0.99573047033E+02 0.  0.
         25    2    1    2    0    0 -0.28144775699E+01  0.99476094293E+02  0.48285454180E+01  0.15992226318E+03  0.12509356814E+03 0.  0.
        -24    2    1    2    0    0  0.57785215517E+02 -0.23564245497E+02  0.29920725866E+03  0.31580425197E+03  0.79453993792E+02 0.  0.
        -13    1    3    3    0    0 -0.77381316169E+01 -0.59861200873E+02 -0.62234668380E+03  0.62526685254E+03  0.00000000000E+00 0.  1.
         14    1    3    3    0    0 -0.47232606330E+02 -0.16050647922E+02 -0.12683930227E+03  0.13629655535E+03  0.00000000000E+00 0. -1.
         11    1    5    5    0    0  0.28007191180E+02 -0.18611461957E+02  0.30475158292E+02  0.45381984827E+02  0.00000000000E+00 0. -1.
        -12    1    5    5    0    0  0.29778024337E+02 -0.49527835401E+01  0.26873210037E+03  0.27042226715E+03  0.00000000000E+00 0.  1.
          5    1    4    4  501    0 -0.50231249879E+02  0.12484471846E+02  0.26678440962E+02  0.58380237357E+02  0.41800000000E+01 0.  1.
         -5    1    4    4    0  501  0.47416772309E+02  0.86991622447E+02 -0.21849895544E+02  0.10154202582E+03  0.41800000000E+01 0.  1.
</event>
<event>
11    1  0.5813833E-009  0.1699972E+03  0.7561462E-02  0.1078034E+00
         22   -1    0    0    0    0  0.00000000000E+00  0.00000000000E+00  0.10156808835E+04  0.10156808835E+04  0.00000000000E+00 0. -1.
         22   -1    0    0    0    0 -0.00000000000E+00 -0.00000000000E+00 -0.34195792536E+03  0.34195792536E+03  0.00000000000E+00 0.  1.
         24    2    1    2    0    0 -0.11149181986E+03  0.29672829820E+02 -0.29052062350E+03  0.32292179393E+03  0.81026844881E+02 0.  0.
         25    2    1    2    0    0  0.29206049025E+02 -0.12224890708E+03  0.25333014435E+03  0.30922657982E+03  0.12508847688E+03 0.  0.
        -24    2    1    2    0    0  0.82285770830E+02  0.92576077256E+02  0.71091343729E+03  0.72549043511E+03  0.74814289826E+02 0.  0.
        -13    1    3    3    0    0 -0.55771403400E+02 -0.19566840891E+02 -0.18210199946E+03  0.19145351631E+03  0.00000000000E+00 0.  1.
         14    1    3    3    0    0 -0.55720416455E+02  0.49239670711E+02 -0.10841862404E+03  0.13146827762E+03  0.00000000000E+00 0. -1.
         11    1    5    5    0    0  0.72046613734E+02  0.49503642729E+02  0.59541167993E+03  0.60179431186E+03  0.00000000000E+00 0. -1.
        -12    1    5    5    0    0  0.10239157096E+02  0.43072434527E+02  0.11550175736E+03  0.12369612325E+03  0.00000000000E+00 0.  1.
          5    1    4    4  501    0  0.60866792506E+02 -0.66367001111E+02  0.67654849067E+02  0.11271200588E+03  0.41800000000E+01 0. -1.
         -5    1    4    4    0  501 -0.31660743480E+02 -0.55881905965E+02  0.18567529529E+03  0.19651457394E+03  0.41800000000E+01 0. -1.
</event>
<event>
11    1  0.5813833E-009  0.1584971E+03  0.7561462E-02  0.1088499E+00
         22   -1    0    0    0    0  0.00000000000E+00  0.00000000000E+00  0.53487403521E+03  0.53487403521E+03  0.00000000000E+00 0.  1.
         22   -1    0    0    0    0 -0.00000000000E+00 -0.00000000000E+00 -0.90716710422E+03  0.90716710422E+03  0.00000000000E+00 0.  1.
        -24    2    1    2    0    0 -0.77553029083E+02 -0.64327277284E+02 -0.79777454605E+03  0.80800525628E+03  0.79219927557E+02 0.  0.
         25    2    1    2    0    0  0.70814432672E+02  0.12024735780E+02 -0.47151969479E+02  0.15173037797E+03  0.12505807143E+03 0.  0.
         24    2    1    2    0    0  0.67385964117E+01  0.52302541505E+02  0.47263344651E+03  0.48230550518E+03  0.80344639111E+02 0.  0.
        -13    1    5    5    0    0  0.25381269381E+02  0.65532268996E+01  0.33589891289E+03  0.33692021800E+03  0.00000000000E+00 0.  1.
         14    1    5    5    0    0 -0.18642672970E+02  0.45749314605E+02  0.13673453362E+03  0.14538528718E+03  0.00000000000E+00 0. -1.
         13    1    3    3    0    0 -0.36853763880E+02  0.59204524317E+01 -0.12809636054E+03  0.13342387062E+03  0.00000000000E+00 0. -1.
        -14    1    3    3    0    0 -0.40699265204E+02 -0.70247729716E+02 -0.66967818552E+03  0.67458138566E+03  0.00000000000E+00 0.  1.
          5    1    4    4  501    0 -0.29381810470E+02  0.20380889202E+02  0.81385135068E+01  0.36910421743E+02  0.41800000000E+01 0. -1.
         -5    1    4    4    0  501  0.10019624314E+03 -0.83561534227E+01 -0.55290482985E+02  0.11481995623E+03  0.41800000000E+01 0. -1.
</event>
<event>
11    1  0.5813833E-009  0.1351582E+03  0.7561462E-02  0.1113089E+00
         22   -1    0    0    0    0  0.00000000000E+00  0.00000000000E+00  0.97871738138E+02  0.97871738138E+02  0.00000000000E+00 0.  1.
         22   -1    0    0    0    0 -0.00000000000E+00 -0.00000000000E+00 -0.76325697788E+03  0.76325697788E+03  0.00000000000E+00 0.  1.
        -24    2    1    2    0    0 -0.35040446396E+02  0.23785662586E+02 -0.50658945587E+03  0.51300984291E+03  0.68939332000E+02 0.  0.
         25    2    1    2    0    0  0.31904299695E+02 -0.72066174718E+02 -0.19808281210E+03  0.24717597062E+03  0.12509093542E+03 0.  0.
         24    2    1    2    0    0  0.31361467002E+01  0.48280512133E+02  0.39287028221E+02  0.10094290249E+03  0.79405010608E+02 0.  0.
        -13    1    5    5    0    0  0.39872288537E+02  0.13193943891E+02  0.14615055961E+02  0.44468858871E+02  0.00000000000E+00 0.  1.
         14    1    5    5    0    0 -0.36736141837E+02  0.35086568242E+02  0.24671972260E+02  0.56474043624E+02  0.00000000000E+00 0. -1.
         13    1    3    3    0    0  0.19177961070E+02  0.37468751309E+01 -0.72436910262E+02  0.75026256953E+02  0.00000000000E+00 0. -1.
        -14    1    3    3    0    0 -0.54218407466E+02  0.20038787455E+02 -0.43415254560E+03  0.43798358595E+03  0.00000000000E+00 0.  1.
          5    1    4    4  501    0  0.79047003876E+02 -0.36979462609E+02 -0.13549516611E+03  0.16122134448E+03  0.41800000000E+01 0. -1.
         -5    1    4    4    0  501 -0.47142704181E+02 -0.35086712109E+02 -0.62587645983E+02  0.85954626134E+02  0.41800000000E+01 0. -1.
</event>
<event>
11    1  0.5813833E-009  0.1689316E+03  0.7561462E-02  0.1078965E+00
         22   -1    0    0    0    0  0.00000000000E+00  0.00000000000E+00  0.91218125249E+03  0.91218125249E+03  0.00000000000E+00 0. -1.
         22   -1    0    0    0    0 -0.00000000000E+00 -0.00000000000E+00 -0.74893764005E+03  0.74893764005E+03  0.00000000000E+00 0. -1.
         24    2    1    2    0    0  0.88848407249E+02 -0.71192108080E+02 -0.66632414724E+03  0.68076989955E+03  0.80606644943E+02 0.  0.
         25    2    1    2    0    0 -0.45469966015E+02  0.11534343143E+03  0.35700354855E+02  0.17971060698E+03  0.12509900855E+03 0.  0.
        -24    2    1    2    0    0 -0.43378441235E+02 -0.44151323355E+02  0.79386740482E+03  0.80063838601E+03  0.83458613668E+02 0.  0.
        -11    1    3    3    0    0  0.21131744055E+02 -0.50605748173E+02 -0.15183523562E+03  0.16143553243E+03  0.00000000000E+00 0.  1.
         12    1    3    3    0    0  0.67716663194E+02 -0.20586359907E+02 -0.51448891162E+03  0.51933436712E+03  0.00000000000E+00 0. -1.
         11    1    5    5    0    0 -0.48295113413E+02 -0.52728685429E+02  0.78168736099E+03  0.78495086634E+03  0.00000000000E+00 0. -1.
        -12    1    5    5    0    0  0.49166721781E+01  0.85773620742E+01  0.12180043836E+02  0.15687519667E+02  0.00000000000E+00 0.  1.
          5    1    4    4  501    0 -0.61579432553E+02  0.12971491955E+03  0.51533258522E+02  0.15261433747E+03  0.41800000000E+01 0.  1.
         -5    1    4    4    0  501  0.16109466538E+02 -0.14371488119E+02 -0.15832903668E+02  0.27096269512E+02  0.41800000000E+01 0.  1.
</event>
<event>
11    1  0.5813833E-009  0.3698912E+03  0.7561462E-02  0.9743026E-01
         22   -1    0    0    0    0  0.00000000000E+00  0.00000000000E+00  0.23602385852E+04  0.23602385852E+04  0.00000000000E+00 0.  1.
         22   -1    0    0    0    0 -0.00000000000E+00 -0.00000000000E+00 -0.40068565527E+03  0.40068565527E+03  0.00000000000E+00 0. -1.
         24    2    1    2    0    0  0.92411227726E+02  0.44228540488E+02 -0.17754535232E+03  0.22012269430E+03  0.80222500657E+02 0.  0.
         25    2    1    2    0    0  0.23824853270E+03 -0.16861276161E+03 -0.52137151995E+02  0.32180735993E+03  0.12509623325E+03 0.  0.
        -24    2    1    2    0    0 -0.33065976043E+03  0.12438422112E+03  0.21892354342E+04  0.22189941862E+04  0.79850487868E+02 0.  0.
        -13    1    3    3    0    0  0.67554743024E+02  0.39249239500E+02 -0.56414846274E+02  0.96367945846E+02  0.00000000000E+00 0.  1.
         14    1    3    3    0    0  0.24856484702E+02  0.49793009882E+01 -0.12113050604E+03  0.12375474845E+03  0.00000000000E+00 0. -1.
         13    1    5    5    0    0 -0.12753094981E+02  0.51100384695E+01  0.27350660812E+02  0.30607394068E+02  0.00000000000E+00 0. -1.
        -14    1    5    5    0    0 -0.31790666545E+03  0.11927418265E+03  0.21618847734E+04  0.21883867921E+04  0.00000000000E+00 0.  1.
          5    1    4    4  501    0  0.11657530872E+03 -0.39015677663E+02  0.28974356690E+02  0.12636855405E+03  0.41800000000E+01 0. -1.
         -5    1    4    4    0  501  0.12167322398E+03 -0.12959708395E+03 -0.81111508685E+02  0.19543880588E+03  0.41800000000E+01 0. -1.
</event>
<event>
11    1  0.5813833E-009  0.1747020E+03  0.7561462E-02  0.1074011E+00
         22   -1    0    0    0    0  0.00000000000E+00  0.00000000000E+00  0.60392839243E+03  0.60392839243E+03  0.00000000000E+00 0.  1.
         22   -1    0    0    0    0 -0.00000000000E+00 -0.00000000000E+00 -0.24769337683E+04  0.24769337683E+04  0.00000000000E+00 0. -1.
        -24    2    1    2    0    0  0.49460203578E+02 -0.35108646008E+02 -0.21169359223E+04  0.21194812755E+04  0.84286708019E+02 0.  0.
         25    2    1    2    0    0 -0.64890516072E+02  0.15496257307E+03 -0.31764461268E+03  0.38048603173E+03  0.12508933707E+03 0.  0.
         24    2    1    2    0    0  0.15430312494E+02 -0.11985392706E+03  0.56157515912E+03  0.58089485352E+03  0.86424030948E+02 0.  0.
        -11    1    5    5    0    0  0.41602669630E+01 -0.10500790682E+03  0.54761473014E+03  0.55760726411E+03  0.00000000000E+00 0.  1.
         12    1    5    5    0    0  0.11270045531E+02 -0.14846020243E+02  0.13960428980E+02  0.23287589412E+02  0.00000000000E+00 0. -1.
         11    1    3    3    0    0  0.53592480821E+02 -0.19221060533E+02 -0.20408729124E+04  0.20416669287E+04  0.00000000000E+00 0. -1.
        -12    1    3    3    0    0 -0.41322772430E+01 -0.15887585475E+02 -0.76063009907E+02  0.77814346772E+02  0.00000000000E+00 0.  1.
          5    1    4    4  501    0  0.23575561567E+02 -0.12329669651E+01 -0.14109715586E+02  0.27818766771E+02  0.41800000000E+01 0.  1.
         -5    1    4    4    0  501 -0.88466077638E+02  0.15619554003E+03 -0.30353489709E+03  0.35266726495E+03  0.41800000000E+01 0.  1.
</event>
<event>
11    1  0.1699786E-008  0.2005137E+03  0.7561462E-02  0.1054161E+00
         22   -1    0    0    0    0  0.00000000000E+00  0.00000000000E+00  0.64520605842E+03  0.64520605842E+03  0.00000000000E+00 0. -1.
         22   -1    0    0    0    0 -0.00000000000E+00 -0.00000000000E+00 -0.95958160090E+03  0.95958160090E+03  0.00000000000E+00 0.  1.
         24    2    1    2    0    0 -0.60292359695E+02  0.28071325542E+01 -0.42015060232E+03  0.43171015361E+03  0.78765979125E+02 0.  0.
         25    2    1    2    0    0  0.17774662127E+03 -0.10484872384E+03 -0.49318145072E+03  0.54905806442E+03  0.12509875504E+03 0.  0.
        -24    2    1    2    0    0 -0.11745426157E+03  0.10204159129E+03  0.59895651056E+03  0.62401944129E+03  0.80270615123E+02 0.  0.
        -13    1    3    3    0    0 -0.64262391616E+02  0.30239169441E+02 -0.28195169382E+03  0.29075904112E+03  0.00000000000E+00 0.  1.
         14    1    3    3    0    0  0.39700319202E+01 -0.27432036887E+02 -0.13819890850E+03  0.14095111249E+03  0.00000000000E+00 0. -1.
         11    1    5    5    0    0 -0.10375568285E+03  0.10746034572E+03  0.58484536744E+03  0.60361997270E+03  0.00000000000E+00 0. -1.
        -12    1    5    5    0    0 -0.13698578721E+02 -0.54187544364E+01  0.14111143122E+02  0.20399468592E+02  0.00000000000E+00 0.  1.
          5    1    4    4  501    0  0.11268296896E+03 -0.39106154352E+02 -0.14012754041E+03  0.18406505041E+03  0.41800000000E+01 0. -1.
         -5    1    4    4    0  501  0.65063652307E+02 -0.65742569488E+02 -0.35305391031E+03  0.36499301401E+03  0.41800000000E+01 0. -1.
</event>
<event>
11    1  0.5813833E-009  0.1574305E+03  0.7561462E-02  0.1089519E+00
         22   -1    0    0    0    0  0.00000000000E+00  0.00000000000E+00  0.73601975463E+03  0.73601975463E+03  0.00000000000E+00 0.  1.
         22   -1    0    0    0    0 -0.00000000000E+00 -0.00000000000E+00 -0.17111783956E+03  0.17111783956E+03  0.00000000000E+00 0.  1.
        -24    2    1    2    0    0 -0.41301730302E+02  0.81836253590E+02 -0.10672995042E+03  0.16294635105E+03  0.82202345930E+02 0.  0.
         25    2    1    2    0    0  0.10234828653E+03 -0.10479510599E+03  0.29362467071E+03  0.35117075093E+03  0.12509301762E+03 0.  0.
         24    2    1    2    0    0 -0.61046556227E+02  0.22958852403E+02  0.37800719477E+03  0.39302049222E+03  0.85567967555E+02 0.  0.
        -13    1    5    5    0    0  0.60116621543E+01 -0.80489889140E+00  0.21594168288E+03  0.21602684636E+03  0.00000000000E+00 0.  1.
         14    1    5    5    0    0 -0.67058218381E+02  0.23763751295E+02  0.16206551190E+03  0.17699364586E+03  0.00000000000E+00 0. -1.
         13    1    3    3    0    0  0.64572287577E+01  0.20453636944E+02  0.92053982941E+01  0.23340660343E+02  0.00000000000E+00 0. -1.
        -14    1    3    3    0    0 -0.47758959060E+02  0.61382616646E+02 -0.11593534871E+03  0.13960569071E+03  0.00000000000E+00 0.  1.
          5    1    4    4  501    0  0.52420238042E+02 -0.11636341913E+03  0.26019054731E+03  0.28983602257E+03  0.41800000000E+01 0. -1.
         -5    1    4    4    0  501  0.49928048487E+02  0.11568313140E+02  0.33434123399E+02  0.61334728352E+02  0.41800000000E+01 0. -1.
</event>
<event>
11    1  0.5813833E-009  0.1490720E+03  0.7561462E-02  0.1097831E+00
         22   -1    0    0    0    0  0.00000000000E+00  0.00000000000E+00  0.18223776622E+03  0.18223776622E+03  0.00000000000E+00 0.  1.
         22   -1    0    0    0    0 -0.00000000000E+00 -0.00000000000E+00 -0.30406337188E+03  0.30406337188E+03  0.00000000000E+00 0. -1.
         24    2    1    2    0    0  0.11527201086E+03  0.53687432188E+02 -0.86594197449E+02  0.17363390521E+03  0.80499696544E+02 0.  0.
         25    2    1    2    0    0  0.32688823775E+02 -0.48959801328E+02  0.85160380945E+01  0.13851232228E+03  0.12509004426E+03 0.  0.
        -24    2    1    2    0    0 -0.14796083463E+03 -0.47276308600E+01 -0.43747446305E+02  0.17415491061E+03  0.80630854832E+02 0.  0.
        -13    1    3    3    0    0  0.15240407556E+02  0.14154490872E+02  0.15027700930E+02  0.25660308446E+02  0.00000000000E+00 0.  1.
         14    1    3    3    0    0  0.10003160330E+03  0.39532941316E+02 -0.10162189838E+03  0.14797359676E+03  0.00000000000E+00 0. -1.
         11    1    5    5    0    0 -0.69893678623E+02 -0.40707656669E+02 -0.33649103800E+02  0.87604233970E+02  0.00000000000E+00 0. -1.
        -12    1    5    5    0    0 -0.78067156011E+02  0.35980025809E+02 -0.10098342506E+02  0.86550676636E+02  0.00000000000E+00 0.  1.
          5    1    4    4  501    0  0.39713154838E+02 -0.45705261665E+02  0.60554939061E+02  0.85734932529E+02  0.41800000000E+01 0.  1.
         -5    1    4    4    0  501 -0.70243310629E+01 -0.32545396626E+01 -0.52038900966E+02  0.52777389752E+02  0.41800000000E+01 0.  1.
</event>
<event>
11    1  0.5813833E-009  0.1550058E+03  0.7561462E-02  0.1091871E+00
         22   -1    0    0    0    0  0.00000000000E+00  0.00000000000E+00  0.93590579863E+03  0.93590579863E+03  0.00000000000E+00 0. -1.
         22   -1    0    0    0    0 -0.00000000000E+00 -0.00000000000E+00 -0.80252742541E+03  0.80252742541E+03  0.00000000000E+00 0.  1.
         24    2    1    2    0    0 -0.10642237171E+02 -0.10764229012E+03 -0.45603085359E+03  0.47581795559E+03  0.82088169710E+02 0.  0.
         25    2    1    2    0    0 -0.72294121554E+02  0.56612796882E+02 -0.31430086183E+03  0.35052035670E+03  0.12509212577E+03 0.  0.
        -24    2    1    2    0    0  0.82936358725E+02  0.51029493239E+02  0.90371008864E+03  0.91209491175E+03  0.75780966962E+02 0.  0.
        -11    1    3    3    0    0 -0.23243410358E+02 -0.11207480789E+03 -0.44143261359E+03  0.45603044968E+03  0.00000000000E+00 0.  1.
         12    1    3    3    0    0  0.12601173187E+02  0.44325177663E+01 -0.14598239991E+02  0.19787505914E+02  0.00000000000E+00 0. -1.
         11    1    5    5    0    0  0.96978555393E+02  0.40636168268E+02  0.73507951693E+03  0.74256180523E+03  0.00000000000E+00 0. -1.
        -12    1    5    5    0    0 -0.14042196667E+02  0.10393324972E+02  0.16863057171E+03  0.16953310652E+03  0.00000000000E+00 0.  1.
          5    1    4    4  501    0 -0.10446203207E+03  0.51742485148E+02 -0.27861821748E+03  0.30205162543E+03  0.41800000000E+01 0.  1.
         -5    1    4    4    0  501  0.32167910511E+02  0.48703117349E+01 -0.35682644348E+02  0.48468731268E+02  0.41800000000E+01 0.  1.
</event>
<event>
11    1  0.5813833E-009  0.2245249E+03  0.7561462E-02  0.1038419E+00
         22   -1    0    0    0    0  0.00000000000E+00  0.00000000000E+00  0.22159940462E+04  0.22159940462E+04  0.00000000000E+00 0.  1.
         22   -1    0    0    0    0 -0.00000000000E+00 -0.00000000000E+00 -0.16880742707E+04  0.16880742707E+04  0.00000000000E+00 0.  1.
        -24    2    1    2    0    0  0.29298134505E+02 -0.27117298119E+02 -0.14558188509E+04  0.14587400284E+04  0.83187832432E+02 0.  0.
         25    2    1    2    0    0 -0.21448592406E+03  0.10906638399E+02 -0.15770966169E+03  0.29435201646E+03  0.12509039061E+03 0.  0.
         24    2    1    2    0    0  0.18518778956E+03  0.16210659720E+02  0.21414482880E+04  0.21509762719E+04  0.79629449322E+02 0.  0.
        -13    1    5    5    0    0  0.14200864318E+03 -0.26453200517E+01  0.12047225666E+04  0.12130663275E+04  0.00000000000E+00 0.  1.
         14    1    5    5    0    0  0.43179146381E+02  0.18855979771E+02  0.93672572142E+03  0.93790994441E+03  0.00000000000E+00 0. -1.
         11    1    3    3    0    0  0.86781519813E+01  0.22981723431E+02 -0.16846011694E+03  0.17024183074E+03  0.00000000000E+00 0. -1.
        -12    1    3    3    0    0  0.20619982523E+02 -0.50099021550E+02 -0.12873587339E+04  0.12884981977E+04  0.00000000000E+00 0.  1.
          5    1    4    4  501    0 -0.58416699785E+02  0.57473612299E+02 -0.30097433464E+02  0.87401686629E+02  0.41800000000E+01 0. -1.
         -5    1    4    4    0  501 -0.15606922428E+03 -0.46566973900E+02 -0.12761222823E+03  0.20695032983E+03  0.41800000000E+01 0. -1.
</event>
<event>
11    1  0.5813833E-009  0.2498361E+03  0.7561462E-02  0.1023987E+00
         22   -1    0    0    0    0  0.00000000000E+00  0.00000000000E+00  0.10175274683E+04  0.10175274683E+04  0.00000000000E+00 0. -1.
         22   -1    0    0    0    0 -0.00000000000E+00 -0.00000000000E+00 -0.12403978033E+03  0.12403978033E+03  0.00000000000E+00 0.  1.
        -24    2    1    2    0    0  0.57627995672E+01  0.15631180518E+03  0.10289930553E+03  0.20314193200E+03  0.78814891737E+02 0.  0.
         25    2    1    2    0    0  0.19955083154E+03 -0.32716468549E+01  0.33261656606E+03  0.40757189924E+03  0.12509930051E+03 0.  0.
         24    2    1    2    0    0 -0.20531363111E+03 -0.15304015832E+03  0.45797181636E+03  0.53085341738E+03  0.80574121080E+02 0.  0.
        -11    1    5    5    0    0 -0.11362880988E+03 -0.13120294228E+03  0.27903582723E+03  0.32861331588E+03  0.00000000000E+00 0.  1.
         12    1    5    5    0    0 -0.91684821237E+02 -0.21837216042E+02  0.17893598912E+03  0.20224010150E+03  0.00000000000E+00 0. -1.
         11    1    3    3    0    0 -0.33665022326E+02  0.10362323404E+03  0.70663079491E+02  0.12986292452E+03  0.00000000000E+00 0. -1.
        -12    1    3    3    0    0  0.39427821893E+02  0.52688571137E+02  0.32236226042E+02  0.73279007479E+02  0.00000000000E+00 0.  1.
          5    1    4    4  501    0  0.21363528524E+03 -0.14697629345E+02  0.32008803894E+03  0.38513618433E+03  0.41800000000E+01 0.  1.
         -5    1    4    4    0  501 -0.14084453694E+02  0.11425982490E+02  0.12528527122E+02  0.22435714911E+02  0.41800000000E+01 0.  1.
</event>
<event>
11    1  0.5813833E-009  0.1343995E+03  0.7561462E-02  0.1113979E+00
         22   -1    0    0    0    0  0.00000000000E+00  0.00000000000E+00  0.11003966814E+04  0.11003966814E+04  0.00000000000E+00 0.  1.
         22   -1    0    0    0    0 -0.00000000000E+00 -0.00000000000E+00 -0.85607100285E+03  0.85607100285E+03  0.00000000000E+00 0.  1.
        -24    2    1    2    0    0  0.18529618946E+02 -0.79391028878E+01 -0.80417738066E+03  0.80833458244E+03  0.79354656237E+02 0.  0.
         25    2    1    2    0    0 -0.37440283474E+02 -0.37428154817E+02  0.50494690863E+02  0.14491272827E+03  0.12508934171E+03 0.  0.
         24    2    1    2    0    0  0.18910664528E+02  0.45367257705E+02  0.99800836833E+03  0.10032203735E+04  0.89524372577E+02 0.  0.
        -13    1    5    5    0    0  0.26016455332E+02  0.46970785843E+02  0.99283467171E+03  0.99428557066E+03  0.00000000000E+00 0.  1.
         14    1    5    5    0    0 -0.71057908037E+01 -0.16035281384E+01  0.51736966166E+01  0.89348028584E+01  0.00000000000E+00 0. -1.
         11    1    3    3    0    0  0.34005391698E+02 -0.34608269603E+02 -0.38907401025E+03  0.39208759791E+03  0.00000000000E+00 0. -1.
        -12    1    3    3    0    0 -0.15475772752E+02  0.26669166715E+02 -0.41510337041E+03  0.41624698452E+03  0.00000000000E+00 0.  1.
          5    1    4    4  501    0  0.20796764524E+02  0.10408238484E+02  0.64009662648E+02  0.68231562750E+02  0.41800000000E+01 0. -1.
         -5    1    4    4    0  501 -0.58237047998E+02 -0.47836393301E+02 -0.13514971785E+02  0.76681165523E+02  0.41800000000E+01 0. -1.
</event>
<event>
11    1  0.5813833E-009  0.1403047E+03  0.7561462E-02  0.1107219E+00
         22   -1    0    0    0    0  0.00000000000E+00  0.00000000000E+00  0.77169600959E+02  0.77169600959E+02  0.00000000000E+00 0. -1.
         22   -1    0    0    0    0 -0.00000000000E+00 -0.00000000000E+00 -0.19552064134E+04  0.19552064134E+04  0.00000000000E+00 0.  1.
        -24    2    1    2    0    0  0.62679780580E+02  0.13332432014E+02 -0.16461458230E+04  0.16493628512E+04  0.80593024638E+02 0.  0.
         25    2    1    2    0    0 -0.59005874309E+02  0.35338556569E+00 -0.26022311978E+03  0.29469608665E+03  0.12509153983E+03 0.  0.
         24    2    1    2    0    0 -0.36739062706E+01 -0.13685817580E+02  0.28332130319E+02  0.88317076552E+02  0.82440264508E+02 0.  0.
        -11    1    5    5    0    0  0.19636773171E+02  0.68913003943E+01 -0.21281222929E+02  0.29765472128E+02  0.00000000000E+00 0.  1.
         12    1    5    5    0    0 -0.23310679441E+02 -0.20577117974E+02  0.49613353247E+02  0.58551604423E+02  0.00000000000E+00 0. -1.
         13    1    3    3    0    0 -0.12234194603E+02 -0.51386453354E+01 -0.65268386222E+02  0.66603629281E+02  0.00000000000E+00 0. -1.
        -14    1    3    3    0    0  0.74913975183E+02  0.18471077349E+02 -0.15808774368E+04  0.15827592219E+04  0.00000000000E+00 0.  1.
          5    1    4    4  501    0  0.23589531585E+02 -0.32973378876E+02 -0.39997039276E+02  0.57104686899E+02  0.41800000000E+01 0. -1.
         -5    1    4    4    0  501 -0.82595405895E+02  0.33326764442E+02 -0.22022608051E+03  0.23759139976E+03  0.41800000000E+01 0. -1.
</event>
<event>
11    1  0.5813833E-009  0.1279647E+03  0.7561462E-02  0.1121795E+00
         22   -1    0    0    0    0  0.00000000000E+00  0.00000000000E+00  0.38750615116E+03  0.38750615116E+03  0.00000000000E+00 0.  1.
         22   -1    0    0    0    0 -0.00000000000E+00 -0.00000000000E+00 -0.16578842128E+03  0.16578842128E+03  0.00000000000E+00 0.  1.
        -24    2    1    2    0    0 -0.57408250525E+02  0.92110324911E+01 -0.66468358058E+02  0.12218764610E+03  0.84446597854E+02 0.  0.
         25    2    1    2    0    0  0.32623601682E+02 -0.29742577111E+02  0.13231531681E+02  0.13330850770E+03  0.12508862664E+03 0.  0.
         24    2    1    2    0    0  0.24784648842E+02  0.20531544620E+02  0.27495455626E+03  0.29779841864E+03  0.10976368705E+03 0.  0.
        -13    1    5    5    0    0  0.10738048963E+02  0.70787291543E+00  0.27322964439E+03  0.27344148433E+03  0.00000000000E+00 0.  1.
         14    1    5    5    0    0  0.14046599880E+02  0.19823671705E+02  0.17249118700E+01  0.24356934310E+02  0.00000000000E+00 0. -1.
         13    1    3    3    0    0 -0.34861780071E+01 -0.32810801947E+02 -0.13265841483E+02  0.35562405877E+02  0.00000000000E+00 0. -1.
        -14    1    3    3    0    0 -0.53922072518E+02  0.42021834438E+02 -0.53202516574E+02  0.86625240224E+02  0.00000000000E+00 0.  1.
          5    1    4    4  501    0 -0.34212168210E+02  0.19500526472E+02 -0.19291561184E+02  0.44049741421E+02  0.41800000000E+01 0.  1.
         -5    1    4    4    0  501  0.66835769892E+02 -0.49243103583E+02  0.32523092864E+02  0.89258766276E+02  0.41800000000E+01 0.  1.
</event>
<event>
11    1  0.5813833E-009  0.2021381E+03  0.7561462E-02  0.1053022E+00
         22   -1    0    0    0    0  0.00000000000E+00  0.00000000000E+00  0.14500596402E+04  0.14500596402E+04  0.00000000000E+00 0. -1.
         22   -1    0    0    0    0 -0.00000000000E+00 -0.00000000000E+00 -0.12911225763E+04  0.12911225763E+04  0.00000000000E+00 0. -1.
         24    2    1    2    0    0  0.13475973404E+03  0.83352388771E+02 -0.12467431919E+04  0.12593670151E+04  0.80801519996E+02 0.  0.
         25    2    1    2    0    0 -0.20248038234E+03 -0.15722732340E+02  0.38978517970E+03  0.45697429932E+03  0.12509002511E+03 0.  0.
        -24    2    1    2    0    0  0.67720648304E+02 -0.67629656431E+02  0.10158950761E+04  0.10248409020E+04  0.95374064639E+02 0.  0.
        -13    1    3    3    0    0  0.92590377784E+02  0.10124909739E+02 -0.62212164684E+03  0.62905551053E+03  0.00000000000E+00 0.  1.
         14    1    3    3    0    0  0.42169356253E+02  0.73227479032E+02 -0.62462154504E+03  0.63031150459E+03  0.00000000000E+00 0. -1.
         11    1    5    5    0    0  0.30861325242E+02 -0.84463628876E+02  0.81154388383E+03  0.81651087034E+03  0.00000000000E+00 0. -1.
        -12    1    5    5    0    0  0.36859323061E+02  0.16833972445E+02  0.20435119224E+03  0.20833003166E+03  0.00000000000E+00 0.  1.
          5    1    4    4  501    0 -0.33805601653E+02 -0.24376165582E+02  0.19355082373E+03  0.19803133570E+03  0.41800000000E+01 0.  1.
         -5    1    4    4    0  501 -0.16867478069E+03  0.86534332424E+01  0.19623435597E+03  0.25894296363E+03  0.41800000000E+01 0.  1.
</event>
<event>
11    1  0.5813833E-009  0.1561679E+03  0.7561462E-02  0.1090738E+00
         22   -1    0    0    0    0  0.00000000000E+00  0.00000000000E+00  0.19705561991E+04  0.19705561991E+04  0.00000000000E+00 0. -1.
         22   -1    0    0    0    0 -0.00000000000E+00 -0.00000000000E+00 -0.15300257119E+04  0.15300257119E+04  0.00000000000E+00 0.  1.
         24    2    1    2    0    0  0.10500798604E+02  0.78886292154E+01 -0.49952786693E+03  0.50604560819E+03  0.79884732481E+02 0.  0.
         25    2    1    2    0    0  0.47412833571E+02  0.65544667366E+02 -0.10199793368E+04  0.10307997763E+04  0.12508497525E+03 0.  0.
        -24    2    1    2    0    0 -0.57913632175E+02 -0.73433296582E+02  0.19600376909E+04  0.19637365266E+04  0.75940492768E+02 0.  0.
        -13    1    3    3    0    0  0.12181611512E+02  0.10522400860E+02 -0.50187795417E+03  0.50213603083E+03  0.00000000000E+00 0.  1.
         14    1    3    3    0    0 -0.16808129079E+01 -0.26337716448E+01  0.23500872355E+01  0.39095773586E+01  0.00000000000E+00 0. -1.
         13    1    5    5    0    0 -0.48108461009E+02 -0.53067974718E+01  0.59530968114E+03  0.59727397615E+03  0.00000000000E+00 0. -1.
        -14    1    5    5    0    0 -0.98051711661E+01 -0.68126499110E+02  0.13647280097E+04  0.13664625505E+04  0.00000000000E+00 0.  1.
          5    1    4    4  501    0  0.80133040886E+02  0.69143271432E+01 -0.49133079114E+03  0.49788807063E+03  0.41800000000E+01 0.  1.
         -5    1    4    4    0  501 -0.32720207315E+02  0.58630340223E+02 -0.52864854566E+03  0.53291170562E+03  0.41800000000E+01 0.  1.
</event>
<event>
11    1  0.6975531E-009  0.1667157E+03  0.7561462E-02  0.1080926E+00
         22   -1    0    0    0    0  0.00000000000E+00  0.00000000000E+00  0.93456340049E+03  0.93456340049E+03  0.00000000000E+00 0.  1.
         22   -1    0    0    0    0 -0.00000000000E+00 -0.00000000000E+00 -0.17353699862E+04  0.17353699862E+04  0.00000000000E+00 0. -1.
         24    2    1    2    0    0 -0.14206105007E+02 -0.44409655688E+02 -0.14380298145E+04  0.14409701853E+04  0.79317693925E+02 0.  0.
         25    2    1    2    0    0  0.82142270037E+02 -0.42962494743E+02 -0.26977821034E+03  0.31148176364E+03  0.12508987900E+03 0.  0.
        -24    2    1    2    0    0 -0.67936165029E+02  0.87372150431E+02  0.90700143915E+03  0.91748143774E+03  0.82893683599E+02 0.  0.
        -13    1    3    3    0    0  0.25085478916E+02 -0.93533852081E+01 -0.19544659238E+03  0.19727173528E+03  0.00000000000E+00 0.  1.
         14    1    3    3    0    0 -0.39291583923E+02 -0.35056270480E+02 -0.12425832222E+04  0.12436984501E+04  0.00000000000E+00 0. -1.
         13    1    5    5    0    0 -0.80826332876E+02  0.47682760245E+02  0.53745293083E+03  0.54558426898E+03  0.00000000000E+00 0. -1.
        -14    1    5    5    0    0  0.12890167847E+02  0.39689390186E+02  0.36954850833E+03  0.37189716875E+03  0.00000000000E+00 0.  1.
          5    1    4    4  501    0  0.86764097222E+01 -0.20104985852E+02 -0.21687008428E+03  0.21801283540E+03  0.41800000000E+01 0.  1.
         -5    1    4    4    0  501  0.73465860314E+02 -0.22857508891E+02 -0.52908126058E+02  0.93468928246E+02  0.41800000000E+01 0.  1.
</event>
<event>
11    1  0.5813833E-009  0.2533182E+03  0.7561462E-02  0.1022146E+00
         22   -1    0    0    0    0  0.00000000000E+00  0.00000000000E+00  0.36028463342E+03  0.36028463342E+03  0.00000000000E+00 0. -1.
         22   -1    0    0    0    0 -0.00000000000E+00 -0.00000000000E+00 -0.26935397611E+04  0.26935397611E+04  0.00000000000E+00 0. -1.
        -24    2    1    2    0    0 -0.31990805788E+02  0.20648732944E+03 -0.19450846159E+04  0.19578764119E+04  0.79154609326E+02 0.  0.
         25    2    1    2    0    0 -0.42113681826E+02 -0.28894183853E+03 -0.69263483125E+03  0.76200555539E+03  0.12509399962E+03 0.  0.
         24    2    1    2    0    0  0.74104487615E+02  0.82454509088E+02  0.30446431954E+03  0.33394242722E+03  0.80801000427E+02 0.  0.
        -11    1    5    5    0    0  0.24284814273E+02 -0.13880442093E+02  0.49236010937E+02  0.56626880984E+02  0.00000000000E+00 0.  1.
         12    1    5    5    0    0  0.49819673342E+02  0.96334951181E+02  0.25522830860E+03  0.27731554623E+03  0.00000000000E+00 0. -1.
         13    1    3    3    0    0 -0.51703884270E+02  0.81573654923E+02 -0.90089876261E+03  0.90606077793E+03  0.00000000000E+00 0. -1.
        -14    1    3    3    0    0  0.19713078482E+02  0.12491367452E+03 -0.10441858533E+04  0.10518156339E+04  0.00000000000E+00 0.  1.
          5    1    4    4  501    0 -0.52225985525E+02 -0.29792999102E+03 -0.67235673366E+03  0.73727259736E+03  0.41800000000E+01 0.  1.
         -5    1    4    4    0  501  0.10112303699E+02  0.89881524940E+01 -0.20278097582E+02  0.24732958029E+02  0.41800000000E+01 0.  1.
</event>
<event>
11    1  0.5813833E-009  0.1474721E+03  0.7561462E-02  0.1099490E+00
         22   -1    0    0    0    0  0.00000000000E+00  0.00000000000E+00  0.43220201093E+03  0.43220201093E+03  0.00000000000E+00 0. -1.
         22   -1    0    0    0    0 -0.00000000000E+00 -0.00000000000E+00 -0.35422593800E+03  0.35422593800E+03  0.00000000000E+00 0.  1.
         24    2    1    2    0    0  0.50219726548E+01  0.76404523405E+02 -0.28675504691E+03  0.30724357596E+03  0.79418427566E+02 0.  0.
         25    2    1    2    0    0 -0.26522601612E+02 -0.94808493275E+02  0.72904269929E+02  0.17509008444E+03  0.12509758712E+03 0.  0.
        -24    2    1    2    0    0  0.21500628957E+02  0.18403969870E+02  0.29182684990E+03  0.30409428853E+03  0.80681118228E+02 0.  0.
        -13    1    3    3    0    0 -0.34776799374E+02  0.40920560772E+02 -0.10658822937E+03  0.11935228824E+03  0.00000000000E+00 0.  1.
         14    1    3    3    0    0  0.39798772029E+02  0.35483962633E+02 -0.18016681754E+03  0.18789128772E+03  0.00000000000E+00 0. -1.
         11    1    5    5    0    0  0.38559070473E+02  0.28249577091E+02  0.27192441222E+03  0.27609369150E+03  0.00000000000E+00 0. -1.
        -12    1    5    5    0    0 -0.17058441516E+02 -0.98456072206E+01  0.19902437680E+02  0.28000597031E+02  0.00000000000E+00 0.  1.
          5    1    4    4  501    0  0.45451451464E+02 -0.39299880256E+02  0.29231314760E+01  0.60302007644E+02  0.41800000000E+01 0. -1.
         -5    1    4    4    0  501 -0.71974053076E+02 -0.55508613019E+02  0.69981138453E+02  0.11478807680E+03  0.41800000000E+01 0. -1.
</event>
<event>
11    1  0.5813833E-009  0.1258135E+03  0.7561462E-02  0.1124523E+00
         22   -1    0    0    0    0  0.00000000000E+00  0.00000000000E+00  0.32338822344E+03  0.32338822344E+03  0.00000000000E+00 0. -1.
         22   -1    0    0    0    0 -0.00000000000E+00 -0.00000000000E+00 -0.16196162713E+04  0.16196162713E+04  0.00000000000E+00 0. -1.
         24    2    1    2    0    0 -0.21110082304E+02  0.14706410380E+02 -0.15531053164E+04  0.15547806033E+04  0.67414290105E+02 0.  0.
         25    2    1    2    0    0  0.54161073512E+01 -0.12362677664E+02  0.87514793899E+01  0.12612040058E+03  0.12509035547E+03 0.  0.
        -24    2    1    2    0    0  0.15693974953E+02 -0.23437327161E+01  0.24812578917E+03  0.26210349084E+03  0.82945998846E+02 0.  0.
        -11    1    3    3    0    0 -0.28520094530E+02  0.28324324841E+02 -0.51730379153E+03  0.51886306084E+03  0.00000000000E+00 0.  1.
         12    1    3    3    0    0  0.74100122257E+01 -0.13617914461E+02 -0.10358015249E+04  0.10359175425E+04  0.00000000000E+00 0. -1.
         11    1    5    5    0    0  0.29116177407E+02 -0.35893311181E+02  0.16732652537E+03  0.17359218780E+03  0.00000000000E+00 0. -1.
        -12    1    5    5    0    0 -0.13422202454E+02  0.33549578464E+02  0.80799263806E+02  0.88511303038E+02  0.00000000000E+00 0.  1.
          5    1    4    4  501    0 -0.17579334797E+02  0.26956236375E+02 -0.45038087793E+02  0.55511921633E+02  0.41800000000E+01 0. -1.
         -5    1    4    4    0  501  0.22995442148E+02 -0.39318914039E+02  0.53789567183E+02  0.70608478942E+02  0.41800000000E+01 0. -1.
</event>
<event>
11    1  0.5813833E-009  0.1284585E+03  0.7561462E-02  0.1121178E+00
         22   -1    0    0    0    0  0.00000000000E+00  0.00000000000E+00  0.21698725271E+04  0.21698725271E+04  0.00000000000E+00 0.  1.
         22   -1    0    0    0    0 -0.00000000000E+00 -0.00000000000E+00 -0.59742524607E+02  0.59742524607E+02  0.00000000000E+00 0.  1.
        -24    2    1    2    0    0 -0.24946365724E+02  0.10608480854E+02 -0.86851886930E+01  0.85522681066E+02  0.80646360396E+02 0.  0.
         25    2    1    2    0    0  0.43492179814E+02 -0.28436551453E+02  0.38224065386E+03  0.40552900570E+03  0.12508257206E+03 0.  0.
         24    2    1    2    0    0 -0.18545814089E+02  0.17828070599E+02  0.17365745373E+04  0.17385633649E+04  0.79054809606E+02 0.  0.
        -11    1    5    5    0    0 -0.11186925908E+02 -0.30980432434E+02  0.57790770962E+03  0.57884562307E+03  0.00000000000E+00 0.  1.
         12    1    5    5    0    0 -0.73588881814E+01  0.48808503033E+02  0.11586668277E+04  0.11597177419E+04  0.00000000000E+00 0. -1.
         13    1    3    3    0    0 -0.36053594486E+02 -0.33535146214E+01  0.27306661917E+02  0.45351532728E+02  0.00000000000E+00 0. -1.
        -14    1    3    3    0    0  0.11107228762E+02  0.13961995475E+02 -0.35991850611E+02  0.40171148338E+02  0.00000000000E+00 0.  1.
          5    1    4    4  501    0  0.53625497086E+02 -0.63588822594E+02  0.16122256463E+03  0.18146465232E+03  0.41800000000E+01 0. -1.
         -5    1    4    4    0  501 -0.10133317272E+02  0.35152271141E+02  0.22101808923E+03  0.22406435337E+03  0.41800000000E+01 0. -1.
</event>
<event>
11    1  0.5813833E-009  0.2462931E+03  0.7561462E-02  0.1025893E+00
         22   -1    0    0    0    0  0.00000000000E+00  0.00000000000E+00  0.12218521968E+04  0.12218521968E+04  0.00000000000E+00 0. -1.
         22   -1    0    0    0    0 -0.00000000000E+00 -0.00000000000E+00 -0.17973471543E+03  0.17973471543E+03  0.00000000000E+00 0.  1.
        -24    2    1    2    0    0 -0.20272295405E+03  0.13329925655E+03 -0.23794233959E+02  0.25699673774E+03  0.81337996922E+02 0.  0.
         25    2    1    2    0    0  0.14311455128E+03  0.54714580775E+02  0.41792211083E+03  0.46236598272E+03  0.12509177081E+03 0.  0.
         24    2    1    2    0    0  0.59608402773E+02 -0.18801383732E+03  0.64798960453E+03  0.68222419178E+03  0.81467512377E+02 0.  0.
        -11    1    5    5    0    0  0.15043088902E+02 -0.71656915114E+02  0.37586771319E+03  0.38293282156E+03  0.00000000000E+00 0.  1.
         12    1    5    5    0    0  0.44565313872E+02 -0.11635692221E+03  0.27212189133E+03  0.29929137022E+03  0.00000000000E+00 0. -1.
         11    1    3    3    0    0 -0.23604717766E+02 -0.86019993089E+01  0.78030567331E+01  0.26307124269E+02  0.00000000000E+00 0. -1.
        -12    1    3    3    0    0 -0.17911823629E+03  0.14190125586E+03 -0.31597290692E+02  0.23068961347E+03  0.00000000000E+00 0.  1.
          5    1    4    4  501    0  0.12061858194E+03  0.18002730587E+02  0.16201379295E+03  0.20282722234E+03  0.41800000000E+01 0.  1.
         -5    1    4    4    0  501  0.22495969343E+02  0.36711850188E+02  0.25590831788E+03  0.25953876038E+03  0.41800000000E+01 0.  1.
</event>
<event>
11    1  0.5813833E-009  0.1468016E+03  0.7561462E-02  0.1100192E+00
         22   -1    0    0    0    0  0.00000000000E+00  0.00000000000E+00  0.65157646582E+03  0.65157646582E+03  0.00000000000E+00 0. -1.
         22   -1    0    0    0    0 -0.00000000000E+00 -0.00000000000E+00 -0.64893361704E+03  0.64893361704E+03  0.00000000000E+00 0.  1.
         24    2    1    2    0    0  0.73673197349E+02 -0.24655292413E+02 -0.61570455708E+03  0.62541731914E+03  0.77582846156E+02 0.  0.
         25    2    1    2    0    0 -0.32999484866E+02  0.38005733344E+02  0.16615649425E+03  0.21398189303E+03  0.12508744220E+03 0.  0.
        -24    2    1    2    0    0 -0.40673712483E+02 -0.13350440932E+02  0.45219091161E+03  0.46111087068E+03  0.79460866790E+02 0.  0.
        -13    1    3    3    0    0  0.86505704589E+02 -0.23634708512E+02 -0.42916295859E+03  0.43843207159E+03  0.00000000000E+00 0.  1.
         14    1    3    3    0    0 -0.12832507240E+02 -0.10205839011E+01 -0.18654159849E+03  0.18698524755E+03  0.00000000000E+00 0. -1.
         13    1    5    5    0    0 -0.26466749913E+02  0.28685730040E+02  0.12574329547E+03  0.13166144582E+03  0.00000000000E+00 0. -1.
        -14    1    5    5    0    0 -0.14206962570E+02 -0.42036170972E+02  0.32644761614E+03  0.32944942486E+03  0.00000000000E+00 0.  1.
          5    1    4    4  501    0 -0.42235824394E+02 -0.97748985525E+01  0.29836865945E+01  0.43655335180E+02  0.41800000000E+01 0.  1.
         -5    1    4    4    0  501  0.92363395281E+01  0.47780631897E+02  0.16317280766E+03  0.17032655785E+03  0.41800000000E+01 0.  1.
</event>
<event>
11    1  0.5813833E-009  0.1410518E+03  0.7561462E-02  0.1106390E+00
         22   -1    0    0    0    0  0.00000000000E+00  0.00000000000E+00  0.21245207270E+03  0.21245207270E+03  0.00000000000E+00 0. -1.
         22   -1    0    0    0    0 -0.00000000000E+00 -0.00000000000E+00 -0.26280286378E+03  0.26280286378E+03  0.00000000000E+00 0. -1.
         24    2    1    2    0    0 -0.35307434555E+01  0.39579578864E+02 -0.14119432962E+03  0.16699720323E+03  0.79832436754E+02 0.  0.
         25    2    1    2    0    0  0.48203598232E+02 -0.79547899012E+02 -0.21937352098E+02  0.15740893745E+03  0.12507945896E+03 0.  0.
        -24    2    1    2    0    0 -0.44672854776E+02  0.39968320148E+02  0.11278089064E+03  0.15084879580E+03  0.80266427185E+02 0.  0.
        -13    1    3    3    0    0  0.23852192389E+02  0.45179497029E+02 -0.49494183469E+02  0.71132188430E+02  0.00000000000E+00 0.  1.
         14    1    3    3    0    0 -0.27382935845E+02 -0.55999181652E+01 -0.91700146148E+02  0.95865014800E+02  0.00000000000E+00 0. -1.
         11    1    5    5    0    0 -0.32440188408E+02  0.10261305299E+01  0.10420069560E+03  0.10913846128E+03  0.00000000000E+00 0. -1.
        -12    1    5    5    0    0 -0.12232666369E+02  0.38942189618E+02  0.85801950347E+01  0.41710334518E+02  0.00000000000E+00 0.  1.
          5    1    4    4  501    0  0.84728558962E+01 -0.95749416353E+02  0.18870581128E+02  0.98047494875E+02  0.41800000000E+01 0.  1.
         -5    1    4    4    0  501  0.39730742336E+02  0.16201517342E+02 -0.40807933227E+02  0.59361442578E+02  0.41800000000E+01 0.  1.
</event>
<event>
11    1  0.5813833E-009  0.1349397E+03  0.7561462E-02  0.1113344E+00
         22   -1    0    0    0    0  0.00000000000E+00  0.00000000000E+00  0.42335161261E+03  0.42335161261E+03  0.00000000000E+00 0.  1.
         22   -1    0    0    0    0 -0.00000000000E+00 -0.00000000000E+00 -0.40103897259E+03  0.40103897259E+03  0.00000000000E+00 0.  1.
        -24    2    1    2    0    0  0.43473635018E+02 -0.23980522101E+02 -0.35707113126E+03  0.36951175669E+03  0.81080966764E+02 0.  0.
         25    2    1    2    0    0 -0.71892841906E+02  0.32372602302E+02  0.15220246641E+03  0.21220283690E+03  0.12509151494E+03 0.  0.
         24    2    1    2    0    0  0.28419206888E+02 -0.83920802005E+01  0.22718130486E+03  0.24267599161E+03  0.80013831894E+02 0.  0.
        -13    1    5    5    0    0  0.49758803584E+01  0.13455097005E+02  0.20040120883E+03  0.20091402022E+03  0.00000000000E+00 0.  1.
         14    1    5    5    0    0  0.23443326530E+02 -0.21847177205E+02  0.26780096027E+02  0.41761971384E+02  0.00000000000E+00 0. -1.
         11    1    3    3    0    0 -0.18899014176E+02  0.78939066349E+01 -0.41734694973E+02  0.46489474758E+02  0.00000000000E+00 0. -1.
        -12    1    3    3    0    0  0.62372649194E+02 -0.31874428736E+02 -0.31533643629E+03  0.32302228193E+03  0.00000000000E+00 0.  1.
          5    1    4    4  501    0 -0.88680415950E+02  0.32347330403E+02  0.16537064340E+03  0.19046125080E+03  0.41800000000E+01 0.  1.
         -5    1    4    4    0  501  0.16787574044E+02  0.25271898444E-01 -0.13168176989E+02  0.21741586100E+02  0.41800000000E+01 0.  1.
</event>
<event>
11    1  0.5813833E-009  0.1354815E+03  0.7561462E-02  0.1112712E+00
         22   -1    0    0    0    0  0.00000000000E+00  0.00000000000E+00  0.48204565836E+02  0.48204565836E+02  0.00000000000E+00 0.  1.
         22   -1    0    0    0    0 -0.00000000000E+00 -0.00000000000E+00 -0.25432041576E+04  0.25432041576E+04  0.00000000000E+00 0.  1.
        -24    2    1    2    0    0  0.30331006885E+02 -0.16421607713E+01 -0.19221316679E+04  0.19238907959E+04  0.76439380826E+02 0.  0.
         25    2    1    2    0    0 -0.11776424922E+02  0.51104202692E+02 -0.55290060062E+03  0.56929541849E+03  0.12509146904E+03 0.  0.
         24    2    1    2    0    0 -0.18554581963E+02 -0.49462041921E+02 -0.19967323257E+02  0.98222509114E+02  0.80362934216E+02 0.  0.
        -11    1    5    5    0    0 -0.26148226902E+02 -0.62034407697E+02 -0.36113824993E+02  0.76395064395E+02  0.00000000000E+00 0.  1.
         12    1    5    5    0    0  0.75936449385E+01  0.12572365776E+02  0.16146501735E+02  0.21827444719E+02  0.00000000000E+00 0. -1.
         11    1    3    3    0    0  0.12789888883E+02  0.34583454999E+02 -0.58990195410E+03  0.59105322271E+03  0.00000000000E+00 0. -1.
        -12    1    3    3    0    0  0.17541118003E+02 -0.36225615771E+02 -0.13322297138E+04  0.13328375732E+04  0.00000000000E+00 0.  1.
          5    1    4    4  501    0  0.52069118646E+02  0.37143173908E+02 -0.35784316303E+03  0.36353818260E+03  0.41800000000E+01 0.  1.
         -5    1    4    4    0  501 -0.63845543568E+02  0.13961028784E+02 -0.19505743759E+03  0.20575723588E+03  0.41800000000E+01 0.  1.
</event>
<event>
11    1  0.5813833E-009  0.1851618E+03  0.7561462E-02  0.1065542E+00
         22   -1    0    0    0    0  0.00000000000E+00  0.00000000000E+00  0.20655954164E+04  0.20655954164E+04  0.00000000000E+00 0.  1.
         22   -1    0    0    0    0 -0.00000000000E+00 -0.00000000000E+00 -0.14028751625E+03  0.14028751625E+03  0.00000000000E+00 0. -1.
        -24    2    1    2    0    0  0.84682459844E+02 -0.82535135062E+02 -0.71849802615E+02  0.15992191441E+03  0.80183895198E+02 0.  0.
         25    2    1    2    0    0 -0.15599437507E+02  0.19400215749E+03  0.63262149303E+03  0.67360630807E+03  0.12512124223E+03 0.  0.
         24    2    1    2    0    0 -0.69083022338E+02 -0.11146702243E+03  0.13645362097E+04  0.13723547101E+04  0.64815289698E+02 0.  0.
        -13    1    5    5    0    0 -0.17719933873E+02 -0.59358874703E+02  0.89611371967E+03  0.89825234241E+03  0.00000000000E+00 0.  1.
         14    1    5    5    0    0 -0.51363088464E+02 -0.52108147729E+02  0.46842249004E+03  0.47410236773E+03  0.00000000000E+00 0. -1.
         11    1    3    3    0    0  0.40081616927E+02 -0.81550489704E+02 -0.22933204304E+02  0.93717395643E+02  0.00000000000E+00 0. -1.
        -12    1    3    3    0    0  0.44600842917E+02 -0.98464535767E+00 -0.48916598311E+02  0.66204518771E+02  0.00000000000E+00 0.  1.
          5    1    4    4  501    0 -0.58783083764E+02  0.17061174759E+03  0.52688052365E+03  0.55694198797E+03  0.41800000000E+01 0. -1.
         -5    1    4    4    0  501  0.43183646258E+02  0.23390409901E+02  0.10574096938E+03  0.11666432010E+03  0.41800000000E+01 0. -1.
</event>
<event>
11    1  0.5813833E-009  0.1358657E+03  0.7561462E-02  0.1112265E+00
         22   -1    0    0    0    0  0.00000000000E+00  0.00000000000E+00  0.29426775698E+04  0.29426775698E+04  0.00000000000E+00 0. -1.
         22   -1    0    0    0    0 -0.00000000000E+00 -0.00000000000E+00 -0.88740663610E+02  0.88740663610E+02  0.00000000000E+00 0. -1.
        -24    2    1    2    0    0  0.51008192191E+02 -0.91095092286E+01 -0.45813936965E+02  0.10547754840E+03  0.79635278407E+02 0.  0.
         25    2    1    2    0    0 -0.68165867441E+02  0.15005329376E+02  0.40143825937E+03  0.42623078821E+03  0.12509301873E+03 0.  0.
         24    2    1    2    0    0  0.17157675250E+02 -0.58958201470E+01  0.24983125838E+04  0.24997098968E+04  0.81576071155E+02 0.  0.
        -13    1    5    5    0    0  0.28473254106E+02  0.29303331276E+02  0.84861523500E+03  0.84959827478E+03  0.00000000000E+00 0.  1.
         14    1    5    5    0    0 -0.11315578856E+02 -0.35199151423E+02  0.16496973488E+04  0.16501116220E+04  0.00000000000E+00 0. -1.
         11    1    3    3    0    0  0.46014122477E+00  0.29135845782E+02 -0.26038112119E+02  0.39078031196E+02  0.00000000000E+00 0. -1.
        -12    1    3    3    0    0  0.50548050966E+02 -0.38245355011E+02 -0.19775824846E+02  0.66399517202E+02  0.00000000000E+00 0.  1.
          5    1    4    4  501    0  0.72077910809E+01  0.31625930372E+02  0.23009318073E+02  0.39988158777E+02  0.41800000000E+01 0. -1.
         -5    1    4    4    0  501 -0.75373658522E+02 -0.16620600997E+02  0.37842894130E+03  0.38624262943E+03  0.41800000000E+01 0. -1.
</event>
<event>
11    1  0.5813833E-009  0.1366169E+03  0.7561462E-02  0.1111396E+00
         22   -1    0    0    0    0  0.00000000000E+00  0.00000000000E+00  0.43698317621E+02  0.43698317621E+02  0.00000000000E+00 0. -1.
         22   -1    0    0    0    0 -0.00000000000E+00 -0.00000000000E+00 -0.26092658796E+04  0.26092658796E+04  0.00000000000E+00 0.  1.
        -24    2    1    2    0    0  0.63198470467E+01  0.57390398954E+00 -0.18296795800E+04  0.18314467776E+04  0.80185185036E+02 0.  0.
         25    2    1    2    0    0  0.42045420927E+02  0.26178868772E+02 -0.71878563990E+03  0.73127235874E+03  0.12511321251E+03 0.  0.
         24    2    1    2    0    0 -0.48365267974E+02 -0.26752772761E+02 -0.17102342123E+02  0.90245060916E+02  0.69258724483E+02 0.  0.
        -13    1    5    5    0    0  0.44305432783E+01  0.63554917452E+01 -0.26150006633E+02  0.27273518951E+02  0.00000000000E+00 0.  1.
         14    1    5    5    0    0 -0.52795811252E+02 -0.33108264506E+02  0.90476645097E+01  0.62971541965E+02  0.00000000000E+00 0. -1.
         13    1    3    3    0    0  0.50559105754E+01 -0.24511399825E+02 -0.19820430736E+03  0.19977817301E+03  0.00000000000E+00 0. -1.
        -14    1    3    3    0    0  0.12639364713E+01  0.25085303815E+02 -0.16314752726E+04  0.16316686046E+04  0.00000000000E+00 0.  1.
          5    1    4    4  501    0  0.38548071310E+02 -0.13252685581E+02 -0.68865814634E+02  0.80134638591E+02  0.41800000000E+01 0. -1.
         -5    1    4    4    0  501  0.34973496169E+01  0.39431554353E+02 -0.64991982527E+03  0.65113772015E+03  0.41800000000E+01 0. -1.
</event>
<event>
11    1  0.6284566E-009  0.1636846E+03  0.7561462E-02  0.1083662E+00
         22   -1    0    0    0    0  0.00000000000E+00  0.00000000000E+00  0.54975108387E+03  0.54975108387E+03  0.00000000000E+00 0.  1.
         22   -1    0    0    0    0 -0.00000000000E+00 -0.00000000000E+00 -0.65108343392E+03  0.65108343392E+03  0.00000000000E+00 0.  1.
        -24    2    1    2    0    0 -0.90099215603E+02  0.30093957001E+02 -0.42119241950E+03  0.44010806843E+03  0.85255749126E+02 0.  0.
         25    2    1    2    0    0  0.10834185523E+03 -0.13218491223E+03 -0.15867280953E+03  0.26464197227E+03  0.12508998516E+03 0.  0.
         24    2    1    2    0    0 -0.18242639622E+02  0.10209095523E+03  0.47853287898E+03  0.49608447709E+03  0.79691499601E+02 0.  0.
        -13    1    5    5    0    0  0.15121091020E+02  0.28980076210E+02  0.28002381989E+03  0.28192522398E+03  0.00000000000E+00 0.  1.
         14    1    5    5    0    0 -0.33363730642E+02  0.73110879016E+02  0.19850905909E+03  0.21415925311E+03  0.00000000000E+00 0. -1.
         11    1    3    3    0    0 -0.41557950844E+02 -0.28421067428E+02 -0.19892046524E+03  0.20519301120E+03  0.00000000000E+00 0. -1.
        -12    1    3    3    0    0 -0.48541264760E+02  0.58515024429E+02 -0.22227195425E+03  0.23491505724E+03  0.00000000000E+00 0.  1.
          5    1    4    4  501    0  0.11905247015E+03 -0.83541290502E+02 -0.66905878742E+02  0.16014526805E+03  0.41800000000E+01 0. -1.
         -5    1    4    4    0  501 -0.10710614927E+02 -0.48643621724E+02 -0.91766930790E+02  0.10449670422E+03  0.41800000000E+01 0. -1.
</event>
<event>
11    1  0.5813833E-009  0.2240205E+03  0.7561462E-02  0.1038728E+00
         22   -1    0    0    0    0  0.00000000000E+00  0.00000000000E+00  0.13794244472E+04  0.13794244472E+04  0.00000000000E+00 0. -1.
         22   -1    0    0    0    0 -0.00000000000E+00 -0.00000000000E+00 -0.66599282898E+03  0.66599282898E+03  0.00000000000E+00 0. -1.
         24    2    1    2    0    0 -0.23636304662E+01 -0.18549709136E+03 -0.61770188624E+03  0.64986849972E+03  0.79741388362E+02 0.  0.
         25    2    1    2    0    0  0.33102220163E+01  0.19494409679E+03  0.41218688592E+03  0.47282070342E+03  0.12508888928E+03 0.  0.
        -24    2    1    2    0    0 -0.94659155010E+00 -0.94470054244E+01  0.91894661850E+03  0.92272807300E+03  0.82909993991E+02 0.  0.
        -11    1    3    3    0    0  0.33244085811E+02 -0.72363574418E+02 -0.18969996959E+03  0.20573705210E+03  0.00000000000E+00 0.  1.
         12    1    3    3    0    0 -0.35607716277E+02 -0.11313351694E+03 -0.42800191665E+03  0.44413144762E+03  0.00000000000E+00 0. -1.
         11    1    5    5    0    0 -0.12563371293E+02  0.28046467627E+02  0.67013934737E+03  0.67084363866E+03  0.00000000000E+00 0. -1.
        -12    1    5    5    0    0  0.11616779742E+02 -0.37493473052E+02  0.24880727113E+03  0.25188443434E+03  0.00000000000E+00 0.  1.
          5    1    4    4  501    0  0.45992523105E+02  0.12093004668E+03  0.32878447842E+03  0.35334981820E+03  0.41800000000E+01 0. -1.
         -5    1    4    4    0  501 -0.42682301088E+02  0.74014050109E+02  0.83402407495E+02  0.11947088522E+03  0.41800000000E+01 0. -1.
</event>
<event>
11    1  0.5813833E-009  0.1557751E+03  0.7561462E-02  0.1091120E+00
         22   -1    0    0    0    0  0.00000000000E+00  0.00000000000E+00  0.13514141274E+04  0.13514141274E+04  0.00000000000E+00 0. -1.
         22   -1    0    0    0    0 -0.00000000000E+00 -0.00000000000E+00 -0.10185808773E+04  0.10185808773E+04  0.00000000000E+00 0. -1.
         24    2    1    2    0    0  0.20754688778E+02 -0.13873610844E+02 -0.78186623963E+03  0.78638893598E+03  0.80433250499E+02 0.  0.
         25    2    1    2    0    0 -0.10173645181E+03  0.58647499879E+02 -0.19981709716E+03  0.26336966606E+03  0.12508746466E+03 0.  0.
        -24    2    1    2    0    0  0.80981763032E+02 -0.44773889035E+02  0.13145165869E+04  0.13202364027E+04  0.80669415921E+02 0.  0.
        -13    1    3    3    0    0 -0.13574611425E+02 -0.38858870348E+02 -0.43171349283E+03  0.43367132920E+03  0.00000000000E+00 0.  1.
         14    1    3    3    0    0  0.34329300203E+02  0.24985259504E+02 -0.35015274679E+03  0.35271760678E+03  0.00000000000E+00 0. -1.
         13    1    5    5    0    0  0.77854098601E+02 -0.53618131720E+01  0.67441786302E+03  0.67891786224E+03  0.00000000000E+00 0. -1.
        -14    1    5    5    0    0  0.31276644310E+01 -0.39412075863E+02  0.64009872389E+03  0.64131854046E+03  0.00000000000E+00 0.  1.
          5    1    4    4  501    0 -0.18312225130E+02 -0.21550883904E+02  0.40880161577E+01  0.28878408238E+02  0.41800000000E+01 0.  1.
         -5    1    4    4    0  501 -0.83424226680E+02  0.80198383783E+02 -0.20390511331E+03  0.23449125782E+03  0.41800000000E+01 0.  1.
</event>
<event>
11    1  0.5813833E-009  0.1313315E+03  0.7561462E-02  0.1117644E+00
         22   -1    0    0    0    0  0.00000000000E+00  0.00000000000E+00  0.13114972010E+03  0.13114972010E+03  0.00000000000E+00 0.  1.
         22   -1    0    0    0    0 -0.00000000000E+00 -0.00000000000E+00 -0.21490167185E+04  0.21490167185E+04  0.00000000000E+00 0.  1.
         24    2    1    2    0    0  0.22637199072E+02 -0.33073019066E+02 -0.19806249266E+04  0.19826694576E+04  0.80602794866E+02 0.  0.
         25    2    1    2    0    0 -0.13529841216E+02  0.36809836840E+02 -0.12354974252E+03  0.18013858260E+03  0.12508936555E+03 0.  0.
        -24    2    1    2    0    0 -0.91073578553E+01 -0.37368177743E+01  0.86307670749E+02  0.11735839843E+03  0.78911798097E+02 0.  0.
        -13    1    3    3    0    0  0.26266670701E+02 -0.58460345140E+02 -0.13411043061E+04  0.13426348385E+04  0.00000000000E+00 0.  1.
         14    1    3    3    0    0 -0.36294716291E+01  0.25387326074E+02 -0.63952062059E+03  0.64003461902E+03  0.00000000000E+00 0. -1.
         13    1    5    5    0    0  0.62152739051E+01  0.14790532878E+02 -0.94560316479E+01  0.18622728776E+02  0.00000000000E+00 0. -1.
        -14    1    5    5    0    0 -0.15322631760E+02 -0.18527350652E+02  0.95763702397E+02  0.98735669659E+02  0.00000000000E+00 0.  1.
          5    1    4    4  501    0 -0.51209265536E+02  0.31546399508E+02 -0.11035896564E+02  0.61292965433E+02  0.41800000000E+01 0.  1.
         -5    1    4    4    0  501  0.37679424319E+02  0.52634373318E+01 -0.11251384595E+03  0.11884561717E+03  0.41800000000E+01 0.  1.
</event>
<event>
11    1  0.5813833E-009  0.1518630E+03  0.7561462E-02  0.1094990E+00
         22   -1    0    0    0    0  0.00000000000E+00  0.00000000000E+00  0.15023527974E+04  0.15023527974E+04  0.00000000000E+00 0.  1.
         22   -1    0    0    0    0 -0.00000000000E+00 -0.00000000000E+00 -0.68367159142E+02  0.68367159142E+02  0.00000000000E+00 0. -1.
        -24    2    1    2    0    0  0.81955258693E+02 -0.22710819267E+02  0.82481980138E+01  0.11740218881E+03  0.80515808555E+02 0.  0.
         25    2    1    2    0    0 -0.76363461985E+02  0.83736859358E+02  0.67278550041E+03  0.69363579053E+03  0.12508813052E+03 0.  0.
         24    2    1    2    0    0 -0.55917967077E+01 -0.61026040091E+02  0.75295193981E+03  0.75968197719E+03  0.80153833552E+02 0.  0.
        -13    1    5    5    0    0  0.26542188305E+02 -0.54880366840E+02  0.60977330684E+03  0.61281304503E+03  0.00000000000E+00 0.  1.
         14    1    5    5    0    0 -0.32133985013E+02 -0.61456732504E+01  0.14317863297E+03  0.14686893215E+03  0.00000000000E+00 0. -1.
         13    1    3    3    0    0  0.80135718041E+02 -0.51007144160E+01 -0.21193409033E+02  0.83047644036E+02  0.00000000000E+00 0. -1.
        -14    1    3    3    0    0  0.18195406521E+01 -0.17610104851E+02  0.29441607047E+02  0.34354544773E+02  0.00000000000E+00 0.  1.
          5    1    4    4  501    0 -0.62518641081E+02  0.10652874302E+03  0.63663066776E+03  0.64851602379E+03  0.41800000000E+01 0. -1.
         -5    1    4    4    0  501 -0.13844820904E+02 -0.22791883667E+02  0.36154832648E+02  0.45119766741E+02  0.41800000000E+01 0. -1.
</event>
<event>
11    1  0.5813833E-009  0.1512044E+03  0.7561462E-02  0.1095654E+00
         22   -1    0    0    0    0  0.00000000000E+00  0.00000000000E+00  0.16319681241E+04  0.16319681241E+04  0.00000000000E+00 0. -1.
         22   -1    0    0    0    0 -0.00000000000E+00 -0.00000000000E+00 -0.42130944762E+02  0.42130944762E+02  0.00000000000E+00 0. -1.
         24    2    1    2    0    0  0.18990772170E+02  0.72552431070E+02  0.99309004374E+02  0.14681525051E+03  0.77896949558E+02 0.  0.
         25    2    1    2    0    0 -0.72427403889E+02 -0.11131895236E+03  0.51658736708E+03  0.54785683885E+03  0.12508784935E+03 0.  0.
        -24    2    1    2    0    0  0.53436631719E+02  0.38766521291E+02  0.97394080791E+03  0.97942697953E+03  0.79738285284E+02 0.  0.
        -13    1    3    3    0    0 -0.27408688218E+02  0.12952654031E+02  0.42964488705E+02  0.52582836800E+02  0.00000000000E+00 0.  1.
         14    1    3    3    0    0  0.46399460388E+02  0.59599777039E+02  0.56344515669E+02  0.94232413709E+02  0.00000000000E+00 0. -1.
         13    1    5    5    0    0  0.30704857518E+02 -0.15139278004E+02  0.59626235378E+03  0.59724432232E+03  0.00000000000E+00 0. -1.
        -14    1    5    5    0    0  0.22731774200E+02  0.53905799295E+02  0.37767845413E+03  0.38218265721E+03  0.00000000000E+00 0.  1.
          5    1    4    4  501    0  0.22512396186E+02 -0.73119428236E+02  0.17035108084E+03  0.18678924463E+03  0.41800000000E+01 0.  1.
         -5    1    4    4    0  501 -0.94939800075E+02 -0.38199524126E+02  0.34623628624E+03  0.36106759421E+03  0.41800000000E+01 0.  1.
</event>
<event>
11    1  0.5813833E-009  0.1318638E+03  0.7561462E-02  0.1117000E+00
         22   -1    0    0    0    0  0.00000000000E+00  0.00000000000E+00  0.19233667254E+04  0.19233667254E+04  0.00000000000E+00 0. -1.
         22   -1    0    0    0    0 -0.00000000000E+00 -0.00000000000E+00 -0.70852003632E+02  0.70852003632E+02  0.00000000000E+00 0. -1.
         24    2    1    2    0    0 -0.17754947096E+02  0.24968344899E+02 -0.18464158779E+02  0.89027466710E+02  0.81524893597E+02 0.  0.
         25    2    1    2    0    0 -0.13414469991E+02  0.60719028069E+01  0.23499148067E+03  0.26661986685E+03  0.12509333079E+03 0.  0.
        -24    2    1    2    0    0  0.31169417087E+02 -0.31040247705E+02  0.16359873999E+04  0.16385713955E+04  0.80786236044E+02 0.  0.
        -11    1    3    3    0    0  0.14844421640E+02 -0.77660460122E+01  0.21973466971E+02  0.27631532263E+02  0.00000000000E+00 0.  1.
         12    1    3    3    0    0 -0.32599368736E+02  0.32734390911E+02 -0.40437625750E+02  0.61395934447E+02  0.00000000000E+00 0. -1.
         13    1    5    5    0    0  0.54856518155E+02 -0.31747433713E+02  0.13902488969E+04  0.13916929017E+04  0.00000000000E+00 0. -1.
        -14    1    5    5    0    0 -0.23687101068E+02  0.70718600784E+00  0.24573850295E+03  0.24687849381E+03  0.00000000000E+00 0.  1.
          5    1    4    4  501    0  0.53760287458E+02  0.18810184231E+02  0.11676523740E+03  0.12998301659E+03  0.41800000000E+01 0. -1.
         -5    1    4    4    0  501 -0.67174757449E+02 -0.12738281424E+02  0.11822624327E+03  0.13663685026E+03  0.41800000000E+01 0. -1.
</event>
<event>
11    1  0.5813833E-009  0.1826845E+03  0.7561462E-02  0.1067492E+00
         22   -1    0    0    0    0  0.00000000000E+00  0.00000000000E+00  0.25818443500E+03  0.25818443500E+03  0.00000000000E+00 0.  1.
         22   -1    0    0    0    0 -0.00000000000E+00 -0.00000000000E+00 -0.23463481643E+04  0.23463481643E+04  0.00000000000E+00 0. -1.
        -24    2    1    2    0    0 -0.37029584824E+02  0.38021460982E+02 -0.12632968713E+04  0.12669619116E+04  0.80353460842E+02 0.  0.
         25    2    1    2    0    0 -0.94516153704E+02 -0.62471613530E+02 -0.10499327107E+04  0.10634113674E+04  0.12509609712E+03 0.  0.
         24    2    1    2    0    0  0.13154573853E+03  0.24450152548E+02  0.22506585277E+03  0.27415932026E+03  0.81281015732E+02 0.  0.
        -11    1    5    5    0    0  0.13654633317E+03  0.19858999789E+02  0.22820715739E+03  0.26667918490E+03  0.00000000000E+00 0.  1.
         12    1    5    5    0    0 -0.50005946390E+01  0.45911527592E+01 -0.31413046162E+01  0.74801353660E+01  0.00000000000E+00 0. -1.
         11    1    3    3    0    0 -0.55329608199E+02  0.49116925608E+02 -0.10461858015E+04  0.10487986314E+04  0.00000000000E+00 0. -1.
        -12    1    3    3    0    0  0.18300023375E+02 -0.11095464626E+02 -0.21711106981E+03  0.21816328020E+03  0.00000000000E+00 0.  1.
          5    1    4    4  501    0 -0.99922052725E+02  0.39693240502E+01 -0.70527355873E+03  0.71234011343E+03  0.41800000000E+01 0.  1.
         -5    1    4    4    0  501  0.54058990207E+01 -0.66440937581E+02 -0.34465915199E+03  0.35107125400E+03  0.41800000000E+01 0.  1.
</event>
<event>
11    1  0.5813833E-009  0.1452179E+03  0.7561462E-02  0.1101868E+00
         22   -1    0    0    0    0  0.00000000000E+00  0.00000000000E+00  0.26425920522E+03  0.26425920522E+03  0.00000000000E+00 0. -1.
         22   -1    0    0    0    0 -0.00000000000E+00 -0.00000000000E+00 -0.53017973402E+03  0.53017973402E+03  0.00000000000E+00 0.  1.
         24    2    1    2    0    0 -0.72452761413E+02 -0.19497757511E+02 -0.47512948393E+03  0.48749613735E+03  0.79214217412E+02 0.  0.
         25    2    1    2    0    0  0.45463716844E+02 -0.24690524502E+01  0.13011189658E+03  0.18611428265E+03  0.12504549094E+03 0.  0.
        -24    2    1    2    0    0  0.26989044569E+02  0.21966809961E+02  0.79097058563E+02  0.12082851924E+03  0.84452573216E+02 0.  0.
        -11    1    3    3    0    0 -0.49627898027E+02  0.18979750557E+02 -0.36137755265E+03  0.36526277493E+03  0.00000000000E+00 0.  1.
         12    1    3    3    0    0 -0.22824863386E+02 -0.38477508068E+02 -0.11375193129E+03  0.12223336241E+03  0.00000000000E+00 0. -1.
         13    1    5    5    0    0 -0.28147089085E+02 -0.60220626738E+00  0.10688468252E+02  0.30114193164E+02  0.00000000000E+00 0. -1.
        -14    1    5    5    0    0  0.55136133654E+02  0.22569016229E+02  0.68408590311E+02  0.90714326080E+02  0.00000000000E+00 0.  1.
          5    1    4    4  501    0 -0.38266261505E+01 -0.29996985646E+02  0.12567518716E+03  0.12932976179E+03  0.41800000000E+01 0.  1.
         -5    1    4    4    0  501  0.49290342995E+02  0.27527933196E+02  0.44367094108E+01  0.56784520857E+02  0.41800000000E+01 0.  1.
</event>
<event>
11    1  0.5813833E-009  0.1388218E+03  0.7561462E-02  0.1108881E+00
         22   -1    0    0    0    0  0.00000000000E+00  0.00000000000E+00  0.13732270583E+04  0.13732270583E+04  0.00000000000E+00 0. -1.
         22   -1    0    0    0    0 -0.00000000000E+00 -0.00000000000E+00 -0.41880338597E+03  0.41880338597E+03  0.00000000000E+00 0.  1.
        -24    2    1    2    0    0  0.30796141915E+02  0.43474728448E+02 -0.32239543272E+03  0.33672671226E+03  0.81287202822E+02 0.  0.
         25    2    1    2    0    0  0.16181434133E+02 -0.39660356102E+01 -0.41638303606E+02  0.13287042402E+03  0.12507291075E+03 0.  0.
         24    2    1    2    0    0 -0.46977576048E+02 -0.39508692838E+02  0.13184574087E+04  0.13224333080E+04  0.82049290961E+02 0.  0.
        -13    1    5    5    0    0 -0.26489080809E+02 -0.46515262820E+02  0.38270539057E+03  0.38643079205E+03  0.00000000000E+00 0.  1.
         14    1    5    5    0    0 -0.20488495238E+02  0.70065699815E+01  0.93575201812E+03  0.93600251596E+03  0.00000000000E+00 0. -1.
         13    1    3    3    0    0  0.15200370874E+02 -0.23707201380E+02 -0.88157838832E+02  0.92546675897E+02  0.00000000000E+00 0. -1.
        -14    1    3    3    0    0  0.15595771041E+02  0.67181929828E+02 -0.23423759389E+03  0.24418003637E+03  0.00000000000E+00 0.  1.
          5    1    4    4  501    0  0.21562525366E+02 -0.62106990269E+02 -0.33059347377E+02  0.73706265605E+02  0.41800000000E+01 0. -1.
         -5    1    4    4    0  501 -0.53810912330E+01  0.58140954659E+02 -0.85789562295E+01  0.59164158420E+02  0.41800000000E+01 0. -1.
</event>
<event>
11    1  0.5813833E-009  0.1335435E+03  0.7561462E-02  0.1114990E+00
         22   -1    0    0    0    0  0.00000000000E+00  0.00000000000E+00  0.90265386575E+03  0.90265386575E+03  0.00000000000E+00 0.  1.
         22   -1    0    0    0    0 -0.00000000000E+00 -0.00000000000E+00 -0.21988501332E+03  0.21988501332E+03  0.00000000000E+00 0. -1.
         24    2    1    2    0    0 -0.24565913597E+02 -0.39610379819E+02 -0.19118969526E+03  0.21317035055E+03  0.81948962651E+02 0.  0.
         25    2    1    2    0    0  0.15896333902E+02  0.50371116523E+02  0.30168615560E+03  0.33083431737E+03  0.12508743445E+03 0.  0.
        -24    2    1    2    0    0  0.86695796949E+01 -0.10760736704E+02  0.57227239209E+03  0.57853421114E+03  0.83756717064E+02 0.  0.
        -13    1    3    3    0    0 -0.14348510985E+02  0.18722244787E+02 -0.16690492643E+02  0.28895929851E+02  0.00000000000E+00 0.  1.
         14    1    3    3    0    0 -0.10217402612E+02 -0.58332624606E+02 -0.17449920262E+03  0.18427442070E+03  0.00000000000E+00 0. -1.
         13    1    5    5    0    0  0.36030662203E+02  0.73292673249E+01  0.13151819984E+03  0.13656120850E+03  0.00000000000E+00 0. -1.
        -14    1    5    5    0    0 -0.27361082508E+02 -0.18090004029E+02  0.44075419225E+03  0.44197300264E+03  0.00000000000E+00 0.  1.
          5    1    4    4  501    0 -0.88745485276E+01  0.69487240179E+02  0.77962250474E+02  0.10489432329E+03  0.41800000000E+01 0. -1.
         -5    1    4    4    0  501  0.24770882429E+02 -0.19116123656E+02  0.22372390513E+03  0.22593999408E+03  0.41800000000E+01 0. -1.
</event>
<event>
11    1  0.5813833E-009  0.1469689E+03  0.7561462E-02  0.1100017E+00
         22   -1    0    0    0    0  0.00000000000E+00  0.00000000000E+00  0.15222271745E+04  0.15222271745E+04  0.00000000000E+00 0. -1.
         22   -1    0    0    0    0 -0.00000000000E+00 -0.00000000000E+00 -0.78920393908E+03  0.78920393908E+03  0.00000000000E+00 0.  1.
        -24    2    1    2    0    0 -0.63773058093E+02  0.44570522453E+02 -0.70377982632E+03  0.71259911436E+03  0.80236646540E+02 0.  0.
         25    2    1    2    0    0  0.86961492891E+02  0.10876671672E+02 -0.55937290703E+01  0.15283608885E+03  0.12508787718E+03 0.  0.
         24    2    1    2    0    0 -0.23188434798E+02 -0.55447194125E+02  0.14423967908E+04  0.14459959104E+04  0.82362466192E+02 0.  0.
        -11    1    5    5    0    0  0.18870362385E+01 -0.18568838083E+01  0.27587556807E+00  0.26617720737E+01  0.00000000000E+00 0.  1.
         12    1    5    5    0    0 -0.25075471037E+02 -0.53590310316E+02  0.14421209152E+04  0.14433341383E+04  0.00000000000E+00 0. -1.
         11    1    3    3    0    0 -0.17166079850E+02 -0.19517520274E+02 -0.88522498766E+02  0.92259637344E+02  0.00000000000E+00 0. -1.
        -12    1    3    3    0    0 -0.46606978243E+02  0.64088042727E+02 -0.61525732755E+03  0.62033947702E+03  0.00000000000E+00 0.  1.
          5    1    4    4  501    0 -0.10697580948E+02 -0.13557106861E+02  0.38844654588E+02  0.42715488697E+02  0.41800000000E+01 0. -1.
         -5    1    4    4    0  501  0.97659073839E+02  0.24433778533E+02 -0.44438383659E+02  0.11012060016E+03  0.41800000000E+01 0. -1.
</event>
<event>
11    1  0.5813833E-009  0.2270406E+03  0.7561462E-02  0.1036895E+00
         22   -1    0    0    0    0  0.00000000000E+00  0.00000000000E+00  0.12388841400E+04  0.12388841400E+04  0.00000000000E+00 0. -1.
         22   -1    0    0    0    0 -0.00000000000E+00 -0.00000000000E+00 -0.12192832934E+04  0.12192832934E+04  0.00000000000E+00 0. -1.
         24    2    1    2    0    0  0.14709440529E+03  0.11219412925E+03 -0.10770681632E+04  0.10960753498E+04  0.84149020869E+02 0.  0.
         25    2    1    2    0    0 -0.22959824834E+03 -0.14565629190E+03  0.44013944215E+02  0.30251871114E+03  0.12509689162E+03 0.  0.
        -24    2    1    2    0    0  0.82503843050E+02  0.33462162653E+02  0.10526550655E+04  0.10595733725E+04  0.81770680780E+02 0.  0.
        -11    1    3    3    0    0  0.65009277370E+01 -0.41924720519E+01 -0.20335475053E+03  0.20350182664E+03  0.00000000000E+00 0.  1.
         12    1    3    3    0    0  0.14059347755E+03  0.11638660130E+03 -0.87371341262E+03  0.89257352318E+03  0.00000000000E+00 0. -1.
         11    1    5    5    0    0  0.20530530905E+02 -0.17122496031E+02  0.54487981866E+03  0.54553524116E+03  0.00000000000E+00 0. -1.
        -12    1    5    5    0    0  0.61973312146E+02  0.50584658683E+02  0.50777524688E+03  0.51403813132E+03  0.00000000000E+00 0.  1.
          5    1    4    4  501    0 -0.63728873970E+02 -0.68328882957E+02 -0.39230588927E+02  0.10142345454E+03  0.41800000000E+01 0. -1.
         -5    1    4    4    0  501 -0.16586937437E+03 -0.77327408941E+02  0.83244533142E+02  0.20109525660E+03  0.41800000000E+01 0. -1.
</event>
<event>
11    1  0.5813833E-009  0.1395083E+03  0.7561462E-02  0.1108109E+00
         22   -1    0    0    0    0  0.00000000000E+00  0.00000000000E+00  0.10162283681E+03  0.10162283681E+03  0.00000000000E+00 0. -1.
         22   -1    0    0    0    0 -0.00000000000E+00 -0.00000000000E+00 -0.12084405411E+04  0.12084405411E+04  0.00000000000E+00 0. -1.
        -24    2    1    2    0    0 -0.49631416377E+02 -0.37399568086E+02 -0.10368144913E+04  0.10417743070E+04  0.80295778552E+02 0.  0.
         25    2    1    2    0    0  0.46309679428E+02  0.33359959781E+02 -0.11582923745E+03  0.17977703845E+03  0.12508356399E+03 0.  0.
         24    2    1    2    0    0  0.33217369490E+01  0.40396083055E+01  0.45826024466E+02  0.88512032504E+02  0.75544708669E+02 0.  0.
        -11    1    5    5    0    0 -0.58939627234E+01  0.31722977215E+02 -0.21750304122E+01  0.32339091472E+02  0.00000000000E+00 0.  1.
         12    1    5    5    0    0  0.92156996725E+01 -0.27683368909E+02  0.48001054879E+02  0.56172941031E+02  0.00000000000E+00 0. -1.
         13    1    3    3    0    0 -0.15914145833E+02 -0.34174778662E+02 -0.90140087018E+03  0.90218884071E+03  0.00000000000E+00 0. -1.
        -14    1    3    3    0    0 -0.33717270544E+02 -0.32247894239E+01 -0.13541362113E+03  0.13958546624E+03  0.00000000000E+00 0.  1.
          5    1    4    4  501    0  0.27968379013E+02  0.69410466464E+02 -0.22947900468E+02  0.78384447534E+02  0.41800000000E+01 0.  1.
         -5    1    4    4    0  501  0.18341300416E+02 -0.36050506684E+02 -0.92881336984E+02  0.10139259092E+03  0.41800000000E+01 0.  1.
</event>
<event>
11    1  0.5813833E-009  0.1328031E+03  0.7561462E-02  0.1115872E+00
         22   -1    0    0    0    0  0.00000000000E+00  0.00000000000E+00  0.26163122907E+03  0.26163122907E+03  0.00000000000E+00 0. -1.
         22   -1    0    0    0    0 -0.00000000000E+00 -0.00000000000E+00 -0.12691406699E+04  0.12691406699E+04  0.00000000000E+00 0. -1.
         24    2    1    2    0    0 -0.45006583045E+02 -0.20729566847E+02 -0.10540519186E+04  0.10585704498E+04  0.84205953821E+02 0.  0.
         25    2    1    2    0    0  0.75067329494E+01 -0.13173336340E+02 -0.18382442828E+03  0.22287007211E+03  0.12509900392E+03 0.  0.
        -24    2    1    2    0    0  0.37499850096E+02  0.33902903187E+02  0.23036690607E+03  0.24933137701E+03  0.80880025658E+02 0.  0.
        -11    1    3    3    0    0 -0.21465992299E+02  0.31856881941E+02 -0.32956966423E+03  0.33180086397E+03  0.00000000000E+00 0.  1.
         12    1    3    3    0    0 -0.23540590747E+02 -0.52586448788E+02 -0.72448225437E+03  0.72676958585E+03  0.00000000000E+00 0. -1.
         13    1    5    5    0    0  0.47267232758E+02 -0.18658672224E+01  0.18388709323E+03  0.18987399983E+03  0.00000000000E+00 0. -1.
        -14    1    5    5    0    0 -0.97673826619E+01  0.35768770409E+02  0.46479812837E+02  0.59457377187E+02  0.00000000000E+00 0.  1.
          5    1    4    4  501    0  0.51405404298E+02 -0.42414763487E+02 -0.13617190249E+03  0.15166340092E+03  0.41800000000E+01 0. -1.
         -5    1    4    4    0  501 -0.43898671349E+02  0.29241427148E+02 -0.47652525788E+02  0.71206671189E+02  0.41800000000E+01 0. -1.
</event>
<event>
11    1  0.5813833E-009  0.1360332E+03  0.7561462E-02  0.1112071E+00
         22   -1    0    0    0    0  0.00000000000E+00  0.00000000000E+00  0.23849406384E+04  0.23849406384E+04  0.00000000000E+00 0.  1.
         22   -1    0    0    0    0 -0.00000000000E+00 -0.00000000000E+00 -0.12030112386E+03  0.12030112386E+03  0.00000000000E+00 0.  1.
        -24    2    1    2    0    0  0.21764238370E+01  0.23919872148E+02 -0.73208079187E+02  0.11258522105E+03  0.82092094853E+02 0.  0.
         25    2    1    2    0    0 -0.41743363440E+02 -0.58839895826E+02  0.17160738085E+03  0.22427900844E+03  0.12508932302E+03 0.  0.
         24    2    1    2    0    0  0.39566939603E+02  0.34920023677E+02  0.21662402129E+04  0.21683775328E+04  0.80495428275E+02 0.  0.
        -11    1    5    5    0    0  0.53895983086E+02  0.19404672034E+02  0.19974412270E+04  0.19982624387E+04  0.00000000000E+00 0.  1.
         12    1    5    5    0    0 -0.14329043482E+02  0.15515351643E+02  0.16879898586E+03  0.17011509413E+03  0.00000000000E+00 0. -1.
         11    1    3    3    0    0 -0.68005503332E+01 -0.17653730432E+02  0.82912355156E+01  0.20655417434E+02  0.00000000000E+00 0. -1.
        -12    1    3    3    0    0  0.89769741702E+01  0.41573602580E+02 -0.81499314702E+02  0.91929803620E+02  0.00000000000E+00 0.  1.
          5    1    4    4  501    0 -0.34947331344E+02  0.34823960020E+02  0.71332938049E+02  0.86832508948E+02  0.41800000000E+01 0. -1.
         -5    1    4    4    0  501 -0.67960320967E+01 -0.93663855846E+02  0.10027444280E+03  0.13744649949E+03  0.41800000000E+01 0. -1.
</event>
<event>
11    1  0.5813833E-009  0.1475803E+03  0.7561462E-02  0.1099377E+00
         22   -1    0    0    0    0  0.00000000000E+00  0.00000000000E+00  0.78732501157E+03  0.78732501157E+03  0.00000000000E+00 0. -1.
         22   -1    0    0    0    0 -0.00000000000E+00 -0.00000000000E+00 -0.90091616268E+03  0.90091616268E+03  0.00000000000E+00 0.  1.
         24    2    1    2    0    0  0.72689311147E+02  0.27462770458E+02 -0.79493440777E+03  0.80268714380E+03  0.79674327329E+02 0.  0.
         25    2    1    2    0    0 -0.97499127042E+02  0.10476356901E+02 -0.35637248298E+02  0.16289139228E+03  0.12509100042E+03 0.  0.
        -24    2    1    2    0    0  0.24809815895E+02 -0.37939127359E+02  0.71698050496E+03  0.72266263817E+03  0.78264549864E+02 0.  0.
        -11    1    3    3    0    0  0.55422887902E+02 -0.21405141651E+02 -0.43663535041E+03  0.44065894501E+03  0.00000000000E+00 0.  1.
         12    1    3    3    0    0  0.17266423244E+02  0.48867912109E+02 -0.35829905737E+03  0.36202819878E+03  0.00000000000E+00 0. -1.
         13    1    5    5    0    0  0.10116651878E+02 -0.12409992747E+02  0.64058851663E+03  0.64078857840E+03  0.00000000000E+00 0. -1.
        -14    1    5    5    0    0  0.14693164017E+02 -0.25529134613E+02  0.76391988332E+02  0.81874059776E+02  0.00000000000E+00 0.  1.
          5    1    4    4  501    0 -0.12256424687E+03 -0.10736657673E+02 -0.15326054890E+02  0.12405495067E+03  0.41800000000E+01 0. -1.
         -5    1    4    4    0  501  0.25065119825E+02  0.21213014574E+02 -0.20311193408E+02  0.38836441609E+02  0.41800000000E+01 0. -1.
</event>
<event>
11    1  0.5813833E-009  0.1415605E+03  0.7561462E-02  0.1105828E+00
         22   -1    0    0    0    0  0.00000000000E+00  0.00000000000E+00  0.50190186506E+03  0.50190186506E+03  0.00000000000E+00 0. -1.
         22   -1    0    0    0    0 -0.00000000000E+00 -0.00000000000E+00 -0.50060745720E+03  0.50060745720E+03  0.00000000000E+00 0. -1.
         24    2    1    2    0    0  0.50353373483E+02  0.40005084648E+02 -0.42147336776E+03  0.43378436973E+03  0.79957555453E+02 0.  0.
         25    2    1    2    0    0 -0.93415081634E+02 -0.37291754458E+02  0.27931079493E+02  0.16292404843E+03  0.12508816062E+03 0.  0.
        -24    2    1    2    0    0  0.43061708150E+02 -0.27133301897E+01  0.39483669612E+03  0.40580090410E+03  0.83166605663E+02 0.  0.
        -13    1    3    3    0    0  0.40446096129E+02 -0.49819942412E+01 -0.86041887596E+02  0.95204586968E+02  0.00000000000E+00 0.  1.
         14    1    3    3    0    0  0.99072773546E+01  0.44987078889E+02 -0.33543148016E+03  0.33857978276E+03  0.00000000000E+00 0. -1.
         11    1    5    5    0    0  0.66932643664E+02  0.42369471824E+01  0.31965897276E+03  0.32661872172E+03  0.00000000000E+00 0. -1.
        -12    1    5    5    0    0 -0.23870935514E+02 -0.69502773720E+01  0.75177723360E+02  0.79182182386E+02  0.00000000000E+00 0.  1.
          5    1    4    4  501    0  0.21804475770E+02  0.14498386766E+02 -0.13706359203E+02  0.29849205434E+02  0.41800000000E+01 0.  1.
         -5    1    4    4    0  501 -0.11521955740E+03 -0.51790141224E+02  0.41637438696E+02  0.13307484299E+03  0.41800000000E+01 0.  1.
</event>
<event>
11    1  0.5813833E-009  0.1511174E+03  0.7561462E-02  0.1095742E+00
         22   -1    0    0    0    0  0.00000000000E+00  0.00000000000E+00  0.19091674697E+04  0.19091674697E+04  0.00000000000E+00 0.  1.
         22   -1    0    0    0    0 -0.00000000000E+00 -0.00000000000E+00 -0.10407980967E+03  0.10407980967E+03  0.00000000000E+00 0.  1.
        -24    2    1    2    0    0  0.34700739416E+01  0.72717970942E+02  0.48205980813E+02  0.11873732872E+03  0.80466091832E+02 0.  0.
         25    2    1    2    0    0 -0.88154228050E+02 -0.71679800599E+02  0.39925254448E+02  0.17363891952E+03  0.12508911500E+03 0.  0.
         24    2    1    2    0    0  0.84684154108E+02 -0.10381703430E+01  0.17169564248E+04  0.17208710311E+04  0.79279615714E+02 0.  0.
        -13    1    5    5    0    0  0.38119983654E+02  0.11448171555E+02  0.13703575659E+04  0.13709354661E+04  0.00000000000E+00 0.  1.
         14    1    5    5    0    0  0.46564170454E+02 -0.12486341898E+02  0.34659885886E+03  0.34993556503E+03  0.00000000000E+00 0. -1.
         13    1    3    3    0    0  0.14321493234E+02 -0.14549842914E+02  0.11615380915E+02  0.23488724339E+02  0.00000000000E+00 0. -1.
        -14    1    3    3    0    0 -0.10851419293E+02  0.87267813856E+02  0.36590599898E+02  0.95248604382E+02  0.00000000000E+00 0.  1.
          5    1    4    4  501    0  0.28594307701E+02 -0.34098024268E+02  0.35653486903E+00  0.44697977683E+02  0.41800000000E+01 0. -1.
         -5    1    4    4    0  501 -0.11674853575E+03 -0.37581776331E+02  0.39568719579E+02  0.12894094183E+03  0.41800000000E+01 0. -1.
</event>
<event>
11    1  0.5813833E-009  0.1428075E+03  0.7561462E-02  0.1104463E+00
         22   -1    0    0    0    0  0.00000000000E+00  0.00000000000E+00  0.37122067566E+03  0.37122067566E+03  0.00000000000E+00 0. -1.
         22   -1    0    0    0    0 -0.00000000000E+00 -0.00000000000E+00 -0.24439848824E+03  0.24439848824E+03  0.00000000000E+00 0. -1.
         24    2    1    2    0    0  0.47942397831E+01 -0.25453252475E+02 -0.17826521050E+03  0.19616934080E+03  0.77672853670E+02 0.  0.
         25    2    1    2    0    0  0.52596902938E+02  0.59895188240E+02  0.74415538453E+02  0.16594768268E+03  0.12508834179E+03 0.  0.
        -24    2    1    2    0    0 -0.57391142721E+02 -0.34441935765E+02  0.23067185947E+03  0.25350214041E+03  0.81079209648E+02 0.  0.
        -13    1    3    3    0    0 -0.95081352952E+01 -0.26490326753E+02 -0.14283841933E+02  0.31562163878E+02  0.00000000000E+00 0.  1.
         14    1    3    3    0    0  0.14302375078E+02  0.10370742782E+01 -0.16398136857E+03  0.16460717692E+03  0.00000000000E+00 0. -1.
         13    1    5    5    0    0 -0.64381416625E+01 -0.41241224320E+02  0.16448167559E+03  0.16969534424E+03  0.00000000000E+00 0. -1.
        -14    1    5    5    0    0 -0.50953001059E+02  0.67992885548E+01  0.66190183881E+02  0.83806796168E+02  0.00000000000E+00 0.  1.
          5    1    4    4  501    0  0.79458202913E+02 -0.34250917688E+00  0.56138306189E+02  0.97379182295E+02  0.41800000000E+01 0. -1.
         -5    1    4    4    0  501 -0.26861299975E+02  0.60237697417E+02  0.18277232264E+02  0.68568500389E+02  0.41800000000E+01 0. -1.
</event>
<event>
11    1  0.5813833E-009  0.1587876E+03  0.7561462E-02  0.1088223E+00
         22   -1    0    0    0    0  0.00000000000E+00  0.00000000000E+00  0.26324523449E+03  0.26324523449E+03  0.00000000000E+00 0. -1.
         22   -1    0    0    0    0 -0.00000000000E+00 -0.00000000000E+00 -0.12660752417E+04  0.12660752417E+04  0.00000000000E+00 0.  1.
         24    2    1    2    0    0 -0.20273546034E+02  0.38012578119E+02 -0.94094585291E+03  0.94528631360E+03  0.79568485042E+02 0.  0.
         25    2    1    2    0    0 -0.19220113437E+02 -0.12591938453E+03 -0.27954814843E+03  0.33169299270E+03  0.12509184607E+03 0.  0.
        -24    2    1    2    0    0  0.39493659470E+02  0.87906806414E+02  0.21766399407E+03  0.25234116994E+03  0.83732287543E+02 0.  0.
        -13    1    3    3    0    0 -0.15132258157E+02  0.40831551322E+02 -0.93744804019E+03  0.93845885838E+03  0.00000000000E+00 0.  1.
         14    1    3    3    0    0 -0.51412878769E+01 -0.28189732033E+01 -0.34978127191E+01  0.68274552193E+01  0.00000000000E+00 0. -1.
         11    1    5    5    0    0  0.23890549664E+02  0.96744801526E+02  0.21075024433E+03  0.23312224362E+03  0.00000000000E+00 0. -1.
        -12    1    5    5    0    0  0.15603109806E+02 -0.88379951115E+01  0.69137497417E+01  0.19218926315E+02  0.00000000000E+00 0.  1.
          5    1    4    4  501    0  0.21708568972E+02  0.16936780577E+02 -0.27947715806E+02  0.39454577959E+02  0.41800000000E+01 0.  1.
         -5    1    4    4    0  501 -0.40928682409E+02 -0.14285616511E+03 -0.25160043262E+03  0.29223841474E+03  0.41800000000E+01 0.  1.
</event>
<event>
11    1  0.5813833E-009  0.1371306E+03  0.7561462E-02  0.1110805E+00
         22   -1    0    0    0    0  0.00000000000E+00  0.00000000000E+00  0.68610910407E+03  0.68610910407E+03  0.00000000000E+00 0. -1.
         22   -1    0    0    0    0 -0.00000000000E+00 -0.00000000000E+00 -0.23518736468E+04  0.23518736468E+04  0.00000000000E+00 0.  1.
        -24    2    1    2    0    0  0.14120327388E+02 -0.17906576557E+02 -0.22634056711E+04  0.22649389841E+04  0.80145743871E+02 0.  0.
         25    2    1    2    0    0  0.18977452681E+02 -0.28760358286E+02 -0.33594820463E+02  0.13402275623E+03  0.12508471252E+03 0.  0.
         24    2    1    2    0    0 -0.33097780069E+02  0.46666934843E+02  0.63123594890E+03  0.63902101054E+03  0.81337340016E+02 0.  0.
        -11    1    5    5    0    0  0.13360833193E+02  0.50977750376E+02  0.34802570466E+03  0.35199308800E+03  0.00000000000E+00 0.  1.
         12    1    5    5    0    0 -0.46458613262E+02 -0.43108155331E+01  0.28321024424E+03  0.28702792254E+03  0.00000000000E+00 0. -1.
         13    1    3    3    0    0  0.28767715740E+02 -0.18767772961E+02 -0.39904187964E+03  0.40051745589E+03  0.00000000000E+00 0. -1.
        -14    1    3    3    0    0 -0.14647388352E+02  0.86119640389E+00 -0.18643637915E+04  0.18644215282E+04  0.00000000000E+00 0.  1.
          5    1    4    4  501    0  0.64955842014E+02 -0.41062151012E+02 -0.38390437490E+02  0.86003835660E+02  0.41800000000E+01 0. -1.
         -5    1    4    4    0  501 -0.45978389333E+02  0.12301792726E+02  0.47956170276E+01  0.48018920569E+02  0.41800000000E+01 0. -1.
</event>
<event>
11    1  0.5813833E-009  0.2503678E+03  0.7561462E-02  0.1023703E+00
         22   -1    0    0    0    0  0.00000000000E+00  0.00000000000E+00  0.17373447208E+03  0.17373447208E+03  0.00000000000E+00 0.  1.
         22   -1    0    0    0    0 -0.00000000000E+00 -0.00000000000E+00 -0.18711305811E+04  0.18711305811E+04  0.00000000000E+00 0.  1.
        -24    2    1    2    0    0  0.12396635186E+03  0.18507771292E+03 -0.15122428476E+04  0.15304697968E+04  0.76406495973E+02 0.  0.
         25    2    1    2    0    0 -0.42503561999E+02 -0.19627327225E+03 -0.27925865462E+03  0.36600715756E+03  0.12508434364E+03 0.  0.
         24    2    1    2    0    0 -0.81462789858E+02  0.11195559326E+02  0.94105393229E+02  0.14838809878E+03  0.80010475224E+02 0.  0.
        -11    1    5    5    0    0  0.13044337079E+02  0.12066970917E+02  0.49150001610E+01  0.18437021005E+02  0.00000000000E+00 0.  1.
         12    1    5    5    0    0 -0.94507126937E+02 -0.87141159114E+00  0.89190393068E+02  0.12995107778E+03  0.00000000000E+00 0. -1.
         13    1    3    3    0    0 -0.58232626003E+01  0.33940584109E+02 -0.29947009296E+03  0.30144354399E+03  0.00000000000E+00 0. -1.
        -14    1    3    3    0    0  0.12978961446E+03  0.15113712882E+03 -0.12127727547E+04  0.12290262528E+04  0.00000000000E+00 0.  1.
          5    1    4    4  501    0  0.13033563291E+02 -0.12801217857E+03 -0.89500695074E+02  0.15679553072E+03  0.41800000000E+01 0. -1.
         -5    1    4    4    0  501 -0.55537125290E+02 -0.68261093683E+02 -0.18975795955E+03  0.20921162685E+03  0.41800000000E+01 0. -1.
</event>
<event>
11    1  0.5813833E-009  0.2260745E+03  0.7561462E-02  0.1037478E+00
         22   -1    0    0    0    0  0.00000000000E+00  0.00000000000E+00  0.71590996048E+03  0.71590996048E+03  0.00000000000E+00 0.  1.
         22   -1    0    0    0    0 -0.00000000000E+00 -0.00000000000E+00 -0.53265457791E+03  0.53265457791E+03  0.00000000000E+00 0. -1.
         24    2    1    2    0    0  0.14867245763E+03 -0.11793179401E+03 -0.46828896191E+03  0.51154461991E+03  0.79824423641E+02 0.  0.
         25    2    1    2    0    0 -0.15759833803E+03  0.70520922655E+02  0.27163524182E+03  0.34531609775E+03  0.12508823320E+03 0.  0.
        -24    2    1    2    0    0  0.89258803994E+01  0.47410871353E+02  0.37990910266E+03  0.39170382073E+03  0.82301244422E+02 0.  0.
        -11    1    3    3    0    0  0.16656008957E+02 -0.42797343309E+02 -0.17904026446E+03  0.18483628304E+03  0.00000000000E+00 0.  1.
         12    1    3    3    0    0  0.13201644867E+03 -0.75134450699E+02 -0.28924869745E+03  0.32670833687E+03  0.00000000000E+00 0. -1.
         11    1    5    5    0    0 -0.28020860380E+02  0.48790817492E+02  0.18689709472E+03  0.19518257223E+03  0.00000000000E+00 0. -1.
        -12    1    5    5    0    0  0.36946740779E+02 -0.13799461392E+01  0.19301200794E+03  0.19652124851E+03  0.00000000000E+00 0.  1.
          5    1    4    4  501    0 -0.60608889717E+02  0.18182756710E+02  0.20915736325E+03  0.21855966040E+03  0.41800000000E+01 0. -1.
         -5    1    4    4    0  501 -0.96989448312E+02  0.52338165945E+02  0.62477878572E+02  0.12675643735E+03  0.41800000000E+01 0. -1.
</event>
<event>
11    1  0.5813833E-009  0.1385328E+03  0.7561462E-02  0.1109208E+00
         22   -1    0    0    0    0  0.00000000000E+00  0.00000000000E+00  0.93312468176E+03  0.93312468176E+03  0.00000000000E+00 0.  1.
         22   -1    0    0    0    0 -0.00000000000E+00 -0.00000000000E+00 -0.43501201467E+02  0.43501201467E+02  0.00000000000E+00 0.  1.
        -24    2    1    2    0    0 -0.22809129854E+02  0.25101571240E+02  0.78977778678E+02  0.11620321612E+03  0.78200720119E+02 0.  0.
         25    2    1    2    0    0  0.30874758607E+02  0.37681677607E+02  0.20115638584E+03  0.24184981149E+03  0.12511706601E+03 0.  0.
         24    2    1    2    0    0 -0.80656287524E+01 -0.62783248848E+02  0.60948931577E+03  0.61857285561E+03  0.84547980244E+02 0.  0.
        -11    1    5    5    0    0 -0.54850481804E+00 -0.72408901402E+02  0.59597382718E+03  0.60035668776E+03  0.00000000000E+00 0.  1.
         12    1    5    5    0    0 -0.75171239344E+01  0.96256525538E+01  0.13515488588E+02  0.18216167849E+02  0.00000000000E+00 0. -1.
         13    1    3    3    0    0 -0.12067405978E+02  0.76881693031E-01  0.86984717499E+02  0.87817818671E+02  0.00000000000E+00 0. -1.
        -14    1    3    3    0    0 -0.10741723876E+02  0.25024689547E+02 -0.80069388207E+01  0.28385397444E+02  0.00000000000E+00 0.  1.
          5    1    4    4  501    0 -0.16171546795E+02 -0.23018833007E+01  0.17307332968E+03  0.17389268944E+03  0.41800000000E+01 0. -1.
         -5    1    4    4    0  501  0.47046305402E+02  0.39983560908E+02  0.28083056160E+02  0.67957122056E+02  0.41800000000E+01 0. -1.
</event>
<event>
11    1  0.5813833E-009  0.1336852E+03  0.7561462E-02  0.1114822E+00
         22   -1    0    0    0    0  0.00000000000E+00  0.00000000000E+00  0.69156102025E+02  0.69156102025E+02  0.00000000000E+00 0.  1.
         22   -1    0    0    0    0 -0.00000000000E+00 -0.00000000000E+00 -0.47948577053E+03  0.47948577053E+03  0.00000000000E+00 0.  1.
        -24    2    1    2    0    0 -0.21249839289E+02  0.17454281981E+02 -0.23722300166E+03  0.25225651004E+03  0.81255071936E+02 0.  0.
         25    2    1    2    0    0  0.10102233243E+02 -0.59352483777E+02 -0.13892344619E+03  0.19639795969E+03  0.12509061604E+03 0.  0.
         24    2    1    2    0    0  0.11147606046E+02  0.41898201795E+02 -0.34183220652E+02  0.99987402817E+02  0.83362219942E+02 0.  0.
        -11    1    5    5    0    0 -0.29863399979E+02  0.28137600937E+02  0.53594021477E+01  0.41379589609E+02  0.00000000000E+00 0.  1.
         12    1    5    5    0    0  0.41011006025E+02  0.13760600858E+02 -0.39542622800E+02  0.58607813208E+02  0.00000000000E+00 0. -1.
         13    1    3    3    0    0 -0.85021279992E+01  0.36737369434E+02 -0.22056181900E+03  0.22376200860E+03  0.00000000000E+00 0. -1.
        -14    1    3    3    0    0 -0.12747711290E+02 -0.19283087452E+02 -0.16661182655E+02  0.28494501440E+02  0.00000000000E+00 0.  1.
          5    1    4    4  501    0  0.10629664444E+02 -0.98149259031E+02 -0.10972159180E+03  0.14765692304E+03  0.41800000000E+01 0.  1.
         -5    1    4    4    0  501 -0.52743120036E+00  0.38796775255E+02 -0.29201854391E+02  0.48741036650E+02  0.41800000000E+01 0.  1.
</event>
<event>
11    1  0.5813833E-009  0.1606809E+03  0.7561462E-02  0.1086439E+00
         22   -1    0    0    0    0  0.00000000000E+00  0.00000000000E+00  0.27791433763E+03  0.27791433763E+03  0.00000000000E+00 0. -1.
         22   -1    0    0    0    0 -0.00000000000E+00 -0.00000000000E+00 -0.15161140004E+04  0.15161140004E+04  0.00000000000E+00 0.  1.
         24    2    1    2    0    0  0.16639554987E+02  0.69914122379E+02 -0.14316676151E+04  0.14357847425E+04  0.81491150252E+02 0.  0.
         25    2    1    2    0    0  0.42657427096E+02 -0.12911244276E+03  0.11633341130E+03  0.21833347387E+03  0.12508542787E+03 0.  0.
        -24    2    1    2    0    0 -0.59296982083E+02  0.59198320383E+02  0.77134541041E+02  0.13991012159E+03  0.81268268599E+02 0.  0.
        -11    1    3    3    0    0 -0.14261297732E+01  0.64150885110E+02 -0.52332017716E+03  0.52723939319E+03  0.00000000000E+00 0.  1.
         12    1    3    3    0    0  0.18065684760E+02  0.57632372693E+01 -0.90834743791E+03  0.90854534935E+03  0.00000000000E+00 0. -1.
         11    1    5    5    0    0 -0.43652824631E+02  0.61412816935E+02  0.91517829135E+02  0.11854373131E+03  0.00000000000E+00 0. -1.
        -12    1    5    5    0    0 -0.15644157451E+02 -0.22144965519E+01 -0.14383288094E+02  0.21366390283E+02  0.00000000000E+00 0.  1.
          5    1    4    4  501    0 -0.13319330785E+02 -0.31276092183E+02 -0.21339590423E+02  0.40354046070E+02  0.41800000000E+01 0.  1.
         -5    1    4    4    0  501  0.55976757881E+02 -0.97836350579E+02  0.13767300172E+03  0.17797942780E+03  0.41800000000E+01 0.  1.
</event>
<event>
11    1  0.5813833E-009  0.1542135E+03  0.7561462E-02  0.1092650E+00
         22   -1    0    0    0    0  0.00000000000E+00  0.00000000000E+00  0.62526606785E+03  0.62526606785E+03  0.00000000000E+00 0. -1.
         22   -1    0    0    0    0 -0.00000000000E+00 -0.00000000000E+00 -0.33101475778E+03  0.33101475778E+03  0.00000000000E+00 0. -1.
        -24    2    1    2    0    0  0.29506567717E+02 -0.29606246413E+02 -0.27103847167E+03  0.28570912466E+03  0.80129167122E+02 0.  0.
         25    2    1    2    0    0 -0.77663937209E+02  0.10033415618E+03  0.12310443144E+03  0.21656994384E+03  0.12509680049E+03 0.  0.
         24    2    1    2    0    0  0.48157369492E+02 -0.70727909769E+02  0.44218535030E+03  0.45400175714E+03  0.57167665743E+02 0.  0.
        -13    1    5    5    0    0 -0.10553742329E+02 -0.17039798498E+02  0.50775664033E+02  0.54588499411E+02  0.00000000000E+00 0.  1.
         14    1    5    5    0    0  0.58711111820E+02 -0.53688111271E+02  0.39140968627E+03  0.39941325773E+03  0.00000000000E+00 0. -1.
         13    1    3    3    0    0  0.48619641142E+02 -0.30189240580E+02 -0.11448819746E+03  0.12799534018E+03  0.00000000000E+00 0. -1.
        -14    1    3    3    0    0 -0.19113073424E+02  0.58299416683E+00 -0.15655027422E+03  0.15771378448E+03  0.00000000000E+00 0.  1.
          5    1    4    4  501    0 -0.97136389707E+01  0.48484925262E+00 -0.23976065734E+02  0.26209044029E+02  0.41800000000E+01 0.  1.
         -5    1    4    4    0  501 -0.67950298239E+02  0.99849306929E+02  0.14708049718E+03  0.19036089981E+03  0.41800000000E+01 0.  1.
</event>
<event>
11    1  0.5813833E-009  0.2096611E+03  0.7561462E-02  0.1047894E+00
         22   -1    0    0    0    0  0.00000000000E+00  0.00000000000E+00  0.27469995183E+03  0.27469995183E+03  0.00000000000E+00 0. -1.
         22   -1    0    0    0    0 -0.00000000000E+00 -0.00000000000E+00 -0.13305026700E+04  0.13305026700E+04  0.00000000000E+00 0. -1.
        -24    2    1    2    0    0 -0.86562704949E+02 -0.90525925870E+00 -0.89793576516E+03  0.90595494457E+03  0.83497316402E+02 0.  0.
         25    2    1    2    0    0 -0.77074863131E+02 -0.60647324095E+02 -0.37778842375E+03  0.40986605558E+03  0.12508979955E+03 0.  0.
         24    2    1    2    0    0  0.16363756808E+03  0.61552583354E+02  0.21992147075E+03  0.28938162168E+03  0.69356293599E+02 0.  0.
        -13    1    5    5    0    0  0.41418700644E+02 -0.14467975917E+02  0.58237014451E+02  0.72913516870E+02  0.00000000000E+00 0.  1.
         14    1    5    5    0    0  0.12221886744E+03  0.76020559271E+02  0.16168445630E+03  0.21646810481E+03  0.00000000000E+00 0. -1.
         13    1    3    3    0    0  0.12044073996E+02  0.67529519882E+01 -0.26300229081E+03  0.26336451365E+03  0.00000000000E+00 0. -1.
        -14    1    3    3    0    0 -0.98606778944E+02 -0.76582112469E+01 -0.63493347435E+03  0.64259043092E+03  0.00000000000E+00 0.  1.
          5    1    4    4  501    0 -0.33492120231E+02  0.10815953250E+02 -0.16701470127E+02  0.39180587880E+02  0.41800000000E+01 0.  1.
         -5    1    4    4    0  501 -0.43582742900E+02 -0.71463277345E+02 -0.36108695362E+03  0.37068546770E+03  0.41800000000E+01 0.  1.
</event>
<event>
11    1  0.5813833E-009  0.1472136E+03  0.7561462E-02  0.1099760E+00
         22   -1    0    0    0    0  0.00000000000E+00  0.00000000000E+00  0.12247456826E+03  0.12247456826E+03  0.00000000000E+00 0.  1.
         22   -1    0    0    0    0 -0.00000000000E+00 -0.00000000000E+00 -0.10557251155E+04  0.10557251155E+04  0.00000000000E+00 0.  1.
         24    2    1    2    0    0  0.77508360118E+02  0.18792619285E+01 -0.50617748361E+03  0.51663004057E+03  0.68409622081E+02 0.  0.
         25    2    1    2    0    0 -0.71845825297E+02 -0.49550253378E+02 -0.51274518049E+03  0.53495136346E+03  0.12509312903E+03 0.  0.
        -24    2    1    2    0    0 -0.56625348211E+01  0.47670991449E+02  0.85672116850E+02  0.12661827974E+03  0.79924273119E+02 0.  0.
        -11    1    3    3    0    0  0.69280195260E+02 -0.96987421738E+01 -0.49054612720E+03  0.49550914620E+03  0.00000000000E+00 0.  1.
         12    1    3    3    0    0  0.82281648580E+01  0.11578004102E+02 -0.15631356412E+02  0.21120894375E+02  0.00000000000E+00 0. -1.
         11    1    5    5    0    0 -0.27834114152E+02 -0.59060831522E+00  0.25229241993E+01  0.27954460741E+02  0.00000000000E+00 0. -1.
        -12    1    5    5    0    0  0.22171579331E+02  0.48261599764E+02  0.83149192651E+02  0.98663819003E+02  0.00000000000E+00 0.  1.
          5    1    4    4  501    0 -0.43933157927E+02  0.38715023280E+02 -0.23175730579E+03  0.23907717704E+03  0.41800000000E+01 0. -1.
         -5    1    4    4    0  501 -0.27912667371E+02 -0.88265276657E+02 -0.28098787470E+03  0.29587418642E+03  0.41800000000E+01 0. -1.
</event>
<event>
11    1  0.5813833E-009  0.1383110E+03  0.7561462E-02  0.1109459E+00
         22   -1    0    0    0    0  0.00000000000E+00  0.00000000000E+00  0.54522088573E+03  0.54522088573E+03  0.00000000000E+00 0. -1.
         22   -1    0    0    0    0 -0.00000000000E+00 -0.00000000000E+00 -0.16623182688E+03  0.16623182688E+03  0.00000000000E+00 0.  1.
         24    2    1    2    0    0  0.43499134561E+02  0.37143347871E+02 -0.98203909547E+02  0.13905991541E+03  0.80136441305E+02 0.  0.
         25    2    1    2    0    0 -0.38068000482E+02 -0.62677274976E+02  0.79100472445E+02  0.16514999156E+03  0.12506007162E+03 0.  0.
        -24    2    1    2    0    0 -0.54311340791E+01  0.25533927105E+02  0.39809249596E+03  0.40724280564E+03  0.81777678840E+02 0.  0.
        -13    1    3    3    0    0  0.62773980686E+02  0.45416677112E+02 -0.77137834663E+02  0.10933202983E+03  0.00000000000E+00 0.  1.
         14    1    3    3    0    0 -0.19274846125E+02 -0.82733292411E+01 -0.21066074884E+02  0.29727885577E+02  0.00000000000E+00 0. -1.
         13    1    5    5    0    0 -0.37375462238E+02  0.30127849771E+02  0.30405592477E+03  0.30782238044E+03  0.00000000000E+00 0. -1.
        -14    1    5    5    0    0  0.31944328159E+02 -0.45939226655E+01  0.94036571183E+02  0.99420425199E+02  0.00000000000E+00 0.  1.
          5    1    4    4  501    0 -0.83079391718E+02 -0.27421593602E+02  0.50110816137E+02  0.10090934257E+03  0.41800000000E+01 0.  1.
         -5    1    4    4    0  501  0.45011391236E+02 -0.35255681374E+02  0.28989656307E+02  0.64240648992E+02  0.41800000000E+01 0.  1.
</event>
<event>
11    1  0.5813833E-009  0.1290740E+03  0.7561462E-02  0.1120412E+00
         22   -1    0    0    0    0  0.00000000000E+00  0.00000000000E+00  0.23967358009E+04  0.23967358009E+04  0.00000000000E+00 0. -1.
         22   -1    0    0    0    0 -0.00000000000E+00 -0.00000000000E+00 -0.42636530860E+02  0.42636530860E+02  0.00000000000E+00 0. -1.
         24    2    1    2    0    0  0.17375148170E+02  0.36328660211E+01  0.72707669424E+01  0.81458168783E+02  0.79167390509E+02 0.  0.
         25    2    1    2    0    0  0.12231902676E+02 -0.22373020480E+02  0.99812051820E+03  0.10062517566E+04  0.12509139610E+03 0.  0.
        -24    2    1    2    0    0 -0.29607050845E+02  0.18740154458E+02  0.13487079849E+04  0.13516624063E+04  0.82159974206E+02 0.  0.
        -11    1    3    3    0    0 -0.29634518188E+02  0.13998224255E+02  0.58910810465E+01  0.33299546340E+02  0.00000000000E+00 0.  1.
         12    1    3    3    0    0  0.47009666358E+02 -0.10365358234E+02  0.13796858959E+01  0.48158622443E+02  0.00000000000E+00 0. -1.
         11    1    5    5    0    0 -0.19401960608E+02 -0.32065938750E+02  0.55192687987E+03  0.55319792229E+03  0.00000000000E+00 0. -1.
        -12    1    5    5    0    0 -0.10205090238E+02  0.50806093209E+02  0.79678110499E+03  0.79846448402E+03  0.00000000000E+00 0.  1.
          5    1    4    4  501    0  0.54601404024E+02  0.25815760243E+02  0.58980206420E+03  0.59290109979E+03  0.41800000000E+01 0. -1.
         -5    1    4    4    0  501 -0.42369501348E+02 -0.48188780722E+02  0.40831845400E+03  0.41335065684E+03  0.41800000000E+01 0. -1.
</event>
<event>
11    1  0.5813833E-009  0.1422344E+03  0.7561462E-02  0.1105089E+00
         22   -1    0    0    0    0  0.00000000000E+00  0.00000000000E+00  0.16663894618E+04  0.16663894618E+04  0.00000000000E+00 0.  1.
         22   -1    0    0    0    0 -0.00000000000E+00 -0.00000000000E+00 -0.44480955076E+02  0.44480955076E+02  0.00000000000E+00 0. -1.
        -24    2    1    2    0    0  0.39852057815E+02  0.14421707598E+02  0.66590134780E+02  0.11305833933E+03  0.80943003901E+02 0.  0.
         25    2    1    2    0    0 -0.10251170681E+03 -0.15876856662E+01  0.32378265703E+03  0.36193160794E+03  0.12509240207E+03 0.  0.
         24    2    1    2    0    0  0.62659648995E+02 -0.12834021931E+02  0.12315357149E+04  0.12358804696E+04  0.81420969667E+02 0.  0.
        -11    1    5    5    0    0  0.82383358223E+02 -0.70767490181E+01  0.10221741864E+04  0.10255131230E+04  0.00000000000E+00 0.  1.
         12    1    5    5    0    0 -0.19723709228E+02 -0.57572729133E+01  0.20936152851E+03  0.21036734661E+03  0.00000000000E+00 0. -1.
         11    1    3    3    0    0  0.36492261661E+02 -0.82900327776E+01 -0.51125337820E+01  0.37769667807E+02  0.00000000000E+00 0. -1.
        -12    1    3    3    0    0  0.33597961532E+01  0.22711740375E+02  0.71702668562E+02  0.75288671525E+02  0.00000000000E+00 0.  1.
          5    1    4    4  501    0 -0.10738145001E+03  0.42318659551E+02  0.20761190730E+03  0.23757487495E+03  0.41800000000E+01 0.  1.
         -5    1    4    4    0  501  0.48697431992E+01 -0.43906345218E+02  0.11617074973E+03  0.12435673299E+03  0.41800000000E+01 0.  1.
</event>
<event>
11    1  0.7397132E-009  0.1995130E+03  0.7561462E-02  0.1054869E+00
         22   -1    0    0    0    0  0.00000000000E+00  0.00000000000E+00  0.35435330647E+03  0.35435330647E+03  0.00000000000E+00 0.  1.
         22   -1    0    0    0    0 -0.00000000000E+00 -0.00000000000E+00 -0.60799245306E+03  0.60799245306E+03  0.00000000000E+00 0. -1.
        -24    2    1    2    0    0  0.61598281565E+02 -0.16952311799E+02 -0.33055309650E+03  0.34626751708E+03  0.80957486449E+02 0.  0.
         25    2    1    2    0    0  0.28918654972E+02  0.14564958805E+03 -0.20588434124E+03  0.28299322836E+03  0.12508682673E+03 0.  0.
         24    2    1    2    0    0 -0.90516936537E+02 -0.12869727625E+03  0.28279829115E+03  0.33308501409E+03  0.78831772924E+02 0.  0.
        -13    1    5    5    0    0 -0.95613884598E+02 -0.91238826090E+02  0.25107517958E+03  0.28373453106E+03  0.00000000000E+00 0.  1.
         14    1    5    5    0    0  0.50969480605E+01 -0.37458450162E+02  0.31723111565E+02  0.49350483032E+02  0.00000000000E+00 0. -1.
         13    1    3    3    0    0  0.46259620291E+02 -0.46318517582E+02 -0.26303848924E+03  0.27106199358E+03  0.00000000000E+00 0. -1.
        -14    1    3    3    0    0  0.15338661274E+02  0.29366205784E+02 -0.67514607254E+02  0.75205523497E+02  0.00000000000E+00 0.  1.
          5    1    4    4  501    0  0.16360830811E+02  0.55968384971E+01 -0.11306116462E+03  0.11445217661E+03  0.41800000000E+01 0.  1.
         -5    1    4    4    0  501  0.12557824161E+02  0.14005274955E+03 -0.92823176624E+02  0.16854105175E+03  0.41800000000E+01 0.  1.
</event>
<event>
11    1  0.5813833E-009  0.1913905E+03  0.7561462E-02  0.1060784E+00
         22   -1    0    0    0    0  0.00000000000E+00  0.00000000000E+00  0.13426210420E+04  0.13426210420E+04  0.00000000000E+00 0. -1.
         22   -1    0    0    0    0 -0.00000000000E+00 -0.00000000000E+00 -0.20185084256E+03  0.20185084256E+03  0.00000000000E+00 0. -1.
        -24    2    1    2    0    0  0.14461673207E+03  0.29321798605E+02 -0.14576059496E+03  0.22221683603E+03  0.79752141688E+02 0.  0.
         25    2    1    2    0    0 -0.11173161376E+03  0.15715857244E+02  0.53123679831E+03  0.55730082590E+03  0.12506291613E+03 0.  0.
         24    2    1    2    0    0 -0.32885118314E+02 -0.45037655849E+02  0.75529399607E+03  0.76495422261E+03  0.10759238237E+03 0.  0.
        -13    1    5    5    0    0  0.13090748563E+02  0.41714536987E+01  0.10947653197E+02  0.17567579071E+02  0.00000000000E+00 0.  1.
         14    1    5    5    0    0 -0.45975866877E+02 -0.49209109547E+02  0.74434634287E+03  0.74738664354E+03  0.00000000000E+00 0. -1.
         11    1    3    3    0    0  0.15389610189E+03  0.24797016769E+02 -0.12811480190E+03  0.20177290373E+03  0.00000000000E+00 0. -1.
        -12    1    3    3    0    0 -0.92793698166E+01  0.45247818360E+01 -0.17645793061E+02  0.20443932293E+02  0.00000000000E+00 0.  1.
          5    1    4    4  501    0 -0.13057754074E+03 -0.20869896768E+01  0.33952284645E+03  0.36379676378E+03  0.41800000000E+01 0. -1.
         -5    1    4    4    0  501  0.18845926980E+02  0.17802846920E+02  0.19171395185E+03  0.19350406212E+03  0.41800000000E+01 0. -1.
</event>
<event>
11    1  0.5813833E-009  0.1480813E+03  0.7561462E-02  0.1098856E+00
         22   -1    0    0    0    0  0.00000000000E+00  0.00000000000E+00  0.12752313786E+04  0.12752313786E+04  0.00000000000E+00 0.  1.
         22   -1    0    0    0    0 -0.00000000000E+00 -0.00000000000E+00 -0.11218631529E+03  0.11218631529E+03  0.00000000000E+00 0. -1.
         24    2    1    2    0    0 -0.14853624631E+02  0.65777026259E+02 -0.18317068211E+02  0.11246841562E+03  0.88127079694E+02 0.  0.
         25    2    1    2    0    0  0.15120069587E+02 -0.12183794698E+03  0.12710559675E+03  0.21650985186E+03  0.12509029299E+03 0.  0.
        -24    2    1    2    0    0 -0.26644495601E+00  0.56060920719E+02  0.10542565348E+04  0.10584394264E+04  0.75460456135E+02 0.  0.
        -13    1    3    3    0    0 -0.29851726194E+02 -0.10351884794E+02  0.37034794738E+01  0.31811992011E+02  0.00000000000E+00 0.  1.
         14    1    3    3    0    0  0.14998101562E+02  0.76128911052E+02 -0.22020547685E+02  0.80656423605E+02  0.00000000000E+00 0. -1.
         13    1    5    5    0    0 -0.99012405689E+01  0.47578327132E+02  0.28771590403E+03  0.29179131791E+03  0.00000000000E+00 0. -1.
        -14    1    5    5    0    0  0.96347956129E+01  0.84825935863E+01  0.76654063073E+03  0.76664810849E+03  0.00000000000E+00 0.  1.
          5    1    4    4  501    0 -0.40414725502E+02 -0.10981597694E+03  0.73286243326E+02  0.13813487861E+03  0.41800000000E+01 0. -1.
         -5    1    4    4    0  501  0.55534795089E+02 -0.12021970042E+02  0.53819353422E+02  0.78374973251E+02  0.41800000000E+01 0. -1.
</event>
<event>
11    1  0.5813833E-009  0.2042467E+03  0.7561462E-02  0.1051561E+00
         22   -1    0    0    0    0  0.00000000000E+00  0.00000000000E+00  0.25100736242E+03  0.25100736242E+03  0.00000000000E+00 0.  1.
         22   -1    0    0    0    0 -0.00000000000E+00 -0.00000000000E+00 -0.10543270425E+04  0.10543270425E+04  0.00000000000E+00 0. -1.
        -24    2    1    2    0    0  0.50326201344E+02 -0.75743740177E+02 -0.81462404310E+03  0.82355568564E+03  0.79760861545E+02 0.  0.
         25    2    1    2    0    0 -0.48511668195E+02 -0.99847287355E+02 -0.15411257721E+03  0.22742494568E+03  0.12509419140E+03 0.  0.
         24    2    1    2    0    0 -0.18145331489E+01  0.17559102753E+03  0.16541694022E+03  0.25435377360E+03  0.80607546501E+02 0.  0.
        -13    1    5    5    0    0  0.12588009589E+02  0.17116126054E+03  0.16666755258E+03  0.23923358497E+03  0.00000000000E+00 0.  1.
         14    1    5    5    0    0 -0.14402542738E+02  0.44297669886E+01 -0.12506123580E+01  0.15120188629E+02  0.00000000000E+00 0. -1.
         11    1    3    3    0    0  0.80303569022E+01 -0.69558659930E+02 -0.63808145742E+03  0.64191186319E+03  0.00000000000E+00 0. -1.
        -12    1    3    3    0    0  0.42295844442E+02 -0.61850802470E+01 -0.17654258568E+03  0.18164382244E+03  0.00000000000E+00 0.  1.
          5    1    4    4  501    0 -0.88133966967E+02 -0.83200961644E+02 -0.94138315559E+02  0.15352358453E+03  0.41800000000E+01 0. -1.
         -5    1    4    4    0  501  0.39622298772E+02 -0.16646325711E+02 -0.59974261646E+02  0.73901361149E+02  0.41800000000E+01 0. -1.
</event>
<event>
11    1  0.5813833E-009  0.1560301E+03  0.7561462E-02  0.1090872E+00
         22   -1    0    0    0    0  0.00000000000E+00  0.00000000000E+00  0.13878084721E+03  0.13878084721E+03  0.00000000000E+00 0. -1.
         22   -1    0    0    0    0 -0.00000000000E+00 -0.00000000000E+00 -0.91689004297E+03  0.91689004297E+03  0.00000000000E+00 0.  1.
        -24    2    1    2    0    0  0.89242397705E+02  0.25517753178E+02 -0.70112788409E+03  0.71159406812E+03  0.78552190655E+02 0.  0.
         25    2    1    2    0    0 -0.44880484979E+02  0.69111255215E+02 -0.13458008277E+03  0.20136981344E+03  0.12508948620E+03 0.  0.
         24    2    1    2    0    0 -0.44361912726E+02 -0.94629008394E+02  0.57598771110E+02  0.14270700862E+03  0.78262656139E+02 0.  0.
        -11    1    5    5    0    0 -0.70031036476E+01 -0.23098599132E+01 -0.16831028345E+02  0.18375593287E+02  0.00000000000E+00 0.  1.
         12    1    5    5    0    0 -0.37358809078E+02 -0.92319148480E+02  0.74429799455E+02  0.12433141533E+03  0.00000000000E+00 0. -1.
         13    1    3    3    0    0  0.27640608965E+02  0.21627430908E+02 -0.79412947517E+02  0.86822608029E+02  0.00000000000E+00 0. -1.
        -14    1    3    3    0    0  0.61601788739E+02  0.38903222702E+01 -0.62171493658E+03  0.62477146009E+03  0.00000000000E+00 0.  1.
          5    1    4    4  501    0  0.26137300230E+02  0.67106234269E+02 -0.38399468037E+02  0.81721457933E+02  0.41800000000E+01 0. -1.
         -5    1    4    4    0  501 -0.71017785210E+02  0.20050209457E+01 -0.96180614734E+02  0.11964835551E+03  0.41800000000E+01 0. -1.
</event>
<event>
11    1  0.5813833E-009  0.1317648E+03  0.7561462E-02  0.1117119E+00
         22   -1    0    0    0    0  0.00000000000E+00  0.00000000000E+00  0.25702391183E+03  0.25702391183E+03  0.00000000000E+00 0.  1.
         22   -1    0    0    0    0 -0.00000000000E+00 -0.00000000000E+00 -0.33463776463E+03  0.33463776463E+03  0.00000000000E+00 0.  1.
        -24    2    1    2    0    0  0.25328882397E+02  0.43753643118E+02 -0.18355149477E+03  0.20718075616E+03  0.81711571526E+02 0.  0.
         25    2    1    2    0    0 -0.30622743316E+02  0.12507099418E+01 -0.97911472805E+02  0.16178175712E+03  0.12508942299E+03 0.  0.
         24    2    1    2    0    0  0.52938609185E+01 -0.45004353060E+02  0.20384911477E+03  0.22269916319E+03  0.77375958382E+02 0.  0.
        -13    1    5    5    0    0 -0.13030928353E+02 -0.43314600582E+02  0.19842311398E+03  0.20351337027E+03  0.00000000000E+00 0.  1.
         14    1    5    5    0    0  0.18324789272E+02 -0.16897524775E+01  0.54260007859E+01  0.19185792916E+02  0.00000000000E+00 0. -1.
         13    1    3    3    0    0 -0.14535700519E+02  0.21848463199E+02 -0.14558587533E+03  0.14793204193E+03  0.00000000000E+00 0. -1.
        -14    1    3    3    0    0  0.39864582916E+02  0.21905179920E+02 -0.37965619433E+02  0.59248714225E+02  0.00000000000E+00 0.  1.
          5    1    4    4  501    0  0.30386018322E+02  0.31266175959E+02 -0.16181665327E+01  0.43828925739E+02  0.41800000000E+01 0.  1.
         -5    1    4    4    0  501 -0.61008761638E+02 -0.30015466017E+02 -0.96293306272E+02  0.11795283138E+03  0.41800000000E+01 0.  1.
</event>
<event>
11    1  0.5813833E-009  0.1452800E+03  0.7561462E-02  0.1101802E+00
         22   -1    0    0    0    0  0.00000000000E+00  0.00000000000E+00  0.27127363450E+03  0.27127363450E+03  0.00000000000E+00 0. -1.
         22   -1    0    0    0    0 -0.00000000000E+00 -0.00000000000E+00 -0.61425133930E+03  0.61425133930E+03  0.00000000000E+00 0. -1.
        -24    2    1    2    0    0  0.26352893121E+01 -0.60692448395E+02 -0.50868497267E+03  0.51844583187E+03  0.79593725368E+02 0.  0.
         25    2    1    2    0    0 -0.72630148405E+02  0.74026039672E+02 -0.81895278702E+01  0.16268251583E+03  0.12507413635E+03 0.  0.
         24    2    1    2    0    0  0.69994859093E+02 -0.13333591277E+02  0.17389679574E+03  0.20439662610E+03  0.80379227635E+02 0.  0.
        -13    1    5    5    0    0 -0.18568210237E+01  0.21507830913E+02  0.14175438308E+02  0.25825909976E+02  0.00000000000E+00 0.  1.
         14    1    5    5    0    0  0.71851680116E+02 -0.34841422190E+02  0.15972135743E+03  0.17857071612E+03  0.00000000000E+00 0. -1.
         11    1    3    3    0    0  0.33108500944E+02 -0.34797752395E+02 -0.39546501608E+03  0.39837122806E+03  0.00000000000E+00 0. -1.
        -12    1    3    3    0    0 -0.30473211632E+02 -0.25894696001E+02 -0.11321995659E+03  0.12007460381E+03  0.00000000000E+00 0.  1.
          5    1    4    4  501    0 -0.63689811588E+01 -0.30657225099E+02 -0.21193331420E+02  0.38040229606E+02  0.41800000000E+01 0. -1.
         -5    1    4    4    0  501 -0.66261167246E+02  0.10468326477E+03  0.13003803550E+02  0.12464228622E+03  0.41800000000E+01 0. -1.
</event>
<event>
11    1  0.5813833E-009  0.1490357E+03  0.7561462E-02  0.1097868E+00
         22   -1    0    0    0    0  0.00000000000E+00  0.00000000000E+00  0.20777516018E+03  0.20777516018E+03  0.00000000000E+00 0.  1.
         22   -1    0    0    0    0 -0.00000000000E+00 -0.00000000000E+00 -0.17819474735E+04  0.17819474735E+04  0.00000000000E+00 0. -1.
        -24    2    1    2    0    0  0.16077390612E+02 -0.58824286903E+02 -0.14175780000E+04  0.14211537470E+04  0.80198548137E+02 0.  0.
         25    2    1    2    0    0  0.48701568267E+02  0.10567209869E+03 -0.32404116431E+03  0.36631761589E+03  0.12508990507E+03 0.  0.
         24    2    1    2    0    0 -0.64778958879E+02 -0.46847811786E+02  0.16744685106E+03  0.20225127079E+03  0.80474204708E+02 0.  0.
        -13    1    5    5    0    0 -0.31958473834E+02 -0.18939417778E+02  0.15201568175E+03  0.15648901909E+03  0.00000000000E+00 0.  1.
         14    1    5    5    0    0 -0.32820485045E+02 -0.27908394009E+02  0.15431169305E+02  0.45762251702E+02  0.00000000000E+00 0. -1.
         11    1    3    3    0    0  0.22191897962E+02 -0.58979290587E+02 -0.14100353629E+04  0.14114427943E+04  0.00000000000E+00 0. -1.
        -12    1    3    3    0    0 -0.61145073506E+01  0.15500368414E+00 -0.75426371762E+01  0.97109526749E+01  0.00000000000E+00 0.  1.
          5    1    4    4  501    0  0.80907450450E+01 -0.25446432760E+02 -0.99554396503E+02  0.10315779834E+03  0.41800000000E+01 0. -1.
         -5    1    4    4    0  501  0.40610823222E+02  0.13111853145E+03 -0.22448676780E+03  0.26315981755E+03  0.41800000000E+01 0. -1.
</event>
<event>
11    1  0.5813833E-009  0.1556495E+03  0.7561462E-02  0.1091242E+00
         22   -1    0    0    0    0  0.00000000000E+00  0.00000000000E+00  0.17391282187E+04  0.17391282187E+04  0.00000000000E+00 0.  1.
         22   -1    0    0    0    0 -0.00000000000E+00 -0.00000000000E+00 -0.80447031518E+02  0.80447031518E+02  0.00000000000E+00 0. -1.
         24    2    1    2    0    0  0.87892430812E+02 -0.53224893701E+02  0.33244021160E+01  0.13007750742E+03  0.79694024771E+02 0.  0.
         25    2    1    2    0    0 -0.47451873807E+02  0.13349661201E+02  0.28078071161E+03  0.31131188457E+03  0.12508951867E+03 0.  0.
        -24    2    1    2    0    0 -0.40440557005E+02  0.39875232500E+02  0.13745760734E+04  0.13781858582E+04  0.81923166943E+02 0.  0.
        -13    1    3    3    0    0  0.63414745810E+01 -0.41750611079E+02  0.18895591431E+02  0.46264145954E+02  0.00000000000E+00 0.  1.
         14    1    3    3    0    0  0.81550956231E+02 -0.11474282622E+02 -0.15571189315E+02  0.83813361468E+02  0.00000000000E+00 0. -1.
         13    1    5    5    0    0  0.24894535032E+02  0.46379027425E+01  0.31993903921E+03  0.32093961555E+03  0.00000000000E+00 0. -1.
        -14    1    5    5    0    0 -0.65335092037E+02  0.35237329758E+02  0.10546370342E+04  0.10572462426E+04  0.00000000000E+00 0.  1.
          5    1    4    4  501    0  0.10014723907E+01 -0.42570972269E+02  0.37169825848E+02  0.56677676209E+02  0.41800000000E+01 0. -1.
         -5    1    4    4    0  501 -0.48453346198E+02  0.55920633470E+02  0.24361088577E+03  0.25463420836E+03  0.41800000000E+01 0. -1.
</event>
<event>
11    1  0.5813833E-009  0.1822190E+03  0.7561462E-02  0.1067862E+00
         22   -1    0    0    0    0  0.00000000000E+00  0.00000000000E+00  0.21022152220E+04  0.21022152220E+04  0.00000000000E+00 0.  1.
         22   -1    0    0    0    0 -0.00000000000E+00 -0.00000000000E+00 -0.74031835168E+03  0.74031835168E+03  0.00000000000E+00 0.  1.
         24    2    1    2    0    0 -0.56712624336E+02 -0.50543215703E+01 -0.64187727878E+03  0.64921793971E+03  0.78965969232E+02 0.  0.
         25    2    1    2    0    0  0.87831578316E+02  0.13324553390E+03  0.20188556106E+02  0.20377410964E+03  0.12509017352E+03 0.  0.
        -24    2    1    2    0    0 -0.31118953980E+02 -0.12819121233E+03  0.19835855930E+04  0.19895415244E+04  0.79134670113E+02 0.  0.
        -11    1    3    3    0    0 -0.75446574751E+02  0.36004186021E+01 -0.45803892926E+03  0.46422495557E+03  0.00000000000E+00 0.  1.
         12    1    3    3    0    0  0.18733950415E+02 -0.86547401724E+01 -0.18383834952E+03  0.18499298414E+03  0.00000000000E+00 0. -1.
         13    1    5    5    0    0  0.18618007289E+02 -0.77938296383E+01  0.44251202590E+03  0.44297208382E+03  0.00000000000E+00 0. -1.
        -14    1    5    5    0    0 -0.49736961269E+02 -0.12039738269E+03  0.15410735671E+04  0.15465694405E+04  0.00000000000E+00 0.  1.
          5    1    4    4  501    0  0.20837456033E+01  0.10906932367E+03  0.32106228386E+02  0.11379253782E+03  0.41800000000E+01 0.  1.
         -5    1    4    4    0  501  0.85747832712E+02  0.24176210226E+02 -0.11917672280E+02  0.89981571826E+02  0.41800000000E+01 0.  1.
</event>
<event>
11    1  0.5813833E-009  0.1482296E+03  0.7561462E-02  0.1098702E+00
         22   -1    0    0    0    0  0.00000000000E+00  0.00000000000E+00  0.26969137555E+04  0.26969137555E+04  0.00000000000E+00 0. -1.
         22   -1    0    0    0    0 -0.00000000000E+00 -0.00000000000E+00 -0.37808981836E+03  0.37808981836E+03  0.00000000000E+00 0. -1.
         24    2    1    2    0    0 -0.77214215052E+02  0.37833602056E+02 -0.26647583033E+03  0.29119144804E+03  0.79935441499E+02 0.  0.
         25    2    1    2    0    0  0.67280467339E+02  0.27882606192E+02 -0.44897687792E+02  0.15154643029E+03  0.12508563926E+03 0.  0.
        -24    2    1    2    0    0  0.99337477131E+01 -0.65716208248E+02  0.26301974552E+04  0.26322656955E+04  0.80416036193E+02 0.  0.
        -11    1    3    3    0    0 -0.44167342655E+02  0.37116981980E+02 -0.64534957491E+02  0.86563186441E+02  0.00000000000E+00 0.  1.
         12    1    3    3    0    0 -0.33046872397E+02  0.71662007579E+00 -0.20194087284E+03  0.20462826160E+03  0.00000000000E+00 0. -1.
         13    1    5    5    0    0  0.31951431342E+02 -0.30307737702E+02  0.58965232094E+03  0.59129460722E+03  0.00000000000E+00 0. -1.
        -14    1    5    5    0    0 -0.22017683629E+02 -0.35408470546E+02  0.20405451343E+04  0.20409710883E+04  0.00000000000E+00 0.  1.
          5    1    4    4  501    0  0.51956727879E+02  0.52786745858E+02 -0.77684295899E+02  0.10741631319E+03  0.41800000000E+01 0.  1.
         -5    1    4    4    0  501  0.15323739460E+02 -0.24904139666E+02  0.32786608108E+02  0.44130117094E+02  0.41800000000E+01 0.  1.
</event>
<event>
11    1  0.5813833E-009  0.1531669E+03  0.7561462E-02  0.1093686E+00
         22   -1    0    0    0    0  0.00000000000E+00  0.00000000000E+00  0.18273040766E+03  0.18273040766E+03  0.00000000000E+00 0.  1.
         22   -1    0    0    0    0 -0.00000000000E+00 -0.00000000000E+00 -0.42000992620E+03  0.42000992620E+03  0.00000000000E+00 0.  1.
         24    2    1    2    0    0 -0.67962364236E+02  0.12136672040E+02 -0.15718889293E+03  0.18996167346E+03  0.81307487722E+02 0.  0.
         25    2    1    2    0    0  0.12911451033E+03 -0.23178206269E+02 -0.19038451027E+03  0.26287306932E+03  0.12509277676E+03 0.  0.
        -24    2    1    2    0    0 -0.61152146098E+02  0.11041534229E+02  0.11029388466E+03  0.14990559108E+03  0.80283527525E+02 0.  0.
        -11    1    3    3    0    0 -0.73806380395E+02 -0.15883044772E+02 -0.13083407899E+03  0.15105366306E+03  0.00000000000E+00 0.  1.
         12    1    3    3    0    0  0.58440161594E+01  0.28019716812E+02 -0.26354813946E+02  0.38908010399E+02  0.00000000000E+00 0. -1.
         11    1    5    5    0    0 -0.18360736932E+02 -0.76540495140E+01 -0.89732675782E+01  0.21822480741E+02  0.00000000000E+00 0. -1.
        -12    1    5    5    0    0 -0.42791409166E+02  0.18695583743E+02  0.11926715224E+03  0.12808311034E+03  0.00000000000E+00 0.  1.
          5    1    4    4  501    0  0.10457906464E+03 -0.12760805108E+02 -0.44380901139E+02  0.11439735878E+03  0.41800000000E+01 0.  1.
         -5    1    4    4    0  501  0.24535445690E+02 -0.10417401160E+02 -0.14600360913E+03  0.14847571054E+03  0.41800000000E+01 0.  1.
</event>
<event>
11    1  0.5813833E-009  0.1364810E+03  0.7561462E-02  0.1111553E+00
         22   -1    0    0    0    0  0.00000000000E+00  0.00000000000E+00  0.30644284074E+03  0.30644284074E+03  0.00000000000E+00 0.  1.
         22   -1    0    0    0    0 -0.00000000000E+00 -0.00000000000E+00 -0.27092838618E+03  0.27092838618E+03  0.00000000000E+00 0.  1.
        -24    2    1    2    0    0  0.36845145887E+02  0.87647115365E+01 -0.17490055314E+03  0.19605593349E+03  0.80083335517E+02 0.  0.
         25    2    1    2    0    0 -0.28442920568E+00 -0.51943923923E+02 -0.13220149288E+02  0.13609109333E+03  0.12509101168E+03 0.  0.
         24    2    1    2    0    0 -0.36560716681E+02  0.43179212387E+02  0.22363515699E+03  0.24522420009E+03  0.83193115604E+02 0.  0.
        -11    1    5    5    0    0 -0.43453125874E+02  0.64111281520E+02  0.18795778866E+03  0.20328935261E+03  0.00000000000E+00 0.  1.
         12    1    5    5    0    0  0.68924091926E+01 -0.20932069134E+02  0.35677368325E+02  0.41934847482E+02  0.00000000000E+00 0. -1.
         11    1    3    3    0    0  0.59889923851E+01  0.33858870991E+02 -0.29471336293E+02  0.45286320644E+02  0.00000000000E+00 0. -1.
        -12    1    3    3    0    0  0.30856153502E+02 -0.25094159455E+02 -0.14542921684E+03  0.15076961285E+03  0.00000000000E+00 0.  1.
          5    1    4    4  501    0 -0.48481420799E+02 -0.49911361876E+02 -0.40395462889E+02  0.80565861436E+02  0.41800000000E+01 0. -1.
         -5    1    4    4    0  501  0.48196991593E+02 -0.20325620468E+01  0.27175313600E+02  0.55525231889E+02  0.41800000000E+01 0. -1.
</event>
<event>
11    1  0.5813833E-009  0.3238040E+03  0.7561462E-02  0.9905915E-01
         22   -1    0    0    0    0  0.00000000000E+00  0.00000000000E+00  0.77871811219E+02  0.77871811219E+02  0.00000000000E+00 0. -1.
         22   -1    0    0    0    0 -0.00000000000E+00 -0.00000000000E+00 -0.12591740916E+04  0.12591740916E+04  0.00000000000E+00 0.  1.
        -24    2    1    2    0    0  0.12427611950E+03 -0.40812790308E+02 -0.64410856486E+03  0.66218000828E+03  0.80599518021E+02 0.  0.
         25    2    1    2    0    0  0.90070432314E+02  0.22064732554E+01 -0.32763611418E+03  0.36209374513E+03  0.12509558602E+03 0.  0.
         24    2    1    2    0    0 -0.21434655182E+03  0.38606317053E+02 -0.20955760136E+03  0.31277214943E+03  0.80480663405E+02 0.  0.
        -11    1    5    5    0    0 -0.31400145454E+02  0.14406043202E+02 -0.80446107495E+02  0.87550439327E+02  0.00000000000E+00 0.  1.
         12    1    5    5    0    0 -0.18294640636E+03  0.24200273851E+02 -0.12911149386E+03  0.22522171011E+03  0.00000000000E+00 0. -1.
         13    1    3    3    0    0  0.15327327620E+01 -0.12688684249E+02 -0.11605867482E+02  0.17264070716E+02  0.00000000000E+00 0. -1.
        -14    1    3    3    0    0  0.12274338674E+03 -0.28124106059E+02 -0.63250269738E+03  0.64491593756E+03  0.00000000000E+00 0.  1.
          5    1    4    4  501    0  0.11349566386E+03 -0.26244342433E+02 -0.26058019475E+03  0.28546373066E+03  0.41800000000E+01 0.  1.
         -5    1    4    4    0  501 -0.23425231548E+02  0.28450815689E+02 -0.67055919431E+02  0.76630014467E+02  0.41800000000E+01 0.  1.
</event>
<event>
11    1  0.5813833E-009  0.1403831E+03  0.7561462E-02  0.1107131E+00
         22   -1    0    0    0    0  0.00000000000E+00  0.00000000000E+00  0.32867936506E+03  0.32867936506E+03  0.00000000000E+00 0.  1.
         22   -1    0    0    0    0 -0.00000000000E+00 -0.00000000000E+00 -0.11506799424E+03  0.11506799424E+03  0.00000000000E+00 0.  1.
        -24    2    1    2    0    0 -0.52867163362E+02  0.10821887153E+02 -0.13962585196E+02  0.10085450966E+03  0.84051342231E+02 0.  0.
         25    2    1    2    0    0 -0.26151670954E+02 -0.33351778559E+01  0.59305043289E+02  0.14092456233E+03  0.12509041052E+03 0.  0.
         24    2    1    2    0    0  0.79018834316E+02 -0.74867092967E+01  0.16826891272E+03  0.20196828731E+03  0.78592207598E+02 0.  0.
        -11    1    5    5    0    0  0.74721171080E+02  0.56690427141E+01  0.17201633627E+03  0.18762998533E+03  0.00000000000E+00 0.  1.
         12    1    5    5    0    0  0.42976632360E+01 -0.13155752011E+02 -0.37474235437E+01  0.14338301973E+02  0.00000000000E+00 0. -1.
         13    1    3    3    0    0 -0.20456175224E+02  0.20900632125E+01  0.35530978142E+02  0.41052087362E+02  0.00000000000E+00 0. -1.
        -14    1    3    3    0    0 -0.32410988138E+02  0.87318239401E+01 -0.49493563338E+02  0.59802422303E+02  0.00000000000E+00 0.  1.
          5    1    4    4  501    0  0.18535098957E+02 -0.55533590967E+02  0.32141109145E+02  0.66918255477E+02  0.41800000000E+01 0. -1.
         -5    1    4    4    0  501 -0.44686769911E+02  0.52198413111E+02  0.27163934145E+02  0.74006306857E+02  0.41800000000E+01 0. -1.
</event>
<event>
11    1  0.5813833E-009  0.1847540E+03  0.7561462E-02  0.1065861E+00
         22   -1    0    0    0    0  0.00000000000E+00  0.00000000000E+00  0.64242435451E+02  0.64242435451E+02  0.00000000000E+00 0.  1.
         22   -1    0    0    0    0 -0.00000000000E+00 -0.00000000000E+00 -0.13046584113E+04  0.13046584113E+04  0.00000000000E+00 0.  1.
         24    2    1    2    0    0  0.59598697655E+02  0.36338837632E+02 -0.78700713330E+03  0.79423950887E+03  0.81016379216E+02 0.  0.
         25    2    1    2    0    0  0.22336507427E+02 -0.14480310423E+03 -0.28317781172E+03  0.34249592730E+03  0.12508768368E+03 0.  0.
        -24    2    1    2    0    0 -0.81935205082E+02  0.10846426660E+03 -0.17023103085E+03  0.23216541060E+03  0.80276391630E+02 0.  0.
        -11    1    3    3    0    0 -0.30202756278E+01  0.88024541754E+01 -0.46283437565E+03  0.46292792587E+03  0.00000000000E+00 0.  1.
         12    1    3    3    0    0  0.62618973283E+02  0.27536383457E+02 -0.32417275764E+03  0.33131158300E+03  0.00000000000E+00 0. -1.
         13    1    5    5    0    0 -0.46236043922E+02  0.35506520341E+02 -0.12793064728E+03  0.14058710915E+03  0.00000000000E+00 0. -1.
        -14    1    5    5    0    0 -0.35699161161E+02  0.72957746261E+02 -0.42300383570E+02  0.91578301454E+02  0.00000000000E+00 0.  1.
          5    1    4    4  501    0  0.14818846115E+02 -0.87808163433E+02 -0.26864699856E+03  0.28305221073E+03  0.41800000000E+01 0. -1.
         -5    1    4    4    0  501  0.75176613121E+01 -0.56994940800E+02 -0.14530813158E+02  0.59443716568E+02  0.41800000000E+01 0. -1.
</event>
<event>
11    1  0.5813833E-009  0.1351313E+03  0.7561462E-02  0.1113120E+00
         22   -1    0    0    0    0  0.00000000000E+00  0.00000000000E+00  0.75604600284E+03  0.75604600284E+03  0.00000000000E+00 0. -1.
         22   -1    0    0    0    0 -0.00000000000E+00 -0.00000000000E+00 -0.88606004113E+02  0.88606004113E+02  0.00000000000E+00 0.  1.
         24    2    1    2    0    0 -0.36931850072E+02 -0.80730228584E+01 -0.37159487288E+02  0.96197014954E+02  0.80273924426E+02 0.  0.
         25    2    1    2    0    0  0.56842251675E+02 -0.35969098981E+02  0.28961201470E+03  0.32256327655E+03  0.12508849133E+03 0.  0.
        -24    2    1    2    0    0 -0.19910401603E+02  0.44042121840E+02  0.41498747131E+03  0.42589171545E+03  0.82662079282E+02 0.  0.
        -13    1    3    3    0    0 -0.86644470208E+01 -0.73126116726E+01 -0.59242883672E+02  0.60318042056E+02  0.00000000000E+00 0.  1.
         14    1    3    3    0    0 -0.28267403051E+02 -0.76041118574E+00  0.22083396384E+02  0.35878972899E+02  0.00000000000E+00 0. -1.
         13    1    5    5    0    0  0.29711493417E+02  0.52196517533E+01  0.18442453268E+03  0.18687542872E+03  0.00000000000E+00 0. -1.
        -14    1    5    5    0    0 -0.49621895020E+02  0.38822470087E+02  0.23056293863E+03  0.23901628673E+03  0.00000000000E+00 0.  1.
          5    1    4    4  501    0  0.39244378379E+02 -0.48209361667E+02  0.29379315115E+03  0.30032674181E+03  0.41800000000E+01 0.  1.
         -5    1    4    4    0  501  0.17597873296E+02  0.12240262686E+02 -0.41811364468E+01  0.22236534737E+02  0.41800000000E+01 0.  1.
</event>
<event>
11    1  0.5813833E-009  0.3338646E+03  0.7561462E-02  0.9867972E-01
         22   -1    0    0    0    0  0.00000000000E+00  0.00000000000E+00  0.38644097803E+04  0.38644097803E+04  0.00000000000E+00 0. -1.
         22   -1    0    0    0    0 -0.00000000000E+00 -0.00000000000E+00 -0.66014913999E+03  0.66014913999E+03  0.00000000000E+00 0. -1.
        -24    2    1    2    0    0  0.31196876583E+03  0.17771190902E+02 -0.49752383413E+03  0.59290726113E+03  0.79804315040E+02 0.  0.
         25    2    1    2    0    0 -0.29367260078E+03 -0.40124111423E+02  0.11169094121E+03  0.34055582439E+03  0.12509941010E+03 0.  0.
         24    2    1    2    0    0 -0.18296165042E+02  0.22352920521E+02  0.35900935332E+04  0.35910958347E+04  0.79770386247E+02 0.  0.
        -11    1    5    5    0    0  0.78440798836E+01 -0.24951332910E+01  0.40952109834E+02  0.41771169234E+02  0.00000000000E+00 0.  1.
         12    1    5    5    0    0 -0.26140244926E+02  0.24848053812E+02  0.35491414234E+04  0.35493246655E+04  0.00000000000E+00 0. -1.
         11    1    3    3    0    0  0.22583668648E+03  0.45772817443E+02 -0.38192492159E+03  0.44605381459E+03  0.00000000000E+00 0. -1.
        -12    1    3    3    0    0  0.86132079351E+02 -0.28001626541E+02 -0.11559891254E+03  0.14685344654E+03  0.00000000000E+00 0.  1.
          5    1    4    4  501    0 -0.21287574723E+03 -0.84184387198E+02  0.69836953956E+02  0.23936952050E+03  0.41800000000E+01 0. -1.
         -5    1    4    4    0  501 -0.80796853553E+02  0.44060275775E+02  0.41853987255E+02  0.10118630389E+03  0.41800000000E+01 0. -1.
</event>
<event>
11    1  0.5813833E-009  0.3422107E+03  0.7561462E-02  0.9837568E-01
         22   -1    0    0    0    0  0.00000000000E+00  0.00000000000E+00  0.73260495711E+03  0.73260495711E+03  0.00000000000E+00 0. -1.
         22   -1    0    0    0    0 -0.00000000000E+00 -0.00000000000E+00 -0.22615825289E+04  0.22615825289E+04  0.00000000000E+00 0. -1.
         24    2    1    2    0    0  0.51988469941E+02 -0.49325204256E+00 -0.16160931114E+04  0.16189633586E+04  0.81131791167E+02 0.  0.
         25    2    1    2    0    0 -0.20362701128E+03  0.27882859555E+03 -0.54868080367E+03  0.66023240514E+03  0.12508740570E+03 0.  0.
        -24    2    1    2    0    0  0.15163854134E+03 -0.27833534351E+03  0.63579634332E+03  0.71499172220E+03  0.80693010674E+02 0.  0.
        -11    1    3    3    0    0  0.69720828375E+02  0.13689685211E+02 -0.10408793197E+04  0.10433015669E+04  0.00000000000E+00 0.  1.
         12    1    3    3    0    0 -0.17732358434E+02 -0.14182937253E+02 -0.57521379169E+03  0.57566179167E+03  0.00000000000E+00 0. -1.
         13    1    5    5    0    0  0.69591570006E+02 -0.11106515982E+03  0.35095912993E+03  0.37463417786E+03  0.00000000000E+00 0. -1.
        -14    1    5    5    0    0  0.82046971334E+02 -0.16727018369E+03  0.28483721339E+03  0.34035754434E+03  0.00000000000E+00 0.  1.
          5    1    4    4  501    0 -0.72201074560E+02  0.10086369672E+03 -0.97918301559E+02  0.15808841407E+03  0.41800000000E+01 0. -1.
         -5    1    4    4    0  501 -0.13142593672E+03  0.17796489883E+03 -0.45076250211E+03  0.50214399107E+03  0.41800000000E+01 0. -1.
</event>
<event>
11    1  0.6841929E-009  0.1539008E+03  0.7561462E-02  0.1092958E+00
         22   -1    0    0    0    0  0.00000000000E+00  0.00000000000E+00  0.30701220470E+04  0.30701220470E+04  0.00000000000E+00 0.  1.
         22   -1    0    0    0    0 -0.00000000000E+00 -0.00000000000E+00 -0.54441846232E+02  0.54441846232E+02  0.00000000000E+00 0.  1.
        -24    2    1    2    0    0  0.61676429896E+02 -0.32856345804E+02  0.29053830851E+02  0.11012496051E+03  0.79999127338E+02 0.  0.
         25    2    1    2    0    0 -0.63091541056E+02 -0.60068993172E+02  0.45790199381E+03  0.48261022635E+03  0.12509823399E+03 0.  0.
         24    2    1    2    0    0  0.14151111601E+01  0.92925338977E+02  0.25287243761E+04  0.25318287064E+04  0.84098198350E+02 0.  0.
        -11    1    5    5    0    0  0.82113056272E+01  0.10705494624E+03  0.23366186791E+04  0.23390842308E+04  0.00000000000E+00 0.  1.
         12    1    5    5    0    0 -0.67961944671E+01 -0.14129607262E+02  0.19210569699E+03  0.19274447560E+03  0.00000000000E+00 0. -1.
         11    1    3    3    0    0  0.47342532159E+02 -0.13138780263E+02  0.55523506741E+02  0.74140425537E+02  0.00000000000E+00 0. -1.
        -12    1    3    3    0    0  0.14333897737E+02 -0.19717565541E+02 -0.26469675889E+02  0.35984534968E+02  0.00000000000E+00 0.  1.
          5    1    4    4  501    0 -0.50998996135E+02 -0.34405905317E+02  0.68544021878E+02  0.92197718316E+02  0.41800000000E+01 0.  1.
         -5    1    4    4    0  501 -0.12092544922E+02 -0.25663087856E+02  0.38935797194E+03  0.39041250804E+03  0.41800000000E+01 0.  1.
</event>
<event>
11    1  0.5813833E-009  0.1275525E+03  0.7561462E-02  0.1122313E+00
         22   -1    0    0    0    0  0.00000000000E+00  0.00000000000E+00  0.23145859249E+04  0.23145859249E+04  0.00000000000E+00 0. -1.
         22   -1    0    0    0    0 -0.00000000000E+00 -0.00000000000E+00 -0.95041637836E+02  0.95041637836E+02  0.00000000000E+00 0.  1.
         24    2    1    2    0    0  0.48697680098E+01  0.12961874120E+02 -0.68681560808E+02  0.10316968389E+03  0.75730456600E+02 0.  0.
         25    2    1    2    0    0  0.20639827307E+02 -0.11634152389E+02  0.49291619403E+03  0.50909166898E+03  0.12508635863E+03 0.  0.
        -24    2    1    2    0    0 -0.25509595317E+02 -0.13277217305E+01  0.17953096538E+04  0.17973662099E+04  0.82073362940E+02 0.  0.
        -11    1    3    3    0    0 -0.29858986385E+02  0.26099337995E+02 -0.31773590810E+02  0.50816292512E+02  0.00000000000E+00 0.  1.
         12    1    3    3    0    0  0.34728754395E+02 -0.13137463876E+02 -0.36907969998E+02  0.52353391373E+02  0.00000000000E+00 0. -1.
         13    1    5    5    0    0 -0.31803166088E+02 -0.17504220274E+02  0.17059579006E+04  0.17063441029E+04  0.00000000000E+00 0. -1.
        -14    1    5    5    0    0  0.62935707710E+01  0.16176498543E+02  0.89351753264E+02  0.91022106927E+02  0.00000000000E+00 0.  1.
          5    1    4    4  501    0 -0.27378997945E+02  0.43863926796E+02  0.24869703740E+03  0.25404988174E+03  0.41800000000E+01 0.  1.
         -5    1    4    4    0  501  0.48018825252E+02 -0.55498079185E+02  0.24421915664E+03  0.25504178724E+03  0.41800000000E+01 0.  1.
</event>
<event>
11    1  0.5813833E-009  0.1610864E+03  0.7561462E-02  0.1086060E+00
         22   -1    0    0    0    0  0.00000000000E+00  0.00000000000E+00  0.17125626173E+04  0.17125626173E+04  0.00000000000E+00 0. -1.
         22   -1    0    0    0    0 -0.00000000000E+00 -0.00000000000E+00 -0.80219871723E+02  0.80219871723E+02  0.00000000000E+00 0. -1.
        -24    2    1    2    0    0 -0.24900652572E+02  0.17160132383E+02 -0.17574370332E+02  0.87566594839E+02  0.80277876138E+02 0.  0.
         25    2    1    2    0    0 -0.30027381903E+02  0.71688412658E+02  0.19494768755E+03  0.24432057305E+03  0.12508824629E+03 0.  0.
         24    2    1    2    0    0  0.54928034476E+02 -0.88848545041E+02  0.14549694283E+04  0.14608953211E+04  0.79799429316E+02 0.  0.
        -13    1    5    5    0    0 -0.61670163525E+01  0.63155597533E+01  0.25990685230E+02  0.27448754151E+02  0.00000000000E+00 0.  1.
         14    1    5    5    0    0  0.61095050828E+02 -0.95164104795E+02  0.14289787431E+04  0.14334465669E+04  0.00000000000E+00 0. -1.
         11    1    3    3    0    0 -0.47931364736E+02  0.27954079223E+02 -0.25301994575E+02  0.60983909354E+02  0.00000000000E+00 0. -1.
        -12    1    3    3    0    0  0.23030712164E+02 -0.10793946839E+02  0.77276242423E+01  0.26582685485E+02  0.00000000000E+00 0.  1.
          5    1    4    4  501    0 -0.69288421444E+02  0.43947009769E+02  0.62115978839E+02  0.10299559331E+03  0.41800000000E+01 0. -1.
         -5    1    4    4    0  501  0.39261039541E+02  0.27741402889E+02  0.13283170871E+03  0.14132497974E+03  0.41800000000E+01 0. -1.
</event>
<event>
11    1  0.5813833E-009  0.1331133E+03  0.7561462E-02  0.1115502E+00
         22   -1    0    0    0    0  0.00000000000E+00  0.00000000000E+00  0.55398128521E+03  0.55398128521E+03  0.00000000000E+00 0. -1.
         22   -1    0    0    0    0 -0.00000000000E+00 -0.00000000000E+00 -0.28613969925E+03  0.28613969925E+03  0.00000000000E+00 0. -1.
        -24    2    1    2    0    0 -0.47415903128E+02 -0.49517444845E-01 -0.22672804033E+03  0.24549048860E+03  0.81312393900E+02 0.  0.
         25    2    1    2    0    0  0.24084617993E+02  0.39058121302E+02  0.52451617648E+02  0.14319604621E+03  0.12509328436E+03 0.  0.
         24    2    1    2    0    0  0.23331285136E+02 -0.39008603857E+02  0.44211800864E+03  0.45143444965E+03  0.79112001144E+02 0.  0.
        -13    1    5    5    0    0  0.49394902087E+02 -0.32971092272E+02  0.22623625959E+03  0.23390124932E+03  0.00000000000E+00 0.  1.
         14    1    5    5    0    0 -0.26063616951E+02 -0.60375115846E+01  0.21588174905E+03  0.21753320033E+03  0.00000000000E+00 0. -1.
         13    1    3    3    0    0 -0.50049081621E+02 -0.16167322746E+02 -0.68208195174E+02  0.86131589936E+02  0.00000000000E+00 0. -1.
        -14    1    3    3    0    0  0.26331784926E+01  0.16117805301E+02 -0.15851984515E+03  0.15935889867E+03  0.00000000000E+00 0.  1.
          5    1    4    4  501    0 -0.29466237545E+02  0.56976962607E+02  0.57634418782E+02  0.86335578132E+02  0.41800000000E+01 0. -1.
         -5    1    4    4    0  501  0.53550855538E+02 -0.17918841305E+02 -0.51828011344E+01  0.56860468079E+02  0.41800000000E+01 0. -1.
</event>
<event>
11    1  0.5813833E-009  0.1436795E+03  0.7561462E-02  0.1103518E+00
         22   -1    0    0    0    0  0.00000000000E+00  0.00000000000E+00  0.12832116624E+04  0.12832116624E+04  0.00000000000E+00 0.  1.
         22   -1    0    0    0    0 -0.00000000000E+00 -0.00000000000E+00 -0.17086329219E+03  0.17086329219E+03  0.00000000000E+00 0. -1.
         24    2    1    2    0    0 -0.46369316474E+01  0.47728976901E+02 -0.10294037510E+03  0.14175205771E+03  0.84837307048E+02 0.  0.
         25    2    1    2    0    0 -0.21288894195E+02 -0.11116886147E+03  0.10838232770E+03  0.20051384035E+03  0.12508932184E+03 0.  0.
        -24    2    1    2    0    0  0.25925825843E+02  0.63439884565E+02  0.11069064176E+04  0.11118090566E+04  0.78618022311E+02 0.  0.
        -11    1    3    3    0    0  0.29768158959E+02  0.48198758858E+01 -0.73330404068E+02  0.79288855788E+02  0.00000000000E+00 0.  1.
         12    1    3    3    0    0 -0.34405090606E+02  0.42909101015E+02 -0.29609971035E+02  0.62463201921E+02  0.00000000000E+00 0. -1.
         11    1    5    5    0    0  0.62958713699E+01 -0.43055430129E+01  0.59688256759E+03  0.59693129855E+03  0.00000000000E+00 0. -1.
        -12    1    5    5    0    0  0.19629954473E+02  0.67745427578E+02  0.51002385006E+03  0.51487775801E+03  0.00000000000E+00 0.  1.
          5    1    4    4  501    0 -0.73100424134E+02 -0.51362049402E+02  0.55878643763E+02  0.10545912647E+03  0.41800000000E+01 0.  1.
         -5    1    4    4    0  501  0.51811529939E+02 -0.59806812064E+02  0.52503683933E+02  0.95054713878E+02  0.41800000000E+01 0.  1.
</event>
<event>
11    1  0.5813833E-009  0.1931652E+03  0.7561462E-02  0.1059465E+00
         22   -1    0    0    0    0  0.00000000000E+00  0.00000000000E+00  0.16376419403E+03  0.16376419403E+03  0.00000000000E+00 0.  1.
         22   -1    0    0    0    0 -0.00000000000E+00 -0.00000000000E+00 -0.60858893588E+03  0.60858893588E+03  0.00000000000E+00 0.  1.
        -24    2    1    2    0    0  0.14552686819E+02 -0.19641385167E+02 -0.37048896506E+03  0.37587229160E+03  0.58483687106E+02 0.  0.
         25    2    1    2    0    0  0.57673821307E+02  0.14461616063E+03 -0.11084943130E+03  0.22841652943E+03  0.12508561435E+03 0.  0.
         24    2    1    2    0    0 -0.72226508127E+02 -0.12497477547E+03  0.36513654505E+02  0.16806430888E+03  0.77955127964E+02 0.  0.
        -13    1    5    5    0    0 -0.10845890572E+02 -0.79898139546E+02  0.43453345739E+02  0.91594428330E+02  0.00000000000E+00 0.  1.
         14    1    5    5    0    0 -0.61380617554E+02 -0.45076635921E+02 -0.69396912346E+01  0.76469880553E+02  0.00000000000E+00 0. -1.
         13    1    3    3    0    0  0.24762891213E+02 -0.15048405906E+02 -0.78641235249E+02  0.83809899075E+02  0.00000000000E+00 0. -1.
        -14    1    3    3    0    0 -0.10210204393E+02 -0.45929792617E+01 -0.29184772981E+03  0.29206239252E+03  0.00000000000E+00 0.  1.
          5    1    4    4  501    0  0.48298005713E+01  0.85588528308E+01  0.26115193097E+02  0.28214475821E+02  0.41800000000E+01 0.  1.
         -5    1    4    4    0  501  0.52844020736E+02  0.13605730780E+03 -0.13696462439E+03  0.20020205361E+03  0.41800000000E+01 0.  1.
</event>
<event>
11    1  0.5813833E-009  0.2899268E+03  0.7561462E-02  0.1004547E+00
         22   -1    0    0    0    0  0.00000000000E+00  0.00000000000E+00  0.12026496303E+04  0.12026496303E+04  0.00000000000E+00 0. -1.
         22   -1    0    0    0    0 -0.00000000000E+00 -0.00000000000E+00 -0.36298587932E+03  0.36298587932E+03  0.00000000000E+00 0. -1.
        -24    2    1    2    0    0  0.16303871977E+03 -0.22317677309E+03 -0.20626455004E+03  0.35382519295E+03  0.79105665857E+02 0.  0.
         25    2    1    2    0    0 -0.12656490664E+03  0.18079082302E+03  0.12432867521E+03  0.28250551252E+03  0.12509095829E+03 0.  0.
         24    2    1    2    0    0 -0.36473813125E+02  0.42385950069E+02  0.92159962584E+03  0.92930480418E+03  0.10552080794E+03 0.  0.
        -11    1    5    5    0    0 -0.27735595339E+02  0.57901705391E+02  0.27249849832E+03  0.27995946550E+03  0.00000000000E+00 0.  1.
         12    1    5    5    0    0 -0.87382177856E+01 -0.15515755322E+02  0.64910112752E+03  0.64934533868E+03  0.00000000000E+00 0. -1.
         13    1    3    3    0    0  0.12239689842E+03 -0.21081502297E+03 -0.16334415435E+03  0.29343702461E+03  0.00000000000E+00 0. -1.
        -14    1    3    3    0    0  0.40641821345E+02 -0.12361750115E+02 -0.42920395690E+02  0.60388168331E+02  0.00000000000E+00 0.  1.
          5    1    4    4  501    0 -0.12962752320E+02  0.11650824755E+03  0.29042589602E+02  0.12084349012E+03  0.41800000000E+01 0.  1.
         -5    1    4    4    0  501 -0.11360215432E+03  0.64282575473E+02  0.95286085609E+02  0.16166202240E+03  0.41800000000E+01 0.  1.
</event>
<event>
11    1  0.5813833E-009  0.1332070E+03  0.7561462E-02  0.1115390E+00
         22   -1    0    0    0    0  0.00000000000E+00  0.00000000000E+00  0.11398601158E+03  0.11398601158E+03  0.00000000000E+00 0.  1.
         22   -1    0    0    0    0 -0.00000000000E+00 -0.00000000000E+00 -0.18138552223E+04  0.18138552223E+04  0.00000000000E+00 0.  1.
         24    2    1    2    0    0 -0.23212919199E+02  0.36329083636E+02 -0.13822290755E+04  0.13855168275E+04  0.85094183049E+02 0.  0.
         25    2    1    2    0    0  0.58583280604E+02 -0.39974216404E+02 -0.39795028175E+03  0.42313444936E+03  0.12509355198E+03 0.  0.
        -24    2    1    2    0    0 -0.35370361406E+02  0.36451327676E+01  0.80310146607E+02  0.11918995702E+03  0.80574045122E+02 0.  0.
        -13    1    3    3    0    0  0.27079016232E+02  0.32155566272E+02 -0.46338819610E+03  0.46529117104E+03  0.00000000000E+00 0.  1.
         14    1    3    3    0    0 -0.50291935431E+02  0.41735173643E+01 -0.91884087943E+03  0.92022565642E+03  0.00000000000E+00 0. -1.
         11    1    5    5    0    0 -0.24910657368E+02  0.54197174458E+01 -0.10638864782E+02  0.27624258027E+02  0.00000000000E+00 0. -1.
        -12    1    5    5    0    0 -0.10459704038E+02 -0.17745846782E+01  0.90949011389E+02  0.91565698992E+02  0.00000000000E+00 0.  1.
          5    1    4    4  501    0  0.58295188951E+02 -0.76724651844E+02 -0.20352366914E+03  0.22522068634E+03  0.41800000000E+01 0. -1.
         -5    1    4    4    0  501  0.28809165349E+00  0.36750435440E+02 -0.19442661261E+03  0.19791376302E+03  0.41800000000E+01 0. -1.
</event>
<event>
11    1  0.5813833E-009  0.1552859E+03  0.7561462E-02  0.1091597E+00
         22   -1    0    0    0    0  0.00000000000E+00  0.00000000000E+00  0.96442667911E+03  0.96442667911E+03  0.00000000000E+00 0. -1.
         22   -1    0    0    0    0 -0.00000000000E+00 -0.00000000000E+00 -0.44940823042E+03  0.44940823042E+03  0.00000000000E+00 0. -1.
        -24    2    1    2    0    0  0.26851172413E+02  0.62007296190E+02 -0.40947662377E+03  0.42268357502E+03  0.80152410666E+02 0.  0.
         25    2    1    2    0    0  0.56516344513E+02 -0.53217417840E+01  0.13958236419E+03  0.19581541004E+03  0.12505207029E+03 0.  0.
         24    2    1    2    0    0 -0.83367516926E+02 -0.56685554406E+02  0.78491270827E+03  0.79533592448E+03  0.79422151784E+02 0.  0.
        -13    1    5    5    0    0  0.13688321311E+02 -0.14165492537E+02  0.74314964932E+02  0.76881371814E+02  0.00000000000E+00 0.  1.
         14    1    5    5    0    0 -0.97055838237E+02 -0.42520061869E+02  0.71059774334E+03  0.71845455266E+03  0.00000000000E+00 0. -1.
         11    1    3    3    0    0  0.53202542147E+02  0.42903068098E+02 -0.21807300050E+03  0.22853231127E+03  0.00000000000E+00 0. -1.
        -12    1    3    3    0    0 -0.26351369735E+02  0.19104228092E+02 -0.19140362326E+03  0.19415126375E+03  0.00000000000E+00 0.  1.
          5    1    4    4  501    0 -0.22207779767E+02 -0.36432578324E+02  0.15574935794E+02  0.45613257618E+02  0.41800000000E+01 0. -1.
         -5    1    4    4    0  501  0.78724124281E+02  0.31110836540E+02  0.12400742840E+03  0.15020215242E+03  0.41800000000E+01 0. -1.
</event>
<event>
11    1  0.5813833E-009  0.1783281E+03  0.7561462E-02  0.1071003E+00
         22   -1    0    0    0    0  0.00000000000E+00  0.00000000000E+00  0.23240994640E+03  0.23240994640E+03  0.00000000000E+00 0. -1.
         22   -1    0    0    0    0 -0.00000000000E+00 -0.00000000000E+00 -0.71116639663E+03  0.71116639663E+03  0.00000000000E+00 0. -1.
         24    2    1    2    0    0  0.69286430514E+02 -0.10986428638E+03 -0.60367610575E+03  0.62268911918E+03  0.80287780033E+02 0.  0.
         25    2    1    2    0    0  0.31250186551E+01  0.11593181630E+03  0.26954714876E+02  0.17269423953E+03  0.12508713739E+03 0.  0.
        -24    2    1    2    0    0 -0.72411449169E+02 -0.60675299239E+01  0.97964940644E+02  0.14819298432E+03  0.84165302329E+02 0.  0.
        -11    1    3    3    0    0  0.67698470259E+02 -0.10526891910E+03 -0.40375268935E+03  0.42270659134E+03  0.00000000000E+00 0.  1.
         12    1    3    3    0    0  0.15879602548E+01 -0.45953672745E+01 -0.19992341640E+03  0.19998252785E+03  0.00000000000E+00 0. -1.
         13    1    5    5    0    0 -0.57007290814E+02  0.52881999771E+01  0.11109830237E+03  0.12498251499E+03  0.00000000000E+00 0. -1.
        -14    1    5    5    0    0 -0.15404158355E+02 -0.11355729901E+02 -0.13133361724E+02  0.23210469327E+02  0.00000000000E+00 0.  1.
          5    1    4    4  501    0 -0.42305230309E+02  0.11389375558E+02 -0.21238816441E+02  0.48867270344E+02  0.41800000000E+01 0. -1.
         -5    1    4    4    0  501  0.45430248964E+02  0.10454244074E+03  0.48193531317E+02  0.12382696919E+03  0.41800000000E+01 0. -1.
</event>
<event>
11    1  0.5813833E-009  0.1507899E+03  0.7561462E-02  0.1096074E+00
         22   -1    0    0    0    0  0.00000000000E+00  0.00000000000E+00  0.82007468399E+03  0.82007468399E+03  0.00000000000E+00 0.  1.
         22   -1    0    0    0    0 -0.00000000000E+00 -0.00000000000E+00 -0.32592909148E+03  0.32592909148E+03  0.00000000000E+00 0. -1.
        -24    2    1    2    0    0  0.50845262098E+02 -0.63290540564E+02 -0.26283170455E+03  0.28637215948E+03  0.79608891495E+02 0.  0.
         25    2    1    2    0    0 -0.53133618026E+02  0.12304617521E+03  0.13025117002E+03  0.22489349807E+03  0.12509266799E+03 0.  0.
         24    2    1    2    0    0  0.22883559275E+01 -0.59755634642E+02  0.62672612705E+03  0.63473811791E+03  0.80813783258E+02 0.  0.
        -11    1    5    5    0    0 -0.20114952452E+02 -0.72167115062E+02  0.46926076683E+03  0.47520350493E+03  0.00000000000E+00 0.  1.
         12    1    5    5    0    0  0.22403308380E+02  0.12411480420E+02  0.15746536022E+03  0.15953461299E+03  0.00000000000E+00 0. -1.
         13    1    3    3    0    0  0.68313309179E+02 -0.50810471542E+02 -0.24166768028E+03  0.25622583773E+03  0.00000000000E+00 0. -1.
        -14    1    3    3    0    0 -0.17468047081E+02 -0.12480069022E+02 -0.21164024273E+02  0.30146321750E+02  0.00000000000E+00 0.  1.
          5    1    4    4  501    0 -0.19658749150E+01  0.64039534141E+01  0.91289699660E+02  0.91630545931E+02  0.41800000000E+01 0.  1.
         -5    1    4    4    0  501 -0.51167743111E+02  0.11664222179E+03  0.38961470355E+02  0.13326295214E+03  0.41800000000E+01 0.  1.
</event>
<event>
11    1  0.5813833E-009  0.1348457E+03  0.7561462E-02  0.1113455E+00
         22   -1    0    0    0    0  0.00000000000E+00  0.00000000000E+00  0.23232359119E+04  0.23232359119E+04  0.00000000000E+00 0. -1.
         22   -1    0    0    0    0 -0.00000000000E+00 -0.00000000000E+00 -0.44951900503E+02  0.44951900503E+02  0.00000000000E+00 0.  1.
         24    2    1    2    0    0  0.49569235852E+02  0.16987276340E+02  0.42967814205E+02  0.10487354379E+03  0.80040929710E+02 0.  0.
         25    2    1    2    0    0 -0.42277452457E+02 -0.31703431252E+01  0.31907304601E+03  0.34532832504E+03  0.12508640744E+03 0.  0.
        -24    2    1    2    0    0 -0.72917833958E+01 -0.13816933215E+02  0.19162431512E+04  0.19179859436E+04  0.80238317125E+02 0.  0.
        -11    1    3    3    0    0  0.18649161868E+02 -0.29028807820E+02 -0.37028412599E+00  0.34505072556E+02  0.00000000000E+00 0.  1.
         12    1    3    3    0    0  0.30920073985E+02  0.46016084160E+02  0.43338098331E+02  0.70368471232E+02  0.00000000000E+00 0. -1.
         11    1    5    5    0    0 -0.37617501140E+02 -0.17221204361E+02  0.15225016431E+04  0.15230636558E+04  0.00000000000E+00 0. -1.
        -12    1    5    5    0    0  0.30325717744E+02  0.34042711461E+01  0.39374150808E+03  0.39492228780E+03  0.00000000000E+00 0.  1.
          5    1    4    4  501    0 -0.17655728787E+02 -0.58071841340E+02  0.22886698105E+03  0.23681560533E+03  0.41800000000E+01 0.  1.
         -5    1    4    4    0  501 -0.24621723669E+02  0.54901498215E+02  0.90206064959E+02  0.10851271971E+03  0.41800000000E+01 0.  1.
</event>
<event>
11    1  0.5813833E-009  0.1467350E+03  0.7561462E-02  0.1100262E+00
         22   -1    0    0    0    0  0.00000000000E+00  0.00000000000E+00  0.23604303222E+03  0.23604303222E+03  0.00000000000E+00 0. -1.
         22   -1    0    0    0    0 -0.00000000000E+00 -0.00000000000E+00 -0.91977984948E+03  0.91977984948E+03  0.00000000000E+00 0. -1.
         24    2    1    2    0    0 -0.23350687774E+02  0.32432777145E+02 -0.48617193773E+03  0.49451556301E+03  0.81150165570E+02 0.  0.
         25    2    1    2    0    0  0.42768056997E+01 -0.10600563174E+03 -0.39999587116E+03  0.43230190775E+03  0.12503102605E+03 0.  0.
        -24    2    1    2    0    0  0.19073882074E+02  0.73572854599E+02  0.20243099162E+03  0.22900541094E+03  0.75421442314E+02 0.  0.
        -11    1    3    3    0    0 -0.34023043358E+01 -0.15392113406E+02 -0.19966772607E+02  0.25439434707E+02  0.00000000000E+00 0.  1.
         12    1    3    3    0    0 -0.19948383438E+02  0.47824890551E+02 -0.46620516512E+03  0.46907612830E+03  0.00000000000E+00 0. -1.
         13    1    5    5    0    0  0.36455664299E+02  0.78799780664E+02  0.14754004557E+03  0.17119137227E+03  0.00000000000E+00 0. -1.
        -14    1    5    5    0    0 -0.17381782224E+02 -0.52269260647E+01  0.54890946056E+02  0.57814038679E+02  0.00000000000E+00 0.  1.
          5    1    4    4  501    0  0.12800011512E+02 -0.13378984778E+03 -0.33515528881E+03  0.36112339121E+03  0.41800000000E+01 0.  1.
         -5    1    4    4    0  501 -0.85232058124E+01  0.27784216033E+02 -0.64840582347E+02  0.71178516541E+02  0.41800000000E+01 0.  1.
</event>
<event>
11    1  0.5813833E-009  0.1532597E+03  0.7561462E-02  0.1093594E+00
         22   -1    0    0    0    0  0.00000000000E+00  0.00000000000E+00  0.18960234141E+03  0.18960234141E+03  0.00000000000E+00 0.  1.
         22   -1    0    0    0    0 -0.00000000000E+00 -0.00000000000E+00 -0.77103106142E+03  0.77103106142E+03  0.00000000000E+00 0. -1.
        -24    2    1    2    0    0  0.87239422581E+02 -0.97636128862E+01 -0.68296281974E+03  0.69311668142E+03  0.79161075810E+02 0.  0.
         25    2    1    2    0    0 -0.10579943364E+03  0.22873236392E+02  0.73473285387E+02  0.18100467089E+03  0.12509061562E+03 0.  0.
         24    2    1    2    0    0  0.18560011063E+02 -0.13109623506E+02  0.28060814344E+02  0.86512050514E+02  0.78616724324E+02 0.  0.
        -11    1    5    5    0    0  0.25412456465E+01  0.27440076768E+02  0.32588897761E+02  0.42678472322E+02  0.00000000000E+00 0.  1.
         12    1    5    5    0    0  0.16018765416E+02 -0.40549700274E+02 -0.45280834169E+01  0.43833578193E+02  0.00000000000E+00 0. -1.
         13    1    3    3    0    0  0.27805729876E+02 -0.51194270215E+01 -0.49761526131E+03  0.49841781212E+03  0.00000000000E+00 0. -1.
        -14    1    3    3    0    0  0.59433692705E+02 -0.46441858647E+01 -0.18534755843E+03  0.19469886930E+03  0.00000000000E+00 0.  1.
          5    1    4    4  501    0 -0.68861883360E+02  0.54236393519E+02  0.93657587069E+02  0.12834625580E+03  0.41800000000E+01 0. -1.
         -5    1    4    4    0  501 -0.36937550284E+02 -0.31363157127E+02 -0.20184301681E+02  0.52658415095E+02  0.41800000000E+01 0. -1.
</event>
<event>
11    1  0.5813833E-009  0.1823053E+03  0.7561462E-02  0.1067793E+00
         22   -1    0    0    0    0  0.00000000000E+00  0.00000000000E+00  0.23584747819E+04  0.23584747819E+04  0.00000000000E+00 0.  1.
         22   -1    0    0    0    0 -0.00000000000E+00 -0.00000000000E+00 -0.23349830816E+03  0.23349830816E+03  0.00000000000E+00 0. -1.
         24    2    1    2    0    0  0.59435086034E+02  0.11739911907E+03 -0.18287681660E+03  0.23920745273E+03  0.80381545029E+02 0.  0.
         25    2    1    2    0    0  0.40845036460E+02 -0.19954798645E+03  0.74525933307E+03  0.78264686198E+03  0.12504767546E+03 0.  0.
        -24    2    1    2    0    0 -0.10028012249E+03  0.82148867375E+02  0.15625939572E+04  0.15701187753E+04  0.82271222457E+02 0.  0.
        -11    1    3    3    0    0 -0.67579647584E+01  0.25295628061E+02 -0.27249332656E+01  0.26324212201E+02  0.00000000000E+00 0.  1.
         12    1    3    3    0    0  0.66193050792E+02  0.92103491010E+02 -0.18015188333E+03  0.21288324053E+03  0.00000000000E+00 0. -1.
         13    1    5    5    0    0 -0.38035616546E+02 -0.11829786131E+02  0.33480684953E+03  0.33716802704E+03  0.00000000000E+00 0. -1.
        -14    1    5    5    0    0 -0.62244505947E+02  0.93978653506E+02  0.12277871077E+04  0.12329507483E+04  0.00000000000E+00 0.  1.
          5    1    4    4  501    0  0.22569197282E+02 -0.19970904106E+03  0.73342601775E+03  0.76047634129E+03  0.41800000000E+01 0.  1.
         -5    1    4    4    0  501  0.18275839178E+02  0.16105461376E+00  0.11833315322E+02  0.22170520692E+02  0.41800000000E+01 0.  1.
</event>
<event>
11    1  0.5813833E-009  0.1463147E+03  0.7561462E-02  0.1100705E+00
         22   -1    0    0    0    0  0.00000000000E+00  0.00000000000E+00  0.68831483100E+02  0.68831483100E+02  0.00000000000E+00 0. -1.
         22   -1    0    0    0    0 -0.00000000000E+00 -0.00000000000E+00 -0.13563995991E+04  0.13563995991E+04  0.00000000000E+00 0. -1.
        -24    2    1    2    0    0 -0.79703541961E+02 -0.64774781026E+01 -0.11400620983E+04  0.11457184077E+04  0.80836065462E+02 0.  0.
         25    2    1    2    0    0  0.36027236683E+02  0.14944194204E+02 -0.13205245393E+03  0.18602356901E+03  0.12508248045E+03 0.  0.
         24    2    1    2    0    0  0.43676305278E+02 -0.84667161011E+01 -0.15453563751E+02  0.93489105451E+02  0.80759490347E+02 0.  0.
        -11    1    5    5    0    0  0.40182236378E+02 -0.19766475021E+02 -0.43882642131E+02  0.62697782540E+02  0.00000000000E+00 0.  1.
         12    1    5    5    0    0  0.34940689003E+01  0.11299758919E+02  0.28429078379E+02  0.30791322911E+02  0.00000000000E+00 0. -1.
         13    1    3    3    0    0 -0.36080844652E+02  0.29010493651E+02 -0.77181125879E+03  0.77319858723E+03  0.00000000000E+00 0. -1.
        -14    1    3    3    0    0 -0.43622697308E+02 -0.35487971754E+02 -0.36825083951E+03  0.37251982049E+03  0.00000000000E+00 0.  1.
          5    1    4    4  501    0  0.47254584613E+02  0.29625971455E+02 -0.14989890572E+03  0.15999327576E+03  0.41800000000E+01 0.  1.
         -5    1    4    4    0  501 -0.11227347930E+02 -0.14681777251E+02  0.17846451798E+02  0.26030293248E+02  0.41800000000E+01 0.  1.
</event>
<event>
11    1  0.5813833E-009  0.1518490E+03  0.7561462E-02  0.1095004E+00
         22   -1    0    0    0    0  0.00000000000E+00  0.00000000000E+00  0.32421565216E+03  0.32421565216E+03  0.00000000000E+00 0. -1.
         22   -1    0    0    0    0 -0.00000000000E+00 -0.00000000000E+00 -0.26464779574E+03  0.26464779574E+03  0.00000000000E+00 0. -1.
         24    2    1    2    0    0 -0.35101573815E+02  0.89420087785E+01 -0.19098560581E+03  0.21024704162E+03  0.80101416200E+02 0.  0.
         25    2    1    2    0    0  0.12292242150E+02 -0.91601638983E+02  0.79749272582E+02  0.17479020461E+03  0.12509879963E+03 0.  0.
        -24    2    1    2    0    0  0.22809331665E+02  0.82659630204E+02  0.17080418964E+03  0.20382620167E+03  0.70839037355E+02 0.  0.
        -11    1    3    3    0    0 -0.27364806634E+02 -0.33338961453E+02 -0.74507630453E+02  0.86091265460E+02  0.00000000000E+00 0.  1.
         12    1    3    3    0    0 -0.77367671810E+01  0.42280970231E+02 -0.11647797536E+03  0.12415577616E+03  0.00000000000E+00 0. -1.
         13    1    5    5    0    0  0.19494574566E+02  0.68508680961E+02  0.17479811247E+03  0.18875343157E+03  0.00000000000E+00 0. -1.
        -14    1    5    5    0    0  0.33147570985E+01  0.14150949244E+02 -0.39939228307E+01  0.15072770107E+02  0.00000000000E+00 0.  1.
          5    1    4    4  501    0 -0.24849586999E+02  0.12570581753E+02 -0.12405572461E+02  0.30771612368E+02  0.41800000000E+01 0. -1.
         -5    1    4    4    0  501  0.37141829149E+02 -0.10417222074E+03  0.92154845043E+02  0.14401859224E+03  0.41800000000E+01 0. -1.
</event>
<event>
11    1  0.5813833E-009  0.1425594E+03  0.7561462E-02  0.1104734E+00
         22   -1    0    0    0    0  0.00000000000E+00  0.00000000000E+00  0.33669502952E+02  0.33669502952E+02  0.00000000000E+00 0. -1.
         22   -1    0    0    0    0 -0.00000000000E+00 -0.00000000000E+00 -0.99953495288E+03  0.99953495288E+03  0.00000000000E+00 0.  1.
        -24    2    1    2    0    0  0.44366140191E+02  0.58932954727E+02 -0.31208569352E+03  0.32964972378E+03  0.76354520105E+02 0.  0.
         25    2    1    2    0    0  0.30558470603E+02 -0.73093325138E+02 -0.35774820514E+03  0.38717960350E+03  0.12509121783E+03 0.  0.
         24    2    1    2    0    0 -0.74924610794E+02  0.14160370410E+02 -0.29603155126E+03  0.31637512855E+03  0.81512755004E+02 0.  0.
        -13    1    5    5    0    0 -0.59476663712E+02 -0.20025993906E+02 -0.11040027196E+03  0.12699107845E+03  0.00000000000E+00 0.  1.
         14    1    5    5    0    0 -0.15447947082E+02  0.34186364316E+02 -0.18563127931E+03  0.18938405010E+03  0.00000000000E+00 0. -1.
         13    1    3    3    0    0  0.56209561984E+01  0.22664061010E+01  0.32855281567E+01  0.68939423023E+01  0.00000000000E+00 0. -1.
        -14    1    3    3    0    0  0.38745183992E+02  0.56666548626E+02 -0.31537122168E+03  0.32275578148E+03  0.00000000000E+00 0.  1.
          5    1    4    4  501    0  0.73793527381E+02 -0.28885624897E+02 -0.25624266629E+03  0.26824921330E+03  0.41800000000E+01 0. -1.
         -5    1    4    4    0  501 -0.43235056777E+02 -0.44207700240E+02 -0.10150553885E+03  0.11893039019E+03  0.41800000000E+01 0. -1.
</event>
<event>
11    1  0.5813833E-009  0.1291808E+03  0.7561462E-02  0.1120280E+00
         22   -1    0    0    0    0  0.00000000000E+00  0.00000000000E+00  0.49456695757E+03  0.49456695757E+03  0.00000000000E+00 0.  1.
         22   -1    0    0    0    0 -0.00000000000E+00 -0.00000000000E+00 -0.12281766440E+04  0.12281766440E+04  0.00000000000E+00 0.  1.
         24    2    1    2    0    0 -0.42881394000E+02 -0.77908180058E+01 -0.11902667029E+04  0.11937640935E+04  0.80239491840E+02 0.  0.
         25    2    1    2    0    0  0.18283154100E+02 -0.23869685492E+02  0.13081338763E+03  0.18347642518E+03  0.12508965028E+03 0.  0.
        -24    2    1    2    0    0  0.24598239900E+02  0.31660503498E+02  0.32584362881E+03  0.34550308295E+03  0.10766080535E+03 0.  0.
        -11    1    3    3    0    0 -0.38872111928E+02 -0.12732060511E+02 -0.11844093587E+04  0.11851154692E+04  0.00000000000E+00 0.  1.
         12    1    3    3    0    0 -0.40092820719E+01  0.49412425054E+01 -0.58573442074E+01  0.86486242486E+01  0.00000000000E+00 0. -1.
         11    1    5    5    0    0  0.28098626019E+02  0.34148914877E+02  0.40007113605E+02  0.59634304813E+02  0.00000000000E+00 0. -1.
        -12    1    5    5    0    0 -0.35003861195E+01 -0.24884113793E+01  0.28583651520E+03  0.28586877814E+03  0.00000000000E+00 0.  1.
          5    1    4    4  501    0  0.43470149023E+02  0.17748880965E+02  0.12586206547E+03  0.13440018064E+03  0.41800000000E+01 0.  1.
         -5    1    4    4    0  501 -0.25186994923E+02 -0.41618566457E+02  0.49513221541E+01  0.49076244541E+02  0.41800000000E+01 0.  1.
</event>
<event>
11    1  0.5813833E-009  0.1457692E+03  0.7561462E-02  0.1101282E+00
         22   -1    0    0    0    0  0.00000000000E+00  0.00000000000E+00  0.59054269579E+03  0.59054269579E+03  0.00000000000E+00 0. -1.
         22   -1    0    0    0    0 -0.00000000000E+00 -0.00000000000E+00 -0.24482334031E+03  0.24482334031E+03  0.00000000000E+00 0.  1.
        -24    2    1    2    0    0  0.72416170187E+02 -0.70390043773E+01 -0.18016893732E+03  0.21052730495E+03  0.81038576423E+02 0.  0.
         25    2    1    2    0    0 -0.48403329457E+02 -0.67594226138E+02  0.91017374501E+02  0.17562236530E+03  0.12508873259E+03 0.  0.
         24    2    1    2    0    0 -0.24012840730E+02  0.74633230515E+02  0.43487091831E+03  0.44921636585E+03  0.80844864667E+02 0.  0.
        -13    1    5    5    0    0  0.25249267020E+02  0.12082181986E+02  0.63331908445E+02  0.69241860416E+02  0.00000000000E+00 0.  1.
         14    1    5    5    0    0 -0.49262107750E+02  0.62551048529E+02  0.37153900986E+03  0.37997450544E+03  0.00000000000E+00 0. -1.
         11    1    3    3    0    0 -0.12307659935E+02 -0.19552135808E+02 -0.33739078970E+02  0.40891196577E+02  0.00000000000E+00 0. -1.
        -12    1    3    3    0    0  0.84723830122E+02  0.12513131430E+02 -0.14642985835E+03  0.16963610838E+03  0.00000000000E+00 0.  1.
          5    1    4    4  501    0  0.10657566603E+02 -0.72706022189E+02  0.89895738552E+02  0.11618289718E+03  0.41800000000E+01 0.  1.
         -5    1    4    4    0  501 -0.59060896060E+02  0.51117960513E+01  0.11216359491E+01  0.59439468112E+02  0.41800000000E+01 0.  1.
</event>
<event>
11    1  0.5813833E-009  0.1564180E+03  0.7561462E-02  0.1090495E+00
         22   -1    0    0    0    0  0.00000000000E+00  0.00000000000E+00  0.94752231126E+03  0.94752231126E+03  0.00000000000E+00 0. -1.
         22   -1    0    0    0    0 -0.00000000000E+00 -0.00000000000E+00 -0.33506678279E+03  0.33506678279E+03  0.00000000000E+00 0. -1.
        -24    2    1    2    0    0 -0.62453727294E+02 -0.66646369763E+02 -0.21300566811E+03  0.24949694966E+03  0.92385640577E+02 0.  0.
         25    2    1    2    0    0  0.30646947235E+02  0.10948716599E+03 -0.30445588738E+02  0.17176001888E+03  0.12509154775E+03 0.  0.
         24    2    1    2    0    0  0.31806780058E+02 -0.42840796227E+02  0.85590678532E+03  0.86133212552E+03  0.80433825033E+02 0.  0.
        -11    1    5    5    0    0  0.31732982720E+02  0.51182930222E+01  0.13272076220E+03  0.13655760628E+03  0.00000000000E+00 0.  1.
         12    1    5    5    0    0  0.73797338531E-01 -0.47959089249E+02  0.72318602312E+03  0.72477451923E+03  0.00000000000E+00 0. -1.
         11    1    3    3    0    0 -0.53275872411E+02 -0.93120131037E+01 -0.16662507064E+03  0.17518260854E+03  0.00000000000E+00 0. -1.
        -12    1    3    3    0    0 -0.91778548821E+01 -0.57334356660E+02 -0.46380597475E+02  0.74314341119E+02  0.00000000000E+00 0.  1.
          5    1    4    4  501    0  0.48314174563E+02  0.81451996334E+02 -0.71571429613E+02  0.11877975041E+03  0.41800000000E+01 0. -1.
         -5    1    4    4    0  501 -0.17667227328E+02  0.28035169656E+02  0.41125840875E+02  0.52980268467E+02  0.41800000000E+01 0. -1.
</event>
<event>
11    1  0.5813833E-009  0.1309878E+03  0.7561462E-02  0.1118061E+00
         22   -1    0    0    0    0  0.00000000000E+00  0.00000000000E+00  0.19752327356E+04  0.19752327356E+04  0.00000000000E+00 0. -1.
         22   -1    0    0    0    0 -0.00000000000E+00 -0.00000000000E+00 -0.19562609556E+03  0.19562609556E+03  0.00000000000E+00 0.  1.
         24    2    1    2    0    0  0.26692384741E+02 -0.98693880646E+01 -0.14505948563E+03  0.16868659362E+03  0.81258995021E+02 0.  0.
         25    2    1    2    0    0  0.95182108646E+01  0.25470800835E+02  0.71047092839E+02  0.14640578275E+03  0.12509039047E+03 0.  0.
        -24    2    1    2    0    0 -0.36210595605E+02 -0.15601412770E+02  0.18536190329E+04  0.18557664548E+04  0.80068748877E+02 0.  0.
        -11    1    3    3    0    0  0.39213020746E+02  0.12859325372E+02 -0.30738476849E+02  0.51457528157E+02  0.00000000000E+00 0.  1.
         12    1    3    3    0    0 -0.12520636005E+02 -0.22728713436E+02 -0.11432100878E+03  0.11722906546E+03  0.00000000000E+00 0. -1.
         13    1    5    5    0    0 -0.39412206160E+02 -0.25953829334E+02  0.18161234929E+04  0.18167364874E+04  0.00000000000E+00 0. -1.
        -14    1    5    5    0    0  0.32016105549E+01  0.10352416563E+02  0.37495540015E+02  0.39029967459E+02  0.00000000000E+00 0.  1.
          5    1    4    4  501    0 -0.19202481608E+02 -0.30762660471E+02  0.74570797743E+02  0.83026217878E+02  0.41800000000E+01 0.  1.
         -5    1    4    4    0  501  0.28720692473E+02  0.56233461306E+02 -0.35237049038E+01  0.63379564868E+02  0.41800000000E+01 0.  1.
</event>
<event>
11    1  0.5813833E-009  0.1421413E+03  0.7561462E-02  0.1105191E+00
         22   -1    0    0    0    0  0.00000000000E+00  0.00000000000E+00  0.18593358222E+04  0.18593358222E+04  0.00000000000E+00 0.  1.
         22   -1    0    0    0    0 -0.00000000000E+00 -0.00000000000E+00 -0.97772095857E+02  0.97772095857E+02  0.00000000000E+00 0. -1.
        -24    2    1    2    0    0 -0.36553532058E+02 -0.14246174851E+02 -0.53621498667E+02  0.10521189346E+03  0.81579183633E+02 0.  0.
         25    2    1    2    0    0  0.74670545410E+02  0.66046605230E+02  0.36871876694E+03  0.40191715382E+03  0.12508407184E+03 0.  0.
         24    2    1    2    0    0 -0.38117013353E+02 -0.51800430379E+02  0.14464664581E+04  0.14499788708E+04  0.77700193603E+02 0.  0.
        -13    1    5    5    0    0 -0.48555032157E+02 -0.46036977735E+02  0.14105275821E+04  0.14121136832E+04  0.00000000000E+00 0.  1.
         14    1    5    5    0    0  0.10438018804E+02 -0.57634526442E+01  0.35938875970E+02  0.37865187559E+02  0.00000000000E+00 0. -1.
         13    1    3    3    0    0 -0.12334795955E+02  0.11053969603E+02 -0.66014336426E+02  0.68060488163E+02  0.00000000000E+00 0. -1.
        -14    1    3    3    0    0 -0.24218736102E+02 -0.25300144454E+02  0.12392837759E+02  0.37151405296E+02  0.00000000000E+00 0.  1.
          5    1    4    4  501    0  0.10994321891E+03  0.52353769198E+02  0.27714576115E+03  0.30274688084E+03  0.41800000000E+01 0.  1.
         -5    1    4    4    0  501 -0.35272673497E+02  0.13692836032E+02  0.91573005790E+02  0.99170272984E+02  0.41800000000E+01 0.  1.
</event>
<event>
11    1  0.5813833E-009  0.1266163E+03  0.7561462E-02  0.1123498E+00
         22   -1    0    0    0    0  0.00000000000E+00  0.00000000000E+00  0.55188337838E+03  0.55188337838E+03  0.00000000000E+00 0. -1.
         22   -1    0    0    0    0 -0.00000000000E+00 -0.00000000000E+00 -0.71791574793E+03  0.71791574793E+03  0.00000000000E+00 0.  1.
        -24    2    1    2    0    0 -0.12100767976E+02  0.15980244568E+02 -0.67719080877E+03  0.68201882958E+03  0.78488824799E+02 0.  0.
         25    2    1    2    0    0  0.14720974565E+02  0.16920862747E+02  0.80819646938E+02  0.15061362091E+03  0.12509846036E+03 0.  0.
         24    2    1    2    0    0 -0.26202065892E+01 -0.32901107315E+02  0.43033879228E+03  0.43716667581E+03  0.69526095479E+02 0.  0.
        -13    1    5    5    0    0  0.27881971031E+01 -0.33273156044E+02  0.78751223195E+02  0.85537314144E+02  0.00000000000E+00 0.  1.
         14    1    5    5    0    0 -0.54084036923E+01  0.37204872834E+00  0.35158756909E+03  0.35162936167E+03  0.00000000000E+00 0. -1.
         13    1    3    3    0    0 -0.14222392283E+02  0.31728033281E+02 -0.12917394690E+03  0.13377164534E+03  0.00000000000E+00 0. -1.
        -14    1    3    3    0    0  0.21216243074E+01 -0.15747788713E+02 -0.54801686187E+03  0.54824718424E+03  0.00000000000E+00 0.  1.
          5    1    4    4  501    0  0.43241283139E+02 -0.42270212274E+02  0.46313716434E+02  0.76282449772E+02  0.41800000000E+01 0.  1.
         -5    1    4    4    0  501 -0.28520308574E+02  0.59191075022E+02  0.34505930504E+02  0.74331171142E+02  0.41800000000E+01 0.  1.
</event>
<event>
11    1  0.5813833E-009  0.1366807E+03  0.7561462E-02  0.1111323E+00
         22   -1    0    0    0    0  0.00000000000E+00  0.00000000000E+00  0.11037624223E+04  0.11037624223E+04  0.00000000000E+00 0.  1.
         22   -1    0    0    0    0 -0.00000000000E+00 -0.00000000000E+00 -0.30955447053E+03  0.30955447053E+03  0.00000000000E+00 0. -1.
        -24    2    1    2    0    0  0.29595158463E+01 -0.53825440141E+02 -0.26497167907E+03  0.28220477510E+03  0.80768853167E+02 0.  0.
         25    2    1    2    0    0  0.21690271575E+02  0.77870241902E+02  0.12955175190E+03  0.19740390597E+03  0.12510157160E+03 0.  0.
         24    2    1    2    0    0 -0.24649787422E+02 -0.24044801761E+02  0.92962787899E+03  0.93370821181E+03  0.80107845360E+02 0.  0.
        -13    1    5    5    0    0  0.32600974584E+01 -0.18225453556E+02  0.82662975811E+03  0.82683707729E+03  0.00000000000E+00 0.  1.
         14    1    5    5    0    0 -0.27909884880E+02 -0.58193482057E+01  0.10299812088E+03  0.10687113452E+03  0.00000000000E+00 0. -1.
         11    1    3    3    0    0  0.33261384193E+01  0.15147104402E+02 -0.12710096873E+03  0.12804356377E+03  0.00000000000E+00 0. -1.
        -12    1    3    3    0    0 -0.36662257299E+00 -0.68972544543E+02 -0.13787071033E+03  0.15416121134E+03  0.00000000000E+00 0.  1.
          5    1    4    4  501    0  0.27445976577E+02  0.11118217558E+03  0.10487696182E+03  0.15534287019E+03  0.41800000000E+01 0.  1.
         -5    1    4    4    0  501 -0.57557050012E+01 -0.33311933679E+02  0.24674790073E+02  0.42061035777E+02  0.41800000000E+01 0.  1.
</event>
<event>
11    1  0.5813833E-009  0.2300440E+03  0.7561462E-02  0.1035102E+00
         22   -1    0    0    0    0  0.00000000000E+00  0.00000000000E+00  0.23462266257E+04  0.23462266257E+04  0.00000000000E+00 0.  1.
         22   -1    0    0    0    0 -0.00000000000E+00 -0.00000000000E+00 -0.90602979651E+03  0.90602979651E+03  0.00000000000E+00 0.  1.
         24    2    1    2    0    0 -0.12683304738E+03  0.23033606729E+01 -0.85350950357E+03  0.86676096610E+03  0.81879010080E+02 0.  0.
         25    2    1    2    0    0  0.24978183923E+03  0.13234204922E+03  0.55374500600E+03  0.63418192241E+03  0.12509114213E+03 0.  0.
        -24    2    1    2    0    0 -0.12294879185E+03 -0.13464540989E+03  0.17399613268E+04  0.17513135338E+04  0.79924232251E+02 0.  0.
        -11    1    3    3    0    0 -0.78861130442E+02 -0.38436870604E+02 -0.52437959991E+03  0.53166759890E+03  0.00000000000E+00 0.  1.
         12    1    3    3    0    0 -0.47971916934E+02  0.40740231277E+02 -0.32912990366E+03  0.33509336720E+03  0.00000000000E+00 0. -1.
         13    1    5    5    0    0 -0.85797993455E+01 -0.57056986149E+02  0.38122409516E+03  0.38556571859E+03  0.00000000000E+00 0. -1.
        -14    1    5    5    0    0 -0.11436899251E+03 -0.77588423745E+02  0.13587372316E+04  0.13657478152E+04  0.00000000000E+00 0.  1.
          5    1    4    4  501    0  0.18946772724E+03  0.14420311377E+03  0.36660201816E+03  0.43715794606E+03  0.41800000000E+01 0. -1.
         -5    1    4    4    0  501  0.60314111991E+02 -0.11861064552E+02  0.18714298784E+03  0.19702397635E+03  0.41800000000E+01 0. -1.
</event>
<event>
11    1  0.5813833E-009  0.1332990E+03  0.7561462E-02  0.1115281E+00
         22   -1    0    0    0    0  0.00000000000E+00  0.00000000000E+00  0.12862162632E+04  0.12862162632E+04  0.00000000000E+00 0.  1.
         22   -1    0    0    0    0 -0.00000000000E+00 -0.00000000000E+00 -0.71487204515E+03  0.71487204515E+03  0.00000000000E+00 0. -1.
        -24    2    1    2    0    0 -0.34837629581E+02 -0.30504135234E+02 -0.69118902361E+03  0.69741503392E+03  0.80630642260E+02 0.  0.
         25    2    1    2    0    0 -0.28150850354E+01  0.54927915507E+02  0.23350272143E+03  0.27053006671E+03  0.12505197110E+03 0.  0.
         24    2    1    2    0    0  0.37652714617E+02 -0.24423780272E+02  0.10290305203E+04  0.10331432077E+04  0.80416591005E+02 0.  0.
        -11    1    5    5    0    0  0.54719534102E+02 -0.86729855128E+01  0.92000012416E+03  0.92166679258E+03  0.00000000000E+00 0.  1.
         12    1    5    5    0    0 -0.17066819485E+02 -0.15750794760E+02  0.10903039610E+03  0.11147641515E+03  0.00000000000E+00 0. -1.
         11    1    3    3    0    0 -0.13455731783E+02  0.19813090062E+02 -0.42474787118E+03  0.42542257736E+03  0.00000000000E+00 0. -1.
        -12    1    3    3    0    0 -0.21381897798E+02 -0.50317225296E+02 -0.26644115243E+03  0.27199245655E+03  0.00000000000E+00 0.  1.
          5    1    4    4  501    0  0.22173584287E+02  0.14031959710E+01 -0.63440150037E+01  0.23480965172E+02  0.41800000000E+01 0. -1.
         -5    1    4    4    0  501 -0.24988669322E+02  0.53524719536E+02  0.23984673643E+03  0.24704910154E+03  0.41800000000E+01 0. -1.
</event>
<event>
11    1  0.5813833E-009  0.1308629E+03  0.7561462E-02  0.1118213E+00
         22   -1    0    0    0    0  0.00000000000E+00  0.00000000000E+00  0.12572351140E+04  0.12572351140E+04  0.00000000000E+00 0. -1.
         22   -1    0    0    0    0 -0.00000000000E+00 -0.00000000000E+00 -0.21540592708E+04  0.21540592708E+04  0.00000000000E+00 0.  1.
        -24    2    1    2    0    0  0.22575169018E+02 -0.19889958800E+02 -0.11400653491E+04  0.11432106949E+04  0.79224011620E+02 0.  0.
         25    2    1    2    0    0  0.10606935857E+02  0.39289614233E+02 -0.10063381149E+04  0.10148997838E+04  0.12509591828E+03 0.  0.
         24    2    1    2    0    0 -0.33182104875E+02 -0.19399655433E+02  0.12495793073E+04  0.12531839061E+04  0.86856540397E+02 0.  0.
        -13    1    5    5    0    0  0.26851332667E+02  0.75622947825E+01  0.28490658228E+03  0.28626900460E+03  0.00000000000E+00 0.  1.
         14    1    5    5    0    0 -0.60033437542E+02 -0.26961950215E+02  0.96467272498E+03  0.96691490148E+03  0.00000000000E+00 0. -1.
         11    1    3    3    0    0 -0.17924061027E+01 -0.20903077231E+02 -0.75353928139E+02  0.78219983658E+02  0.00000000000E+00 0. -1.
        -12    1    3    3    0    0  0.24367575121E+02  0.10131184311E+01 -0.10647114210E+04  0.10649907113E+04  0.00000000000E+00 0.  1.
          5    1    4    4  501    0 -0.28387286324E+00  0.51320282646E+02 -0.15367455868E+03  0.16207157178E+03  0.41800000000E+01 0. -1.
         -5    1    4    4    0  501  0.10890808720E+02 -0.12030668413E+02 -0.85266355623E+03  0.85282821202E+03  0.41800000000E+01 0. -1.
</event>
<event>
11    1  0.5813833E-009  0.1416114E+03  0.7561462E-02  0.1105772E+00
         22   -1    0    0    0    0  0.00000000000E+00  0.00000000000E+00  0.48021104182E+02  0.48021104182E+02  0.00000000000E+00 0.  1.
         22   -1    0    0    0    0 -0.00000000000E+00 -0.00000000000E+00 -0.18090518548E+04  0.18090518548E+04  0.00000000000E+00 0.  1.
         24    2    1    2    0    0  0.49940448819E+02 -0.37589509205E+02 -0.10983087046E+04  0.11030592865E+04  0.80936761164E+02 0.  0.
         25    2    1    2    0    0 -0.73668022440E+02  0.34364998096E+02 -0.65635820936E+03  0.67309918964E+03  0.12509392259E+03 0.  0.
        -24    2    1    2    0    0  0.23727573622E+02  0.32245111081E+01 -0.63638366420E+01  0.80914482829E+02  0.77027656675E+02 0.  0.
        -13    1    3    3    0    0  0.17017358372E+00 -0.49373851520E+02 -0.64117225614E+03  0.64307050019E+03  0.00000000000E+00 0.  1.
         14    1    3    3    0    0  0.49770275235E+02  0.11784342315E+02 -0.45713644845E+03  0.45998878630E+03  0.00000000000E+00 0. -1.
         11    1    5    5    0    0  0.47577367482E+01 -0.30753005272E+02  0.17065809659E+02  0.35491199635E+02  0.00000000000E+00 0. -1.
        -12    1    5    5    0    0  0.18969836873E+02  0.33977516380E+02 -0.23429646302E+02  0.45423283194E+02  0.00000000000E+00 0.  1.
          5    1    4    4  501    0 -0.10406365459E+03  0.34219876467E+02 -0.39445879515E+03  0.40940866823E+03  0.41800000000E+01 0.  1.
         -5    1    4    4    0  501  0.30395632153E+02  0.14512162934E+00 -0.26189941422E+03  0.26369052141E+03  0.41800000000E+01 0.  1.
</event>
<event>
11    1  0.5813833E-009  0.1297928E+03  0.7561462E-02  0.1119524E+00
         22   -1    0    0    0    0  0.00000000000E+00  0.00000000000E+00  0.61777977456E+03  0.61777977456E+03  0.00000000000E+00 0. -1.
         22   -1    0    0    0    0 -0.00000000000E+00 -0.00000000000E+00 -0.10870323176E+03  0.10870323176E+03  0.00000000000E+00 0. -1.
         24    2    1    2    0    0  0.29993123181E+02  0.20933967404E+02 -0.65305756761E+02  0.10965676678E+03  0.80137046391E+02 0.  0.
         25    2    1    2    0    0 -0.17164986438E+02  0.25292352613E+01  0.23024519810E+03  0.26260615581E+03  0.12509239797E+03 0.  0.
        -24    2    1    2    0    0 -0.12828136743E+02 -0.23463202665E+02  0.34413710146E+03  0.35422008373E+03  0.79538922215E+02 0.  0.
        -13    1    3    3    0    0  0.13598350814E+02  0.35789576043E+01  0.18089243824E+02  0.22911674415E+02  0.00000000000E+00 0.  1.
         14    1    3    3    0    0  0.16394772367E+02  0.17355009799E+02 -0.83395000585E+02  0.86745092361E+02  0.00000000000E+00 0. -1.
         13    1    5    5    0    0  0.38342243890E+01 -0.27737856052E+02  0.33197286939E+03  0.33315173112E+03  0.00000000000E+00 0. -1.
        -14    1    5    5    0    0 -0.16662361132E+02  0.42746533871E+01  0.12164232067E+02  0.21068352613E+02  0.00000000000E+00 0.  1.
          5    1    4    4  501    0 -0.27552654261E+02 -0.29785644415E+01  0.24308867010E+03  0.24469898760E+03  0.41800000000E+01 0. -1.
         -5    1    4    4    0  501  0.10387667823E+02  0.55077997028E+01 -0.12843471997E+02  0.17907168210E+02  0.41800000000E+01 0. -1.
</event>
<event>
11    1  0.5813833E-009  0.2836465E+03  0.7561462E-02  0.1007360E+00
         22   -1    0    0    0    0  0.00000000000E+00  0.00000000000E+00  0.23491515764E+04  0.23491515764E+04  0.00000000000E+00 0. -1.
         22   -1    0    0    0    0 -0.00000000000E+00 -0.00000000000E+00 -0.15089583187E+04  0.15089583187E+04  0.00000000000E+00 0.  1.
         24    2    1    2    0    0 -0.14852994835E+01 -0.10563775348E+02 -0.14614534438E+04  0.14637398539E+04  0.81082625424E+02 0.  0.
         25    2    1    2    0    0  0.25144168081E+03 -0.38282430846E+02  0.51477811391E+03  0.58765032197E+03  0.12509169031E+03 0.  0.
        -24    2    1    2    0    0 -0.24995638133E+03  0.48846206195E+02  0.17868685876E+04  0.18067197192E+04  0.80452781659E+02 0.  0.
        -13    1    3    3    0    0  0.17467421396E+02 -0.41593029600E+02 -0.87191024458E+03  0.87307649466E+03  0.00000000000E+00 0.  1.
         14    1    3    3    0    0 -0.18952720879E+02  0.31029254251E+02 -0.58954319917E+03  0.59066335923E+03  0.00000000000E+00 0. -1.
         11    1    5    5    0    0 -0.17937407338E+03 -0.24736569490E+01  0.12492495078E+04  0.12620639881E+04  0.00000000000E+00 0. -1.
        -12    1    5    5    0    0 -0.70582307950E+02  0.51319863144E+02  0.53761907974E+03  0.54465573112E+03  0.00000000000E+00 0.  1.
          5    1    4    4  501    0  0.36239147724E+02  0.41924433621E+01  0.11254442837E+02  0.38405563303E+02  0.41800000000E+01 0.  1.
         -5    1    4    4    0  501  0.21520253309E+03 -0.42474874208E+02  0.50352367108E+03  0.54924475867E+03  0.41800000000E+01 0.  1.
</event>
<event>
11    1  0.5813833E-009  0.2775279E+03  0.7561462E-02  0.1010177E+00
         22   -1    0    0    0    0  0.00000000000E+00  0.00000000000E+00  0.63060161463E+03  0.63060161463E+03  0.00000000000E+00 0.  1.
         22   -1    0    0    0    0 -0.00000000000E+00 -0.00000000000E+00 -0.44729783866E+03  0.44729783866E+03  0.00000000000E+00 0.  1.
        -24    2    1    2    0    0  0.16442991425E+02  0.22788362530E+03 -0.23032831297E+03  0.33377856571E+03  0.78458145079E+02 0.  0.
         25    2    1    2    0    0 -0.73244397847E+02 -0.31485783690E+03  0.41138224822E+02  0.34905657507E+03  0.12509172549E+03 0.  0.
         24    2    1    2    0    0  0.56801406422E+02  0.86974211601E+02  0.37249386412E+03  0.39506431250E+03  0.80828330131E+02 0.  0.
        -11    1    5    5    0    0 -0.14647315321E+02  0.25832949224E+02  0.15941017357E+03  0.16215267050E+03  0.00000000000E+00 0.  1.
         12    1    5    5    0    0  0.71448721743E+02  0.61141262378E+02  0.21308369055E+03  0.23291164200E+03  0.00000000000E+00 0. -1.
         11    1    3    3    0    0 -0.16307182709E+02  0.44484659122E+02 -0.16486128646E+02  0.50165740728E+02  0.00000000000E+00 0. -1.
        -12    1    3    3    0    0  0.32750174134E+02  0.18339896617E+03 -0.21384218432E+03  0.28361282498E+03  0.00000000000E+00 0.  1.
          5    1    4    4  501    0 -0.97888731784E+02 -0.15846181885E+03  0.38507223994E+01  0.18634551861E+03  0.41800000000E+01 0.  1.
         -5    1    4    4    0  501  0.24644333937E+02 -0.15639601805E+03  0.37287502422E+02  0.16271105646E+03  0.41800000000E+01 0.  1.
</event>
<event>
11    1  0.5813833E-009  0.1593023E+03  0.7561462E-02  0.1087735E+00
         22   -1    0    0    0    0  0.00000000000E+00  0.00000000000E+00  0.34269666473E+03  0.34269666473E+03  0.00000000000E+00 0.  1.
         22   -1    0    0    0    0 -0.00000000000E+00 -0.00000000000E+00 -0.81776461927E+03  0.81776461927E+03  0.00000000000E+00 0. -1.
        -24    2    1    2    0    0  0.62375628727E+01 -0.43285561635E+02 -0.75206405619E+03  0.75769282925E+03  0.81151289844E+02 0.  0.
         25    2    1    2    0    0  0.72048127147E+02  0.89390182997E+02  0.15078580551E+03  0.22706457824E+03  0.12506168921E+03 0.  0.
         24    2    1    2    0    0 -0.78285690020E+02 -0.46104621362E+02  0.12621029614E+03  0.17570387652E+03  0.81783421289E+02 0.  0.
        -11    1    5    5    0    0 -0.78468924849E+02 -0.64359135252E+02  0.92249716020E+02  0.13714765971E+03  0.00000000000E+00 0.  1.
         12    1    5    5    0    0  0.18323482921E+00  0.18254513890E+02  0.33960580125E+02  0.38556216811E+02  0.00000000000E+00 0. -1.
         13    1    3    3    0    0 -0.25840341742E+02 -0.13531886223E+01 -0.47119154509E+03  0.47190150089E+03  0.00000000000E+00 0. -1.
        -14    1    3    3    0    0  0.32077904614E+02 -0.41932373013E+02 -0.28087251110E+03  0.28579132836E+03  0.00000000000E+00 0.  1.
          5    1    4    4  501    0 -0.31607267961E+02  0.12543042616E+02  0.92396825347E+01  0.35485087563E+02  0.41800000000E+01 0.  1.
         -5    1    4    4    0  501  0.10365539511E+03  0.76847140381E+02  0.14154612297E+03  0.19157949068E+03  0.41800000000E+01 0.  1.
</event>
<event>
11    1  0.5813833E-009  0.1655644E+03  0.7561462E-02  0.1081957E+00
         22   -1    0    0    0    0  0.00000000000E+00  0.00000000000E+00  0.44549638553E+03  0.44549638553E+03  0.00000000000E+00 0. -1.
         22   -1    0    0    0    0 -0.00000000000E+00 -0.00000000000E+00 -0.21803119310E+04  0.21803119310E+04  0.00000000000E+00 0.  1.
         24    2    1    2    0    0 -0.24644334256E+02 -0.10559112677E+03 -0.20990701919E+04  0.21034208508E+04  0.80788465160E+02 0.  0.
         25    2    1    2    0    0 -0.64410210122E+01  0.11445879830E+03  0.24275496262E+02  0.17140141618E+03  0.12508733945E+03 0.  0.
        -24    2    1    2    0    0  0.31085355269E+02 -0.88676715336E+01  0.33997915009E+03  0.35098604954E+03  0.80996602181E+02 0.  0.
        -11    1    3    3    0    0  0.96823672412E+01 -0.92725546808E+02 -0.17368517035E+04  0.17393520676E+04  0.00000000000E+00 0.  1.
         12    1    3    3    0    0 -0.34326701498E+02 -0.12865579957E+02 -0.36221848839E+03  0.36406878322E+03  0.00000000000E+00 0. -1.
         11    1    5    5    0    0  0.23261497085E+02 -0.34585891156E+02  0.29954736603E+03  0.30243330771E+03  0.00000000000E+00 0. -1.
        -12    1    5    5    0    0  0.78238581835E+01  0.25718219623E+02  0.40431784063E+02  0.48552741838E+02  0.00000000000E+00 0.  1.
          5    1    4    4  501    0 -0.12313286954E+02  0.10710690044E+03  0.67299843833E+02  0.12716228425E+03  0.41800000000E+01 0. -1.
         -5    1    4    4    0  501  0.58722659416E+01  0.73518978613E+01 -0.43024347571E+02  0.44239131924E+02  0.41800000000E+01 0. -1.
</event>
<event>
11    1  0.5813833E-009  0.1279872E+03  0.7561462E-02  0.1121767E+00
         22   -1    0    0    0    0  0.00000000000E+00  0.00000000000E+00  0.35325436410E+03  0.35325436410E+03  0.00000000000E+00 0. -1.
         22   -1    0    0    0    0 -0.00000000000E+00 -0.00000000000E+00 -0.28118881626E+04  0.28118881626E+04  0.00000000000E+00 0.  1.
        -24    2    1    2    0    0  0.17213190802E+02 -0.18368297770E+02 -0.23903699716E+04  0.23919151704E+04  0.82194239577E+02 0.  0.
         25    2    1    2    0    0 -0.48713713705E+02  0.29387388437E+02 -0.40418509918E+03  0.42690740973E+03  0.12509075736E+03 0.  0.
         24    2    1    2    0    0  0.31500522902E+02 -0.11019090667E+02  0.33592127225E+03  0.34631994659E+03  0.77334991815E+02 0.  0.
        -11    1    5    5    0    0 -0.19158285357E+02  0.15813530411E+02  0.13988765535E+03  0.14207626037E+03  0.00000000000E+00 0.  1.
         12    1    5    5    0    0  0.50658808259E+02 -0.26832621079E+02  0.19603361690E+03  0.20424368622E+03  0.00000000000E+00 0. -1.
         13    1    3    3    0    0  0.34561008853E+02  0.19947483455E+02 -0.80622804557E+03  0.80721498183E+03  0.00000000000E+00 0. -1.
        -14    1    3    3    0    0 -0.17347818051E+02 -0.38315781225E+02 -0.15841419260E+04  0.15847001886E+04  0.00000000000E+00 0.  1.
          5    1    4    4  501    0 -0.68808736906E+01 -0.34466348815E+02 -0.34595007240E+02  0.49493055567E+02  0.41800000000E+01 0. -1.
         -5    1    4    4    0  501 -0.41832840014E+02  0.63853737252E+02 -0.36959009194E+03  0.37741435416E+03  0.41800000000E+01 0. -1.
</event>
<event>
11    1  0.5813833E-009  0.1654775E+03  0.7561462E-02  0.1082036E+00
         22   -1    0    0    0    0  0.00000000000E+00  0.00000000000E+00  0.13568911380E+03  0.13568911380E+03  0.00000000000E+00 0. -1.
         22   -1    0    0    0    0 -0.00000000000E+00 -0.00000000000E+00 -0.33691038383E+04  0.33691038383E+04  0.00000000000E+00 0.  1.
         24    2    1    2    0    0 -0.20563405084E+02  0.14989432698E+01 -0.31820638916E+04  0.31831610032E+04  0.80983095353E+02 0.  0.
         25    2    1    2    0    0 -0.53331296152E+02 -0.85708498834E+02 -0.79054709279E+02  0.17913219340E+03  0.12509405154E+03 0.  0.
        -24    2    1    2    0    0  0.73894701236E+02  0.84209555564E+02  0.27703876379E+02  0.14249975547E+03  0.83588273244E+02 0.  0.
        -13    1    3    3    0    0 -0.51998364522E+02  0.10322196735E+00 -0.20577224473E+04  0.20583793408E+04  0.00000000000E+00 0.  1.
         14    1    3    3    0    0  0.31434959438E+02  0.13957213025E+01 -0.11243414443E+04  0.11247816624E+04  0.00000000000E+00 0. -1.
         11    1    5    5    0    0  0.10736076563E+01  0.49083917552E+02  0.36493767869E+02  0.61173349499E+02  0.00000000000E+00 0. -1.
        -12    1    5    5    0    0  0.72821093580E+02  0.35125638012E+02 -0.87898914901E+01  0.81326405972E+02  0.00000000000E+00 0.  1.
          5    1    4    4  501    0 -0.75218948637E+02 -0.65083625546E+01 -0.21132175338E+02  0.78512994159E+02  0.41800000000E+01 0.  1.
         -5    1    4    4    0  501  0.21887652485E+02 -0.79200136279E+02 -0.57922533941E+02  0.10061919924E+03  0.41800000000E+01 0.  1.
</event>
<event>
11    1  0.5813833E-009  0.1800481E+03  0.7561462E-02  0.1069604E+00
         22   -1    0    0    0    0  0.00000000000E+00  0.00000000000E+00  0.13823038452E+04  0.13823038452E+04  0.00000000000E+00 0. -1.
         22   -1    0    0    0    0 -0.00000000000E+00 -0.00000000000E+00 -0.98597259619E+03  0.98597259619E+03  0.00000000000E+00 0.  1.
        -24    2    1    2    0    0  0.48529581467E+02  0.12001545354E+03 -0.95857953550E+03  0.97047604094E+03  0.78677765625E+02 0.  0.
         25    2    1    2    0    0 -0.54824406210E+02 -0.12181123137E+03  0.40584278581E+03  0.44519227722E+03  0.12507639784E+03 0.  0.
         24    2    1    2    0    0  0.62948247432E+01  0.17957778337E+01  0.94906799866E+03  0.95260812318E+03  0.81788267123E+02 0.  0.
        -11    1    5    5    0    0 -0.16137406140E+02  0.33356338178E+02  0.64827719221E+03  0.64933533641E+03  0.00000000000E+00 0.  1.
         12    1    5    5    0    0  0.22432230883E+02 -0.31560560344E+02  0.30079080645E+03  0.30327278677E+03  0.00000000000E+00 0. -1.
         11    1    3    3    0    0 -0.20412458310E+02  0.34576698341E+02 -0.19971612551E+03  0.20371241325E+03  0.00000000000E+00 0. -1.
        -12    1    3    3    0    0  0.68942039777E+02  0.85438755198E+02 -0.75886340999E+03  0.76676362770E+03  0.00000000000E+00 0.  1.
          5    1    4    4  501    0 -0.48119341727E+00 -0.68786762315E+02  0.33242251066E+03  0.33949086616E+03  0.41800000000E+01 0. -1.
         -5    1    4    4    0  501 -0.54343212793E+02 -0.53024469058E+02  0.73420275154E+02  0.10570141106E+03  0.41800000000E+01 0. -1.
</event>
<event>
11    1  0.5813833E-009  0.1328820E+03  0.7561462E-02  0.1115778E+00
         22   -1    0    0    0    0  0.00000000000E+00  0.00000000000E+00  0.16071955633E+03  0.16071955633E+03  0.00000000000E+00 0. -1.
         22   -1    0    0    0    0 -0.00000000000E+00 -0.00000000000E+00 -0.15614888458E+04  0.15614888458E+04  0.00000000000E+00 0. -1.
        -24    2    1    2    0    0 -0.13996997020E+02 -0.41266236683E+02 -0.13776974155E+04  0.13807327859E+04  0.80461412886E+02 0.  0.
         25    2    1    2    0    0  0.43117794199E+02  0.60122430107E+02 -0.13561660942E+03  0.19877944492E+03  0.12509017625E+03 0.  0.
         24    2    1    2    0    0 -0.29120797179E+02 -0.18856193424E+02  0.11254473544E+03  0.14269617139E+03  0.80574828541E+02 0.  0.
        -13    1    5    5    0    0 -0.23275031368E+02 -0.21707960368E+02  0.19248457924E+01  0.31885226357E+02  0.00000000000E+00 0.  1.
         14    1    5    5    0    0 -0.58457658106E+01  0.28517669438E+01  0.11061988965E+03  0.11081094503E+03  0.00000000000E+00 0. -1.
         13    1    3    3    0    0 -0.27964104216E+02  0.88878946921E+01 -0.23129563756E+03  0.23314943224E+03  0.00000000000E+00 0. -1.
        -14    1    3    3    0    0  0.13967107196E+02 -0.50154131375E+02 -0.11464017780E+04  0.11475833536E+04  0.00000000000E+00 0.  1.
          5    1    4    4  501    0 -0.16816777906E+02 -0.24615736212E+02 -0.28967662420E+01  0.30242389837E+02  0.41800000000E+01 0.  1.
         -5    1    4    4    0  501  0.59934572105E+02  0.84738166319E+02 -0.13271984317E+03  0.16853705508E+03  0.41800000000E+01 0.  1.
</event>
<event>
11    1  0.5813833E-009  0.1939019E+03  0.7561462E-02  0.1058922E+00
         22   -1    0    0    0    0  0.00000000000E+00  0.00000000000E+00  0.16834259880E+04  0.16834259880E+04  0.00000000000E+00 0.  1.
         22   -1    0    0    0    0 -0.00000000000E+00 -0.00000000000E+00 -0.71299484641E+02  0.71299484641E+02  0.00000000000E+00 0. -1.
        -24    2    1    2    0    0 -0.31218414022E+01 -0.46984890551E+02 -0.17997482319E+01  0.92476474872E+02  0.79569676870E+02 0.  0.
         25    2    1    2    0    0  0.15036209149E+03  0.38358952013E+02  0.54541669658E+03  0.58070009900E+03  0.12511220687E+03 0.  0.
         24    2    1    2    0    0 -0.14724025008E+03  0.86259385386E+01  0.10685095550E+04  0.10815488987E+04  0.79254357803E+02 0.  0.
        -13    1    5    5    0    0 -0.13454283565E+03 -0.23231222332E+01  0.10384297291E+04  0.10471119681E+04  0.00000000000E+00 0.  1.
         14    1    5    5    0    0 -0.12697414436E+02  0.10949060772E+02  0.30079825874E+02  0.34436930609E+02  0.00000000000E+00 0. -1.
         13    1    3    3    0    0  0.19632275605E+02 -0.57077274068E+02 -0.17747139673E+02  0.62914246614E+02  0.00000000000E+00 0. -1.
        -14    1    3    3    0    0 -0.22754117007E+02  0.10092383517E+02  0.15947391441E+02  0.29562228258E+02  0.00000000000E+00 0.  1.
          5    1    4    4  501    0  0.11075316171E+03  0.57756609977E+02  0.22625134211E+03  0.25847481701E+03  0.41800000000E+01 0. -1.
         -5    1    4    4    0  501  0.39608929780E+02 -0.19397657964E+02  0.31916535447E+03  0.32222528198E+03  0.41800000000E+01 0. -1.
</event>
<event>
11    1  0.5813833E-009  0.1317351E+03  0.7561462E-02  0.1117155E+00
         22   -1    0    0    0    0  0.00000000000E+00  0.00000000000E+00  0.36036531348E+03  0.36036531348E+03  0.00000000000E+00 0.  1.
         22   -1    0    0    0    0 -0.00000000000E+00 -0.00000000000E+00 -0.68129626974E+03  0.68129626974E+03  0.00000000000E+00 0. -1.
         24    2    1    2    0    0 -0.36822694002E+02 -0.15337603774E+02 -0.57719552314E+03  0.58425473741E+03  0.81288211738E+02 0.  0.
         25    2    1    2    0    0  0.63320879901E+02  0.10106825360E+02 -0.42008081548E+02  0.14670823008E+03  0.12508774563E+03 0.  0.
        -24    2    1    2    0    0 -0.26498185899E+02  0.52307784136E+01  0.29827264843E+03  0.31069861573E+03  0.82689431720E+02 0.  0.
        -11    1    3    3    0    0  0.92389244578E+01 -0.31679674146E+02 -0.12001300906E+03  0.12446719175E+03  0.00000000000E+00 0.  1.
         12    1    3    3    0    0 -0.46061618460E+02  0.16342070373E+02 -0.45718251408E+03  0.45978754565E+03  0.00000000000E+00 0. -1.
         13    1    5    5    0    0  0.11385573103E+02 -0.23199253740E+02  0.36781482541E+02  0.44952353741E+02  0.00000000000E+00 0. -1.
        -14    1    5    5    0    0 -0.37883759002E+02  0.28430032154E+02  0.26149116589E+03  0.26574626199E+03  0.00000000000E+00 0.  1.
          5    1    4    4  501    0 -0.31238377399E+02  0.29836156981E+02 -0.74636535901E+01  0.44036473642E+02  0.41800000000E+01 0. -1.
         -5    1    4    4    0  501  0.94559257300E+02 -0.19729331621E+02 -0.34544427958E+02  0.10267175644E+03  0.41800000000E+01 0. -1.
</event>
<event>
11    1  0.5813833E-009  0.1466094E+03  0.7561462E-02  0.1100394E+00
         22   -1    0    0    0    0  0.00000000000E+00  0.00000000000E+00  0.48594905667E+03  0.48594905667E+03  0.00000000000E+00 0. -1.
         22   -1    0    0    0    0 -0.00000000000E+00 -0.00000000000E+00 -0.11473817920E+04  0.11473817920E+04  0.00000000000E+00 0.  1.
         24    2    1    2    0    0  0.42982210439E+02 -0.30844061292E+02 -0.10361211218E+04  0.10406519331E+04  0.81305844075E+02 0.  0.
         25    2    1    2    0    0 -0.62582897045E+01  0.97353314366E+02 -0.39721724919E+02  0.16352388456E+03  0.12508161888E+03 0.  0.
        -24    2    1    2    0    0 -0.36723920735E+02 -0.66509253074E+02  0.41441011134E+03  0.42915503106E+03  0.81646636225E+02 0.  0.
        -13    1    3    3    0    0  0.27433547405E+02 -0.58045364344E+02 -0.77582579202E+03  0.77847769615E+03  0.00000000000E+00 0.  1.
         14    1    3    3    0    0  0.15548663034E+02  0.27201303052E+02 -0.26029532974E+03  0.26217423690E+03  0.00000000000E+00 0. -1.
         13    1    5    5    0    0 -0.27499510769E+02  0.11327821448E+02  0.16693785024E+03  0.16956647214E+03  0.00000000000E+00 0. -1.
        -14    1    5    5    0    0 -0.92244099661E+01 -0.77837074522E+02  0.24747226110E+03  0.25958855892E+03  0.00000000000E+00 0.  1.
          5    1    4    4  501    0 -0.44779354960E+02 -0.76922216803E+01 -0.31385557668E+01  0.45734930166E+02  0.41800000000E+01 0. -1.
         -5    1    4    4    0  501  0.38521065255E+02  0.10504553605E+03 -0.36583169153E+02  0.11778895439E+03  0.41800000000E+01 0. -1.
</event>
<event>
11    1  0.5813833E-009  0.1364894E+03  0.7561462E-02  0.1111543E+00
         22   -1    0    0    0    0  0.00000000000E+00  0.00000000000E+00  0.17490127027E+03  0.17490127027E+03  0.00000000000E+00 0. -1.
         22   -1    0    0    0    0 -0.00000000000E+00 -0.00000000000E+00 -0.36122180878E+03  0.36122180878E+03  0.00000000000E+00 0. -1.
         24    2    1    2    0    0 -0.22248866821E+02  0.17389379841E+02 -0.17762396956E+03  0.19729302575E+03  0.81097847329E+02 0.  0.
         25    2    1    2    0    0 -0.18423803581E+02  0.22680477385E+02 -0.13239597867E+03  0.18446804080E+03  0.12508366127E+03 0.  0.
        -24    2    1    2    0    0  0.40672670402E+02 -0.40069857226E+02  0.12369940972E+03  0.15436201249E+03  0.72568776757E+02 0.  0.
        -13    1    3    3    0    0 -0.24242743181E+02  0.47135781024E+02 -0.86831545424E+02  0.10173106571E+03  0.00000000000E+00 0.  1.
         14    1    3    3    0    0  0.19938763603E+01 -0.29746401183E+02 -0.90792424140E+02  0.95561960045E+02  0.00000000000E+00 0. -1.
         11    1    5    5    0    0  0.54085361882E+02 -0.26424792783E+02  0.50101446084E+02  0.78317628560E+02  0.00000000000E+00 0. -1.
        -12    1    5    5    0    0 -0.13412691480E+02 -0.13645064443E+02  0.73597963636E+02  0.76044383933E+02  0.00000000000E+00 0.  1.
          5    1    4    4  501    0  0.19621170967E+02 -0.41728041409E+02 -0.22538827622E+02  0.51494571952E+02  0.41800000000E+01 0. -1.
         -5    1    4    4    0  501 -0.38044974548E+02  0.64408518794E+02 -0.10985715105E+03  0.13297346885E+03  0.41800000000E+01 0. -1.
</event>
<event>
11    1  0.5813833E-009  0.1609318E+03  0.7561462E-02  0.1086204E+00
         22   -1    0    0    0    0  0.00000000000E+00  0.00000000000E+00  0.49998576940E+03  0.49998576940E+03  0.00000000000E+00 0.  1.
         22   -1    0    0    0    0 -0.00000000000E+00 -0.00000000000E+00 -0.71911621231E+03  0.71911621231E+03  0.00000000000E+00 0.  1.
         24    2    1    2    0    0  0.87811102641E+01 -0.50729483374E+02 -0.61308263477E+03  0.62073427306E+03  0.82402259128E+02 0.  0.
         25    2    1    2    0    0  0.46674180949E+02 -0.39368691118E+02 -0.40052880910E+02  0.14484571065E+03  0.12509066159E+03 0.  0.
        -24    2    1    2    0    0 -0.55455291214E+02  0.90098174492E+02  0.43400507277E+03  0.45352199800E+03  0.78286838670E+02 0.  0.
        -13    1    3    3    0    0 -0.19080694219E+02 -0.34701108141E+02 -0.53260123224E+03  0.53407144876E+03  0.00000000000E+00 0.  1.
         14    1    3    3    0    0  0.27861804483E+02 -0.16028375234E+02 -0.80481402533E+02  0.86662824299E+02  0.00000000000E+00 0. -1.
         13    1    5    5    0    0  0.12567784554E+01  0.62121451912E+02  0.14627277923E+03  0.15892256046E+03  0.00000000000E+00 0. -1.
        -14    1    5    5    0    0 -0.56712069669E+02  0.27976722580E+02  0.28773229354E+03  0.29459943754E+03  0.00000000000E+00 0.  1.
          5    1    4    4  501    0  0.32599144519E+02 -0.41286192537E+02  0.38237265572E+02  0.65167590074E+02  0.41800000000E+01 0. -1.
         -5    1    4    4    0  501  0.14075036430E+02  0.19175014197E+01 -0.78290146482E+02  0.79678120575E+02  0.41800000000E+01 0. -1.
</event>
<event>
11    1  0.5813833E-009  0.1391773E+03  0.7561462E-02  0.1108481E+00
         22   -1    0    0    0    0  0.00000000000E+00  0.00000000000E+00  0.22524880032E+03  0.22524880032E+03  0.00000000000E+00 0. -1.
         22   -1    0    0    0    0 -0.00000000000E+00 -0.00000000000E+00 -0.21232367365E+04  0.21232367365E+04  0.00000000000E+00 0. -1.
         24    2    1    2    0    0  0.48248310703E+02  0.34613911287E+02 -0.18705397325E+04  0.18732410517E+04  0.81161103337E+02 0.  0.
         25    2    1    2    0    0 -0.84612833535E+02 -0.38711608803E+02 -0.21672720300E+03  0.26697548707E+03  0.12508920786E+03 0.  0.
        -24    2    1    2    0    0  0.36364522832E+02  0.40976975156E+01  0.18927899930E+03  0.20826899803E+03  0.78805242954E+02 0.  0.
        -13    1    3    3    0    0  0.44431554541E+02  0.10763538284E+02 -0.41663632950E+03  0.41913702754E+03  0.00000000000E+00 0.  1.
         14    1    3    3    0    0  0.38167561618E+01  0.23850373003E+02 -0.14539034030E+04  0.14541040242E+04  0.00000000000E+00 0. -1.
         13    1    5    5    0    0  0.26098239075E+02  0.22927455076E+02  0.18249953472E+03  0.18577638831E+03  0.00000000000E+00 0. -1.
        -14    1    5    5    0    0  0.10266283756E+02 -0.18829757560E+02  0.67794645780E+01  0.22492609718E+02  0.00000000000E+00 0.  1.
          5    1    4    4  501    0 -0.10512807073E+03 -0.27137788360E+02 -0.21740313118E+03  0.24304313333E+03  0.41800000000E+01 0.  1.
         -5    1    4    4    0  501  0.20515237192E+02 -0.11573820443E+02  0.67592818429E+00  0.23932353741E+02  0.41800000000E+01 0.  1.
</event>
<event>
11    1  0.5813833E-009  0.2621259E+03  0.7561462E-02  0.1017631E+00
         22   -1    0    0    0    0  0.00000000000E+00  0.00000000000E+00  0.19080863324E+04  0.19080863324E+04  0.00000000000E+00 0.  1.
         22   -1    0    0    0    0 -0.00000000000E+00 -0.00000000000E+00 -0.76984512648E+03  0.76984512648E+03  0.00000000000E+00 0. -1.
         24    2    1    2    0    0 -0.29633400983E+01 -0.34542250091E+02 -0.64785342228E+03  0.65329111437E+03  0.76637294631E+02 0.  0.
         25    2    1    2    0    0  0.21544948897E+03 -0.56375661537E+02  0.36739994748E+02  0.25806278834E+03  0.12509947242E+03 0.  0.
        -24    2    1    2    0    0 -0.21248614887E+03  0.90917911628E+02  0.17493546335E+04  0.17665775562E+04  0.84487858923E+02 0.  0.
        -13    1    3    3    0    0 -0.10016675939E+02  0.95750535832E+01 -0.23065773443E+02  0.26908090837E+02  0.00000000000E+00 0.  1.
         14    1    3    3    0    0  0.70533358408E+01 -0.44117303674E+02 -0.62478764883E+03  0.62638302353E+03  0.00000000000E+00 0. -1.
         13    1    5    5    0    0 -0.27073504831E+02  0.99523144172E+00  0.46574804645E+03  0.46653532334E+03  0.00000000000E+00 0. -1.
        -14    1    5    5    0    0 -0.18541264404E+03  0.89922680186E+02  0.12836065870E+04  0.13000422328E+04  0.00000000000E+00 0.  1.
          5    1    4    4  501    0  0.47527347148E+02 -0.64134660362E+02  0.41039808729E+02  0.89854558522E+02  0.41800000000E+01 0.  1.
         -5    1    4    4    0  501  0.16792214183E+03  0.77589988256E+01 -0.42998139818E+01  0.16820822982E+03  0.41800000000E+01 0.  1.
</event>
<event>
11    1  0.5813833E-009  0.1661127E+03  0.7561462E-02  0.1081465E+00
         22   -1    0    0    0    0  0.00000000000E+00  0.00000000000E+00  0.13526448550E+04  0.13526448550E+04  0.00000000000E+00 0.  1.
         22   -1    0    0    0    0 -0.00000000000E+00 -0.00000000000E+00 -0.12863061558E+04  0.12863061558E+04  0.00000000000E+00 0.  1.
        -24    2    1    2    0    0  0.22093920557E+02 -0.10608107327E+03 -0.12273360657E+04  0.12347768137E+04  0.81108729535E+02 0.  0.
         25    2    1    2    0    0  0.18215472711E+02  0.17804835877E+03  0.17589320738E+03  0.28036649302E+03  0.12503570888E+03 0.  0.
         24    2    1    2    0    0 -0.40309393268E+02 -0.71967285499E+02  0.11177815575E+04  0.11238077040E+04  0.81878006375E+02 0.  0.
        -11    1    5    5    0    0 -0.77665955845E+01 -0.60282213174E+02  0.97524458227E+03  0.97713676651E+03  0.00000000000E+00 0.  1.
         12    1    5    5    0    0 -0.32542797683E+02 -0.11685072326E+02  0.14253697525E+03  0.14667093751E+03  0.00000000000E+00 0. -1.
         11    1    3    3    0    0 -0.13644821852E+02  0.18749316767E+01 -0.47030407364E+02  0.49005670580E+02  0.00000000000E+00 0. -1.
        -12    1    3    3    0    0  0.35738742409E+02 -0.10795600495E+03 -0.11803056584E+04  0.11857711431E+04  0.00000000000E+00 0.  1.
          5    1    4    4  501    0  0.34231180954E+02  0.19178533012E+03  0.14576667289E+03  0.24334909477E+03  0.41800000000E+01 0. -1.
         -5    1    4    4    0  501 -0.16015708243E+02 -0.13736971351E+02  0.30126534498E+02  0.37017398251E+02  0.41800000000E+01 0. -1.
</event>
<event>
11    1  0.5813833E-009  0.2392632E+03  0.7561462E-02  0.1029779E+00
         22   -1    0    0    0    0  0.00000000000E+00  0.00000000000E+00  0.12868716144E+03  0.12868716144E+03  0.00000000000E+00 0.  1.
         22   -1    0    0    0    0 -0.00000000000E+00 -0.00000000000E+00 -0.16803856077E+04  0.16803856077E+04  0.00000000000E+00 0. -1.
        -24    2    1    2    0    0  0.93688882364E+00  0.31017467119E+02 -0.12352379901E+04  0.12383080627E+04  0.81430982050E+02 0.  0.
         25    2    1    2    0    0  0.11073676799E+03  0.15073578905E+03 -0.24430883192E+03  0.33213990848E+03  0.12508478550E+03 0.  0.
         24    2    1    2    0    0 -0.11167365681E+03 -0.18175325617E+03 -0.72151624220E+02  0.23862479798E+03  0.78934691868E+02 0.  0.
        -13    1    5    5    0    0 -0.98434702361E+02 -0.18648003785E+03 -0.58042230817E+02  0.21870778611E+03  0.00000000000E+00 0.  1.
         14    1    5    5    0    0 -0.13238954450E+02  0.47267816764E+01 -0.14109393403E+02  0.19917011878E+02  0.00000000000E+00 0. -1.
         11    1    3    3    0    0 -0.23754798109E+01  0.44475154435E+02 -0.11934690718E+04  0.11942998399E+04  0.00000000000E+00 0. -1.
        -12    1    3    3    0    0  0.33123686345E+01 -0.13457687316E+02 -0.41768918333E+02  0.44008222784E+02  0.00000000000E+00 0.  1.
          5    1    4    4  501    0  0.97158832314E+02  0.10885047160E+03 -0.24798968174E+03  0.28775791651E+03  0.41800000000E+01 0.  1.
         -5    1    4    4    0  501  0.13577935674E+02  0.41885317456E+02  0.36808498248E+01  0.44381991967E+02  0.41800000000E+01 0.  1.
</event>
<event>
11    1  0.5813833E-009  0.1266420E+03  0.7561462E-02  0.1123465E+00
         22   -1    0    0    0    0  0.00000000000E+00  0.00000000000E+00  0.46669210574E+03  0.46669210574E+03  0.00000000000E+00 0.  1.
         22   -1    0    0    0    0 -0.00000000000E+00 -0.00000000000E+00 -0.51362993165E+03  0.51362993165E+03  0.00000000000E+00 0.  1.
        -24    2    1    2    0    0 -0.15816857995E+02  0.15760785350E+02 -0.39978342725E+03  0.40854221300E+03  0.81125678725E+02 0.  0.
         25    2    1    2    0    0 -0.90206839343E+01 -0.53654289757E+01 -0.69356963415E+02  0.14342180742E+03  0.12509702596E+03 0.  0.
         24    2    1    2    0    0  0.24837541929E+02 -0.10395356374E+02  0.42220256476E+03  0.42835801697E+03  0.67161135230E+02 0.  0.
        -11    1    5    5    0    0  0.21257593712E+02 -0.30772300884E+02  0.37448964756E+03  0.37635264836E+03  0.00000000000E+00 0.  1.
         12    1    5    5    0    0  0.35799482178E+01  0.20376944510E+02  0.47712917196E+02  0.52005368609E+02  0.00000000000E+00 0. -1.
         11    1    3    3    0    0  0.21599810673E+02  0.35508103781E+02 -0.21455822200E+03  0.21854658058E+03  0.00000000000E+00 0. -1.
        -12    1    3    3    0    0 -0.37416668668E+02 -0.19747318431E+02 -0.18522520525E+03  0.18999563242E+03  0.00000000000E+00 0.  1.
          5    1    4    4  501    0  0.17270123600E+02  0.26150680016E+02 -0.91353188692E+02  0.96669502526E+02  0.41800000000E+01 0.  1.
         -5    1    4    4    0  501 -0.26290807534E+02 -0.31516108992E+02  0.21996225277E+02  0.46752304898E+02  0.41800000000E+01 0.  1.
</event>
<event>
11    1  0.5813833E-009  0.2616622E+03  0.7561462E-02  0.1017864E+00
         22   -1    0    0    0    0  0.00000000000E+00  0.00000000000E+00  0.22631910661E+04  0.22631910661E+04  0.00000000000E+00 0. -1.
         22   -1    0    0    0    0 -0.00000000000E+00 -0.00000000000E+00 -0.20254737969E+03  0.20254737969E+03  0.00000000000E+00 0. -1.
        -24    2    1    2    0    0  0.35136593121E+02  0.22043122491E+03 -0.75949341179E+02  0.24899086057E+03  0.80022753823E+02 0.  0.
         25    2    1    2    0    0 -0.32239687047E+02 -0.27328968385E+03  0.55245873804E+03  0.62974979509E+03  0.12508996147E+03 0.  0.
         24    2    1    2    0    0 -0.28969060742E+01  0.52858458943E+02  0.15841342896E+04  0.15869977902E+04  0.79234650354E+02 0.  0.
        -11    1    5    5    0    0  0.38967478800E+01  0.19764981028E+02  0.80447399631E+02  0.82931436901E+02  0.00000000000E+00 0.  1.
         12    1    5    5    0    0 -0.67936539542E+01  0.33093477915E+02  0.15036868900E+04  0.15040663533E+04  0.00000000000E+00 0. -1.
         13    1    3    3    0    0  0.34533545200E+01  0.15959752924E+03 -0.20809789307E+02  0.16098554074E+03  0.00000000000E+00 0. -1.
        -14    1    3    3    0    0  0.31683238601E+02  0.60833695672E+02 -0.55139551872E+02  0.88005319828E+02  0.00000000000E+00 0.  1.
          5    1    4    4  501    0 -0.17028638326E+02 -0.19974521260E+03  0.49810544290E+03  0.53694937296E+03  0.41800000000E+01 0. -1.
         -5    1    4    4    0  501 -0.15211048721E+02 -0.73544471250E+02  0.54353295142E+02  0.92800422129E+02  0.41800000000E+01 0. -1.
</event>
<event>
11    1  0.5813833E-009  0.1614704E+03  0.7561462E-02  0.1085702E+00
         22   -1    0    0    0    0  0.00000000000E+00  0.00000000000E+00  0.29204951254E+03  0.29204951254E+03  0.00000000000E+00 0.  1.
         22   -1    0    0    0    0 -0.00000000000E+00 -0.00000000000E+00 -0.18353524060E+04  0.18353524060E+04  0.00000000000E+00 0.  1.
         24    2    1    2    0    0  0.16507429894E+02  0.72071886296E+02 -0.17533445482E+04  0.17567377714E+04  0.80272291545E+02 0.  0.
         25    2    1    2    0    0 -0.80574971636E+02  0.27121926678E+02  0.55182467160E+02  0.16100292152E+03  0.12509560782E+03 0.  0.
        -24    2    1    2    0    0  0.64067541742E+02 -0.99193812975E+02  0.15485918760E+03  0.20966122559E+03  0.77668520608E+02 0.  0.
        -13    1    3    3    0    0 -0.59075907857E+01  0.32638939933E+02 -0.14123810055E+04  0.14127704360E+04  0.00000000000E+00 0.  1.
         14    1    3    3    0    0  0.22415020680E+02  0.39432946363E+02 -0.34096354267E+03  0.34396733543E+03  0.00000000000E+00 0. -1.
         11    1    5    5    0    0 -0.30828910165E+01 -0.37587609342E+02  0.10854965040E+02  0.39244908703E+02  0.00000000000E+00 0. -1.
        -12    1    5    5    0    0  0.67150432758E+02 -0.61606203633E+02  0.14400422256E+03  0.17041631688E+03  0.00000000000E+00 0.  1.
          5    1    4    4  501    0 -0.87526278240E+02  0.34279402763E+02  0.86536193089E+02  0.12783548784E+03  0.41800000000E+01 0. -1.
         -5    1    4    4    0  501  0.69513066036E+01 -0.71574760848E+01 -0.31353725930E+02  0.33167433682E+02  0.41800000000E+01 0. -1.
</event>
<event>
11    1  0.5813833E-009  0.1333072E+03  0.7561462E-02  0.1115271E+00
         22   -1    0    0    0    0  0.00000000000E+00  0.00000000000E+00  0.31605530644E+03  0.31605530644E+03  0.00000000000E+00 0.  1.
         22   -1    0    0    0    0 -0.00000000000E+00 -0.00000000000E+00 -0.18396267925E+03  0.18396267925E+03  0.00000000000E+00 0.  1.
        -24    2    1    2    0    0  0.18282102212E+02  0.62556313134E+02 -0.69511853806E+02  0.12447925991E+03  0.80097819913E+02 0.  0.
         25    2    1    2    0    0 -0.12016490367E+02 -0.68248884892E+01 -0.25294218099E+02  0.12836825100E+03  0.12509050824E+03 0.  0.
         24    2    1    2    0    0 -0.62656118445E+01 -0.55731424644E+02  0.22689869910E+03  0.24717047478E+03  0.80405064303E+02 0.  0.
        -11    1    5    5    0    0 -0.17000512005E+02 -0.72693855184E+02  0.20090846850E+03  0.21433064808E+03  0.00000000000E+00 0.  1.
         12    1    5    5    0    0  0.10734900161E+02  0.16962430540E+02  0.25990230594E+02  0.32839826699E+02  0.00000000000E+00 0. -1.
         13    1    3    3    0    0  0.46121147003E+02  0.57152715500E+02 -0.40322418305E+02  0.83782399750E+02  0.00000000000E+00 0. -1.
        -14    1    3    3    0    0 -0.27839044791E+02  0.54035976338E+01 -0.29189435501E+02  0.40696860163E+02  0.00000000000E+00 0.  1.
          5    1    4    4  501    0  0.11761638415E+02  0.19859451130E+01 -0.73050428220E+02  0.74135804975E+02  0.41800000000E+01 0.  1.
         -5    1    4    4    0  501 -0.23778128782E+02 -0.88108336022E+01  0.47756210121E+02  0.54232446029E+02  0.41800000000E+01 0.  1.
</event>
<event>
11    1  0.5813833E-009  0.1381748E+03  0.7561462E-02  0.1109614E+00
         22   -1    0    0    0    0  0.00000000000E+00  0.00000000000E+00  0.52633136093E+03  0.52633136093E+03  0.00000000000E+00 0.  1.
         22   -1    0    0    0    0 -0.00000000000E+00 -0.00000000000E+00 -0.11536809211E+04  0.11536809211E+04  0.00000000000E+00 0.  1.
        -24    2    1    2    0    0 -0.80993235508E+00  0.61974484143E+02 -0.10171744512E+04  0.10221918301E+04  0.79942358180E+02 0.  0.
         25    2    1    2    0    0  0.15355950238E+02 -0.17191035900E+02 -0.98157851113E+02  0.16067202383E+03  0.12509675689E+03 0.  0.
         24    2    1    2    0    0 -0.14546017883E+02 -0.44783448242E+02  0.48798274215E+03  0.49714842811E+03  0.82536410552E+02 0.  0.
        -13    1    5    5    0    0 -0.19472254481E+02  0.41025754732E+01  0.35198824549E+03  0.35255031525E+03  0.00000000000E+00 0.  1.
         14    1    5    5    0    0  0.49262365982E+01 -0.48886023715E+02  0.13599449666E+03  0.14459811286E+03  0.00000000000E+00 0. -1.
         13    1    3    3    0    0  0.20697418273E+02 -0.90578697704E+01 -0.13274366815E+03  0.13465255127E+03  0.00000000000E+00 0. -1.
        -14    1    3    3    0    0 -0.21507350628E+02  0.71032353913E+02 -0.88443078306E+03  0.88753927883E+03  0.00000000000E+00 0.  1.
          5    1    4    4  501    0 -0.15221544411E+02 -0.36898301351E+02 -0.11393774530E+03  0.12079926432E+03  0.41800000000E+01 0.  1.
         -5    1    4    4    0  501  0.30577494649E+02  0.19707265451E+02  0.15779894186E+02  0.39872759511E+02  0.41800000000E+01 0.  1.
</event>
<event>
11    1  0.5813833E-009  0.1258143E+03  0.7561462E-02  0.1124522E+00
         22   -1    0    0    0    0  0.00000000000E+00  0.00000000000E+00  0.23241052377E+03  0.23241052377E+03  0.00000000000E+00 0. -1.
         22   -1    0    0    0    0 -0.00000000000E+00 -0.00000000000E+00 -0.36087866551E+03  0.36087866551E+03  0.00000000000E+00 0. -1.
         24    2    1    2    0    0  0.34994110336E+01 -0.19266423691E+02 -0.26097920154E+03  0.28018418055E+03  0.10004794071E+03 0.  0.
         25    2    1    2    0    0 -0.11206886496E+02 -0.24001253457E+02 -0.25251294142E+02  0.13033891068E+03  0.12509576056E+03 0.  0.
        -24    2    1    2    0    0  0.77074754628E+01  0.43267677148E+02  0.15776235394E+03  0.18276609804E+03  0.81135622314E+02 0.  0.
        -13    1    3    3    0    0  0.35656774191E+02  0.20226719946E+02 -0.58737071461E+02  0.71627992498E+02  0.00000000000E+00 0.  1.
         14    1    3    3    0    0 -0.32157363158E+02 -0.39493143637E+02 -0.20224213007E+03  0.20855618806E+03  0.00000000000E+00 0. -1.
         13    1    5    5    0    0  0.22362866448E+02  0.22754655862E+02  0.15400773587E+03  0.15727763626E+03  0.00000000000E+00 0. -1.
        -14    1    5    5    0    0 -0.14655390985E+02  0.20513021286E+02  0.37546180719E+01  0.25488461783E+02  0.00000000000E+00 0.  1.
          5    1    4    4  501    0 -0.26464159043E+02 -0.56678554350E+02  0.25717526609E+02  0.67761890558E+02  0.41800000000E+01 0.  1.
         -5    1    4    4    0  501  0.15257272546E+02  0.32677300893E+02 -0.50968820751E+02  0.62577020127E+02  0.41800000000E+01 0.  1.
</event>
<event>
11    1  0.5813833E-009  0.1334387E+03  0.7561462E-02  0.1115115E+00
         22   -1    0    0    0    0  0.00000000000E+00  0.00000000000E+00  0.61861019188E+03  0.61861019188E+03  0.00000000000E+00 0. -1.
         22   -1    0    0    0    0 -0.00000000000E+00 -0.00000000000E+00 -0.64855355225E+02  0.64855355225E+02  0.00000000000E+00 0. -1.
        -24    2    1    2    0    0 -0.29536700548E+02 -0.23017074202E+02  0.26251679078E+02  0.93009246185E+02  0.80989918122E+02 0.  0.
         25    2    1    2    0    0 -0.10370859359E+02 -0.12243463205E+02  0.12879226640E+03  0.18026186649E+03  0.12509770387E+03 0.  0.
         24    2    1    2    0    0  0.39907559906E+02  0.35260537407E+02  0.39871089118E+03  0.41019443443E+03  0.80331690208E+02 0.  0.
        -11    1    5    5    0    0  0.17797732848E+02  0.50908797275E+02  0.13933269498E+03  0.14940570546E+03  0.00000000000E+00 0.  1.
         12    1    5    5    0    0  0.22109827058E+02 -0.15648259868E+02  0.25937819621E+03  0.26078872897E+03  0.00000000000E+00 0. -1.
         11    1    3    3    0    0 -0.49333166055E+02  0.95098563136E+01  0.21455088468E+02  0.54630755636E+02  0.00000000000E+00 0. -1.
        -12    1    3    3    0    0  0.19796465508E+02 -0.32526930516E+02  0.47965906102E+01  0.38378490550E+02  0.00000000000E+00 0.  1.
          5    1    4    4  501    0 -0.56938890967E+02  0.19398394870E+02  0.32138276489E+02  0.68327712121E+02  0.41800000000E+01 0.  1.
         -5    1    4    4    0  501  0.46568031608E+02 -0.31641858074E+02  0.96653989907E+02  0.11193415437E+03  0.41800000000E+01 0.  1.
</event>
<event>
11    1  0.5813833E-009  0.1512288E+03  0.7561462E-02  0.1095630E+00
         22   -1    0    0    0    0  0.00000000000E+00  0.00000000000E+00  0.14655724834E+04  0.14655724834E+04  0.00000000000E+00 0. -1.
         22   -1    0    0    0    0 -0.00000000000E+00 -0.00000000000E+00 -0.56479922863E+03  0.56479922863E+03  0.00000000000E+00 0. -1.
        -24    2    1    2    0    0 -0.13223815033E+02 -0.25545695702E+02 -0.25812013608E+03  0.27166699348E+03  0.79683742644E+02 0.  0.
         25    2    1    2    0    0 -0.71197011682E+02  0.15144469984E+02 -0.27995802604E+03  0.31516897260E+03  0.12512639810E+03 0.  0.
         24    2    1    2    0    0  0.84420826715E+02  0.10401225718E+02  0.14388514169E+04  0.14435357459E+04  0.79164313177E+02 0.  0.
        -11    1    5    5    0    0  0.34841981472E+02 -0.29758950116E+02  0.85082923586E+03  0.85206217343E+03  0.00000000000E+00 0.  1.
         12    1    5    5    0    0  0.49578845243E+02  0.40160175835E+02  0.58802218100E+03  0.59147357250E+03  0.00000000000E+00 0. -1.
         13    1    3    3    0    0  0.20285403414E+01 -0.20810347828E+02 -0.25441441685E+03  0.25527217055E+03  0.00000000000E+00 0. -1.
        -14    1    3    3    0    0 -0.15252355374E+02 -0.47353478745E+01 -0.37057192277E+01  0.16394822931E+02  0.00000000000E+00 0.  1.
          5    1    4    4  501    0 -0.18522740691E+02  0.82132034098E+01  0.81036267239E+01  0.22219131374E+02  0.41800000000E+01 0.  1.
         -5    1    4    4    0  501 -0.52674270991E+02  0.69312665740E+01 -0.28806165276E+03  0.29294984122E+03  0.41800000000E+01 0.  1.
</event>
<event>
11    1  0.5813833E-009  0.1464707E+03  0.7561462E-02  0.1100541E+00
         22   -1    0    0    0    0  0.00000000000E+00  0.00000000000E+00  0.12096506858E+04  0.12096506858E+04  0.00000000000E+00 0.  1.
         22   -1    0    0    0    0 -0.00000000000E+00 -0.00000000000E+00 -0.17767185059E+04  0.17767185059E+04  0.00000000000E+00 0. -1.
         24    2    1    2    0    0 -0.15256490131E+02  0.53564660122E+02 -0.16342165344E+04  0.16371528627E+04  0.80646644862E+02 0.  0.
         25    2    1    2    0    0 -0.33739757770E+02 -0.11117592158E+03 -0.85789348962E+02  0.19106199928E+03  0.12508564418E+03 0.  0.
        -24    2    1    2    0    0  0.48996247902E+02  0.57611261456E+02  0.11529380632E+04  0.11581543297E+04  0.79596382087E+02 0.  0.
        -13    1    3    3    0    0  0.49640647801E+01 -0.18095690673E+02 -0.58338090513E+03  0.58368259905E+03  0.00000000000E+00 0.  1.
         14    1    3    3    0    0 -0.20220554911E+02  0.71660350795E+02 -0.10508356293E+04  0.10534702637E+04  0.00000000000E+00 0. -1.
         11    1    5    5    0    0 -0.48454548250E+01  0.47665452623E+02  0.74779648929E+03  0.74932974263E+03  0.00000000000E+00 0. -1.
        -12    1    5    5    0    0  0.53841702727E+02  0.99458088337E+01  0.40514157391E+03  0.40882458705E+03  0.00000000000E+00 0.  1.
          5    1    4    4  501    0 -0.10795669404E+02 -0.83194723344E+02 -0.11635860100E+03  0.14350855339E+03  0.41800000000E+01 0. -1.
         -5    1    4    4    0  501 -0.22944088366E+02 -0.27981198234E+02  0.30569252035E+02  0.47553445885E+02  0.41800000000E+01 0. -1.
</event>
<event>
11    1  0.5813833E-009  0.2389807E+03  0.7561462E-02  0.1029939E+00
         22   -1    0    0    0    0  0.00000000000E+00  0.00000000000E+00  0.16332591985E+04  0.16332591985E+04  0.00000000000E+00 0.  1.
         22   -1    0    0    0    0 -0.00000000000E+00 -0.00000000000E+00 -0.51094094564E+03  0.51094094564E+03  0.00000000000E+00 0. -1.
        -24    2    1    2    0    0 -0.79802040685E+02  0.18134799468E+03 -0.29917683868E+03  0.36765925054E+03  0.80069237733E+02 0.  0.
         25    2    1    2    0    0 -0.45019141539E+02 -0.25024765473E+03 -0.56855555512E+02  0.28901630737E+03  0.12508900803E+03 0.  0.
         24    2    1    2    0    0  0.12482118222E+03  0.68899660049E+02  0.14783506471E+04  0.14875245863E+04  0.82953410538E+02 0.  0.
        -13    1    5    5    0    0  0.88021946138E+02  0.86056644950E+02  0.11851569390E+04  0.11915328695E+04  0.00000000000E+00 0.  1.
         14    1    5    5    0    0  0.36799236086E+02 -0.17156984901E+02  0.29319370812E+03  0.29599171676E+03  0.00000000000E+00 0. -1.
         13    1    3    3    0    0 -0.66152443119E+02  0.18727206637E+03 -0.27396766602E+03  0.33838625060E+03  0.00000000000E+00 0. -1.
        -14    1    3    3    0    0 -0.13649597565E+02 -0.59240716855E+01 -0.25209172662E+02  0.29272999937E+02  0.00000000000E+00 0.  1.
          5    1    4    4  501    0 -0.37725605847E+02 -0.24663721845E+03 -0.19214630612E+02  0.25027947038E+03  0.41800000000E+01 0. -1.
         -5    1    4    4    0  501 -0.72935356921E+01 -0.36104362812E+01 -0.37640924900E+02  0.38736836995E+02  0.41800000000E+01 0. -1.
</event>
<event>
11    1  0.5813833E-009  0.1435682E+03  0.7561462E-02  0.1103638E+00
         22   -1    0    0    0    0  0.00000000000E+00  0.00000000000E+00  0.23247016670E+03  0.23247016670E+03  0.00000000000E+00 0.  1.
         22   -1    0    0    0    0 -0.00000000000E+00 -0.00000000000E+00 -0.12176727655E+04  0.12176727655E+04  0.00000000000E+00 0.  1.
         24    2    1    2    0    0 -0.41810383349E+02 -0.50258940966E+02 -0.78157897478E+03  0.79186128042E+03  0.10910785635E+03 0.  0.
         25    2    1    2    0    0  0.18518374744E+02  0.90042854563E+02 -0.40662684039E+03  0.43525077411E+03  0.12508878119E+03 0.  0.
        -24    2    1    2    0    0  0.23292008605E+02 -0.39783913597E+02  0.20300321635E+03  0.22303087769E+03  0.80044919331E+02 0.  0.
        -13    1    3    3    0    0 -0.74199267384E+02 -0.36627688854E+02 -0.66421445104E+03  0.66934890442E+03  0.00000000000E+00 0.  1.
         14    1    3    3    0    0  0.32388884035E+02 -0.13631252112E+02 -0.11736452374E+03  0.12251237601E+03  0.00000000000E+00 0. -1.
         13    1    5    5    0    0  0.31185256677E+02 -0.61042883884E+02  0.16648568506E+03  0.18004509778E+03  0.00000000000E+00 0. -1.
        -14    1    5    5    0    0 -0.78932480719E+01  0.21258970287E+02  0.36517531289E+02  0.42985779907E+02  0.00000000000E+00 0.  1.
          5    1    4    4  501    0  0.12969686832E+02 -0.17166179124E+02 -0.21040354563E+03  0.21154199322E+03  0.41800000000E+01 0. -1.
         -5    1    4    4    0  501  0.55486879122E+01  0.10720903369E+03 -0.19622329476E+03  0.22370878089E+03  0.41800000000E+01 0. -1.
</event>
<event>
11    1  0.5813833E-009  0.1304520E+03  0.7561462E-02  0.1118715E+00
         22   -1    0    0    0    0  0.00000000000E+00  0.00000000000E+00  0.69193880408E+02  0.69193880408E+02  0.00000000000E+00 0.  1.
         22   -1    0    0    0    0 -0.00000000000E+00 -0.00000000000E+00 -0.22882705312E+04  0.22882705312E+04  0.00000000000E+00 0. -1.
         24    2    1    2    0    0  0.33473791979E+02 -0.16856400232E+02 -0.19369908798E+04  0.19389035369E+04  0.77515314235E+02 0.  0.
         25    2    1    2    0    0 -0.33559743681E+02  0.11911500424E+01 -0.30691859684E+03  0.33312788064E+03  0.12508990581E+03 0.  0.
        -24    2    1    2    0    0  0.85951702571E-01  0.15665250190E+02  0.24832825841E+02  0.85432994095E+02  0.80229170440E+02 0.  0.
        -11    1    3    3    0    0  0.55309071366E+02 -0.19623937577E+02 -0.10493556533E+04  0.10509954707E+04  0.00000000000E+00 0.  1.
         12    1    3    3    0    0 -0.21835279387E+02  0.27675373447E+01 -0.88763522652E+03  0.88790806621E+03  0.00000000000E+00 0. -1.
         11    1    5    5    0    0 -0.13509552103E+02 -0.24486121394E+02 -0.10876456519E+02  0.30006256770E+02  0.00000000000E+00 0. -1.
        -12    1    5    5    0    0  0.13595503805E+02  0.40151371584E+02  0.35709282361E+02  0.55426737325E+02  0.00000000000E+00 0.  1.
          5    1    4    4  501    0 -0.46810537294E+02  0.55213802075E+02 -0.19580796942E+03  0.20880139758E+03  0.41800000000E+01 0. -1.
         -5    1    4    4    0  501  0.13250793613E+02 -0.54022652032E+02 -0.11111062742E+03  0.12432648306E+03  0.41800000000E+01 0. -1.
</event>
<event>
11    1  0.5813833E-009  0.1650156E+03  0.7561462E-02  0.1082453E+00
         22   -1    0    0    0    0  0.00000000000E+00  0.00000000000E+00  0.37306508073E+04  0.37306508073E+04  0.00000000000E+00 0.  1.
         22   -1    0    0    0    0 -0.00000000000E+00 -0.00000000000E+00 -0.19940302879E+03  0.19940302879E+03  0.00000000000E+00 0.  1.
        -24    2    1    2    0    0  0.75847658145E+02 -0.91511934435E+01 -0.17126899721E+03  0.20428465794E+03  0.81009508565E+02 0.  0.
         25    2    1    2    0    0  0.28620729904E+02 -0.43780408794E+02  0.44587506503E+03  0.46603487068E+03  0.12509219281E+03 0.  0.
         24    2    1    2    0    0 -0.10446838805E+03  0.52931602237E+02  0.32566417106E+04  0.32597343074E+04  0.80231694804E+02 0.  0.
        -13    1    5    5    0    0 -0.34287215028E+02  0.11670676384E+02  0.20637315024E+04  0.20640493046E+04  0.00000000000E+00 0.  1.
         14    1    5    5    0    0 -0.70181173020E+02  0.41260925853E+02  0.11929102083E+04  0.11956850028E+04  0.00000000000E+00 0. -1.
         13    1    3    3    0    0  0.20695991852E+02 -0.16872738049E+02 -0.27987226239E+01  0.26848579411E+02  0.00000000000E+00 0. -1.
        -14    1    3    3    0    0  0.55151666293E+02  0.77215446060E+01 -0.16847027458E+03  0.17743607853E+03  0.00000000000E+00 0.  1.
          5    1    4    4  501    0  0.14979502518E+02  0.35007667131E+02  0.54888472608E+02  0.66933841059E+02  0.41800000000E+01 0. -1.
         -5    1    4    4    0  501  0.13641227385E+02 -0.78788075925E+02  0.39098659242E+03  0.39910102962E+03  0.41800000000E+01 0. -1.
</event>
<event>
11    1  0.5813833E-009  0.1826564E+03  0.7561462E-02  0.1067514E+00
         22   -1    0    0    0    0  0.00000000000E+00  0.00000000000E+00  0.95821639138E+03  0.95821639138E+03  0.00000000000E+00 0. -1.
         22   -1    0    0    0    0 -0.00000000000E+00 -0.00000000000E+00 -0.20105139721E+04  0.20105139721E+04  0.00000000000E+00 0.  1.
         24    2    1    2    0    0 -0.65960730292E+01 -0.44007242830E+01 -0.17732267844E+04  0.17750414569E+04  0.79850298860E+02 0.  0.
         25    2    1    2    0    0 -0.12586194937E+03 -0.10521410671E+02 -0.19538387296E+03  0.26414934252E+03  0.12509231374E+03 0.  0.
        -24    2    1    2    0    0  0.13245802240E+03  0.14922134954E+02  0.91631307667E+03  0.92953956405E+03  0.81525142428E+02 0.  0.
        -11    1    3    3    0    0 -0.17268636671E+02  0.28559860656E+02 -0.13454951218E+04  0.13459089844E+04  0.00000000000E+00 0.  1.
         12    1    3    3    0    0  0.10672563641E+02 -0.32960584939E+02 -0.42773166260E+03  0.42913247251E+03  0.00000000000E+00 0. -1.
         13    1    5    5    0    0  0.13451350448E+03  0.30594560169E+02  0.86217135318E+03  0.87313764794E+03  0.00000000000E+00 0. -1.
        -14    1    5    5    0    0 -0.20554820864E+01 -0.15672425215E+02  0.54141723487E+02  0.56401916110E+02  0.00000000000E+00 0.  1.
          5    1    4    4  501    0 -0.10590437998E+03 -0.54502519689E+02 -0.17461480233E+03  0.21140970637E+03  0.41800000000E+01 0.  1.
         -5    1    4    4    0  501 -0.19957569383E+02  0.43981109018E+02 -0.20769070629E+02  0.52739636147E+02  0.41800000000E+01 0.  1.
</event>
<event>
11    1  0.5813833E-009  0.1574817E+03  0.7561462E-02  0.1089470E+00
         22   -1    0    0    0    0  0.00000000000E+00  0.00000000000E+00  0.11447792947E+03  0.11447792947E+03  0.00000000000E+00 0. -1.
         22   -1    0    0    0    0 -0.00000000000E+00 -0.00000000000E+00 -0.69499550082E+03  0.69499550082E+03  0.00000000000E+00 0. -1.
         24    2    1    2    0    0  0.17908049809E+02 -0.92022462474E+02 -0.42043171795E+03  0.43838401469E+03  0.81417952750E+02 0.  0.
         25    2    1    2    0    0  0.74338574687E+02  0.30074527825E+02 -0.16948083655E+03  0.22539436779E+03  0.12509263033E+03 0.  0.
        -24    2    1    2    0    0 -0.92246624496E+02  0.61947934649E+02  0.93949831501E+01  0.14569504780E+03  0.93764571706E+02 0.  0.
        -13    1    3    3    0    0  0.12077981735E+02 -0.33328839859E+01 -0.49008989145E+01  0.13453793837E+02  0.00000000000E+00 0.  1.
         14    1    3    3    0    0  0.58300680745E+01 -0.88689578488E+02 -0.41553081903E+03  0.42493022085E+03  0.00000000000E+00 0. -1.
         13    1    5    5    0    0 -0.63672717699E+02  0.85708808843E+02 -0.21094196729E+01  0.10679262401E+03  0.00000000000E+00 0. -1.
        -14    1    5    5    0    0 -0.28573906797E+02 -0.23760874195E+02  0.11504402823E+02  0.38902423787E+02  0.00000000000E+00 0.  1.
          5    1    4    4  501    0  0.73120116135E+02 -0.34106303723E+01 -0.17630676439E+03  0.19094431480E+03  0.41800000000E+01 0. -1.
         -5    1    4    4    0  501  0.12184585518E+01  0.33485158197E+02  0.68259278351E+01  0.34450052998E+02  0.41800000000E+01 0. -1.
</event>
<event>
11    1  0.5813833E-009  0.1292334E+03  0.7561462E-02  0.1120215E+00
         22   -1    0    0    0    0  0.00000000000E+00  0.00000000000E+00  0.43903012672E+02  0.43903012672E+02  0.00000000000E+00 0. -1.
         22   -1    0    0    0    0 -0.00000000000E+00 -0.00000000000E+00 -0.13018962090E+04  0.13018962090E+04  0.00000000000E+00 0.  1.
        -24    2    1    2    0    0  0.10001856894E+02  0.32192101515E+02 -0.42591989154E+03  0.43471188671E+03  0.80189163167E+02 0.  0.
         25    2    1    2    0    0  0.59437281057E+01 -0.32560848267E+02 -0.81729293774E+03  0.82747227117E+03  0.12508827577E+03 0.  0.
         24    2    1    2    0    0 -0.15945585000E+02  0.36874675188E+00 -0.14780367066E+02  0.83615063816E+02  0.80737983571E+02 0.  0.
        -13    1    5    5    0    0  0.76103238813E+01  0.27301413040E+02 -0.32968979736E+02  0.43476865209E+02  0.00000000000E+00 0.  1.
         14    1    5    5    0    0 -0.23555908881E+02 -0.26932666288E+02  0.18188612670E+02  0.40138198607E+02  0.00000000000E+00 0. -1.
         11    1    3    3    0    0 -0.31882787053E+01 -0.16469855658E+02 -0.22044265114E+02  0.27701460086E+02  0.00000000000E+00 0. -1.
        -12    1    3    3    0    0  0.13190135600E+02  0.48661957173E+02 -0.40387562643E+03  0.40701042662E+03  0.00000000000E+00 0.  1.
          5    1    4    4  501    0  0.45247128905E+02  0.20425547302E+02 -0.18022910972E+03  0.18698799439E+03  0.41800000000E+01 0. -1.
         -5    1    4    4    0  501 -0.39303400799E+02 -0.52986395569E+02 -0.63706382802E+03  0.64048427678E+03  0.41800000000E+01 0. -1.
</event>
<event>
11    1  0.5813833E-009  0.1515076E+03  0.7561462E-02  0.1095348E+00
         22   -1    0    0    0    0  0.00000000000E+00  0.00000000000E+00  0.10242781630E+03  0.10242781630E+03  0.00000000000E+00 0.  1.
         22   -1    0    0    0    0 -0.00000000000E+00 -0.00000000000E+00 -0.94730793373E+03  0.94730793373E+03  0.00000000000E+00 0. -1.
         24    2    1    2    0    0  0.20480758171E+02  0.27313528255E+02 -0.44104393629E+03  0.44977481685E+03  0.81315077669E+02 0.  0.
         25    2    1    2    0    0 -0.99967485299E+02 -0.52089790636E+02 -0.44628399248E+03  0.47699219270E+03  0.12508119581E+03 0.  0.
        -24    2    1    2    0    0  0.79486727128E+02  0.24776262381E+02  0.42447811339E+02  0.12296874049E+03  0.79921783529E+02 0.  0.
        -11    1    3    3    0    0 -0.11763608365E+02 -0.21001794167E+02 -0.21670352907E+03  0.21803641290E+03  0.00000000000E+00 0.  1.
         12    1    3    3    0    0  0.32244366535E+02  0.48315322422E+02 -0.22434040722E+03  0.23173840395E+03  0.00000000000E+00 0. -1.
         11    1    5    5    0    0 -0.16466003219E+02  0.28042422840E+01  0.92002604282E+01  0.19069290201E+02  0.00000000000E+00 0. -1.
        -12    1    5    5    0    0  0.95952730348E+02  0.21972020097E+02  0.33247550910E+02  0.10389945029E+03  0.00000000000E+00 0.  1.
          5    1    4    4  501    0 -0.27577858365E+02  0.37004712671E+02 -0.19908001653E+03  0.20440208515E+03  0.41800000000E+01 0. -1.
         -5    1    4    4    0  501 -0.72389626934E+02 -0.89094503307E+02 -0.24720397595E+03  0.27259010754E+03  0.41800000000E+01 0. -1.
</event>
<event>
11    1  0.5813833E-009  0.1502537E+03  0.7561462E-02  0.1096620E+00
         22   -1    0    0    0    0  0.00000000000E+00  0.00000000000E+00  0.57736867731E+03  0.57736867731E+03  0.00000000000E+00 0. -1.
         22   -1    0    0    0    0 -0.00000000000E+00 -0.00000000000E+00 -0.48513165817E+03  0.48513165817E+03  0.00000000000E+00 0. -1.
        -24    2    1    2    0    0  0.68397743229E+02 -0.44174707030E+02 -0.43142569409E+03  0.44759444721E+03  0.87080443463E+02 0.  0.
         25    2    1    2    0    0 -0.10774259769E+03  0.70510462427E+02  0.16395617053E+03  0.24312667249E+03  0.12509500531E+03 0.  0.
         24    2    1    2    0    0  0.39344854460E+02 -0.26335755397E+02  0.35970654270E+03  0.37177921578E+03  0.81175112181E+02 0.  0.
        -13    1    5    5    0    0 -0.17821269738E+02  0.47898030961E+01  0.26610014521E+02  0.32382599365E+02  0.00000000000E+00 0.  1.
         14    1    5    5    0    0  0.57166124198E+02 -0.31125558493E+02  0.33309652818E+03  0.33939661641E+03  0.00000000000E+00 0. -1.
         11    1    3    3    0    0  0.84302652935E+02 -0.53602013576E+02 -0.38122630850E+03  0.39409847937E+03  0.00000000000E+00 0. -1.
        -12    1    3    3    0    0 -0.15904909705E+02  0.94273065465E+01 -0.50199385592E+02  0.53495967841E+02  0.00000000000E+00 0.  1.
          5    1    4    4  501    0 -0.11516622482E+03  0.62996096102E+02  0.70652932383E+02  0.14913442499E+03  0.41800000000E+01 0.  1.
         -5    1    4    4    0  501  0.74236271296E+01  0.75143663248E+01  0.93303238151E+02  0.93992247502E+02  0.41800000000E+01 0.  1.
</event>
<event>
11    1  0.5813833E-009  0.1504585E+03  0.7561462E-02  0.1096411E+00
         22   -1    0    0    0    0  0.00000000000E+00  0.00000000000E+00  0.47699445108E+03  0.47699445108E+03  0.00000000000E+00 0.  1.
         22   -1    0    0    0    0 -0.00000000000E+00 -0.00000000000E+00 -0.38770529367E+03  0.38770529367E+03  0.00000000000E+00 0. -1.
        -24    2    1    2    0    0  0.30586015160E+02 -0.76296436387E+02 -0.25839526006E+03  0.28206239962E+03  0.77681634438E+02 0.  0.
         25    2    1    2    0    0 -0.10825094602E+02  0.91897582105E+02 -0.59821051311E+02  0.16669953333E+03  0.12509127852E+03 0.  0.
         24    2    1    2    0    0 -0.19760920558E+02 -0.15601145718E+02  0.40750546877E+03  0.41593781180E+03  0.79433409081E+02 0.  0.
        -11    1    5    5    0    0 -0.38459194411E+01 -0.44884727138E+02  0.30061727236E+03  0.30397396972E+03  0.00000000000E+00 0.  1.
         12    1    5    5    0    0 -0.15915001117E+02  0.29283581419E+02  0.10688819641E+03  0.11196384208E+03  0.00000000000E+00 0. -1.
         11    1    3    3    0    0  0.55158589901E+02 -0.43892415698E+02 -0.18776629346E+03  0.20056219773E+03  0.00000000000E+00 0. -1.
        -12    1    3    3    0    0 -0.24572574741E+02 -0.32404020689E+02 -0.70628966596E+02  0.81500201893E+02  0.00000000000E+00 0.  1.
          5    1    4    4  501    0 -0.49685214242E+01 -0.30911865375E+02 -0.20040438250E+02  0.37407501806E+02  0.41800000000E+01 0.  1.
         -5    1    4    4    0  501 -0.58565731774E+01  0.12280944748E+03 -0.39780613061E+02  0.12929203152E+03  0.41800000000E+01 0.  1.
</event>
<event>
11    1  0.5813833E-009  0.1876306E+03  0.7561462E-02  0.1063632E+00
         22   -1    0    0    0    0  0.00000000000E+00  0.00000000000E+00  0.10499024526E+04  0.10499024526E+04  0.00000000000E+00 0. -1.
         22   -1    0    0    0    0 -0.00000000000E+00 -0.00000000000E+00 -0.68745169323E+03  0.68745169323E+03  0.00000000000E+00 0.  1.
        -24    2    1    2    0    0 -0.63667997794E+02 -0.13301298123E+02 -0.61465495315E+03  0.62316726816E+03  0.79411549507E+02 0.  0.
         25    2    1    2    0    0  0.12679368753E+03 -0.10921043241E+03  0.11727237443E+03  0.23959115554E+03  0.12509018451E+03 0.  0.
         24    2    1    2    0    0 -0.63125689738E+02  0.12251173053E+03  0.85983333812E+03  0.87459572217E+03  0.81303942595E+02 0.  0.
        -13    1    5    5    0    0 -0.40660273948E+02  0.11181325343E+02  0.33298490566E+03  0.33564449543E+03  0.00000000000E+00 0.  1.
         14    1    5    5    0    0 -0.22465415790E+02  0.11133040519E+03  0.52684843246E+03  0.53895122674E+03  0.00000000000E+00 0. -1.
         13    1    3    3    0    0  0.80584810401E+01 -0.28201137409E+02 -0.16618220841E+03  0.16875061381E+03  0.00000000000E+00 0. -1.
        -14    1    3    3    0    0 -0.71726478835E+02  0.14899839286E+02 -0.44847274474E+03  0.45441665435E+03  0.00000000000E+00 0.  1.
          5    1    4    4  501    0  0.11040680257E+03 -0.12548236707E+03  0.59888868920E+02  0.17759401882E+03  0.41800000000E+01 0.  1.
         -5    1    4    4    0  501  0.16386884959E+02  0.16271934661E+02  0.57383505512E+02  0.61997136717E+02  0.41800000000E+01 0.  1.
</event>
<event>
11    1  0.5813833E-009  0.1510895E+03  0.7561462E-02  0.1095771E+00
         22   -1    0    0    0    0  0.00000000000E+00  0.00000000000E+00  0.13521441369E+04  0.13521441369E+04  0.00000000000E+00 0. -1.
         22   -1    0    0    0    0 -0.00000000000E+00 -0.00000000000E+00 -0.36483116325E+03  0.36483116325E+03  0.00000000000E+00 0. -1.
         24    2    1    2    0    0  0.12938394745E+02 -0.19222491401E+02 -0.33611792262E+03  0.34626729444E+03  0.79930438890E+02 0.  0.
         25    2    1    2    0    0 -0.89326280713E+02  0.49314994668E+02  0.29862381863E+03  0.33946776998E+03  0.12510407139E+03 0.  0.
        -24    2    1    2    0    0  0.76387885968E+02 -0.30092503267E+02  0.10248070777E+04  0.10312402358E+04  0.80537007158E+02 0.  0.
        -13    1    3    3    0    0  0.37814909752E+02 -0.30370191327E+01 -0.81170161684E+02  0.89597913103E+02  0.00000000000E+00 0.  1.
         14    1    3    3    0    0 -0.24876515006E+02 -0.16185472268E+02 -0.25494776094E+03  0.25666938134E+03  0.00000000000E+00 0. -1.
         13    1    5    5    0    0  0.45054397310E+02 -0.57589324109E+02  0.68152372383E+03  0.68543490946E+03  0.00000000000E+00 0. -1.
        -14    1    5    5    0    0  0.31333488658E+02  0.27496820842E+02  0.34328335385E+03  0.34580532630E+03  0.00000000000E+00 0.  1.
          5    1    4    4  501    0 -0.89748959450E+02  0.40939437153E+02  0.30964292467E+03  0.32500327142E+03  0.41800000000E+01 0. -1.
         -5    1    4    4    0  501  0.42267873677E+00  0.83755575146E+01 -0.11019106033E+02  0.14464498566E+02  0.41800000000E+01 0. -1.
</event>
<event>
11    1  0.5813833E-009  0.1295805E+03  0.7561462E-02  0.1119786E+00
         22   -1    0    0    0    0  0.00000000000E+00  0.00000000000E+00  0.15647034475E+04  0.15647034475E+04  0.00000000000E+00 0.  1.
         22   -1    0    0    0    0 -0.00000000000E+00 -0.00000000000E+00 -0.25469115372E+03  0.25469115372E+03  0.00000000000E+00 0.  1.
         24    2    1    2    0    0  0.20061185710E+02 -0.48086468451E+01 -0.19172461357E+03  0.21109860305E+03  0.85899467415E+02 0.  0.
         25    2    1    2    0    0 -0.51020752576E+02  0.17188234706E+02  0.37368543120E+02  0.14120646863E+03  0.12507720081E+03 0.  0.
        -24    2    1    2    0    0  0.30959566866E+02 -0.12379587861E+02  0.14643683642E+04  0.14670895295E+04  0.82856698975E+02 0.  0.
        -11    1    3    3    0    0 -0.18861276292E+01  0.21248110744E+02 -0.16855214530E+03  0.16989663143E+03  0.00000000000E+00 0.  1.
         12    1    3    3    0    0  0.21947313340E+02 -0.26056757589E+02 -0.23172468274E+02  0.41201971613E+02  0.00000000000E+00 0. -1.
         11    1    5    5    0    0 -0.83492334141E+00 -0.35230992453E+01  0.16161462169E+01  0.39650036409E+01  0.00000000000E+00 0. -1.
        -12    1    5    5    0    0  0.31794490207E+02 -0.88564886160E+01  0.14627522180E+04  0.14631245259E+04  0.00000000000E+00 0.  1.
          5    1    4    4  501    0  0.14963317899E+02 -0.43235783632E+02  0.61420049709E+01  0.46351164968E+02  0.41800000000E+01 0. -1.
         -5    1    4    4    0  501 -0.65984070476E+02  0.60424018339E+02  0.31226538149E+02  0.94855303666E+02  0.41800000000E+01 0. -1.
</event>
<event>
11    1  0.5813833E-009  0.1412800E+03  0.7561462E-02  0.1106137E+00
         22   -1    0    0    0    0  0.00000000000E+00  0.00000000000E+00  0.52082612162E+03  0.52082612162E+03  0.00000000000E+00 0.  1.
         22   -1    0    0    0    0 -0.00000000000E+00 -0.00000000000E+00 -0.12802684004E+03  0.12802684004E+03  0.00000000000E+00 0. -1.
         24    2    1    2    0    0  0.12913764335E+02  0.65975243481E+02 -0.71873262915E+02  0.12576191827E+03  0.78299400406E+02 0.  0.
         25    2    1    2    0    0 -0.47217391601E+02 -0.41531289518E+02  0.23721839779E+03  0.27545218230E+03  0.12508799464E+03 0.  0.
        -24    2    1    2    0    0  0.34303627266E+02 -0.24443953963E+02  0.22745414671E+03  0.24763886109E+03  0.88404586629E+02 0.  0.
        -13    1    3    3    0    0 -0.17481858780E+02  0.12542616482E+02  0.97147651477E+01  0.23607398766E+02  0.00000000000E+00 0.  1.
         14    1    3    3    0    0  0.30395623115E+02  0.53432626999E+02 -0.81588028063E+02  0.10215451951E+03  0.00000000000E+00 0. -1.
         13    1    5    5    0    0  0.47594454718E+02 -0.42972044099E+02  0.10463109819E+03  0.12271713574E+03  0.00000000000E+00 0. -1.
        -14    1    5    5    0    0 -0.13290827452E+02  0.18528090136E+02  0.12282304851E+03  0.12492172535E+03  0.00000000000E+00 0.  1.
          5    1    4    4  501    0 -0.15442762206E+02  0.23027017069E+02  0.54196296694E+00  0.28044403069E+02  0.41800000000E+01 0. -1.
         -5    1    4    4    0  501 -0.31774629395E+02 -0.64558306587E+02  0.23667643482E+03  0.24740777923E+03  0.41800000000E+01 0. -1.
</event>
<event>
11    1  0.5813833E-009  0.1836557E+03  0.7561462E-02  0.1066724E+00
         22   -1    0    0    0    0  0.00000000000E+00  0.00000000000E+00  0.42406101311E+03  0.42406101311E+03  0.00000000000E+00 0. -1.
         22   -1    0    0    0    0 -0.00000000000E+00 -0.00000000000E+00 -0.46551778214E+03  0.46551778214E+03  0.00000000000E+00 0. -1.
         24    2    1    2    0    0  0.12133075141E+03  0.61256023041E+02 -0.37147718965E+03  0.40372501313E+03  0.80778290384E+02 0.  0.
         25    2    1    2    0    0 -0.10194865417E+03 -0.74233252417E+02  0.37813310866E+02  0.18160373608E+03  0.12508383840E+03 0.  0.
        -24    2    1    2    0    0 -0.19382097246E+02  0.12977229376E+02  0.29220710976E+03  0.30425004604E+03  0.81480189887E+02 0.  0.
        -13    1    3    3    0    0  0.65991397532E+02 -0.87433397927E+01 -0.12548333067E+03  0.14204709365E+03  0.00000000000E+00 0.  1.
         14    1    3    3    0    0  0.55339353880E+02  0.69999362834E+02 -0.24599385898E+03  0.26167791948E+03  0.00000000000E+00 0. -1.
         13    1    5    5    0    0 -0.36144757786E+02 -0.84969647356E+01  0.25732851439E+03  0.25999347346E+03  0.00000000000E+00 0. -1.
        -14    1    5    5    0    0  0.16762660539E+02  0.21474194112E+02  0.34878595369E+02  0.44256572574E+02  0.00000000000E+00 0.  1.
          5    1    4    4  501    0  0.15834907042E+02  0.52503695419E+01  0.35480966797E+02  0.39429456834E+02  0.41800000000E+01 0. -1.
         -5    1    4    4    0  501 -0.11778356121E+03 -0.79483621959E+02  0.23323440689E+01  0.14217427925E+03  0.41800000000E+01 0. -1.
</event>
<event>
11    1  0.5813833E-009  0.1629439E+03  0.7561462E-02  0.1084341E+00
         22   -1    0    0    0    0  0.00000000000E+00  0.00000000000E+00  0.42512418912E+03  0.42512418912E+03  0.00000000000E+00 0. -1.
         22   -1    0    0    0    0 -0.00000000000E+00 -0.00000000000E+00 -0.16010317912E+04  0.16010317912E+04  0.00000000000E+00 0. -1.
         24    2    1    2    0    0  0.24916051911E+01 -0.16595034476E+01 -0.15151632315E+04  0.15174566391E+04  0.83343095777E+02 0.  0.
         25    2    1    2    0    0  0.12452321943E+02  0.10480655212E+03  0.21397437860E+02  0.16505886376E+03  0.12508838662E+03 0.  0.
        -24    2    1    2    0    0 -0.14943927134E+02 -0.10314704868E+03  0.31785819153E+03  0.34364047742E+03  0.78691252291E+02 0.  0.
        -11    1    3    3    0    0  0.23642293367E+02 -0.33091188129E+02 -0.52677119424E+03  0.52833878889E+03  0.00000000000E+00 0.  1.
         12    1    3    3    0    0 -0.21150688176E+02  0.31431684681E+02 -0.98839203723E+03  0.98911785024E+03  0.00000000000E+00 0. -1.
         13    1    5    5    0    0 -0.10504647748E+02 -0.99260416684E+02  0.32154631753E+03  0.33668236107E+03  0.00000000000E+00 0. -1.
        -14    1    5    5    0    0 -0.44392793859E+01 -0.38866319921E+01 -0.36881259930E+01  0.69581163434E+01  0.00000000000E+00 0.  1.
          5    1    4    4  501    0  0.65820910913E+02  0.47434569486E+02  0.28913778499E+02  0.86231720862E+02  0.41800000000E+01 0. -1.
         -5    1    4    4    0  501 -0.53368588970E+02  0.57371982638E+02 -0.75163406392E+01  0.78827142895E+02  0.41800000000E+01 0. -1.
</event>
<event>
11    1  0.5813833E-009  0.1334706E+03  0.7561462E-02  0.1115077E+00
         22   -1    0    0    0    0  0.00000000000E+00  0.00000000000E+00  0.10919784787E+04  0.10919784787E+04  0.00000000000E+00 0.  1.
         22   -1    0    0    0    0 -0.00000000000E+00 -0.00000000000E+00 -0.37344507941E+03  0.37344507941E+03  0.00000000000E+00 0.  1.
        -24    2    1    2    0    0  0.32666118559E+02 -0.67596927640E+01 -0.30508850138E+03  0.31545267290E+03  0.72928913482E+02 0.  0.
         25    2    1    2    0    0 -0.78622925556E+01 -0.33556051258E+02  0.80674573301E+01  0.13000380304E+03  0.12509228880E+03 0.  0.
         24    2    1    2    0    0 -0.24803826004E+02  0.40315744022E+02  0.10155544433E+04  0.10199670822E+04  0.82106225759E+02 0.  0.
        -13    1    5    5    0    0 -0.54528807774E+02  0.17513486040E+02  0.59979947518E+03  0.60252761222E+03  0.00000000000E+00 0.  1.
         14    1    5    5    0    0  0.29724981771E+02  0.22802257982E+02  0.41575496816E+03  0.41743946993E+03  0.00000000000E+00 0. -1.
         13    1    3    3    0    0  0.52834502356E+02  0.66705864749E+00 -0.15331067593E+03  0.16216070103E+03  0.00000000000E+00 0. -1.
        -14    1    3    3    0    0 -0.20168383797E+02 -0.74267514115E+01 -0.15177782545E+03  0.15329197187E+03  0.00000000000E+00 0.  1.
          5    1    4    4  501    0 -0.42551554932E+02  0.32772967065E+02 -0.42100529528E+01  0.54036091118E+02  0.41800000000E+01 0.  1.
         -5    1    4    4    0  501  0.34689262377E+02 -0.66329018323E+02  0.12277510283E+02  0.75967711922E+02  0.41800000000E+01 0.  1.
</event>
<event>
11    1  0.5813833E-009  0.1538455E+03  0.7561462E-02  0.1093013E+00
         22   -1    0    0    0    0  0.00000000000E+00  0.00000000000E+00  0.17455462799E+04  0.17455462799E+04  0.00000000000E+00 0.  1.
         22   -1    0    0    0    0 -0.00000000000E+00 -0.00000000000E+00 -0.24678519427E+03  0.24678519427E+03  0.00000000000E+00 0.  1.
        -24    2    1    2    0    0 -0.96142115441E+01 -0.90307279536E+02 -0.21857337160E+03  0.24970936942E+03  0.79577714225E+02 0.  0.
         25    2    1    2    0    0 -0.55716111862E+01  0.55592217952E+02  0.41225096765E+03  0.43442368413E+03  0.12510611279E+03 0.  0.
         24    2    1    2    0    0  0.15185822730E+02  0.34715061585E+02  0.13050834896E+04  0.13081984206E+04  0.81880695187E+02 0.  0.
        -13    1    5    5    0    0 -0.11902867400E+02  0.12606030712E+02  0.11013322482E+04  0.11014687064E+04  0.00000000000E+00 0.  1.
         14    1    5    5    0    0  0.27088690130E+02  0.22109030872E+02  0.20375124143E+03  0.20672971427E+03  0.00000000000E+00 0. -1.
         13    1    3    3    0    0 -0.23674907004E+02  0.11856889999E+01 -0.76943645243E+02  0.80512307279E+02  0.00000000000E+00 0. -1.
        -14    1    3    3    0    0  0.14060695460E+02 -0.91492968536E+02 -0.14162972636E+03  0.16919706214E+03  0.00000000000E+00 0.  1.
          5    1    4    4  501    0 -0.27646634474E+02  0.50816893435E+02  0.67870381535E+02  0.89277960023E+02  0.41800000000E+01 0. -1.
         -5    1    4    4    0  501  0.22075023288E+02  0.47753245168E+01  0.34438058612E+03  0.34514572411E+03  0.41800000000E+01 0. -1.
</event>
<event>
11    1  0.5813833E-009  0.1324218E+03  0.7561462E-02  0.1116329E+00
         22   -1    0    0    0    0  0.00000000000E+00  0.00000000000E+00  0.16945996060E+04  0.16945996060E+04  0.00000000000E+00 0. -1.
         22   -1    0    0    0    0 -0.00000000000E+00 -0.00000000000E+00 -0.72294052709E+03  0.72294052709E+03  0.00000000000E+00 0.  1.
        -24    2    1    2    0    0  0.53334995357E+00  0.31529527182E+02 -0.66794774600E+03  0.67356248472E+03  0.80856872861E+02 0.  0.
         25    2    1    2    0    0  0.42581248066E+02 -0.25057127536E+02  0.38087666976E+02  0.13977656435E+03  0.12508315330E+03 0.  0.
         24    2    1    2    0    0 -0.43114598019E+02 -0.64723996456E+01  0.16015191579E+04  0.16042010840E+04  0.81833637508E+02 0.  0.
        -11    1    5    5    0    0 -0.18139839720E+02  0.29789569723E+02  0.31433383920E+03  0.31626292024E+03  0.00000000000E+00 0.  1.
         12    1    5    5    0    0 -0.24974758299E+02 -0.36261969368E+02  0.12871853187E+04  0.12879381637E+04  0.00000000000E+00 0. -1.
         11    1    3    3    0    0 -0.37360028509E+02  0.18522072376E+02 -0.22698738796E+03  0.23078586003E+03  0.00000000000E+00 0. -1.
        -12    1    3    3    0    0  0.37893378463E+02  0.13007454806E+02 -0.44096035804E+03  0.44277662469E+03  0.00000000000E+00 0.  1.
          5    1    4    4  501    0  0.27600792736E+01 -0.47098013162E+02  0.69652651635E+02  0.84230666394E+02  0.41800000000E+01 0. -1.
         -5    1    4    4    0  501  0.39821168792E+02  0.22040885626E+02 -0.31564984659E+02  0.55545897956E+02  0.41800000000E+01 0. -1.
</event>
<event>
11    1  0.5813833E-009  0.1453571E+03  0.7561462E-02  0.1101720E+00
         22   -1    0    0    0    0  0.00000000000E+00  0.00000000000E+00  0.99555725517E+02  0.99555725517E+02  0.00000000000E+00 0. -1.
         22   -1    0    0    0    0 -0.00000000000E+00 -0.00000000000E+00 -0.40823209408E+03  0.40823209408E+03  0.00000000000E+00 0.  1.
         24    2    1    2    0    0 -0.37613821651E+02  0.24489914038E-01 -0.13462408554E+03  0.16214267178E+03  0.82169346035E+02 0.  0.
         25    2    1    2    0    0  0.50527322340E+01 -0.69642725374E+02 -0.18429424318E+03  0.23342509065E+03  0.12508903060E+03 0.  0.
        -24    2    1    2    0    0  0.32561089417E+02  0.69618235460E+02  0.10241960146E+02  0.11222005717E+03  0.81126569201E+02 0.  0.
        -11    1    3    3    0    0 -0.23703633845E+02 -0.36395624329E+02 -0.10354142325E+03  0.11228236752E+03  0.00000000000E+00 0.  1.
         12    1    3    3    0    0 -0.13910187806E+02  0.36420114243E+02 -0.31082662286E+02  0.49860304262E+02  0.00000000000E+00 0. -1.
         11    1    5    5    0    0  0.42832098569E+02  0.51565028940E+02  0.38382144282E+02  0.77244610667E+02  0.00000000000E+00 0. -1.
        -12    1    5    5    0    0 -0.10271009152E+02  0.18053206519E+02 -0.28140184136E+02  0.34975446500E+02  0.00000000000E+00 0.  1.
          5    1    4    4  501    0  0.31339959788E+02 -0.96930931042E+02 -0.15419273990E+03  0.18485310900E+03  0.41800000000E+01 0. -1.
         -5    1    4    4    0  501 -0.26287227554E+02  0.27288205669E+02 -0.30101503280E+02  0.48571981644E+02  0.41800000000E+01 0. -1.
</event>
<event>
11    1  0.5813833E-009  0.1318157E+03  0.7561462E-02  0.1117058E+00
         22   -1    0    0    0    0  0.00000000000E+00  0.00000000000E+00  0.52308901222E+03  0.52308901222E+03  0.00000000000E+00 0. -1.
         22   -1    0    0    0    0 -0.00000000000E+00 -0.00000000000E+00 -0.34747749230E+03  0.34747749230E+03  0.00000000000E+00 0. -1.
         24    2    1    2    0    0 -0.15849872519E+01  0.30761026762E+02 -0.30970953981E+03  0.32209246872E+03  0.82914452325E+02 0.  0.
         25    2    1    2    0    0  0.11642738009E+02 -0.64880732588E+02  0.17103829902E+03  0.22194679618E+03  0.12514478731E+03 0.  0.
        -24    2    1    2    0    0 -0.10057750757E+02  0.34119705826E+02  0.31428276070E+03  0.32652723963E+03  0.81123805810E+02 0.  0.
        -13    1    3    3    0    0  0.31386848755E+02  0.26545376025E+02 -0.79532789286E+02  0.89527961190E+02  0.00000000000E+00 0.  1.
         14    1    3    3    0    0 -0.32971836007E+02  0.42156507367E+01 -0.23017675052E+03  0.23256450753E+03  0.00000000000E+00 0. -1.
         11    1    5    5    0    0 -0.38545275488E+02  0.43798348180E+02  0.21615472936E+03  0.22389037628E+03  0.00000000000E+00 0. -1.
        -12    1    5    5    0    0  0.28487524731E+02 -0.96786423538E+01  0.98128031336E+02  0.10263686334E+03  0.00000000000E+00 0.  1.
          5    1    4    4  501    0 -0.34131941586E+02 -0.75426951557E+02  0.14759740635E+03  0.16928284384E+03  0.41800000000E+01 0.  1.
         -5    1    4    4    0  501  0.45774679594E+02  0.10546218969E+02  0.23440892675E+02  0.52663952338E+02  0.41800000000E+01 0.  1.
</event>
<event>
11    1  0.5813833E-009  0.1389069E+03  0.7561462E-02  0.1108785E+00
         22   -1    0    0    0    0  0.00000000000E+00  0.00000000000E+00  0.12802964672E+04  0.12802964672E+04  0.00000000000E+00 0. -1.
         22   -1    0    0    0    0 -0.00000000000E+00 -0.00000000000E+00 -0.32726410571E+03  0.32726410571E+03  0.00000000000E+00 0.  1.
         24    2    1    2    0    0  0.55596784300E+01  0.25864360253E+02 -0.30658814066E+03  0.31849457826E+03  0.82113538646E+02 0.  0.
         25    2    1    2    0    0  0.40703620472E+02 -0.60900383930E+02  0.43294266465E+03  0.45656109532E+03  0.12507214479E+03 0.  0.
        -24    2    1    2    0    0 -0.46263298902E+02  0.35036023677E+02  0.82667783750E+03  0.83250489933E+03  0.79374710125E+02 0.  0.
        -13    1    3    3    0    0 -0.31404447519E+02  0.35335269552E+02 -0.19135198898E+03  0.19710505900E+03  0.00000000000E+00 0.  1.
         14    1    3    3    0    0  0.36964125949E+02 -0.94709092985E+01 -0.11523615168E+03  0.12138951925E+03  0.00000000000E+00 0. -1.
         11    1    5    5    0    0 -0.29816029666E+02  0.10281122431E+02  0.74364041127E+03  0.74430891327E+03  0.00000000000E+00 0. -1.
        -12    1    5    5    0    0 -0.16447269236E+02  0.24754901247E+02  0.83037426237E+02  0.88195986060E+02  0.00000000000E+00 0.  1.
          5    1    4    4  501    0 -0.25463665293E+02  0.11434440017E+02  0.22347694121E+03  0.22525221491E+03  0.41800000000E+01 0.  1.
         -5    1    4    4    0  501  0.66167285765E+02 -0.72334823947E+02  0.20946572343E+03  0.23130888041E+03  0.41800000000E+01 0.  1.
</event>
<event>
11    1  0.5813833E-009  0.1273736E+03  0.7561462E-02  0.1122539E+00
         22   -1    0    0    0    0  0.00000000000E+00  0.00000000000E+00  0.24924053197E+03  0.24924053197E+03  0.00000000000E+00 0.  1.
         22   -1    0    0    0    0 -0.00000000000E+00 -0.00000000000E+00 -0.42851339816E+03  0.42851339816E+03  0.00000000000E+00 0.  1.
         24    2    1    2    0    0  0.69497770844E+01 -0.21491402875E+02 -0.25294898525E+03  0.26571622160E+03  0.78177627760E+02 0.  0.
         25    2    1    2    0    0 -0.10604755144E+02 -0.32485377827E+01 -0.13624947823E+03  0.18529603032E+03  0.12509070591E+03 0.  0.
        -24    2    1    2    0    0  0.36549780595E+01  0.24739940658E+02  0.20992559729E+03  0.22674167821E+03  0.81961019486E+02 0.  0.
        -13    1    3    3    0    0 -0.17281399045E+02 -0.37966549772E+02 -0.20742082700E+03  0.21157387629E+03  0.00000000000E+00 0.  1.
         14    1    3    3    0    0  0.24231176129E+02  0.16475146897E+02 -0.45528158247E+02  0.54142345306E+02  0.00000000000E+00 0. -1.
         11    1    5    5    0    0 -0.86558108072E+00 -0.23080147456E+02  0.19121795614E+02  0.29984754538E+02  0.00000000000E+00 0. -1.
        -12    1    5    5    0    0  0.45205591402E+01  0.47820088114E+02  0.19080380167E+03  0.19675692368E+03  0.00000000000E+00 0.  1.
          5    1    4    4  501    0 -0.56227750246E+02 -0.20564108838E+02 -0.11916452998E+03  0.13342451077E+03  0.41800000000E+01 0.  1.
         -5    1    4    4    0  501  0.45622995102E+02  0.17315571055E+02 -0.17084948247E+02  0.51871519542E+02  0.41800000000E+01 0.  1.
</event>
<event>
11    1  0.5813833E-009  0.1584944E+03  0.7561462E-02  0.1088502E+00
         22   -1    0    0    0    0  0.00000000000E+00  0.00000000000E+00  0.30962518166E+03  0.30962518166E+03  0.00000000000E+00 0.  1.
         22   -1    0    0    0    0 -0.00000000000E+00 -0.00000000000E+00 -0.22485807411E+04  0.22485807411E+04  0.00000000000E+00 0. -1.
        -24    2    1    2    0    0  0.36640004471E+02 -0.91347430665E+02 -0.21760874127E+04  0.21798592144E+04  0.82115308136E+02 0.  0.
         25    2    1    2    0    0  0.10996302931E+02  0.59233491005E+02  0.19455502750E+02  0.14019941373E+03  0.12509130221E+03 0.  0.
         24    2    1    2    0    0 -0.47636307402E+02  0.32113939659E+02  0.21767635053E+03  0.23814729463E+03  0.77657050288E+02 0.  0.
        -11    1    5    5    0    0 -0.51784443260E+02  0.53703982015E+02  0.16675822730E+03  0.18268566616E+03  0.00000000000E+00 0.  1.
         12    1    5    5    0    0  0.41481358578E+01 -0.21590042356E+02  0.50918123227E+02  0.55461628474E+02  0.00000000000E+00 0. -1.
         11    1    3    3    0    0  0.18899524658E+02 -0.34796985335E+02 -0.16447344678E+04  0.16452110781E+04  0.00000000000E+00 0. -1.
        -12    1    3    3    0    0  0.17740479813E+02 -0.56550445329E+02 -0.53135294498E+03  0.53464813628E+03  0.00000000000E+00 0.  1.
          5    1    4    4  501    0  0.56036339504E+02  0.67610426711E+02 -0.50855008237E+01  0.88060069632E+02  0.41800000000E+01 0.  1.
         -5    1    4    4    0  501 -0.45040036572E+02 -0.83769357054E+01  0.24541003574E+02  0.52139344095E+02  0.41800000000E+01 0.  1.
</event>
<event>
11    1  0.5813833E-009  0.1658089E+03  0.7561462E-02  0.1081738E+00
         22   -1    0    0    0    0  0.00000000000E+00  0.00000000000E+00  0.10106675876E+04  0.10106675876E+04  0.00000000000E+00 0. -1.
         22   -1    0    0    0    0 -0.00000000000E+00 -0.00000000000E+00 -0.74676815871E+03  0.74676815871E+03  0.00000000000E+00 0.  1.
        -24    2    1    2    0    0  0.17730387573E+02  0.32111086912E+02 -0.53000009928E+03  0.53714382241E+03  0.79233150708E+02 0.  0.
         25    2    1    2    0    0 -0.12822987841E+02 -0.14014027325E+03 -0.16596227402E+03  0.25098798722E+03  0.12509103935E+03 0.  0.
         24    2    1    2    0    0 -0.49073997321E+01  0.10802918634E+03  0.95986180217E+03  0.96930393665E+03  0.80753047475E+02 0.  0.
        -11    1    5    5    0    0 -0.16758524221E+02  0.73648227082E+01  0.39474036414E+03  0.39516457816E+03  0.00000000000E+00 0.  1.
         12    1    5    5    0    0  0.11851124489E+02  0.10066436363E+03  0.56512143803E+03  0.57413935850E+03  0.00000000000E+00 0. -1.
         13    1    3    3    0    0 -0.20638332918E+02 -0.39044850581E+01 -0.31862467104E+03  0.31931624886E+03  0.00000000000E+00 0. -1.
        -14    1    3    3    0    0  0.38368720490E+02  0.36015571970E+02 -0.21137542824E+03  0.21782757355E+03  0.00000000000E+00 0.  1.
          5    1    4    4  501    0  0.27006977968E+02  0.87532516890E+01 -0.70089358325E+01  0.29539699653E+02  0.41800000000E+01 0.  1.
         -5    1    4    4    0  501 -0.39829965808E+02 -0.14889352494E+03 -0.15895333819E+03  0.22144828757E+03  0.41800000000E+01 0.  1.
</event>
<event>
11    1  0.5813833E-009  0.1718100E+03  0.7561462E-02  0.1076467E+00
         22   -1    0    0    0    0  0.00000000000E+00  0.00000000000E+00  0.14347485180E+04  0.14347485180E+04  0.00000000000E+00 0. -1.
         22   -1    0    0    0    0 -0.00000000000E+00 -0.00000000000E+00 -0.11805551814E+03  0.11805551814E+03  0.00000000000E+00 0.  1.
         24    2    1    2    0    0  0.22982485151E+02 -0.10730550458E+03 -0.19778634814E+02  0.13883130935E+03  0.82705937649E+02 0.  0.
         25    2    1    2    0    0  0.14263312006E+02  0.16189105779E+03  0.25407003350E+03  0.32651373591E+03  0.12508989229E+03 0.  0.
        -24    2    1    2    0    0 -0.37245797157E+02 -0.54585553213E+02  0.10824016012E+04  0.10874589909E+04  0.81283445984E+02 0.  0.
        -13    1    3    3    0    0  0.29723984002E+02 -0.11813864033E+03 -0.26110111855E+02  0.12458728469E+03  0.00000000000E+00 0.  1.
         14    1    3    3    0    0 -0.67414988502E+01  0.10833135751E+02  0.63314770412E+01  0.14244024659E+02  0.00000000000E+00 0. -1.
         13    1    5    5    0    0 -0.23099381903E+02 -0.73081629264E+02  0.66380579041E+03  0.66821600802E+03  0.00000000000E+00 0. -1.
        -14    1    5    5    0    0 -0.14146415254E+02  0.18496076051E+02  0.41859581077E+03  0.41924298287E+03  0.00000000000E+00 0.  1.
          5    1    4    4  501    0  0.50444005421E+02  0.69485856051E+02  0.49733995706E+02  0.99316789129E+02  0.41800000000E+01 0. -1.
         -5    1    4    4    0  501 -0.36180693415E+02  0.92405201744E+02  0.20433603780E+03  0.22719694678E+03  0.41800000000E+01 0. -1.
</event>
<event>
11    1  0.5813833E-009  0.1385315E+03  0.7561462E-02  0.1109209E+00
         22   -1    0    0    0    0  0.00000000000E+00  0.00000000000E+00  0.13172951417E+04  0.13172951417E+04  0.00000000000E+00 0. -1.
         22   -1    0    0    0    0 -0.00000000000E+00 -0.00000000000E+00 -0.37449630424E+03  0.37449630424E+03  0.00000000000E+00 0.  1.
        -24    2    1    2    0    0 -0.12775293444E+02  0.57001214265E+02 -0.33862910591E+03  0.35238070311E+03  0.78039361901E+02 0.  0.
         25    2    1    2    0    0  0.42074986795E+02 -0.91310225401E+02  0.21370228445E+03  0.26725276161E+03  0.12509000932E+03 0.  0.
         24    2    1    2    0    0 -0.29299693352E+02  0.34309011136E+02  0.10677256589E+04  0.10721579812E+04  0.86308016390E+02 0.  0.
        -13    1    5    5    0    0 -0.14471027888E+02 -0.18481561285E+02  0.69738435874E+03  0.69777927926E+03  0.00000000000E+00 0.  1.
         14    1    5    5    0    0 -0.14828665464E+02  0.52790572421E+02  0.37034130021E+03  0.37437870198E+03  0.00000000000E+00 0. -1.
         13    1    3    3    0    0  0.99993112491E+01  0.13534944180E+02 -0.89315868230E+01  0.19051356450E+02  0.00000000000E+00 0. -1.
        -14    1    3    3    0    0 -0.22774604693E+02  0.43466270086E+02 -0.32969751908E+03  0.33332934666E+03  0.00000000000E+00 0.  1.
          5    1    4    4  501    0  0.11848631542E+02  0.11596301509E+02  0.13005188616E+03  0.13117099440E+03  0.41800000000E+01 0.  1.
         -5    1    4    4    0  501  0.30226355254E+02 -0.10290652691E+03  0.83650398284E+02  0.13608176720E+03  0.41800000000E+01 0.  1.
</event>
<event>
11    1  0.5813833E-009  0.1398123E+03  0.7561462E-02  0.1107768E+00
         22   -1    0    0    0    0  0.00000000000E+00  0.00000000000E+00  0.21983448753E+03  0.21983448753E+03  0.00000000000E+00 0. -1.
         22   -1    0    0    0    0 -0.00000000000E+00 -0.00000000000E+00 -0.26054998173E+04  0.26054998173E+04  0.00000000000E+00 0.  1.
         24    2    1    2    0    0 -0.91941168048E+01 -0.18285373423E+02 -0.21584838775E+04  0.21602726123E+04  0.85476449762E+02 0.  0.
         25    2    1    2    0    0 -0.50301337194E+02  0.37551632410E+02 -0.42201304379E+03  0.44461532433E+03  0.12508967934E+03 0.  0.
        -24    2    1    2    0    0  0.59495453998E+02 -0.19266258987E+02  0.19483159146E+03  0.22044636825E+03  0.82014355228E+02 0.  0.
        -13    1    3    3    0    0  0.12649322095E+02 -0.10335312537E+02 -0.20024621904E+04  0.20025288133E+04  0.00000000000E+00 0.  1.
         14    1    3    3    0    0 -0.21843438900E+02 -0.79500608862E+01 -0.15602168704E+03  0.15774379898E+03  0.00000000000E+00 0. -1.
         13    1    5    5    0    0  0.17682219469E+02 -0.24976790377E+01  0.16600486398E+03  0.16696261303E+03  0.00000000000E+00 0. -1.
        -14    1    5    5    0    0  0.41813234529E+02 -0.16768579949E+02  0.28826727480E+02  0.53483755220E+02  0.00000000000E+00 0.  1.
          5    1    4    4  501    0 -0.72600269271E+02 -0.10826921847E+02 -0.33107714957E+03  0.33914240770E+03  0.41800000000E+01 0. -1.
         -5    1    4    4    0  501  0.22298932078E+02  0.48378554257E+02 -0.90935894218E+02  0.10547291662E+03  0.41800000000E+01 0. -1.
</event>
<event>
11    1  0.5813833E-009  0.1915361E+03  0.7561462E-02  0.1060676E+00
         22   -1    0    0    0    0  0.00000000000E+00  0.00000000000E+00  0.38824450562E+03  0.38824450562E+03  0.00000000000E+00 0. -1.
         22   -1    0    0    0    0 -0.00000000000E+00 -0.00000000000E+00 -0.45994496731E+03  0.45994496731E+03  0.00000000000E+00 0.  1.
         24    2    1    2    0    0 -0.48439740522E+02  0.11115707123E+03 -0.14549957009E+03  0.20529814880E+03  0.79214279368E+02 0.  0.
         25    2    1    2    0    0  0.91232458087E+02 -0.15559147184E+03 -0.23277687224E+03  0.31994477939E+03  0.12509005592E+03 0.  0.
        -24    2    1    2    0    0 -0.42792717565E+02  0.44434400617E+02  0.30657598065E+03  0.32294654474E+03  0.80622616016E+02 0.  0.
        -13    1    3    3    0    0 -0.22596056927E+01  0.64756549822E+01 -0.65097710492E+02  0.65458015832E+02  0.00000000000E+00 0.  1.
         14    1    3    3    0    0 -0.46180134829E+02  0.10468141624E+03 -0.80401859602E+02  0.13984013296E+03  0.00000000000E+00 0. -1.
         11    1    5    5    0    0 -0.37942625133E+01  0.22348018827E+02  0.24877362568E+03  0.24980421775E+03  0.00000000000E+00 0. -1.
        -12    1    5    5    0    0 -0.38998455052E+02  0.22086381791E+02  0.57802354974E+02  0.73142326990E+02  0.00000000000E+00 0.  1.
          5    1    4    4  501    0  0.44081030391E+02 -0.80364866784E+02 -0.20851761560E+03  0.22781290014E+03  0.41800000000E+01 0.  1.
         -5    1    4    4    0  501  0.47151427696E+02 -0.75226605060E+02 -0.24259256646E+02  0.92131879258E+02  0.41800000000E+01 0.  1.
</event>
<event>
11    1  0.5813833E-009  0.1329387E+03  0.7561462E-02  0.1115710E+00
         22   -1    0    0    0    0  0.00000000000E+00  0.00000000000E+00  0.10460164378E+04  0.10460164378E+04  0.00000000000E+00 0. -1.
         22   -1    0    0    0    0 -0.00000000000E+00 -0.00000000000E+00 -0.87885844099E+02  0.87885844099E+02  0.00000000000E+00 0. -1.
         24    2    1    2    0    0  0.40614658430E+02  0.22927550511E+02 -0.47236107224E+02  0.10461728643E+03  0.80859778277E+02 0.  0.
         25    2    1    2    0    0 -0.15065236537E+02 -0.10570943239E+02  0.45421918206E+03  0.47148988197E+03  0.12509571238E+03 0.  0.
        -24    2    1    2    0    0 -0.25549421892E+02 -0.12356607271E+02  0.55114751887E+03  0.55779511350E+03  0.81032970980E+02 0.  0.
        -11    1    3    3    0    0  0.50584793494E+02  0.45852079495E+02 -0.32709750383E+02  0.75704440404E+02  0.00000000000E+00 0.  1.
         12    1    3    3    0    0 -0.99701350640E+01 -0.22924528984E+02 -0.14526356842E+02  0.28912846028E+02  0.00000000000E+00 0. -1.
         13    1    5    5    0    0 -0.26341616976E+02 -0.29441221807E+02  0.52541031433E+03  0.52689340927E+03  0.00000000000E+00 0. -1.
        -14    1    5    5    0    0  0.79219508398E+00  0.17084614535E+02  0.25737204538E+02  0.30901704230E+02  0.00000000000E+00 0.  1.
          5    1    4    4  501    0  0.21157709968E+02  0.37209559044E+01  0.76157702559E+01  0.23172538931E+02  0.41800000000E+01 0. -1.
         -5    1    4    4    0  501 -0.36222946505E+02 -0.14291899144E+02  0.44660341180E+03  0.44831734304E+03  0.41800000000E+01 0. -1.
</event>
<event>
11    1  0.5813833E-009  0.1307238E+03  0.7561462E-02  0.1118383E+00
         22   -1    0    0    0    0  0.00000000000E+00  0.00000000000E+00  0.99729420542E+03  0.99729420542E+03  0.00000000000E+00 0.  1.
         22   -1    0    0    0    0 -0.00000000000E+00 -0.00000000000E+00 -0.60449938069E+03  0.60449938069E+03  0.00000000000E+00 0. -1.
         24    2    1    2    0    0 -0.11789200595E+02 -0.14537013755E+02 -0.55607696867E+03  0.56180885471E+03  0.77828555958E+02 0.  0.
         25    2    1    2    0    0  0.13603908965E+02 -0.24060705412E+02  0.51401296950E+02  0.13803594802E+03  0.12509134956E+03 0.  0.
        -24    2    1    2    0    0 -0.18147083699E+01  0.38597719168E+02  0.89747049645E+03  0.90194878337E+03  0.81026160836E+02 0.  0.
        -13    1    3    3    0    0 -0.28471632782E+02  0.24157751279E+02 -0.22807866720E+03  0.23111492650E+03  0.00000000000E+00 0.  1.
         14    1    3    3    0    0  0.16682432188E+02 -0.38694765034E+02 -0.32799830147E+03  0.33069392820E+03  0.00000000000E+00 0. -1.
         11    1    5    5    0    0 -0.10908641327E+02  0.28578725867E+02  0.10506023541E+03  0.10942300989E+03  0.00000000000E+00 0. -1.
        -12    1    5    5    0    0  0.90939329567E+01  0.10018993300E+02  0.79241026104E+03  0.79252577349E+03  0.00000000000E+00 0.  1.
          5    1    4    4  501    0 -0.30844985647E+02  0.38636607658E+02  0.30651414387E+02  0.58319655304E+02  0.41800000000E+01 0.  1.
         -5    1    4    4    0  501  0.44448894612E+02 -0.62697313070E+02  0.20749882562E+02  0.79716292718E+02  0.41800000000E+01 0.  1.
</event>
<event>
11    1  0.5813833E-009  0.3503946E+03  0.7561462E-02  0.9808646E-01
         22   -1    0    0    0    0  0.00000000000E+00  0.00000000000E+00  0.36240124028E+04  0.36240124028E+04  0.00000000000E+00 0. -1.
         22   -1    0    0    0    0 -0.00000000000E+00 -0.00000000000E+00 -0.78855361538E+02  0.78855361538E+02  0.00000000000E+00 0. -1.
         24    2    1    2    0    0 -0.16102324277E+03  0.47889353998E+02  0.19163923330E+03  0.26799615258E+03  0.82912406314E+02 0.  0.
         25    2    1    2    0    0  0.99839140653E+01  0.28068438035E+03  0.84605056242E+03  0.90018473324E+03  0.12509036685E+03 0.  0.
        -24    2    1    2    0    0  0.15103932871E+03 -0.32857373434E+03  0.25074672456E+04  0.25346868785E+04  0.80448784448E+02 0.  0.
        -13    1    3    3    0    0 -0.64524766226E+02  0.60846711452E+02  0.10707278866E+03  0.13903362839E+03  0.00000000000E+00 0.  1.
         14    1    3    3    0    0 -0.96498476547E+02 -0.12957357455E+02  0.84566444637E+02  0.12896252419E+03  0.00000000000E+00 0. -1.
         11    1    5    5    0    0  0.15258063734E+03 -0.32635318689E+03  0.25056806098E+04  0.25314467349E+04  0.00000000000E+00 0. -1.
        -12    1    5    5    0    0 -0.15413086341E+01 -0.22205474533E+01  0.17866358023E+01  0.32401436369E+01  0.00000000000E+00 0.  1.
          5    1    4    4  501    0 -0.14539552249E+02  0.27906019583E+03  0.73423352741E+03  0.78562226079E+03  0.41800000000E+01 0. -1.
         -5    1    4    4    0  501  0.24523466314E+02  0.16241845127E+01  0.11181703500E+03  0.11456247244E+03  0.41800000000E+01 0. -1.
</event>
<event>
11    1  0.5813833E-009  0.2496075E+03  0.7561462E-02  0.1024109E+00
         22   -1    0    0    0    0  0.00000000000E+00  0.00000000000E+00  0.15930818762E+03  0.15930818762E+03  0.00000000000E+00 0. -1.
         22   -1    0    0    0    0 -0.00000000000E+00 -0.00000000000E+00 -0.30502205285E+04  0.30502205285E+04  0.00000000000E+00 0. -1.
         24    2    1    2    0    0  0.20244293411E+03  0.51662352058E+02 -0.25465543901E+04  0.25563775828E+04  0.80467036010E+02 0.  0.
         25    2    1    2    0    0 -0.30759709373E+03 -0.25799102763E+02 -0.38747389591E+03  0.51094518291E+03  0.12508954455E+03 0.  0.
        -24    2    1    2    0    0  0.10515415961E+03 -0.25863249295E+02  0.43115945078E+02  0.14220595046E+03  0.81469274438E+02 0.  0.
        -11    1    3    3    0    0  0.65055075200E+02  0.21176020701E+02 -0.13208614640E+04  0.13226320704E+04  0.00000000000E+00 0.  1.
         12    1    3    3    0    0  0.13738785891E+03  0.30486331357E+02 -0.12256929261E+04  0.12337455123E+04  0.00000000000E+00 0. -1.
         11    1    5    5    0    0  0.26123238351E+02  0.93485601511E+01  0.48114727043E+02  0.55541391028E+02  0.00000000000E+00 0. -1.
        -12    1    5    5    0    0  0.79030921262E+02 -0.35211809446E+02 -0.49987819647E+01  0.86664559430E+02  0.00000000000E+00 0.  1.
          5    1    4    4  501    0 -0.12225731392E+03  0.18276105686E+02 -0.74102712914E+02  0.14418582214E+03  0.41800000000E+01 0. -1.
         -5    1    4    4    0  501 -0.18533977981E+03 -0.44075208449E+02 -0.31337118299E+03  0.36675936077E+03  0.41800000000E+01 0. -1.
</event>
<event>
11    1  0.5813833E-009  0.1890287E+03  0.7561462E-02  0.1062565E+00
         22   -1    0    0    0    0  0.00000000000E+00  0.00000000000E+00  0.89154578980E+03  0.89154578980E+03  0.00000000000E+00 0. -1.
         22   -1    0    0    0    0 -0.00000000000E+00 -0.00000000000E+00 -0.47659215657E+03  0.47659215657E+03  0.00000000000E+00 0. -1.
        -24    2    1    2    0    0  0.43584595924E+01  0.13995072161E+03 -0.39749532485E+03  0.42916559253E+03  0.81088666838E+02 0.  0.
         25    2    1    2    0    0  0.29393716802E+02 -0.16128005052E+03  0.11567849510E+03  0.23644062863E+03  0.12508961330E+03 0.  0.
         24    2    1    2    0    0 -0.33752176394E+02  0.21329328915E+02  0.69677046297E+03  0.70253172521E+03  0.80421372574E+02 0.  0.
        -13    1    5    5    0    0 -0.26514442917E+02  0.46042296528E+02  0.28192560945E+03  0.28688840691E+03  0.00000000000E+00 0.  1.
         14    1    5    5    0    0 -0.72377334773E+01 -0.24712967613E+02  0.41484485352E+03  0.41564331830E+03  0.00000000000E+00 0. -1.
         13    1    3    3    0    0  0.15108675246E+02  0.60565947315E+02 -0.28056823199E+03  0.28742831949E+03  0.00000000000E+00 0. -1.
        -14    1    3    3    0    0 -0.10750215654E+02  0.79384774292E+02 -0.11692709286E+03  0.14173727305E+03  0.00000000000E+00 0.  1.
          5    1    4    4  501    0  0.70975203512E+02 -0.50224256140E+02  0.57150314801E+02  0.10413254198E+03  0.41800000000E+01 0. -1.
         -5    1    4    4    0  501 -0.41581486710E+02 -0.11105579438E+03  0.58528180296E+02  0.13230808665E+03  0.41800000000E+01 0. -1.
</event>
<event>
11    1  0.5813833E-009  0.1785537E+03  0.7561462E-02  0.1070819E+00
         22   -1    0    0    0    0  0.00000000000E+00  0.00000000000E+00  0.20643662523E+03  0.20643662523E+03  0.00000000000E+00 0. -1.
         22   -1    0    0    0    0 -0.00000000000E+00 -0.00000000000E+00 -0.30092336987E+03  0.30092336987E+03  0.00000000000E+00 0. -1.
         24    2    1    2    0    0  0.82737438782E+02 -0.10357824251E+03 -0.16439421054E+03  0.22573311447E+03  0.79724816794E+02 0.  0.
         25    2    1    2    0    0 -0.10549633786E+03  0.54954880074E+02  0.22197953749E+02  0.17403493650E+03  0.12508354739E+03 0.  0.
        -24    2    1    2    0    0  0.22758899079E+02  0.48623362432E+02  0.47709512156E+02  0.10759194412E+03  0.80110111901E+02 0.  0.
        -11    1    3    3    0    0 -0.65642729306E+01 -0.48044787446E+02 -0.40122657297E+02  0.62938215008E+02  0.00000000000E+00 0.  1.
         12    1    3    3    0    0  0.89301711712E+02 -0.55533455061E+02 -0.12427155324E+03  0.16279489946E+03  0.00000000000E+00 0. -1.
         13    1    5    5    0    0  0.15567402391E+02  0.82885921250E+00  0.56373224878E+02  0.58489071696E+02  0.00000000000E+00 0. -1.
        -14    1    5    5    0    0  0.71914966890E+01  0.47794503220E+02 -0.86637127212E+01  0.49102872429E+02  0.00000000000E+00 0.  1.
          5    1    4    4  501    0 -0.10783794472E+03 -0.91531853839E+01  0.15216901722E+02  0.10937014959E+03  0.41800000000E+01 0.  1.
         -5    1    4    4    0  501  0.23416068541E+01  0.64108065458E+02  0.69810520269E+01  0.64664786916E+02  0.41800000000E+01 0.  1.
</event>
<event>
11    1  0.5813833E-009  0.1367158E+03  0.7561462E-02  0.1111282E+00
         22   -1    0    0    0    0  0.00000000000E+00  0.00000000000E+00  0.71751725309E+03  0.71751725309E+03  0.00000000000E+00 0.  1.
         22   -1    0    0    0    0 -0.00000000000E+00 -0.00000000000E+00 -0.26928824398E+03  0.26928824398E+03  0.00000000000E+00 0. -1.
        -24    2    1    2    0    0 -0.40834722240E+02  0.32606734479E+02 -0.19890579161E+03  0.22054287313E+03  0.79655328001E+02 0.  0.
         25    2    1    2    0    0  0.63216260578E+02 -0.53227844271E+02  0.42758106823E+02  0.15587725674E+03  0.12505984353E+03 0.  0.
         24    2    1    2    0    0 -0.22381538337E+02  0.20621109792E+02  0.60437669390E+03  0.61038536719E+03  0.79830726695E+02 0.  0.
        -13    1    5    5    0    0 -0.49176695943E+02  0.53366373882E+01  0.46566919207E+03  0.46828903849E+03  0.00000000000E+00 0.  1.
         14    1    5    5    0    0  0.26795157606E+02  0.15284472403E+02  0.13870750182E+03  0.14209632870E+03  0.00000000000E+00 0. -1.
         11    1    3    3    0    0 -0.58796610234E+02  0.26617949896E+02 -0.18782546093E+03  0.19860503620E+03  0.00000000000E+00 0. -1.
        -12    1    3    3    0    0  0.17961887993E+02  0.59887845832E+01 -0.11080330678E+02  0.21937836926E+02  0.00000000000E+00 0.  1.
          5    1    4    4  501    0  0.67105224401E+02 -0.36733808117E+02 -0.29080287348E+02  0.81948882317E+02  0.41800000000E+01 0.  1.
         -5    1    4    4    0  501 -0.38889638238E+01 -0.16494036154E+02  0.71838394171E+02  0.73928374426E+02  0.41800000000E+01 0.  1.
</event>
<event>
11    1  0.5813833E-009  0.1867016E+03  0.7561462E-02  0.1064347E+00
         22   -1    0    0    0    0  0.00000000000E+00  0.00000000000E+00  0.82659590899E+03  0.82659590899E+03  0.00000000000E+00 0. -1.
         22   -1    0    0    0    0 -0.00000000000E+00 -0.00000000000E+00 -0.12071357083E+04  0.12071357083E+04  0.00000000000E+00 0. -1.
         24    2    1    2    0    0  0.13627480211E+03 -0.22496501457E+02 -0.11415096179E+04  0.11529884126E+04  0.85212426170E+02 0.  0.
         25    2    1    2    0    0 -0.15963405181E+03 -0.22193068897E+02  0.12815687702E+03  0.24092868651E+03  0.12508750558E+03 0.  0.
        -24    2    1    2    0    0  0.23359249695E+02  0.44689570354E+02  0.63281294160E+03  0.63981451814E+03  0.79797157378E+02 0.  0.
        -11    1    3    3    0    0  0.25815379210E+01 -0.25193975021E+02 -0.11180996262E+03  0.11464235019E+03  0.00000000000E+00 0.  1.
         12    1    3    3    0    0  0.13369326419E+03  0.26974735639E+01 -0.10296996553E+04  0.10383460624E+04  0.00000000000E+00 0. -1.
         13    1    5    5    0    0  0.45200255058E+02  0.15087544520E+02  0.49103272995E+03  0.49333947636E+03  0.00000000000E+00 0. -1.
        -14    1    5    5    0    0 -0.21841005363E+02  0.29602025833E+02  0.14178021165E+03  0.14647504178E+03  0.00000000000E+00 0.  1.
          5    1    4    4  501    0  0.77132507165E+01 -0.23290295372E+02  0.50690168497E+02  0.56470325635E+02  0.41800000000E+01 0. -1.
         -5    1    4    4    0  501 -0.16734730252E+03  0.10972264748E+01  0.77466708521E+02  0.18445836087E+03  0.41800000000E+01 0. -1.
</event>
<event>
11    1  0.5813833E-009  0.1338245E+03  0.7561462E-02  0.1114657E+00
         22   -1    0    0    0    0  0.00000000000E+00  0.00000000000E+00  0.33606339369E+03  0.33606339369E+03  0.00000000000E+00 0.  1.
         22   -1    0    0    0    0 -0.00000000000E+00 -0.00000000000E+00 -0.66577101327E+03  0.66577101327E+03  0.00000000000E+00 0.  1.
         24    2    1    2    0    0  0.28083909137E+01  0.24509780709E+02 -0.47894308649E+03  0.48627890650E+03  0.80449228733E+02 0.  0.
         25    2    1    2    0    0  0.16747645704E+02 -0.66980191244E+02 -0.14716023027E+03  0.20510787755E+03  0.12508508466E+03 0.  0.
        -24    2    1    2    0    0 -0.19556036618E+02  0.42470410535E+02  0.29639569717E+03  0.31044762291E+03  0.79631293644E+02 0.  0.
        -11    1    3    3    0    0  0.33854061033E+01 -0.22559741641E+02 -0.31180642590E+03  0.31263980896E+03  0.00000000000E+00 0.  1.
         12    1    3    3    0    0 -0.57701518957E+00  0.47069522349E+02 -0.16713666059E+03  0.17363909754E+03  0.00000000000E+00 0. -1.
         13    1    5    5    0    0 -0.59976961108E+00  0.42315007045E+00 -0.52475023799E+01  0.52985904536E+01  0.00000000000E+00 0. -1.
        -14    1    5    5    0    0 -0.18956267007E+02  0.42047260464E+02  0.30164319955E+03  0.30514903245E+03  0.00000000000E+00 0.  1.
          5    1    4    4  501    0 -0.51785240251E+02 -0.40812519307E+02 -0.47870617473E+02  0.81587016474E+02  0.41800000000E+01 0.  1.
         -5    1    4    4    0  501  0.68532885955E+02 -0.26167671937E+02 -0.99289612793E+02  0.12352086107E+03  0.41800000000E+01 0.  1.
</event>
<event>
11    1  0.5813833E-009  0.2374457E+03  0.7561462E-02  0.1030808E+00
         22   -1    0    0    0    0  0.00000000000E+00  0.00000000000E+00  0.11372100958E+04  0.11372100958E+04  0.00000000000E+00 0.  1.
         22   -1    0    0    0    0 -0.00000000000E+00 -0.00000000000E+00 -0.15165218307E+04  0.15165218307E+04  0.00000000000E+00 0.  1.
        -24    2    1    2    0    0  0.83277848004E+02  0.86772874076E+01 -0.13069102691E+04  0.13120450139E+04  0.80231987097E+02 0.  0.
         25    2    1    2    0    0  0.11058921750E+03 -0.78049969704E+02 -0.15244881193E+03  0.23918761042E+03  0.12509316497E+03 0.  0.
         24    2    1    2    0    0 -0.19386706550E+03  0.69372682296E+02  0.10800473460E+04  0.11024993022E+04  0.81273817974E+02 0.  0.
        -13    1    5    5    0    0 -0.14734648690E+03  0.68896839276E+02  0.65420091160E+03  0.67411912479E+03  0.00000000000E+00 0.  1.
         14    1    5    5    0    0 -0.46520578598E+02  0.47584302017E+00  0.42584643444E+03  0.42838017739E+03  0.00000000000E+00 0. -1.
         11    1    3    3    0    0  0.56870970756E+02 -0.10405897653E+02 -0.36322428944E+03  0.36779678419E+03  0.00000000000E+00 0. -1.
        -12    1    3    3    0    0  0.26406877248E+02  0.19083185061E+02 -0.94368597962E+03  0.94424822968E+03  0.00000000000E+00 0.  1.
          5    1    4    4  501    0  0.22431410164E+02  0.29563655367E+02 -0.72182251331E+01  0.38036207154E+02  0.41800000000E+01 0.  1.
         -5    1    4    4    0  501  0.88157807332E+02 -0.10761362507E+03 -0.14523058680E+03  0.20115140327E+03  0.41800000000E+01 0.  1.
</event>
<event>
11    1  0.5813833E-009  0.1479088E+03  0.7561462E-02  0.1099035E+00
         22   -1    0    0    0    0  0.00000000000E+00  0.00000000000E+00  0.79639459659E+03  0.79639459659E+03  0.00000000000E+00 0.  1.
         22   -1    0    0    0    0 -0.00000000000E+00 -0.00000000000E+00 -0.16403844195E+04  0.16403844195E+04  0.00000000000E+00 0. -1.
        -24    2    1    2    0    0 -0.32211004620E+02 -0.17029979136E+02 -0.13881112617E+04  0.13908805722E+04  0.79801768582E+02 0.  0.
         25    2    1    2    0    0  0.19485904200E+02 -0.61257011478E+02 -0.22639505060E+03  0.26652243930E+03  0.12508944719E+03 0.  0.
         24    2    1    2    0    0  0.12725100420E+02  0.78286990614E+02  0.77051648940E+03  0.77937600459E+03  0.86258419959E+02 0.  0.
        -11    1    5    5    0    0 -0.70074780393E+00  0.36447490340E+02  0.65130078844E+03  0.65232018796E+03  0.00000000000E+00 0.  1.
         12    1    5    5    0    0  0.13425848224E+02  0.41839500275E+02  0.11921570095E+03  0.12705581662E+03  0.00000000000E+00 0. -1.
         11    1    3    3    0    0 -0.53198404912E+02 -0.14339233322E+02 -0.12444872222E+04  0.12457062776E+04  0.00000000000E+00 0. -1.
        -12    1    3    3    0    0  0.20987400292E+02 -0.26907458138E+01 -0.14362403950E+03  0.14517429458E+03  0.00000000000E+00 0.  1.
          5    1    4    4  501    0 -0.36638573967E+02  0.16313372600E+02 -0.10059686679E+03  0.10837764177E+03  0.41800000000E+01 0.  1.
         -5    1    4    4    0  501  0.56124478167E+02 -0.77570384079E+02 -0.12579818380E+03  0.15814479752E+03  0.41800000000E+01 0.  1.
</event>
<event>
11    1  0.5813833E-009  0.1741492E+03  0.7561462E-02  0.1074476E+00
         22   -1    0    0    0    0  0.00000000000E+00  0.00000000000E+00  0.46109479320E+03  0.46109479320E+03  0.00000000000E+00 0.  1.
         22   -1    0    0    0    0 -0.00000000000E+00 -0.00000000000E+00 -0.68744819907E+03  0.68744819907E+03  0.00000000000E+00 0. -1.
         24    2    1    2    0    0 -0.27154956043E+02 -0.12651796903E+03 -0.57881462832E+03  0.59862945113E+03  0.81158226186E+02 0.  0.
         25    2    1    2    0    0 -0.11142260562E+02  0.76046653903E+02 -0.33421156907E+02  0.15057369610E+03  0.12509284827E+03 0.  0.
        -24    2    1    2    0    0  0.38297216606E+02  0.50471315129E+02  0.38588237935E+03  0.39933984505E+03  0.80951038915E+02 0.  0.
        -13    1    3    3    0    0 -0.16262126908E+02 -0.64118928934E+01 -0.20719330197E+03  0.20792939553E+03  0.00000000000E+00 0.  1.
         14    1    3    3    0    0 -0.10892829136E+02 -0.12010607614E+03 -0.37162132634E+03  0.39070005560E+03  0.00000000000E+00 0. -1.
         11    1    5    5    0    0 -0.15320001467E+02  0.26100506559E+02  0.50887541004E+02  0.59207100224E+02  0.00000000000E+00 0. -1.
        -12    1    5    5    0    0  0.53617218073E+02  0.24370808570E+02  0.33499483835E+03  0.34013274483E+03  0.00000000000E+00 0.  1.
          5    1    4    4  501    0 -0.24495909483E+02  0.73188815506E+01  0.40880409312E+02  0.48397271349E+02  0.41800000000E+01 0. -1.
         -5    1    4    4    0  501  0.13353648920E+02  0.68727772352E+02 -0.74301566219E+02  0.10217642475E+03  0.41800000000E+01 0. -1.
</event>
<event>
11    1  0.5813833E-009  0.1399981E+03  0.7561462E-02  0.1107561E+00
         22   -1    0    0    0    0  0.00000000000E+00  0.00000000000E+00  0.19130599790E+04  0.19130599790E+04  0.00000000000E+00 0.  1.
         22   -1    0    0    0    0 -0.00000000000E+00 -0.00000000000E+00 -0.45849858528E+03  0.45849858528E+03  0.00000000000E+00 0.  1.
         24    2    1    2    0    0  0.57865603923E+01 -0.21329488555E+02 -0.41223780139E+03  0.42052031186E+03  0.80055583343E+02 0.  0.
         25    2    1    2    0    0 -0.63758893936E+02 -0.31381380802E+01  0.80605591743E+02  0.16194008899E+03  0.12510909853E+03 0.  0.
        -24    2    1    2    0    0  0.57972333543E+02  0.24467626635E+02  0.17861936033E+04  0.17890981634E+04  0.80157304796E+02 0.  0.
        -13    1    3    3    0    0 -0.82678820503E+01 -0.19653218715E+02 -0.40312050808E+03  0.40368397407E+03  0.00000000000E+00 0.  1.
         14    1    3    3    0    0  0.14054442443E+02 -0.16762698402E+01 -0.91172933079E+01  0.16836337791E+02  0.00000000000E+00 0. -1.
         13    1    5    5    0    0  0.42757207287E+02  0.13409470280E+02  0.35968644971E+03  0.36246701198E+03  0.00000000000E+00 0. -1.
        -14    1    5    5    0    0  0.15215126256E+02  0.11058156356E+02  0.14265071536E+04  0.14266311514E+04  0.00000000000E+00 0.  1.
          5    1    4    4  501    0 -0.66399526792E+02  0.24369091787E+02 -0.58352910260E+01  0.71093409076E+02  0.41800000000E+01 0.  1.
         -5    1    4    4    0  501  0.26406328564E+01 -0.27507229867E+02  0.86440882769E+02  0.90846679910E+02  0.41800000000E+01 0.  1.
</event>
<event>
11    1  0.5813833E-009  0.1528020E+03  0.7561462E-02  0.1094050E+00
         22   -1    0    0    0    0  0.00000000000E+00  0.00000000000E+00  0.52129178524E+03  0.52129178524E+03  0.00000000000E+00 0.  1.
         22   -1    0    0    0    0 -0.00000000000E+00 -0.00000000000E+00 -0.13330974744E+03  0.13330974744E+03  0.00000000000E+00 0. -1.
        -24    2    1    2    0    0 -0.32476036368E+02 -0.18284657257E+02 -0.55349443214E+02  0.10517707625E+03  0.81299660980E+02 0.  0.
         25    2    1    2    0    0  0.65843718678E+01 -0.70592902594E+02  0.76486289416E+02  0.16286281683E+03  0.12508969897E+03 0.  0.
         24    2    1    2    0    0  0.25891664500E+02  0.88877559851E+02  0.36684519160E+03  0.38656163960E+03  0.79277409611E+02 0.  0.
        -11    1    5    5    0    0 -0.14068814423E+02  0.42624827104E+02  0.25668218082E+03  0.26057733857E+03  0.00000000000E+00 0.  1.
         12    1    5    5    0    0  0.39960478923E+02  0.46252732748E+02  0.11016301078E+03  0.12598430103E+03  0.00000000000E+00 0. -1.
         13    1    3    3    0    0 -0.55500262090E+02  0.60537806485E+01 -0.32139111210E+02  0.64419328012E+02  0.00000000000E+00 0. -1.
        -14    1    3    3    0    0  0.23024225722E+02 -0.24338437906E+02 -0.23210332004E+02  0.40757748239E+02  0.00000000000E+00 0.  1.
          5    1    4    4  501    0 -0.28279549643E+02 -0.84135832247E+02  0.86404930353E+02  0.12394295295E+03  0.41800000000E+01 0. -1.
         -5    1    4    4    0  501  0.34863921511E+02  0.13542929653E+02 -0.99186409361E+01  0.38919863884E+02  0.41800000000E+01 0. -1.
</event>
<event>
11    1  0.5813833E-009  0.2598572E+03  0.7561462E-02  0.1018775E+00
         22   -1    0    0    0    0  0.00000000000E+00  0.00000000000E+00  0.64898832468E+03  0.64898832468E+03  0.00000000000E+00 0. -1.
         22   -1    0    0    0    0 -0.00000000000E+00 -0.00000000000E+00 -0.12478722144E+04  0.12478722144E+04  0.00000000000E+00 0.  1.
        -24    2    1    2    0    0  0.21796161985E+03  0.93908075783E+02 -0.11511365729E+04  0.11781000184E+04  0.80487573065E+02 0.  0.
         25    2    1    2    0    0 -0.14493377063E+03 -0.17220375730E+02  0.48423186958E+02  0.19822850483E+03  0.12508955146E+03 0.  0.
         24    2    1    2    0    0 -0.73027849223E+02 -0.76687700053E+02  0.50382949618E+03  0.52053201591E+03  0.76781171310E+02 0.  0.
        -13    1    5    5    0    0 -0.57829428640E+02 -0.62828152084E+01  0.20045599127E+03  0.20872546807E+03  0.00000000000E+00 0.  1.
         14    1    5    5    0    0 -0.15198420583E+02 -0.70404884844E+02  0.30337350490E+03  0.31180654784E+03  0.00000000000E+00 0. -1.
         13    1    3    3    0    0  0.14752693177E+02 -0.81189735359E+01 -0.17598913406E+03  0.17679291556E+03  0.00000000000E+00 0. -1.
        -14    1    3    3    0    0  0.20320892667E+03  0.10202704932E+03 -0.97514743883E+03  0.10013071028E+04  0.00000000000E+00 0.  1.
          5    1    4    4  501    0 -0.41018874913E+02  0.35245416012E+02  0.60340134721E+02  0.81136870208E+02  0.41800000000E+01 0. -1.
         -5    1    4    4    0  501 -0.10391489571E+03 -0.52465791742E+02 -0.11916947763E+02  0.11709163462E+03  0.41800000000E+01 0. -1.
</event>
<event>
11    1  0.5813833E-009  0.1334662E+03  0.7561462E-02  0.1115082E+00
         22   -1    0    0    0    0  0.00000000000E+00  0.00000000000E+00  0.84967666676E+02  0.84967666676E+02  0.00000000000E+00 0. -1.
         22   -1    0    0    0    0 -0.00000000000E+00 -0.00000000000E+00 -0.25118222865E+04  0.25118222865E+04  0.00000000000E+00 0. -1.
         24    2    1    2    0    0 -0.16978231624E+02 -0.17115351422E+02 -0.21771714839E+04  0.21788213712E+04  0.81275469109E+02 0.  0.
         25    2    1    2    0    0 -0.18778554526E+02  0.47115671576E+02 -0.28631898161E+03  0.31654137370E+03  0.12508941369E+03 0.  0.
        -24    2    1    2    0    0  0.35756786151E+02 -0.30000320154E+02  0.36635845688E+02  0.10142720823E+03  0.82260114360E+02 0.  0.
        -13    1    3    3    0    0  0.95734115256E+01  0.11558181916E+02 -0.87028066277E+02  0.88312661026E+02  0.00000000000E+00 0.  1.
         14    1    3    3    0    0 -0.26551643150E+02 -0.28673533338E+02 -0.20901434176E+04  0.20905087102E+04  0.00000000000E+00 0. -1.
         11    1    5    5    0    0  0.19321369548E+00 -0.43506551710E+02  0.44875353705E+02  0.62503237863E+02  0.00000000000E+00 0. -1.
        -12    1    5    5    0    0  0.35563572455E+02  0.13506231556E+02 -0.82395080168E+01  0.38923970365E+02  0.00000000000E+00 0.  1.
          5    1    4    4  501    0  0.33400518767E+02  0.11678794813E+02 -0.22724699325E+03  0.23002316675E+03  0.41800000000E+01 0.  1.
         -5    1    4    4    0  501 -0.52179073294E+02  0.35436876763E+02 -0.59071988356E+02  0.86518206944E+02  0.41800000000E+01 0.  1.
</event>
<event>
11    1  0.5813833E-009  0.1388160E+03  0.7561462E-02  0.1108888E+00
         22   -1    0    0    0    0  0.00000000000E+00  0.00000000000E+00  0.30351607261E+03  0.30351607261E+03  0.00000000000E+00 0.  1.
         22   -1    0    0    0    0 -0.00000000000E+00 -0.00000000000E+00 -0.46519268713E+03  0.46519268713E+03  0.00000000000E+00 0.  1.
         24    2    1    2    0    0 -0.47390409386E+02 -0.64266442729E+01 -0.35158074678E+03  0.36360184594E+03  0.79436315419E+02 0.  0.
         25    2    1    2    0    0  0.10593015785E+02 -0.44936393914E+02 -0.51566207312E+02  0.14298670131E+03  0.12511847000E+03 0.  0.
        -24    2    1    2    0    0  0.36797393601E+02  0.51363038186E+02  0.24147033958E+03  0.26212021248E+03  0.80042932399E+02 0.  0.
        -13    1    3    3    0    0 -0.44706094535E+02  0.36811795926E+01 -0.35019033857E+03  0.35305163815E+03  0.00000000000E+00 0.  1.
         14    1    3    3    0    0 -0.26843148505E+01 -0.10107823866E+02 -0.13904082119E+01  0.10550207795E+02  0.00000000000E+00 0. -1.
         11    1    5    5    0    0  0.47391086496E+02  0.17959314798E+01  0.81301584600E+02  0.94122728964E+02  0.00000000000E+00 0. -1.
        -12    1    5    5    0    0 -0.10593692895E+02  0.49567106707E+02  0.16016875498E+03  0.16799748352E+03  0.00000000000E+00 0.  1.
          5    1    4    4  501    0 -0.78378986641E+01  0.25024256758E+02 -0.64154765204E+02  0.69433078429E+02  0.41800000000E+01 0. -1.
         -5    1    4    4    0  501  0.18430914449E+02 -0.69960650672E+02  0.12588557891E+02  0.73553622886E+02  0.41800000000E+01 0. -1.
</event>
<event>
11    1  0.5813833E-009  0.1614752E+03  0.7561462E-02  0.1085698E+00
         22   -1    0    0    0    0  0.00000000000E+00  0.00000000000E+00  0.51612440977E+03  0.51612440977E+03  0.00000000000E+00 0.  1.
         22   -1    0    0    0    0 -0.00000000000E+00 -0.00000000000E+00 -0.13190050573E+04  0.13190050573E+04  0.00000000000E+00 0. -1.
         24    2    1    2    0    0 -0.10343569267E+03 -0.30338564465E+01 -0.10276988887E+04  0.10360968920E+04  0.81385606551E+02 0.  0.
         25    2    1    2    0    0  0.90858235254E+02  0.54532543450E+02 -0.25872902508E+03  0.30629414063E+03  0.12508547061E+03 0.  0.
        -24    2    1    2    0    0  0.12577457413E+02 -0.51498687004E+02  0.48354726628E+03  0.49273843442E+03  0.78504132535E+02 0.  0.
        -11    1    3    3    0    0 -0.82049495599E+01 -0.30439793549E+02 -0.19671816070E+03  0.19922835385E+03  0.00000000000E+00 0.  1.
         12    1    3    3    0    0 -0.95230743107E+02  0.27405937102E+02 -0.83098072804E+03  0.83686853818E+03  0.00000000000E+00 0. -1.
         13    1    5    5    0    0 -0.54347771934E+01  0.11029444038E+02  0.13707880684E+02  0.18414435418E+02  0.00000000000E+00 0. -1.
        -14    1    5    5    0    0  0.18012234607E+02 -0.62528131042E+02  0.46983938560E+03  0.47432399900E+03  0.00000000000E+00 0.  1.
          5    1    4    4  501    0 -0.60448741851E+01  0.55818491839E+02 -0.15189331357E+03  0.16199165300E+03  0.41800000000E+01 0.  1.
         -5    1    4    4    0  501  0.96903109439E+02 -0.12859483885E+01 -0.10683571151E+03  0.14430248763E+03  0.41800000000E+01 0.  1.
</event>
<event>
11    1  0.5813833E-009  0.1739649E+03  0.7561462E-02  0.1074632E+00
         22   -1    0    0    0    0  0.00000000000E+00  0.00000000000E+00  0.86560039508E+03  0.86560039508E+03  0.00000000000E+00 0. -1.
         22   -1    0    0    0    0 -0.00000000000E+00 -0.00000000000E+00 -0.99895571821E+03  0.99895571821E+03  0.00000000000E+00 0.  1.
         24    2    1    2    0    0  0.10866103878E+02 -0.67525121390E+02 -0.93610688510E+03  0.94203735515E+03  0.80377633319E+02 0.  0.
         25    2    1    2    0    0 -0.38802780715E+02 -0.58300009578E+02  0.45813402589E+02  0.15048494085E+03  0.12506919148E+03 0.  0.
        -24    2    1    2    0    0  0.27936676837E+02  0.12582513097E+03  0.75693815937E+03  0.77203381729E+03  0.80426465911E+02 0.  0.
        -13    1    3    3    0    0 -0.21479476499E+02  0.79652661700E+00 -0.88762490823E+02  0.91327882612E+02  0.00000000000E+00 0.  1.
         14    1    3    3    0    0  0.32345580377E+02 -0.68321648007E+02 -0.84734439427E+03  0.85070947254E+03  0.00000000000E+00 0. -1.
         13    1    5    5    0    0  0.30687804933E+02  0.12571800653E+03  0.75808512918E+03  0.76905124772E+03  0.00000000000E+00 0. -1.
        -14    1    5    5    0    0 -0.27511280956E+01  0.10712443375E+00 -0.11469698084E+01  0.29825695606E+01  0.00000000000E+00 0.  1.
          5    1    4    4  501    0 -0.62008230208E+02 -0.11007055735E+01  0.60668032712E+02  0.86858014941E+02  0.41800000000E+01 0. -1.
         -5    1    4    4    0  501  0.23205449493E+02 -0.57199304004E+02 -0.14854630123E+02  0.63626925911E+02  0.41800000000E+01 0. -1.
</event>
<event>
11    1  0.5813833E-009  0.1573880E+03  0.7561462E-02  0.1089560E+00
         22   -1    0    0    0    0  0.00000000000E+00  0.00000000000E+00  0.16352034765E+04  0.16352034765E+04  0.00000000000E+00 0.  1.
         22   -1    0    0    0    0 -0.00000000000E+00 -0.00000000000E+00 -0.60355161705E+03  0.60355161705E+03  0.00000000000E+00 0. -1.
        -24    2    1    2    0    0  0.21508878152E+02  0.55299089858E+02 -0.56556041865E+03  0.57431735961E+03  0.80381722031E+02 0.  0.
         25    2    1    2    0    0 -0.45420676677E+02 -0.14266118884E+03  0.27816588804E+03  0.33976287036E+03  0.12508914475E+03 0.  0.
         24    2    1    2    0    0  0.23911798525E+02  0.87362098981E+02  0.13190463900E+04  0.13246748636E+04  0.81708045199E+02 0.  0.
        -11    1    5    5    0    0  0.37024681674E+02  0.29444549394E+02  0.92194739115E+03  0.92316022476E+03  0.00000000000E+00 0.  1.
         12    1    5    5    0    0 -0.13112883149E+02  0.57917549586E+02  0.39709899890E+03  0.40151463882E+03  0.00000000000E+00 0. -1.
         11    1    3    3    0    0 -0.34971261588E+01  0.39896616006E+02 -0.50912187776E+03  0.51069468009E+03  0.00000000000E+00 0. -1.
        -12    1    3    3    0    0  0.25006004311E+02  0.15402473851E+02 -0.56438540890E+02  0.63622679527E+02  0.00000000000E+00 0.  1.
          5    1    4    4  501    0 -0.55833013157E+02 -0.12036875354E+03  0.28455746137E+03  0.31400061052E+03  0.41800000000E+01 0. -1.
         -5    1    4    4    0  501  0.10412336480E+02 -0.22292435296E+02 -0.63915733265E+01  0.25762259839E+02  0.41800000000E+01 0. -1.
</event>
<event>
11    1  0.5813833E-009  0.1304222E+03  0.7561462E-02  0.1118751E+00
         22   -1    0    0    0    0  0.00000000000E+00  0.00000000000E+00  0.32406281260E+04  0.32406281260E+04  0.00000000000E+00 0.  1.
         22   -1    0    0    0    0 -0.00000000000E+00 -0.00000000000E+00 -0.16766276843E+03  0.16766276843E+03  0.00000000000E+00 0.  1.
        -24    2    1    2    0    0  0.12637983225E+01 -0.63791630792E+01 -0.13946083986E+03  0.15874711988E+03  0.75558131973E+02 0.  0.
         25    2    1    2    0    0 -0.38135248278E+02  0.66034535493E+01  0.22158754545E+03  0.25738270811E+03  0.12508763079E+03 0.  0.
         24    2    1    2    0    0  0.36871449955E+02 -0.22429047001E+00  0.29908386520E+04  0.29921610664E+04  0.80947212143E+02 0.  0.
        -11    1    5    5    0    0  0.51528690562E+02 -0.18037103789E+02  0.12761502837E+04  0.12773175367E+04  0.00000000000E+00 0.  1.
         12    1    5    5    0    0 -0.14657240607E+02  0.17812813319E+02  0.17146883683E+04  0.17148435297E+04  0.00000000000E+00 0. -1.
         11    1    3    3    0    0  0.34465073997E+02 -0.16704876357E+02 -0.51633951989E+02  0.64288095458E+02  0.00000000000E+00 0. -1.
        -12    1    3    3    0    0 -0.33201275674E+02  0.10325713278E+02 -0.87826887872E+02  0.94459024420E+02  0.00000000000E+00 0.  1.
          5    1    4    4  501    0 -0.32307516045E+02 -0.43722131841E+02  0.36924255363E+02  0.65850386786E+02  0.41800000000E+01 0.  1.
         -5    1    4    4    0  501 -0.58277322323E+01  0.50325585390E+02  0.18466329008E+03  0.19153232132E+03  0.41800000000E+01 0.  1.
</event>
<event>
11    1  0.5813833E-009  0.1667173E+03  0.7561462E-02  0.1080924E+00
         22   -1    0    0    0    0  0.00000000000E+00  0.00000000000E+00  0.18666223693E+03  0.18666223693E+03  0.00000000000E+00 0.  1.
         22   -1    0    0    0    0 -0.00000000000E+00 -0.00000000000E+00 -0.19381340327E+04  0.19381340327E+04  0.00000000000E+00 0. -1.
        -24    2    1    2    0    0  0.45075874816E+02 -0.60945685266E+02 -0.16128932162E+04  0.16170990975E+04  0.88536734767E+02 0.  0.
         25    2    1    2    0    0  0.39667975687E+02 -0.19533659805E+02 -0.27935504250E+03  0.30925986691E+03  0.12508922156E+03 0.  0.
         24    2    1    2    0    0 -0.84743850503E+02  0.80479345071E+02  0.14077646292E+03  0.19843730518E+03  0.76817357370E+02 0.  0.
        -13    1    5    5    0    0 -0.24566468112E+02  0.27492827850E+01  0.77944577243E+02  0.81770575594E+02  0.00000000000E+00 0.  1.
         14    1    5    5    0    0 -0.60177382391E+02  0.77730062286E+02  0.62831885677E+02  0.11666672959E+03  0.00000000000E+00 0. -1.
         13    1    3    3    0    0  0.69150454832E+02 -0.57182062149E+02 -0.11124364800E+04  0.11160495041E+04  0.00000000000E+00 0. -1.
        -14    1    3    3    0    0 -0.24074580016E+02 -0.37636231172E+01 -0.50045673624E+03  0.50104959347E+03  0.00000000000E+00 0.  1.
          5    1    4    4  501    0  0.69715524356E+02 -0.27418757339E+02 -0.26380964775E+03  0.27427184550E+03  0.41800000000E+01 0. -1.
         -5    1    4    4    0  501 -0.30047548669E+02  0.78850975345E+01 -0.15545394756E+02  0.34988021411E+02  0.41800000000E+01 0. -1.
</event>
<event>
11    1  0.5813833E-009  0.2627195E+03  0.7561462E-02  0.1017333E+00
         22   -1    0    0    0    0  0.00000000000E+00  0.00000000000E+00  0.97422051394E+03  0.97422051394E+03  0.00000000000E+00 0. -1.
         22   -1    0    0    0    0 -0.00000000000E+00 -0.00000000000E+00 -0.58345236718E+03  0.58345236718E+03  0.00000000000E+00 0.  1.
         24    2    1    2    0    0  0.68763436992E+02  0.32669356103E+02 -0.42740343188E+03  0.44177312384E+03  0.81817493659E+02 0.  0.
         25    2    1    2    0    0 -0.27586013261E+03 -0.11210142061E+03  0.68609646928E+02  0.33018425208E+03  0.12509522534E+03 0.  0.
        -24    2    1    2    0    0  0.20709669562E+03  0.79432064511E+02  0.74956193171E+03  0.78571550519E+03  0.79418331820E+02 0.  0.
        -11    1    3    3    0    0  0.84319887998E+02  0.29994008433E+02 -0.29077955370E+03  0.30424041958E+03  0.00000000000E+00 0.  1.
         12    1    3    3    0    0 -0.15556451006E+02  0.26753476706E+01 -0.13662387818E+03  0.13753270426E+03  0.00000000000E+00 0. -1.
         11    1    5    5    0    0  0.13374626187E+03  0.74207155072E+02  0.59807267188E+03  0.61732137925E+03  0.00000000000E+00 0. -1.
        -12    1    5    5    0    0  0.73350433751E+02  0.52249094388E+01  0.15148925983E+03  0.16839412595E+03  0.00000000000E+00 0.  1.
          5    1    4    4  501    0 -0.29152635352E+01 -0.36464451509E+02 -0.58953182232E+01  0.37287828608E+02  0.41800000000E+01 0.  1.
         -5    1    4    4    0  501 -0.27294486908E+03 -0.75636969105E+02  0.74504965152E+02  0.29289642347E+03  0.41800000000E+01 0.  1.
</event>
<event>
11    1  0.6866742E-009  0.1662436E+03  0.7561462E-02  0.1081348E+00
         22   -1    0    0    0    0  0.00000000000E+00  0.00000000000E+00  0.48891052235E+03  0.48891052235E+03  0.00000000000E+00 0.  1.
         22   -1    0    0    0    0 -0.00000000000E+00 -0.00000000000E+00 -0.30267375480E+03  0.30267375480E+03  0.00000000000E+00 0. -1.
         24    2    1    2    0    0  0.79069933915E+02  0.34263251886E+02 -0.92539559127E+02  0.15016958802E+03  0.81001915308E+02 0.  0.
         25    2    1    2    0    0 -0.16158084417E+03 -0.17797435667E+02 -0.11204925501E+03  0.23372788642E+03  0.12509425016E+03 0.  0.
        -24    2    1    2    0    0  0.82510910256E+02 -0.16465816219E+02  0.39082558168E+03  0.40768680271E+03  0.79904445386E+02 0.  0.
        -13    1    3    3    0    0  0.16479524108E+02 -0.12208775814E+02  0.87975360296E+01  0.22316486325E+02  0.00000000000E+00 0.  1.
         14    1    3    3    0    0  0.62590409807E+02  0.46472027700E+02 -0.10133709516E+03  0.12785310170E+03  0.00000000000E+00 0. -1.
         13    1    5    5    0    0 -0.29213670732E+01 -0.29205705367E+02  0.11250534271E+03  0.11627106153E+03  0.00000000000E+00 0. -1.
        -14    1    5    5    0    0  0.85432277329E+02  0.12739889148E+02  0.27832023897E+03  0.29141574118E+03  0.00000000000E+00 0.  1.
          5    1    4    4  501    0 -0.18141730229E+03 -0.21560865113E+02 -0.90572095976E+02  0.20395559675E+03  0.41800000000E+01 0.  1.
         -5    1    4    4    0  501  0.19836458124E+02  0.37634294459E+01 -0.21477159030E+02  0.29772289669E+02  0.41800000000E+01 0.  1.
</event>
<event>
11    1  0.5813833E-009  0.1405248E+03  0.7561462E-02  0.1106974E+00
         22   -1    0    0    0    0  0.00000000000E+00  0.00000000000E+00  0.32807605232E+03  0.32807605232E+03  0.00000000000E+00 0.  1.
         22   -1    0    0    0    0 -0.00000000000E+00 -0.00000000000E+00 -0.50227075320E+03  0.50227075320E+03  0.00000000000E+00 0. -1.
        -24    2    1    2    0    0  0.14137164656E+02  0.63219658478E+02 -0.34568065634E+03  0.36104360514E+03  0.81613626322E+02 0.  0.
         25    2    1    2    0    0  0.36390909706E+01 -0.62544786019E+02 -0.10878342192E+03  0.17721936886E+03  0.12509108111E+03 0.  0.
         24    2    1    2    0    0 -0.17776255626E+02 -0.67487245881E+00  0.28026937737E+03  0.29208383152E+03  0.80284432040E+02 0.  0.
        -13    1    5    5    0    0 -0.37914842381E+02  0.55221465318E+01  0.26013010921E+03  0.26293669028E+03  0.00000000000E+00 0.  1.
         14    1    5    5    0    0  0.20138586755E+02 -0.61970189906E+01  0.20139268161E+02  0.29147141248E+02  0.00000000000E+00 0. -1.
         13    1    3    3    0    0 -0.29625011879E+02  0.50028428236E+02 -0.20806896947E+03  0.21603976721E+03  0.00000000000E+00 0. -1.
        -14    1    3    3    0    0  0.43762176535E+02  0.13191230242E+02 -0.13761168687E+03  0.14500383793E+03  0.00000000000E+00 0.  1.
          5    1    4    4  501    0  0.16721905026E+02 -0.91607908132E+02 -0.11105920260E+03  0.14499396477E+03  0.41800000000E+01 0. -1.
         -5    1    4    4    0  501 -0.13082814055E+02  0.29063122112E+02  0.22757806778E+01  0.32225404082E+02  0.41800000000E+01 0. -1.
</event>
<event>
11    1  0.5813833E-009  0.1682710E+03  0.7561462E-02  0.1079546E+00
         22   -1    0    0    0    0  0.00000000000E+00  0.00000000000E+00  0.19568194229E+03  0.19568194229E+03  0.00000000000E+00 0.  1.
         22   -1    0    0    0    0 -0.00000000000E+00 -0.00000000000E+00 -0.50314414399E+03  0.50314414399E+03  0.00000000000E+00 0. -1.
        -24    2    1    2    0    0  0.89162183884E+02  0.79657531093E+02 -0.21076931865E+03  0.25615795668E+03  0.83054053448E+02 0.  0.
         25    2    1    2    0    0 -0.74118356725E+02 -0.73675742361E+02 -0.22356489931E+03  0.27666351138E+03  0.12505914006E+03 0.  0.
         24    2    1    2    0    0 -0.15043827160E+02 -0.59817887320E+01  0.12687201626E+03  0.16600461822E+03  0.10582497922E+03 0.  0.
        -11    1    5    5    0    0  0.45149579915E+02 -0.39210653918E+01  0.68473099007E+02  0.82112268315E+02  0.00000000000E+00 0.  1.
         12    1    5    5    0    0 -0.60193407074E+02 -0.20607233401E+01  0.58398917250E+02  0.83892349901E+02  0.00000000000E+00 0. -1.
         13    1    3    3    0    0  0.67011598285E+02  0.93224238839E+02 -0.14175001475E+03  0.18241266320E+03  0.00000000000E+00 0. -1.
        -14    1    3    3    0    0  0.22150585599E+02 -0.13566707746E+02 -0.69019303894E+02  0.73745293487E+02  0.00000000000E+00 0.  1.
          5    1    4    4  501    0 -0.96927044149E+02 -0.34312307428E+02 -0.94358628503E+02  0.13961808444E+03  0.41800000000E+01 0.  1.
         -5    1    4    4    0  501  0.22808687425E+02 -0.39363434933E+02 -0.12920627081E+03  0.13704542695E+03  0.41800000000E+01 0.  1.
</event>
<event>
11    1  0.5813833E-009  0.2198731E+03  0.7561462E-02  0.1041297E+00
         22   -1    0    0    0    0  0.00000000000E+00  0.00000000000E+00  0.22845358698E+03  0.22845358698E+03  0.00000000000E+00 0.  1.
         22   -1    0    0    0    0 -0.00000000000E+00 -0.00000000000E+00 -0.10509153621E+04  0.10509153621E+04  0.00000000000E+00 0.  1.
        -24    2    1    2    0    0 -0.82240369464E+02 -0.18326957599E+03 -0.58704631762E+03  0.62557908744E+03  0.79841090653E+02 0.  0.
         25    2    1    2    0    0 -0.66674834341E+02  0.17241892445E+03 -0.37358131717E+03  0.43518326446E+03  0.12509058349E+03 0.  0.
         24    2    1    2    0    0  0.14891520381E+03  0.10850651541E+02  0.13816585965E+03  0.21860659719E+03  0.80034773694E+02 0.  0.
        -11    1    5    5    0    0  0.98188281070E+02  0.42018621317E+02  0.10789825419E+03  0.15181744410E+03  0.00000000000E+00 0.  1.
         12    1    5    5    0    0  0.50726922735E+02 -0.31167969776E+02  0.30267605462E+02  0.66789153091E+02  0.00000000000E+00 0. -1.
         13    1    3    3    0    0 -0.32911965230E+02 -0.96744609314E+01 -0.70238506086E+02  0.78168026627E+02  0.00000000000E+00 0. -1.
        -14    1    3    3    0    0 -0.49328404235E+02 -0.17359511506E+03 -0.51680781154E+03  0.54741106082E+03  0.00000000000E+00 0.  1.
          5    1    4    4  501    0 -0.34430679594E+02  0.18210358723E+03 -0.34108122248E+03  0.38820234532E+03  0.41800000000E+01 0. -1.
         -5    1    4    4    0  501 -0.32244154747E+02 -0.96846627758E+01 -0.32500094690E+02  0.46980919141E+02  0.41800000000E+01 0. -1.
</event>
<event>
11    1  0.5813833E-009  0.1367409E+03  0.7561462E-02  0.1111253E+00
         22   -1    0    0    0    0  0.00000000000E+00  0.00000000000E+00  0.10208995153E+04  0.10208995153E+04  0.00000000000E+00 0.  1.
         22   -1    0    0    0    0 -0.00000000000E+00 -0.00000000000E+00 -0.62709116772E+03  0.62709116772E+03  0.00000000000E+00 0. -1.
        -24    2    1    2    0    0 -0.53772262270E+02 -0.18732437567E+02 -0.54791429322E+03  0.55670714228E+03  0.80438853466E+02 0.  0.
         25    2    1    2    0    0  0.42800784152E+02 -0.34756994754E+02 -0.75855530910E+01  0.13690810954E+03  0.12508530703E+03 0.  0.
         24    2    1    2    0    0  0.10971478118E+02  0.53489432322E+02  0.94930819385E+03  0.95437543115E+03  0.81638985684E+02 0.  0.
        -11    1    5    5    0    0  0.39333667194E+01  0.67787250908E+02  0.89995899741E+03  0.90251691384E+03  0.00000000000E+00 0.  1.
         12    1    5    5    0    0  0.70381113987E+01 -0.14297818587E+02  0.49349196439E+02  0.51858517310E+02  0.00000000000E+00 0. -1.
         11    1    3    3    0    0 -0.41816499636E+02  0.18413057316E+02 -0.43181141377E+03  0.43422201393E+03  0.00000000000E+00 0. -1.
        -12    1    3    3    0    0 -0.11955762634E+02 -0.37145494884E+02 -0.11610287944E+03  0.12248512834E+03  0.00000000000E+00 0.  1.
          5    1    4    4  501    0  0.17509733616E+02  0.45251335779E+02 -0.18688138728E+02  0.52163139190E+02  0.41800000000E+01 0.  1.
         -5    1    4    4    0  501  0.25291050536E+02 -0.80008330533E+02  0.11102585637E+02  0.84744970351E+02  0.41800000000E+01 0.  1.
</event>
<event>
11    1  0.5813833E-009  0.1508462E+03  0.7561462E-02  0.1096017E+00
         22   -1    0    0    0    0  0.00000000000E+00  0.00000000000E+00  0.16965294248E+04  0.16965294248E+04  0.00000000000E+00 0.  1.
         22   -1    0    0    0    0 -0.00000000000E+00 -0.00000000000E+00 -0.12292399007E+03  0.12292399007E+03  0.00000000000E+00 0. -1.
         24    2    1    2    0    0  0.30754834221E+02  0.73357420092E+02 -0.65170916964E+02  0.13093352505E+03  0.81050408098E+02 0.  0.
         25    2    1    2    0    0 -0.70398719922E+02 -0.12338631704E+03  0.36990427800E+03  0.41552007041E+03  0.12509033150E+03 0.  0.
        -24    2    1    2    0    0  0.39643885700E+02  0.50028896944E+02  0.12688720737E+04  0.12729998194E+04  0.80110377614E+02 0.  0.
        -11    1    3    3    0    0  0.46294344671E+02  0.22815411741E+02 -0.66101151402E+01  0.52032710708E+02  0.00000000000E+00 0.  1.
         12    1    3    3    0    0 -0.15539510450E+02  0.50542008351E+02 -0.58560801824E+02  0.78900814339E+02  0.00000000000E+00 0. -1.
         11    1    5    5    0    0  0.19155645165E+02 -0.69037346496E+01  0.78723048552E+02  0.81313705285E+02  0.00000000000E+00 0. -1.
        -12    1    5    5    0    0  0.20488240535E+02  0.56932631594E+02  0.11901490251E+04  0.11916861141E+04  0.00000000000E+00 0.  1.
          5    1    4    4  501    0 -0.79813499125E+02 -0.24138076785E+02  0.11778220228E+03  0.14437091455E+03  0.41800000000E+01 0.  1.
         -5    1    4    4    0  501  0.94147792032E+01 -0.99248240252E+02  0.25212207572E+03  0.27114915587E+03  0.41800000000E+01 0.  1.
</event>
<event>
11    1  0.5813833E-009  0.3156402E+03  0.7561462E-02  0.9937809E-01
         22   -1    0    0    0    0  0.00000000000E+00  0.00000000000E+00  0.60269217423E+03  0.60269217423E+03  0.00000000000E+00 0. -1.
         22   -1    0    0    0    0 -0.00000000000E+00 -0.00000000000E+00 -0.13963484723E+04  0.13963484723E+04  0.00000000000E+00 0.  1.
        -24    2    1    2    0    0  0.24615444868E+03 -0.19543433917E+03 -0.11827274182E+04  0.12264969322E+04  0.81633237858E+02 0.  0.
         25    2    1    2    0    0 -0.10915683108E+03  0.17716562852E+03 -0.96360542525E+02  0.26122253331E+03  0.12509589942E+03 0.  0.
         24    2    1    2    0    0 -0.13699761760E+03  0.18268710652E+02  0.48543166263E+03  0.51132118099E+03  0.81874037543E+02 0.  0.
        -13    1    5    5    0    0 -0.62528794661E+01  0.28795053744E+02  0.87236372461E+02  0.92078435597E+02  0.00000000000E+00 0.  1.
         14    1    5    5    0    0 -0.13074473813E+03 -0.10526343092E+02  0.39819529017E+03  0.41924274539E+03  0.00000000000E+00 0. -1.
         11    1    3    3    0    0 -0.80842458302E+00 -0.23985785253E+02 -0.95306471743E+02  0.98281712442E+02  0.00000000000E+00 0. -1.
        -12    1    3    3    0    0  0.24696287326E+03 -0.17144855392E+03 -0.10874209464E+04  0.11282152198E+04  0.00000000000E+00 0.  1.
          5    1    4    4  501    0 -0.78281531209E+02  0.34181690179E+02  0.87251094592E+00  0.85525550260E+02  0.41800000000E+01 0.  1.
         -5    1    4    4    0  501 -0.30875299874E+02  0.14298393834E+03 -0.97233053471E+02  0.17569698305E+03  0.41800000000E+01 0.  1.
</event>
<event>
11    1  0.5813833E-009  0.1310830E+03  0.7561462E-02  0.1117945E+00
         22   -1    0    0    0    0  0.00000000000E+00  0.00000000000E+00  0.11068722030E+04  0.11068722030E+04  0.00000000000E+00 0. -1.
         22   -1    0    0    0    0 -0.00000000000E+00 -0.00000000000E+00 -0.19091486662E+03  0.19091486662E+03  0.00000000000E+00 0. -1.
         24    2    1    2    0    0  0.21124236388E+02 -0.30687306609E+02 -0.74597309012E+02  0.11077058719E+03  0.72920644016E+02 0.  0.
         25    2    1    2    0    0  0.82504878991E+01  0.56478219954E+02 -0.47231465653E+02  0.14538276231E+03  0.12508987309E+03 0.  0.
        -24    2    1    2    0    0 -0.29374724288E+02 -0.25790913345E+02  0.10377861111E+04  0.10416337202E+04  0.80453396421E+02 0.  0.
        -11    1    3    3    0    0 -0.87676927856E+01  0.18246927520E+02 -0.54978087844E+01  0.20977337823E+02  0.00000000000E+00 0.  1.
         12    1    3    3    0    0  0.29891929174E+02 -0.48934234129E+02 -0.69099500227E+02  0.89793249363E+02  0.00000000000E+00 0. -1.
         11    1    5    5    0    0 -0.28039124436E+02 -0.42393593012E+02  0.98436086136E+03  0.98567221459E+03  0.00000000000E+00 0. -1.
        -12    1    5    5    0    0 -0.13355998520E+01  0.16602679668E+02  0.53425249720E+02  0.55961505580E+02  0.00000000000E+00 0.  1.
          5    1    4    4  501    0  0.11082373289E+02 -0.36485406802E+02  0.49142516564E+01  0.38673326422E+02  0.41800000000E+01 0. -1.
         -5    1    4    4    0  501 -0.28318853900E+01  0.92963626755E+02 -0.52145717309E+02  0.10670943589E+03  0.41800000000E+01 0. -1.
</event>
<event>
11    1  0.5813833E-009  0.1773375E+03  0.7561462E-02  0.1071817E+00
         22   -1    0    0    0    0  0.00000000000E+00  0.00000000000E+00  0.19918097252E+04  0.19918097252E+04  0.00000000000E+00 0.  1.
         22   -1    0    0    0    0 -0.00000000000E+00 -0.00000000000E+00 -0.23104388712E+03  0.23104388712E+03  0.00000000000E+00 0.  1.
        -24    2    1    2    0    0 -0.10285040883E+03  0.66145262503E+02 -0.17068334685E+03  0.22648593812E+03  0.84909792858E+02 0.  0.
         25    2    1    2    0    0  0.14268560250E+03  0.55929381251E+02  0.30929163526E+03  0.36714665800E+03  0.12509226991E+03 0.  0.
         24    2    1    2    0    0 -0.39835193671E+02 -0.12207464375E+03  0.16221575497E+04  0.16292210162E+04  0.80479453005E+02 0.  0.
        -11    1    5    5    0    0 -0.53621662718E+02 -0.12569391338E+03  0.15074404865E+04  0.15136218361E+04  0.00000000000E+00 0.  1.
         12    1    5    5    0    0  0.13786469047E+02  0.36192696243E+01  0.11471706317E+03  0.11559918003E+03  0.00000000000E+00 0. -1.
         11    1    3    3    0    0 -0.59154367564E+02 -0.11036746191E+02 -0.69883603135E+02  0.92221293396E+02  0.00000000000E+00 0. -1.
        -12    1    3    3    0    0 -0.43696041268E+02  0.77182008694E+02 -0.10079974372E+03  0.13426464472E+03  0.00000000000E+00 0.  1.
          5    1    4    4  501    0  0.27404583870E+02 -0.39398775233E+02  0.74315293506E+02  0.88563592722E+02  0.41800000000E+01 0.  1.
         -5    1    4    4    0  501  0.11528101863E+03  0.95328156485E+02  0.23497634175E+03  0.27858306528E+03  0.41800000000E+01 0.  1.
</event>
<event>
11    1  0.5813833E-009  0.1319395E+03  0.7561462E-02  0.1116909E+00
         22   -1    0    0    0    0  0.00000000000E+00  0.00000000000E+00  0.45799966255E+03  0.45799966255E+03  0.00000000000E+00 0.  1.
         22   -1    0    0    0    0 -0.00000000000E+00 -0.00000000000E+00 -0.88380731336E+03  0.88380731336E+03  0.00000000000E+00 0. -1.
        -24    2    1    2    0    0 -0.69876610908E+01 -0.12033384435E+02 -0.75649993594E+03  0.76096630259E+03  0.81141425067E+02 0.  0.
         25    2    1    2    0    0 -0.17677957715E+02  0.45723481357E+02 -0.82683787528E+02  0.15775291793E+03  0.12508488102E+03 0.  0.
         24    2    1    2    0    0  0.24665618806E+02 -0.33690096922E+02  0.41337607265E+03  0.42308775538E+03  0.79875252337E+02 0.  0.
        -13    1    5    5    0    0  0.14088226264E+02 -0.49686995344E+02  0.38724949259E+03  0.39067818615E+03  0.00000000000E+00 0.  1.
         14    1    5    5    0    0  0.10577392542E+02  0.15996898423E+02  0.26126580060E+02  0.32409569231E+02  0.00000000000E+00 0. -1.
         13    1    3    3    0    0 -0.13382438956E+02 -0.22167849858E+02 -0.74061868048E+03  0.74107120651E+03  0.00000000000E+00 0. -1.
        -14    1    3    3    0    0  0.63947778651E+01  0.10134465423E+02 -0.15881255456E+02  0.19895096084E+02  0.00000000000E+00 0.  1.
          5    1    4    4  501    0  0.78447095951E+01  0.83642862039E+02 -0.33668508971E+02  0.90601924565E+02  0.41800000000E+01 0.  1.
         -5    1    4    4    0  501 -0.25522667310E+02 -0.37919380682E+02 -0.49015278557E+02  0.67150993365E+02  0.41800000000E+01 0.  1.
</event>
<event>
11    1  0.5813833E-009  0.1484607E+03  0.7561462E-02  0.1098462E+00
         22   -1    0    0    0    0  0.00000000000E+00  0.00000000000E+00  0.51628177458E+03  0.51628177458E+03  0.00000000000E+00 0. -1.
         22   -1    0    0    0    0 -0.00000000000E+00 -0.00000000000E+00 -0.39752547722E+03  0.39752547722E+03  0.00000000000E+00 0. -1.
         24    2    1    2    0    0  0.30398327529E+02 -0.32981126542E+02 -0.34216613568E+03  0.35459702827E+03  0.81544926426E+02 0.  0.
         25    2    1    2    0    0  0.46626591366E+02 -0.86999663691E+01  0.70890716986E+02  0.15140600034E+03  0.12509418351E+03 0.  0.
        -24    2    1    2    0    0 -0.77024918895E+02  0.41681092911E+02  0.39003171604E+03  0.40780422319E+03  0.80680811217E+02 0.  0.
        -11    1    3    3    0    0  0.35535048381E+01  0.26731660081E+02 -0.11953620490E+03  0.12254025187E+03  0.00000000000E+00 0.  1.
         12    1    3    3    0    0  0.26844822691E+02 -0.59712786623E+02 -0.22262993078E+03  0.23205677639E+03  0.00000000000E+00 0. -1.
         13    1    5    5    0    0 -0.52552734251E+02 -0.21220162084E+01  0.30140652148E+03  0.30596108253E+03  0.00000000000E+00 0. -1.
        -14    1    5    5    0    0 -0.24472184643E+02  0.43803109119E+02  0.88625194562E+02  0.10184314067E+03  0.00000000000E+00 0.  1.
          5    1    4    4  501    0 -0.14818075821E+02 -0.45326553253E+02 -0.36511477432E+01  0.48009114558E+02  0.41800000000E+01 0. -1.
         -5    1    4    4    0  501  0.61444667187E+02  0.36626586883E+02  0.74541864729E+02  0.10339688578E+03  0.41800000000E+01 0. -1.
</event>
<event>
11    1  0.5813833E-009  0.1387395E+03  0.7561462E-02  0.1108974E+00
         22   -1    0    0    0    0  0.00000000000E+00  0.00000000000E+00  0.42868654480E+02  0.42868654480E+02  0.00000000000E+00 0. -1.
         22   -1    0    0    0    0 -0.00000000000E+00 -0.00000000000E+00 -0.15405669886E+04  0.15405669886E+04  0.00000000000E+00 0. -1.
        -24    2    1    2    0    0  0.43428746696E+02  0.44460291960E+02 -0.12052085307E+04  0.12095718840E+04  0.81693124704E+02 0.  0.
         25    2    1    2    0    0  0.27475726893E+01 -0.55908937920E+02 -0.20262373615E+03  0.24461654090E+03  0.12509002812E+03 0.  0.
         24    2    1    2    0    0 -0.46176319385E+02  0.11448645960E+02 -0.89866067298E+02  0.12924721815E+03  0.79784769112E+02 0.  0.
        -11    1    5    5    0    0  0.81500257880E+01  0.24295239717E+02 -0.61508206178E+02  0.66632882427E+02  0.00000000000E+00 0.  1.
         12    1    5    5    0    0 -0.54326345173E+02 -0.12846593758E+02 -0.28357861119E+02  0.62614335725E+02  0.00000000000E+00 0. -1.
         11    1    3    3    0    0  0.18973564235E+02  0.14453687038E+02 -0.10238677850E+04  0.10241455689E+04  0.00000000000E+00 0. -1.
        -12    1    3    3    0    0  0.24455182461E+02  0.30006604922E+02 -0.18134074572E+03  0.18542631514E+03  0.00000000000E+00 0.  1.
          5    1    4    4  501    0  0.58631416142E+02 -0.46442201584E+02 -0.80781851074E+02  0.11017123449E+03  0.41800000000E+01 0.  1.
         -5    1    4    4    0  501 -0.55883843453E+02 -0.94667363364E+01 -0.12184188508E+03  0.13444530641E+03  0.41800000000E+01 0.  1.
</event>
<event>
11    1  0.5813833E-009  0.1348081E+03  0.7561462E-02  0.1113499E+00
         22   -1    0    0    0    0  0.00000000000E+00  0.00000000000E+00  0.14716615078E+03  0.14716615078E+03  0.00000000000E+00 0. -1.
         22   -1    0    0    0    0 -0.00000000000E+00 -0.00000000000E+00 -0.14174089563E+04  0.14174089563E+04  0.00000000000E+00 0. -1.
         24    2    1    2    0    0  0.16531975769E+01  0.58864008601E+01 -0.10823749350E+04  0.10855158973E+04  0.82291437869E+02 0.  0.
         25    2    1    2    0    0 -0.50440729569E+02 -0.17152976222E+02 -0.29974788374E+03  0.32914504062E+03  0.12509665131E+03 0.  0.
        -24    2    1    2    0    0  0.48787531992E+02  0.11266575362E+02  0.11188001319E+03  0.14991416912E+03  0.86313160961E+02 0.  0.
        -13    1    3    3    0    0  0.21598213317E+02  0.24976874687E+02 -0.19987218184E+03  0.20258138158E+03  0.00000000000E+00 0.  1.
         14    1    3    3    0    0 -0.19945015740E+02 -0.19090473827E+02 -0.88250275313E+03  0.88293451576E+03  0.00000000000E+00 0. -1.
         13    1    5    5    0    0  0.22464221979E+01  0.41271771186E+01  0.10161388796E+03  0.10172247653E+03  0.00000000000E+00 0. -1.
        -14    1    5    5    0    0  0.46541109794E+02  0.71393982435E+01  0.10266125221E+02  0.48191692595E+02  0.00000000000E+00 0.  1.
          5    1    4    4  501    0  0.59797410538E+01 -0.52085091630E+02 -0.57443987333E+02  0.77883876084E+02  0.41800000000E+01 0.  1.
         -5    1    4    4    0  501 -0.56420470623E+02  0.34932115408E+02 -0.24230389641E+03  0.25126116454E+03  0.41800000000E+01 0.  1.
</event>
<event>
11    1  0.5813833E-009  0.1474183E+03  0.7561462E-02  0.1099546E+00
         22   -1    0    0    0    0  0.00000000000E+00  0.00000000000E+00  0.15028158154E+04  0.15028158154E+04  0.00000000000E+00 0.  1.
         22   -1    0    0    0    0 -0.00000000000E+00 -0.00000000000E+00 -0.48734836016E+03  0.48734836016E+03  0.00000000000E+00 0.  1.
         24    2    1    2    0    0 -0.53135044488E+02  0.16712425500E+02 -0.37693531059E+03  0.39087905757E+03  0.87198458478E+02 0.  0.
         25    2    1    2    0    0  0.12462050672E+03 -0.44914593388E+02 -0.19337544638E+02  0.18321604270E+03  0.12508631531E+03 0.  0.
        -24    2    1    2    0    0 -0.71485462230E+02  0.28202167887E+02  0.14117403105E+04  0.14160690753E+04  0.79595151835E+02 0.  0.
        -11    1    3    3    0    0 -0.41784852804E+02  0.38057257792E+02 -0.11820674668E+03  0.13102352367E+03  0.00000000000E+00 0.  1.
         12    1    3    3    0    0 -0.11350191684E+02 -0.21344832292E+02 -0.25872856391E+03  0.25985553390E+03  0.00000000000E+00 0. -1.
         13    1    5    5    0    0 -0.10090046365E+02 -0.26501019829E+02  0.38117325547E+03  0.38222658696E+03  0.00000000000E+00 0. -1.
        -14    1    5    5    0    0 -0.61395415865E+02  0.54703187716E+02  0.10305670550E+04  0.10338424883E+04  0.00000000000E+00 0.  1.
          5    1    4    4  501    0  0.99496717799E+02 -0.31604037387E+01 -0.62809475801E+02  0.11777982703E+03  0.41800000000E+01 0.  1.
         -5    1    4    4    0  501  0.25123788919E+02 -0.41754189649E+02  0.43471931163E+02  0.65436215675E+02  0.41800000000E+01 0.  1.
</event>
<event>
11    1  0.5813833E-009  0.1626379E+03  0.7561462E-02  0.1084622E+00
         22   -1    0    0    0    0  0.00000000000E+00  0.00000000000E+00  0.13969334912E+03  0.13969334912E+03  0.00000000000E+00 0.  1.
         22   -1    0    0    0    0 -0.00000000000E+00 -0.00000000000E+00 -0.19529605451E+04  0.19529605451E+04  0.00000000000E+00 0. -1.
        -24    2    1    2    0    0 -0.47616477097E+02 -0.90668957870E+02 -0.17684667439E+04  0.17731863956E+04  0.78912486608E+02 0.  0.
         25    2    1    2    0    0  0.64745127674E+02  0.12455617592E+03 -0.10116128864E+03  0.21351075767E+03  0.12508822808E+03 0.  0.
         24    2    1    2    0    0 -0.17128650577E+02 -0.33887218051E+02  0.56360836506E+02  0.10595674097E+03  0.81293006148E+02 0.  0.
        -11    1    5    5    0    0  0.38700280755E+01 -0.10175440360E+02  0.70453624255E+02  0.71289759956E+02  0.00000000000E+00 0.  1.
         12    1    5    5    0    0 -0.20998678652E+02 -0.23711777691E+02 -0.14092787750E+02  0.34666981019E+02  0.00000000000E+00 0. -1.
         11    1    3    3    0    0 -0.40620441477E+02 -0.54580057811E+02 -0.15614178282E+04  0.15628994329E+04  0.00000000000E+00 0. -1.
        -12    1    3    3    0    0 -0.69960356201E+01 -0.36088900059E+02 -0.20704891567E+03  0.21028696275E+03  0.00000000000E+00 0.  1.
          5    1    4    4  501    0  0.65040344814E+02  0.13183938998E+03 -0.40877803967E+02  0.15264448388E+03  0.41800000000E+01 0.  1.
         -5    1    4    4    0  501 -0.29521714065E+00 -0.72832140553E+01 -0.60283484672E+02  0.60866273784E+02  0.41800000000E+01 0.  1.
</event>
<event>
11    1  0.5813833E-009  0.1554968E+03  0.7561462E-02  0.1091391E+00
         22   -1    0    0    0    0  0.00000000000E+00  0.00000000000E+00  0.10477225918E+04  0.10477225918E+04  0.00000000000E+00 0.  1.
         22   -1    0    0    0    0 -0.00000000000E+00 -0.00000000000E+00 -0.38401938848E+03  0.38401938848E+03  0.00000000000E+00 0. -1.
        -24    2    1    2    0    0  0.30222893491E+02 -0.52789712329E+01 -0.24019850114E+03  0.25252509373E+03  0.71640157627E+02 0.  0.
         25    2    1    2    0    0 -0.10642963348E+03  0.56175585128E+02 -0.77924969863E+02  0.19027069929E+03  0.12509066646E+03 0.  0.
         24    2    1    2    0    0  0.76206739987E+02 -0.50896613895E+02  0.98182667435E+03  0.98894618728E+03  0.75053383280E+02 0.  0.
        -13    1    5    5    0    0  0.82220000269E+02 -0.19515938468E+02  0.78605563395E+03  0.79058488473E+03  0.00000000000E+00 0.  1.
         14    1    5    5    0    0 -0.60132602826E+01 -0.31380675427E+02  0.19577104040E+03  0.19836130255E+03  0.00000000000E+00 0. -1.
         13    1    3    3    0    0  0.26151190316E+02  0.23320418597E+02 -0.19986793894E+03  0.20291604100E+03  0.00000000000E+00 0. -1.
        -14    1    3    3    0    0  0.40717031755E+01 -0.28599389830E+02 -0.40330562198E+02  0.49609052728E+02  0.00000000000E+00 0.  1.
          5    1    4    4  501    0 -0.52074339283E+01  0.20362523603E+02 -0.79977684175E+02  0.82798865340E+02  0.41800000000E+01 0.  1.
         -5    1    4    4    0  501 -0.10122219955E+03  0.35813061525E+02  0.20527143122E+01  0.10747183395E+03  0.41800000000E+01 0.  1.
</event>
<event>
11    1  0.5813833E-009  0.1718636E+03  0.7561462E-02  0.1076421E+00
         22   -1    0    0    0    0  0.00000000000E+00  0.00000000000E+00  0.16744732127E+03  0.16744732127E+03  0.00000000000E+00 0. -1.
         22   -1    0    0    0    0 -0.00000000000E+00 -0.00000000000E+00 -0.65349146194E+03  0.65349146194E+03  0.00000000000E+00 0.  1.
        -24    2    1    2    0    0 -0.52355808409E+02  0.33263417598E+02 -0.43993278408E+03  0.45124389184E+03  0.78946879547E+02 0.  0.
         25    2    1    2    0    0 -0.58350369730E+02 -0.89529528965E+02 -0.12077585298E+03  0.20409557883E+03  0.12509155219E+03 0.  0.
         24    2    1    2    0    0  0.11070617814E+03  0.56266111366E+02  0.74664496402E+02  0.16559931254E+03  0.80166153237E+02 0.  0.
        -13    1    5    5    0    0 -0.29477619377E+01  0.35582091393E+00 -0.11846613768E+02  0.12213032659E+02  0.00000000000E+00 0.  1.
         14    1    5    5    0    0  0.11365394008E+03  0.55910290453E+02  0.86511110170E+02  0.15338627988E+03  0.00000000000E+00 0. -1.
         11    1    3    3    0    0 -0.85039041052E+01 -0.10479327549E+02 -0.98101831441E+01  0.16684495325E+02  0.00000000000E+00 0. -1.
        -12    1    3    3    0    0 -0.43851904304E+02  0.43742745147E+02 -0.43012260094E+03  0.43455939652E+03  0.00000000000E+00 0.  1.
          5    1    4    4  501    0 -0.50307803383E+02 -0.11254398984E+03 -0.57370388714E+02  0.13603624014E+03  0.41800000000E+01 0. -1.
         -5    1    4    4    0  501 -0.80425663476E+01  0.23014460880E+02 -0.63405464269E+02  0.68059338685E+02  0.41800000000E+01 0. -1.
</event>
<event>
11    1  0.5813833E-009  0.1417642E+03  0.7561462E-02  0.1105604E+00
         22   -1    0    0    0    0  0.00000000000E+00  0.00000000000E+00  0.54594694865E+03  0.54594694865E+03  0.00000000000E+00 0.  1.
         22   -1    0    0    0    0 -0.00000000000E+00 -0.00000000000E+00 -0.16525185042E+03  0.16525185042E+03  0.00000000000E+00 0.  1.
         24    2    1    2    0    0  0.26421044089E+02  0.45230608851E+02 -0.78817654176E+02  0.12407096343E+03  0.80234043951E+02 0.  0.
         25    2    1    2    0    0  0.42966121042E+02 -0.40254249757E+02  0.26029084727E+02  0.14068257152E+03  0.12509028938E+03 0.  0.
        -24    2    1    2    0    0 -0.69387165131E+02 -0.49763590944E+01  0.43348366769E+03  0.44644526412E+03  0.81030493475E+02 0.  0.
        -13    1    3    3    0    0 -0.26768186303E+02  0.20465450563E+02 -0.45437744139E+02  0.56568180607E+02  0.00000000000E+00 0.  1.
         14    1    3    3    0    0  0.53189230392E+02  0.24765158288E+02 -0.33379910037E+02  0.67502782823E+02  0.00000000000E+00 0. -1.
         11    1    5    5    0    0 -0.52843992609E+02 -0.17709380954E+02  0.12047942892E+03  0.13274563090E+03  0.00000000000E+00 0. -1.
        -12    1    5    5    0    0 -0.16543172522E+02  0.12733021860E+02  0.31300423876E+03  0.31369963323E+03  0.00000000000E+00 0.  1.
          5    1    4    4  501    0 -0.80351116284E+00  0.44320765961E+01  0.66031286185E+02  0.66316604922E+02  0.41800000000E+01 0.  1.
         -5    1    4    4    0  501  0.43769632205E+02 -0.44686326353E+02 -0.40002201457E+02  0.74365966595E+02  0.41800000000E+01 0.  1.
</event>
<event>
11    1  0.5813833E-009  0.1543114E+03  0.7561462E-02  0.1092553E+00
         22   -1    0    0    0    0  0.00000000000E+00  0.00000000000E+00  0.94720063385E+03  0.94720063385E+03  0.00000000000E+00 0. -1.
         22   -1    0    0    0    0 -0.00000000000E+00 -0.00000000000E+00 -0.61679182833E+03  0.61679182833E+03  0.00000000000E+00 0. -1.
         24    2    1    2    0    0 -0.50570641591E+02  0.96083675020E+01 -0.38226751389E+03  0.39407355129E+03  0.80720512497E+02 0.  0.
         25    2    1    2    0    0  0.17826811705E+02 -0.93989607831E+02 -0.19706464367E+03  0.25225867853E+03  0.12509246786E+03 0.  0.
        -24    2    1    2    0    0  0.32743829887E+02  0.84381240329E+02  0.90974096307E+03  0.91766023236E+03  0.79242223917E+02 0.  0.
        -11    1    3    3    0    0  0.89407144896E+01 -0.17864230195E+02 -0.31982932707E+02  0.37709084854E+02  0.00000000000E+00 0.  1.
         12    1    3    3    0    0 -0.59511356081E+02  0.27472597697E+02 -0.35028458118E+03  0.35636446644E+03  0.00000000000E+00 0. -1.
         11    1    5    5    0    0  0.57453665167E+02  0.62812824808E+02  0.56715524012E+03  0.57350801302E+03  0.00000000000E+00 0. -1.
        -12    1    5    5    0    0 -0.24709835281E+02  0.21568415521E+02  0.34258572295E+03  0.34415221934E+03  0.00000000000E+00 0.  1.
          5    1    4    4  501    0  0.28433375341E+02 -0.10926665272E+03 -0.20297494551E+03  0.23230144023E+03  0.41800000000E+01 0.  1.
         -5    1    4    4    0  501 -0.10606563637E+02  0.15277044886E+02  0.59103018430E+01  0.19957238299E+02  0.41800000000E+01 0.  1.
</event>
<event>
11    1  0.5813833E-009  0.1731126E+03  0.7561462E-02  0.1075354E+00
         22   -1    0    0    0    0  0.00000000000E+00  0.00000000000E+00  0.21203727043E+04  0.21203727043E+04  0.00000000000E+00 0. -1.
         22   -1    0    0    0    0 -0.00000000000E+00 -0.00000000000E+00 -0.93273839903E+02  0.93273839903E+02  0.00000000000E+00 0. -1.
        -24    2    1    2    0    0  0.18109556781E+02 -0.61330150421E+02 -0.32844729973E+02  0.10680814638E+03  0.78992787325E+02 0.  0.
         25    2    1    2    0    0 -0.51173704506E+02  0.16752356009E+03  0.54882287916E+03  0.58952249318E+03  0.12508927234E+03 0.  0.
         24    2    1    2    0    0  0.33064147725E+02 -0.10619340966E+03  0.15111207152E+04  0.15173159046E+04  0.79946609863E+02 0.  0.
        -11    1    5    5    0    0  0.74245043192E+01  0.10775671388E+02  0.30116003324E+03  0.30144419712E+03  0.00000000000E+00 0.  1.
         12    1    5    5    0    0  0.25639643406E+02 -0.11696908105E+03  0.12099606820E+04  0.12158717075E+04  0.00000000000E+00 0. -1.
         11    1    3    3    0    0  0.41910412323E+02 -0.64550036209E+02 -0.19764251040E+02  0.79459520858E+02  0.00000000000E+00 0. -1.
        -12    1    3    3    0    0 -0.23800855543E+02  0.32198857884E+01 -0.13080478933E+02  0.27348625526E+02  0.00000000000E+00 0.  1.
          5    1    4    4  501    0 -0.28515372302E+02  0.44034446255E+02  0.41909588112E+02  0.67275886395E+02  0.41800000000E+01 0.  1.
         -5    1    4    4    0  501 -0.22658332204E+02  0.12348911383E+03  0.50691329105E+03  0.52224660678E+03  0.41800000000E+01 0.  1.
</event>
<event>
11    1  0.5813833E-009  0.1398058E+03  0.7561462E-02  0.1107775E+00
         22   -1    0    0    0    0  0.00000000000E+00  0.00000000000E+00  0.54247360621E+03  0.54247360621E+03  0.00000000000E+00 0. -1.
         22   -1    0    0    0    0 -0.00000000000E+00 -0.00000000000E+00 -0.34232500195E+03  0.34232500195E+03  0.00000000000E+00 0.  1.
        -24    2    1    2    0    0  0.58271842979E+02 -0.13278952568E+02 -0.28515595031E+03  0.30259815941E+03  0.81729993340E+02 0.  0.
         25    2    1    2    0    0 -0.10958318849E+03  0.39009271350E+02  0.13207851069E+03  0.21592383795E+03  0.12509265509E+03 0.  0.
         24    2    1    2    0    0  0.51311345511E+02 -0.25730318782E+02  0.35322604388E+03  0.36627661081E+03  0.78070571089E+02 0.  0.
        -11    1    5    5    0    0  0.38982504124E+01  0.10378347944E+02  0.36722694683E+01  0.11678699644E+02  0.00000000000E+00 0.  1.
         12    1    5    5    0    0  0.47413095099E+02 -0.36108666726E+02  0.34955377441E+03  0.35459791117E+03  0.00000000000E+00 0. -1.
         11    1    3    3    0    0  0.17468543095E+02  0.33751631150E+02 -0.88331638685E+02  0.96160288040E+02  0.00000000000E+00 0. -1.
        -12    1    3    3    0    0  0.40803299884E+02 -0.47030583717E+02 -0.19682431163E+03  0.20643787137E+03  0.00000000000E+00 0.  1.
          5    1    4    4  501    0 -0.92551286229E+02  0.14137741452E+02  0.14945977052E+02  0.94902428557E+02  0.41800000000E+01 0. -1.
         -5    1    4    4    0  501 -0.17031902261E+02  0.24871529898E+02  0.11713253364E+03  0.12102140939E+03  0.41800000000E+01 0. -1.
</event>
<event>
11    1  0.5813833E-009  0.1435974E+03  0.7561462E-02  0.1103607E+00
         22   -1    0    0    0    0  0.00000000000E+00  0.00000000000E+00  0.19120098989E+03  0.19120098989E+03  0.00000000000E+00 0. -1.
         22   -1    0    0    0    0 -0.00000000000E+00 -0.00000000000E+00 -0.84997659549E+03  0.84997659549E+03  0.00000000000E+00 0. -1.
         24    2    1    2    0    0  0.61140996824E+02  0.32456238485E+02 -0.71916722207E+03  0.72661730307E+03  0.77327762867E+02 0.  0.
         25    2    1    2    0    0  0.14446398472E+02 -0.54118182972E+02 -0.60493579379E+02  0.14981373688E+03  0.12508879428E+03 0.  0.
        -24    2    1    2    0    0 -0.75587395296E+02  0.21661944487E+02  0.12088519585E+03  0.16474654544E+03  0.79658643538E+02 0.  0.
        -13    1    3    3    0    0  0.13920540292E+00  0.65950586254E+01 -0.27566506147E+01  0.71493565465E+01  0.00000000000E+00 0.  1.
         14    1    3    3    0    0  0.61001791421E+02  0.25861179860E+02 -0.71641057145E+03  0.71946794652E+03  0.00000000000E+00 0. -1.
         11    1    5    5    0    0  0.19604443631E+01 -0.10739383108E+02  0.59950544702E+02  0.60936405389E+02  0.00000000000E+00 0. -1.
        -12    1    5    5    0    0 -0.77547839659E+02  0.32401327596E+02  0.60934651149E+02  0.10381014005E+03  0.00000000000E+00 0.  1.
          5    1    4    4  501    0 -0.38582866713E+02 -0.58507683898E+02 -0.14535372859E+01  0.70223727112E+02  0.41800000000E+01 0. -1.
         -5    1    4    4    0  501  0.53029265185E+02  0.43895009257E+01 -0.59040042093E+02  0.79590009767E+02  0.41800000000E+01 0. -1.
</event>
<event>
11    1  0.5813833E-009  0.1388220E+03  0.7561462E-02  0.1108881E+00
         22   -1    0    0    0    0  0.00000000000E+00  0.00000000000E+00  0.46870890740E+02  0.46870890740E+02  0.00000000000E+00 0.  1.
         22   -1    0    0    0    0 -0.00000000000E+00 -0.00000000000E+00 -0.16236828365E+04  0.16236828365E+04  0.00000000000E+00 0. -1.
        -24    2    1    2    0    0  0.34421412649E+02  0.31403150511E+02 -0.10881551427E+04  0.10921201741E+04  0.80460355384E+02 0.  0.
         25    2    1    2    0    0 -0.61517883354E+02 -0.77968876885E+02 -0.44411682435E+03  0.47196501878E+03  0.12509048543E+03 0.  0.
         24    2    1    2    0    0  0.27096470705E+02  0.46565726374E+02 -0.44539978733E+02  0.10646853429E+03  0.80306621710E+02 0.  0.
        -13    1    5    5    0    0  0.65206898227E+00  0.15574194141E+02  0.22885904458E+02  0.27690166846E+02  0.00000000000E+00 0.  1.
         14    1    5    5    0    0  0.26444401722E+02  0.30991532233E+02 -0.67425883191E+02  0.78778367441E+02  0.00000000000E+00 0. -1.
         13    1    3    3    0    0  0.34978117770E+02  0.23274761615E+02 -0.10791839498E+04  0.10800014726E+04  0.00000000000E+00 0. -1.
        -14    1    3    3    0    0 -0.55670512049E+00  0.81283888959E+01 -0.89711928430E+01  0.12118701567E+02  0.00000000000E+00 0.  1.
          5    1    4    4  501    0 -0.98678680951E+02 -0.55632203927E+02 -0.27777710915E+03  0.30001669779E+03  0.41800000000E+01 0. -1.
         -5    1    4    4    0  501  0.37160797597E+02 -0.22336672958E+02 -0.16633971520E+03  0.17194832099E+03  0.41800000000E+01 0. -1.
</event>
<event>
11    1  0.6800550E-009  0.1537383E+03  0.7561462E-02  0.1093119E+00
         22   -1    0    0    0    0  0.00000000000E+00  0.00000000000E+00  0.17471630108E+04  0.17471630108E+04  0.00000000000E+00 0. -1.
         22   -1    0    0    0    0 -0.00000000000E+00 -0.00000000000E+00 -0.16716125605E+04  0.16716125605E+04  0.00000000000E+00 0. -1.
         24    2    1    2    0    0 -0.65722009924E+00 -0.11830235736E+01 -0.13769086041E+04  0.13792891177E+04  0.80989719448E+02 0.  0.
         25    2    1    2    0    0  0.61343296059E+02  0.66797307818E+02 -0.27097597801E+03  0.31192727631E+03  0.12508303140E+03 0.  0.
        -24    2    1    2    0    0 -0.60686075959E+02 -0.65614284245E+02  0.17234350324E+04  0.17275591772E+04  0.79021300000E+02 0.  0.
        -13    1    3    3    0    0 -0.26784257435E+01  0.25738513481E+02 -0.15984526630E+03  0.16192638513E+03  0.00000000000E+00 0.  1.
         14    1    3    3    0    0  0.20212056443E+01 -0.26921537055E+02 -0.12170633378E+04  0.12173627326E+04  0.00000000000E+00 0. -1.
         11    1    5    5    0    0 -0.61371590227E+02 -0.66982842546E+02  0.17236243887E+04  0.17260168616E+04  0.00000000000E+00 0. -1.
        -12    1    5    5    0    0  0.68551426739E+00  0.13685583017E+01 -0.18935630687E+00  0.15423156120E+01  0.00000000000E+00 0.  1.
          5    1    4    4  501    0  0.61306122589E+02  0.58560881527E+01 -0.23056680481E+03  0.23868652730E+03  0.41800000000E+01 0.  1.
         -5    1    4    4    0  501  0.37173469466E-01  0.60941219665E+02 -0.40409173198E+02  0.73240749004E+02  0.41800000000E+01 0.  1.
</event>
<event>
11    1  0.5813833E-009  0.1377489E+03  0.7561462E-02  0.1110098E+00
         22   -1    0    0    0    0  0.00000000000E+00  0.00000000000E+00  0.10134756442E+04  0.10134756442E+04  0.00000000000E+00 0.  1.
         22   -1    0    0    0    0 -0.00000000000E+00 -0.00000000000E+00 -0.59150050141E+02  0.59150050141E+02  0.00000000000E+00 0. -1.
         24    2    1    2    0    0 -0.61269260382E+02 -0.24631553039E+02  0.53673883346E+02  0.11754653864E+03  0.81090488469E+02 0.  0.
         25    2    1    2    0    0  0.46925604245E+02 -0.23470730005E+02  0.16724229368E+03  0.21534208128E+03  0.12509732081E+03 0.  0.
        -24    2    1    2    0    0  0.14343656137E+02  0.48102283044E+02  0.73340941698E+03  0.73973707437E+03  0.82474215213E+02 0.  0.
        -11    1    3    3    0    0  0.14985731539E+02 -0.21079231203E+02  0.25088079180E+02  0.36032178047E+02  0.00000000000E+00 0.  1.
         12    1    3    3    0    0 -0.76254991920E+02 -0.35523218356E+01  0.28585804166E+02  0.81514360594E+02  0.00000000000E+00 0. -1.
         13    1    5    5    0    0 -0.26895130176E+01  0.50322586634E+02  0.20694684332E+03  0.21299434773E+03  0.00000000000E+00 0. -1.
        -14    1    5    5    0    0  0.17033169154E+02 -0.22203035900E+01  0.52646257366E+03  0.52674272664E+03  0.00000000000E+00 0.  1.
          5    1    4    4  501    0  0.53158320973E+02 -0.23093157789E+02  0.18614325392E+03  0.19500226770E+03  0.41800000000E+01 0. -1.
         -5    1    4    4    0  501 -0.62327167277E+01 -0.37757221622E+00 -0.18900960242E+02  0.20339813585E+02  0.41800000000E+01 0. -1.
</event>
<event>
11    1  0.5813833E-009  0.2843616E+03  0.7561462E-02  0.1007036E+00
         22   -1    0    0    0    0  0.00000000000E+00  0.00000000000E+00  0.11697624537E+03  0.11697624537E+03  0.00000000000E+00 0. -1.
         22   -1    0    0    0    0 -0.00000000000E+00 -0.00000000000E+00 -0.16394904895E+04  0.16394904895E+04  0.00000000000E+00 0. -1.
        -24    2    1    2    0    0  0.62509630359E+02 -0.44794036349E+02 -0.92138603951E+03  0.93064527672E+03  0.10599263037E+03 0.  0.
         25    2    1    2    0    0 -0.50366254147E+02  0.28202517136E+03 -0.37274656305E+03  0.48647978140E+03  0.12509044973E+03 0.  0.
         24    2    1    2    0    0 -0.12143376212E+02 -0.23723113501E+03 -0.22838164159E+03  0.33934167677E+03  0.81046445778E+02 0.  0.
        -13    1    5    5    0    0  0.27546377873E+02 -0.51907659117E+02 -0.76513206564E+02  0.96475275525E+02  0.00000000000E+00 0.  1.
         14    1    5    5    0    0 -0.39689754084E+02 -0.18532347589E+03 -0.15186843503E+03  0.24286640125E+03  0.00000000000E+00 0. -1.
         11    1    3    3    0    0 -0.16467442882E+02 -0.29767766308E+02 -0.52984262092E+03  0.53093361122E+03  0.00000000000E+00 0. -1.
        -12    1    3    3    0    0  0.78977073241E+02 -0.15026270040E+02 -0.39154341860E+03  0.39971166550E+03  0.00000000000E+00 0.  1.
          5    1    4    4  501    0  0.37801885709E+02  0.12037034788E+03 -0.18029361326E+03  0.22009375865E+03  0.41800000000E+01 0. -1.
         -5    1    4    4    0  501 -0.88168139856E+02  0.16165482347E+03 -0.19245294979E+03  0.26638602276E+03  0.41800000000E+01 0. -1.
</event>
<event>
11    1  0.5813833E-009  0.2518255E+03  0.7561462E-02  0.1022931E+00
         22   -1    0    0    0    0  0.00000000000E+00  0.00000000000E+00  0.51727078562E+03  0.51727078562E+03  0.00000000000E+00 0. -1.
         22   -1    0    0    0    0 -0.00000000000E+00 -0.00000000000E+00 -0.11218471409E+04  0.11218471409E+04  0.00000000000E+00 0.  1.
         24    2    1    2    0    0  0.21270343320E+02  0.21215344993E+03 -0.93404684737E+03  0.96098458609E+03  0.74741874488E+02 0.  0.
         25    2    1    2    0    0 -0.28799996460E+02 -0.26981666149E+03 -0.34753063242E+02  0.30080770022E+03  0.12508807495E+03 0.  0.
        -24    2    1    2    0    0  0.75296531392E+01  0.57663211558E+02  0.36422355530E+03  0.37732564023E+03  0.79587052330E+02 0.  0.
        -11    1    3    3    0    0  0.48444057742E+02  0.15770961274E+03 -0.66905176918E+03  0.68909318566E+03  0.00000000000E+00 0.  1.
         12    1    3    3    0    0 -0.27173714422E+02  0.54443837191E+02 -0.26499507819E+03  0.27189140043E+03  0.00000000000E+00 0. -1.
         13    1    5    5    0    0  0.32910264699E+02  0.64389213413E+02  0.26704358246E+03  0.27666104037E+03  0.00000000000E+00 0. -1.
        -14    1    5    5    0    0 -0.25380611560E+02 -0.67260018553E+01  0.97179972845E+02  0.10066459987E+03  0.00000000000E+00 0.  1.
          5    1    4    4  501    0  0.45392739924E-01 -0.26044815214E+03 -0.87317260087E+01  0.26062800588E+03  0.41800000000E+01 0.  1.
         -5    1    4    4    0  501 -0.28845389200E+02 -0.93685093513E+01 -0.26021337233E+02  0.40179694336E+02  0.41800000000E+01 0.  1.
</event>
<event>
11    1  0.5813833E-009  0.1362669E+03  0.7561462E-02  0.1111800E+00
         22   -1    0    0    0    0  0.00000000000E+00  0.00000000000E+00  0.25142846782E+03  0.25142846782E+03  0.00000000000E+00 0.  1.
         22   -1    0    0    0    0 -0.00000000000E+00 -0.00000000000E+00 -0.86031717590E+03  0.86031717590E+03  0.00000000000E+00 0. -1.
         24    2    1    2    0    0  0.45010501635E+01  0.52712221232E+00 -0.61688447975E+03  0.62238895757E+03  0.82468271714E+02 0.  0.
         25    2    1    2    0    0 -0.21385263656E+02  0.50773612218E+02 -0.20998946891E+03  0.25055623150E+03  0.12509020301E+03 0.  0.
        -24    2    1    2    0    0  0.16884213493E+02 -0.51300734431E+02  0.21798524058E+03  0.23880045465E+03  0.81186513744E+02 0.  0.
        -11    1    3    3    0    0 -0.17268235502E+02  0.26250283574E+02 -0.11038892561E+03  0.11477362171E+03  0.00000000000E+00 0.  1.
         12    1    3    3    0    0  0.21769285666E+02 -0.25723161362E+02 -0.50649555414E+03  0.50761533585E+03  0.00000000000E+00 0. -1.
         11    1    5    5    0    0  0.37964635479E+01  0.10390528045E+02 -0.81570131770E+00  0.11092410792E+02  0.00000000000E+00 0. -1.
        -12    1    5    5    0    0  0.13087749945E+02 -0.61691262476E+02  0.21880094189E+03  0.22770804386E+03  0.00000000000E+00 0.  1.
          5    1    4    4  501    0 -0.13048359764E+02  0.28800048247E+02 -0.22168979457E+03  0.22397218552E+03  0.41800000000E+01 0. -1.
         -5    1    4    4    0  501 -0.83369038922E+01  0.21973563972E+02  0.11700325654E+02  0.26584045977E+02  0.41800000000E+01 0. -1.
</event>
<event>
11    1  0.5813833E-009  0.1359955E+03  0.7561462E-02  0.1112114E+00
         22   -1    0    0    0    0  0.00000000000E+00  0.00000000000E+00  0.55469201833E+02  0.55469201833E+02  0.00000000000E+00 0.  1.
         22   -1    0    0    0    0 -0.00000000000E+00 -0.00000000000E+00 -0.10509949176E+04  0.10509949176E+04  0.00000000000E+00 0. -1.
        -24    2    1    2    0    0  0.19395919055E+02  0.44016625874E+02 -0.66467445653E+03  0.67160749078E+03  0.83371598716E+02 0.  0.
         25    2    1    2    0    0 -0.69455152832E+02 -0.56298053005E+02 -0.29470617921E+03  0.33240429457E+03  0.12508954377E+03 0.  0.
         24    2    1    2    0    0  0.50059233776E+02  0.12281427131E+02 -0.36145080035E+02  0.10245233409E+03  0.80828544532E+02 0.  0.
        -11    1    5    5    0    0 -0.39701928783E+00  0.30552514614E+02  0.95051965555E+01  0.31999414606E+02  0.00000000000E+00 0.  1.
         12    1    5    5    0    0  0.50456253064E+02 -0.18271087483E+02 -0.45650276590E+02  0.70452919484E+02  0.00000000000E+00 0. -1.
         13    1    3    3    0    0  0.39664474880E+01  0.11941202417E+02 -0.57485375638E+03  0.57499144884E+03  0.00000000000E+00 0. -1.
        -14    1    3    3    0    0  0.15429471567E+02  0.32075423458E+02 -0.89820700153E+02  0.96616041933E+02  0.00000000000E+00 0.  1.
          5    1    4    4  501    0 -0.10378321759E+03 -0.57591513590E+02 -0.21797217829E+03  0.24822788239E+03  0.41800000000E+01 0.  1.
         -5    1    4    4    0  501  0.34328064755E+02  0.12934605853E+01 -0.76734000919E+02  0.84176412178E+02  0.41800000000E+01 0.  1.
</event>
<event>
11    1  0.5813833E-009  0.2154050E+03  0.7561462E-02  0.1044135E+00
         22   -1    0    0    0    0  0.00000000000E+00  0.00000000000E+00  0.52219128654E+03  0.52219128654E+03  0.00000000000E+00 0.  1.
         22   -1    0    0    0    0 -0.00000000000E+00 -0.00000000000E+00 -0.16998572979E+04  0.16998572979E+04  0.00000000000E+00 0.  1.
         24    2    1    2    0    0  0.89838429983E+02  0.17014273536E+03 -0.14636786867E+04  0.14783819543E+04  0.78983611367E+02 0.  0.
         25    2    1    2    0    0 -0.13220304274E+03 -0.19012218550E+02 -0.17249475837E+03  0.25148136323E+03  0.12509726384E+03 0.  0.
        -24    2    1    2    0    0  0.42364612761E+02 -0.15113051681E+03  0.45850743375E+03  0.49218526691E+03  0.85919012085E+02 0.  0.
        -13    1    3    3    0    0  0.98056213422E+02  0.16037890652E+03 -0.14310964908E+04  0.14433896150E+04  0.00000000000E+00 0.  1.
         14    1    3    3    0    0 -0.82177834395E+01  0.97638288406E+01 -0.32582195902E+02  0.34992339278E+02  0.00000000000E+00 0. -1.
         11    1    5    5    0    0 -0.30205403438E+01 -0.71765365989E+02  0.30647989445E+03  0.31478455668E+03  0.00000000000E+00 0. -1.
        -12    1    5    5    0    0  0.45385153105E+02 -0.79365150822E+02  0.15202753930E+03  0.17740071023E+03  0.00000000000E+00 0.  1.
          5    1    4    4  501    0 -0.59276289558E+02 -0.13319192338E+02 -0.16728917971E+03  0.17802870959E+03  0.41800000000E+01 0. -1.
         -5    1    4    4    0  501 -0.72926753186E+02 -0.56930262121E+01 -0.52055786560E+01  0.73452653641E+02  0.41800000000E+01 0. -1.
</event>
<event>
11    1  0.5813833E-009  0.1311879E+03  0.7561462E-02  0.1117818E+00
         22   -1    0    0    0    0  0.00000000000E+00  0.00000000000E+00  0.90427589365E+03  0.90427589365E+03  0.00000000000E+00 0.  1.
         22   -1    0    0    0    0 -0.00000000000E+00 -0.00000000000E+00 -0.18418374005E+03  0.18418374005E+03  0.00000000000E+00 0.  1.
         24    2    1    2    0    0  0.25313700943E+02 -0.28063875213E+02 -0.15193509339E+03  0.17484348207E+03  0.77830624246E+02 0.  0.
         25    2    1    2    0    0 -0.45130603113E+02 -0.79107780867E+01  0.23578288918E+03  0.27081533629E+03  0.12509206128E+03 0.  0.
        -24    2    1    2    0    0  0.19816902169E+02  0.35974653299E+02  0.63624435781E+03  0.64280081533E+03  0.81848152424E+02 0.  0.
        -13    1    3    3    0    0  0.47771550526E+02 -0.34433526241E+02 -0.80842772476E+02  0.10001671176E+03  0.00000000000E+00 0.  1.
         14    1    3    3    0    0 -0.22457849582E+02  0.63696510288E+01 -0.71092320918E+02  0.74826770314E+02  0.00000000000E+00 0. -1.
         13    1    5    5    0    0  0.96326656002E+01  0.14242035274E+02  0.21233739592E+02  0.27322070060E+02  0.00000000000E+00 0. -1.
        -14    1    5    5    0    0  0.10184236569E+02  0.21732618025E+02  0.61501061822E+03  0.61547874527E+03  0.00000000000E+00 0.  1.
          5    1    4    4  501    0 -0.42106740397E+02  0.25626956921E+02  0.23136762601E+03  0.23659706100E+03  0.41800000000E+01 0. -1.
         -5    1    4    4    0  501 -0.30238627154E+01 -0.33537735007E+02  0.44152631662E+01  0.34218275292E+02  0.41800000000E+01 0. -1.
</event>
<event>
11    1  0.5813833E-009  0.1293623E+03  0.7561462E-02  0.1120055E+00
         22   -1    0    0    0    0  0.00000000000E+00  0.00000000000E+00  0.37587979899E+03  0.37587979899E+03  0.00000000000E+00 0. -1.
         22   -1    0    0    0    0 -0.00000000000E+00 -0.00000000000E+00 -0.35057336989E+03  0.35057336989E+03  0.00000000000E+00 0.  1.
        -24    2    1    2    0    0 -0.43887211654E+02 -0.52894963203E+01 -0.20167319962E+03  0.22185215402E+03  0.81192565432E+02 0.  0.
         25    2    1    2    0    0 -0.42348190337E+00  0.41503890376E+01 -0.10319376045E+03  0.16221398047E+03  0.12508804179E+03 0.  0.
         24    2    1    2    0    0  0.44310693558E+02  0.11391072826E+01  0.33017338915E+03  0.34238703439E+03  0.79054913087E+02 0.  0.
        -13    1    5    5    0    0  0.24317901971E+02 -0.34424680332E+02  0.98344625423E+02  0.10699572104E+03  0.00000000000E+00 0.  1.
         14    1    5    5    0    0  0.19992791586E+02  0.35563787615E+02  0.23182876373E+03  0.23539131334E+03  0.00000000000E+00 0. -1.
         13    1    3    3    0    0  0.88563365465E+01  0.17419993499E+02 -0.10384278064E+02  0.22129710831E+02  0.00000000000E+00 0. -1.
        -14    1    3    3    0    0 -0.52743548201E+02 -0.22709489819E+02 -0.19128892155E+03  0.19972244319E+03  0.00000000000E+00 0.  1.
          5    1    4    4  501    0  0.16650072843E+02 -0.27256463170E+02 -0.11872309945E+03  0.12301539112E+03  0.41800000000E+01 0. -1.
         -5    1    4    4    0  501 -0.17073554746E+02  0.31406852207E+02  0.15529339001E+02  0.39198589350E+02  0.41800000000E+01 0. -1.
</event>
<event>
11    1  0.5813833E-009  0.1353753E+03  0.7561462E-02  0.1112835E+00
         22   -1    0    0    0    0  0.00000000000E+00  0.00000000000E+00  0.35032713266E+03  0.35032713266E+03  0.00000000000E+00 0.  1.
         22   -1    0    0    0    0 -0.00000000000E+00 -0.00000000000E+00 -0.64232963522E+03  0.64232963522E+03  0.00000000000E+00 0. -1.
        -24    2    1    2    0    0 -0.41371872501E+01  0.37811342647E+02 -0.56381641475E+03  0.57073042774E+03  0.79984108745E+02 0.  0.
         25    2    1    2    0    0 -0.47642497749E+02 -0.40447813763E+02  0.65808582690E+01  0.13998244953E+03  0.12508375295E+03 0.  0.
         24    2    1    2    0    0  0.51779684999E+02  0.26364711158E+01  0.26523305392E+03  0.28194389060E+03  0.80347357118E+02 0.  0.
        -11    1    5    5    0    0 -0.15568398409E+02  0.76127312087E+01  0.12612684419E+03  0.12731185935E+03  0.00000000000E+00 0.  1.
         12    1    5    5    0    0  0.67348083408E+02 -0.49762600928E+01  0.13910620974E+03  0.15463203126E+03  0.00000000000E+00 0. -1.
         11    1    3    3    0    0 -0.70356845474E+01 -0.70975821934E+01 -0.41818294578E+03  0.41830234600E+03  0.00000000000E+00 0. -1.
        -12    1    3    3    0    0  0.28984972974E+01  0.44908924841E+02 -0.14563346898E+03  0.15242808174E+03  0.00000000000E+00 0.  1.
          5    1    4    4  501    0  0.20616540399E+02 -0.36878545523E+02 -0.39056666832E+02  0.57688512565E+02  0.41800000000E+01 0. -1.
         -5    1    4    4    0  501 -0.68259038148E+02 -0.35692682396E+01  0.45637525101E+02  0.82293936970E+02  0.41800000000E+01 0. -1.
</event>
<event>
11    1  0.5813833E-009  0.1456676E+03  0.7561462E-02  0.1101390E+00
         22   -1    0    0    0    0  0.00000000000E+00  0.00000000000E+00  0.14486070835E+03  0.14486070835E+03  0.00000000000E+00 0. -1.
         22   -1    0    0    0    0 -0.00000000000E+00 -0.00000000000E+00 -0.27027530556E+04  0.27027530556E+04  0.00000000000E+00 0. -1.
         24    2    1    2    0    0 -0.11294585366E+02  0.74105698655E+02 -0.25973108920E+04  0.25996614264E+04  0.81218472306E+02 0.  0.
         25    2    1    2    0    0 -0.35601233553E+02 -0.61464949992E+02 -0.40709207945E+01  0.14390840764E+03  0.12509064507E+03 0.  0.
        -24    2    1    2    0    0  0.46895818919E+02 -0.12640748663E+02  0.43489465493E+02  0.10404392991E+03  0.81085136632E+02 0.  0.
        -13    1    3    3    0    0  0.78217000045E+01  0.18853506317E+02 -0.12470707478E+03  0.12636648366E+03  0.00000000000E+00 0.  1.
         14    1    3    3    0    0 -0.19116285371E+02  0.55252192338E+02 -0.24726038172E+04  0.24732949428E+04  0.00000000000E+00 0. -1.
         11    1    5    5    0    0  0.10255597873E+02  0.32208741474E+02  0.28521577662E+02  0.44227375091E+02  0.00000000000E+00 0. -1.
        -12    1    5    5    0    0  0.36640221046E+02 -0.44849490138E+02  0.14967887831E+02  0.59816554816E+02  0.00000000000E+00 0.  1.
          5    1    4    4  501    0 -0.47217299531E+02 -0.25633842011E+02  0.52879776044E+02  0.75500399640E+02  0.41800000000E+01 0. -1.
         -5    1    4    4    0  501  0.11616065979E+02 -0.35831107981E+02 -0.56950696839E+02  0.68408007999E+02  0.41800000000E+01 0. -1.
</event>
<event>
11    1  0.5813833E-009  0.2469196E+03  0.7561462E-02  0.1025553E+00
         22   -1    0    0    0    0  0.00000000000E+00  0.00000000000E+00  0.21206040237E+03  0.21206040237E+03  0.00000000000E+00 0.  1.
         22   -1    0    0    0    0 -0.00000000000E+00 -0.00000000000E+00 -0.19779490210E+04  0.19779490210E+04  0.00000000000E+00 0. -1.
        -24    2    1    2    0    0 -0.88305010855E+01  0.21711703279E+01 -0.17103272054E+04  0.17121734529E+04  0.78968929588E+02 0.  0.
         25    2    1    2    0    0  0.15718271430E+03 -0.14968068904E+03 -0.29896601069E+02  0.25229436574E+03  0.12509166992E+03 0.  0.
         24    2    1    2    0    0 -0.14835221322E+03  0.14750951871E+03 -0.25664812216E+02  0.22554160469E+03  0.80267649669E+02 0.  0.
        -11    1    5    5    0    0 -0.14787709357E+03  0.13049466659E+03 -0.42337403379E+02  0.20171501812E+03  0.00000000000E+00 0.  1.
         12    1    5    5    0    0 -0.47511964704E+00  0.17014852125E+02  0.16672591163E+02  0.23826586570E+02  0.00000000000E+00 0. -1.
         11    1    3    3    0    0  0.10953832371E+02 -0.35107863407E+02 -0.70055216687E+03  0.70151684728E+03  0.00000000000E+00 0. -1.
        -12    1    3    3    0    0 -0.19784333456E+02  0.37279033735E+02 -0.10097750385E+04  0.10106566057E+04  0.00000000000E+00 0.  1.
          5    1    4    4  501    0  0.14902215970E+03 -0.62318015266E+02 -0.80814289095E+01  0.16178356221E+03  0.41800000000E+01 0.  1.
         -5    1    4    4    0  501  0.81605546084E+01 -0.87362673773E+02 -0.21815172159E+02  0.90510803535E+02  0.41800000000E+01 0.  1.
</event>
<event>
11    1  0.5813833E-009  0.1914121E+03  0.7561462E-02  0.1060768E+00
         22   -1    0    0    0    0  0.00000000000E+00  0.00000000000E+00  0.24109284848E+04  0.24109284848E+04  0.00000000000E+00 0. -1.
         22   -1    0    0    0    0 -0.00000000000E+00 -0.00000000000E+00 -0.52452244144E+02  0.52452244144E+02  0.00000000000E+00 0.  1.
        -24    2    1    2    0    0 -0.71125463017E+02 -0.42545102260E+02  0.50394325884E+02  0.12590798309E+03  0.80276490393E+02 0.  0.
         25    2    1    2    0    0 -0.10224502024E+03  0.42181959447E+02  0.80265382424E+03  0.81983975490E+03  0.12510275885E+03 0.  0.
         24    2    1    2    0    0  0.17337048325E+03  0.36314281250E+00  0.15054280906E+04  0.15176329910E+04  0.82696451781E+02 0.  0.
        -11    1    5    5    0    0  0.59599342303E+01 -0.31126130926E+00  0.47013425823E+01  0.75973891376E+01  0.00000000000E+00 0.  1.
         12    1    5    5    0    0  0.16741054902E+03  0.67440412176E+00  0.15007267480E+04  0.15100356019E+04  0.00000000000E+00 0. -1.
         13    1    3    3    0    0 -0.27607353822E+02  0.89435148387E+01  0.50784244406E+02  0.58490955904E+02  0.00000000000E+00 0. -1.
        -14    1    3    3    0    0 -0.43518109195E+02 -0.51488617099E+02 -0.38991852240E+00  0.67417027189E+02  0.00000000000E+00 0.  1.
          5    1    4    4  501    0 -0.39491483568E+02 -0.60885962424E+01  0.61255472025E+03  0.61387083819E+03  0.41800000000E+01 0.  1.
         -5    1    4    4    0  501 -0.62753536668E+02  0.48270555690E+02  0.19009910399E+03  0.20596891671E+03  0.41800000000E+01 0.  1.
</event>
<event>
11    1  0.5813833E-009  0.1340415E+03  0.7561462E-02  0.1114401E+00
         22   -1    0    0    0    0  0.00000000000E+00  0.00000000000E+00  0.43154653602E+03  0.43154653602E+03  0.00000000000E+00 0.  1.
         22   -1    0    0    0    0 -0.00000000000E+00 -0.00000000000E+00 -0.49569954221E+03  0.49569954221E+03  0.00000000000E+00 0. -1.
         24    2    1    2    0    0  0.25033374074E+02  0.39976703228E+02 -0.39196546001E+03  0.40331214094E+03  0.82455773417E+02 0.  0.
         25    2    1    2    0    0 -0.59730747043E+02 -0.29827041504E+02 -0.38841765979E+02  0.14699913301E+03  0.12507057117E+03 0.  0.
        -24    2    1    2    0    0  0.34697372968E+02 -0.10149661724E+02  0.36665421980E+03  0.37693480429E+03  0.79609085318E+02 0.  0.
        -13    1    3    3    0    0 -0.18210631178E+02  0.16620403181E+01 -0.24061709645E+03  0.24131095411E+03  0.00000000000E+00 0.  1.
         14    1    3    3    0    0  0.43244005252E+02  0.38314662910E+02 -0.15134836355E+03  0.16200118683E+03  0.00000000000E+00 0. -1.
         13    1    5    5    0    0  0.46330823695E+02  0.12899827867E+01  0.10502662936E+03  0.11479896409E+03  0.00000000000E+00 0. -1.
        -14    1    5    5    0    0 -0.11633450727E+02 -0.11439644511E+02  0.26162759043E+03  0.26213584020E+03  0.00000000000E+00 0.  1.
          5    1    4    4  501    0 -0.80152240318E+02 -0.49813649389E+02 -0.59367229830E+02  0.11156935812E+03  0.41800000000E+01 0.  1.
         -5    1    4    4    0  501  0.20421493276E+02  0.19986607886E+02  0.20525463851E+02  0.35429774889E+02  0.41800000000E+01 0.  1.
</event>
<event>
11    1  0.5813833E-009  0.2677897E+03  0.7561462E-02  0.1014827E+00
         22   -1    0    0    0    0  0.00000000000E+00  0.00000000000E+00  0.16234706818E+04  0.16234706818E+04  0.00000000000E+00 0. -1.
         22   -1    0    0    0    0 -0.00000000000E+00 -0.00000000000E+00 -0.89462157277E+03  0.89462157277E+03  0.00000000000E+00 0. -1.
         24    2    1    2    0    0  0.78644019284E+02  0.18960996256E+03 -0.81902929790E+03  0.84735297034E+03  0.71142433619E+02 0.  0.
         25    2    1    2    0    0  0.14451898344E+03 -0.26377076348E+03  0.52210661197E+03  0.61538885387E+03  0.12508946787E+03 0.  0.
        -24    2    1    2    0    0 -0.22316300272E+03  0.74160800912E+02  0.10257717949E+04  0.10553504303E+04  0.79089856165E+02 0.  0.
        -11    1    3    3    0    0  0.37570483968E+02  0.80396701367E+02 -0.49645822077E+03  0.50432721108E+03  0.00000000000E+00 0.  1.
         12    1    3    3    0    0  0.41073535317E+02  0.10921326120E+03 -0.32257107712E+03  0.34302575927E+03  0.00000000000E+00 0. -1.
         11    1    5    5    0    0 -0.12991654136E+03  0.73758987790E+02  0.73367744233E+03  0.74873312027E+03  0.00000000000E+00 0. -1.
        -12    1    5    5    0    0 -0.93246461361E+02  0.40181312232E+00  0.29209435258E+03  0.30661731005E+03  0.00000000000E+00 0.  1.
          5    1    4    4  501    0  0.30260690979E+02 -0.18211125959E+03  0.27810982657E+03  0.33383044847E+03  0.41800000000E+01 0. -1.
         -5    1    4    4    0  501  0.11425829246E+03 -0.81659503886E+02  0.24399678539E+03  0.28155840540E+03  0.41800000000E+01 0. -1.
</event>
<event>
11    1  0.5813833E-009  0.1381696E+03  0.7561462E-02  0.1109620E+00
         22   -1    0    0    0    0  0.00000000000E+00  0.00000000000E+00  0.23046411975E+03  0.23046411975E+03  0.00000000000E+00 0. -1.
         22   -1    0    0    0    0 -0.00000000000E+00 -0.00000000000E+00 -0.20593539223E+03  0.20593539223E+03  0.00000000000E+00 0.  1.
         24    2    1    2    0    0  0.54405113271E+02  0.21206341807E+02 -0.12984872759E+03  0.16289749924E+03  0.79153508579E+02 0.  0.
         25    2    1    2    0    0 -0.53935069595E+02 -0.29365843269E+02  0.67315335569E+02  0.15474034312E+03  0.12506748140E+03 0.  0.
        -24    2    1    2    0    0 -0.47004367572E+00  0.81595014614E+01  0.87062119550E+02  0.11876166962E+03  0.80359959584E+02 0.  0.
        -13    1    3    3    0    0  0.30935947021E+02 -0.24767690323E+02 -0.87768636924E+02  0.96300596725E+02  0.00000000000E+00 0.  1.
         14    1    3    3    0    0  0.23469166250E+02  0.45974032130E+02 -0.42080090665E+02  0.66596902519E+02  0.00000000000E+00 0. -1.
         13    1    5    5    0    0  0.59863177975E+01  0.28714219962E+02  0.92081123192E+02  0.96639927965E+02  0.00000000000E+00 0. -1.
        -14    1    5    5    0    0 -0.64563614732E+01 -0.20554718501E+02 -0.50190036422E+01  0.22121741651E+02  0.00000000000E+00 0.  1.
          5    1    4    4  501    0  0.28284270736E+02  0.22424967915E+02  0.39300703866E+02  0.53524731494E+02  0.41800000000E+01 0. -1.
         -5    1    4    4    0  501 -0.82219340332E+02 -0.51790811184E+02  0.28014631703E+02  0.10121561163E+03  0.41800000000E+01 0. -1.
</event>
<event>
11    1  0.5813833E-009  0.1406273E+03  0.7561462E-02  0.1106860E+00
         22   -1    0    0    0    0  0.00000000000E+00  0.00000000000E+00  0.60236642941E+03  0.60236642941E+03  0.00000000000E+00 0.  1.
         22   -1    0    0    0    0 -0.00000000000E+00 -0.00000000000E+00 -0.24152977772E+03  0.24152977772E+03  0.00000000000E+00 0. -1.
        -24    2    1    2    0    0 -0.27789512859E+01 -0.80966568551E+02 -0.11411948893E+03  0.16105092685E+03  0.79692129423E+02 0.  0.
         25    2    1    2    0    0  0.46814982772E+02  0.23756649222E+02 -0.51586417364E+02  0.14512587884E+03  0.12507734111E+03 0.  0.
         24    2    1    2    0    0 -0.44036031486E+02  0.57209919328E+02  0.52654255799E+03  0.53771940144E+03  0.81749265238E+02 0.  0.
        -13    1    5    5    0    0 -0.53991884258E+02  0.57180155423E+02  0.27617129010E+03  0.28715026591E+03  0.00000000000E+00 0.  1.
         14    1    5    5    0    0  0.99558527718E+01  0.29763905548E-01  0.25037126789E+03  0.25056913552E+03  0.00000000000E+00 0. -1.
         13    1    3    3    0    0  0.37681300664E+02 -0.49734750258E+02 -0.66564010230E+02  0.91237016944E+02  0.00000000000E+00 0. -1.
        -14    1    3    3    0    0 -0.40460251950E+02 -0.31231818292E+02 -0.47555478703E+02  0.69813909906E+02  0.00000000000E+00 0.  1.
          5    1    4    4  501    0  0.56498345870E+02  0.11132596577E+02 -0.87953868032E+02  0.10521099322E+03  0.41800000000E+01 0. -1.
         -5    1    4    4    0  501 -0.96833630978E+01  0.12624052645E+02  0.36367450668E+02  0.39914885621E+02  0.41800000000E+01 0. -1.
</event>
<event>
11    1  0.5813833E-009  0.1903277E+03  0.7561462E-02  0.1061582E+00
         22   -1    0    0    0    0  0.00000000000E+00  0.00000000000E+00  0.54943598027E+03  0.54943598027E+03  0.00000000000E+00 0. -1.
         22   -1    0    0    0    0 -0.00000000000E+00 -0.00000000000E+00 -0.43451654325E+03  0.43451654325E+03  0.00000000000E+00 0. -1.
         24    2    1    2    0    0 -0.24619310047E+02  0.13581281935E+03 -0.33731801388E+03  0.37345336911E+03  0.81441660615E+02 0.  0.
         25    2    1    2    0    0  0.35264805763E+02 -0.20114485508E+03  0.13169142049E+03  0.27329996801E+03  0.12508950009E+03 0.  0.
        -24    2    1    2    0    0 -0.10645495716E+02  0.65332035725E+02  0.32054603041E+03  0.33719918641E+03  0.81067454833E+02 0.  0.
        -11    1    3    3    0    0 -0.12584203770E+02  0.37851221243E+02 -0.27905603990E+02  0.48680590261E+02  0.00000000000E+00 0.  1.
         12    1    3    3    0    0 -0.12035106277E+02  0.97961598110E+02 -0.30941240989E+03  0.32477277885E+03  0.00000000000E+00 0. -1.
         11    1    5    5    0    0 -0.38633484282E+02  0.65519866647E+02  0.21733467251E+03  0.23026019827E+03  0.00000000000E+00 0. -1.
        -12    1    5    5    0    0  0.27987988566E+02 -0.18783092238E+00  0.10321135790E+03  0.10693898814E+03  0.00000000000E+00 0.  1.
          5    1    4    4  501    0 -0.93629333159E+01 -0.58017059140E+01  0.58906560617E+02  0.60073118743E+02  0.41800000000E+01 0. -1.
         -5    1    4    4    0  501  0.44627739079E+02 -0.19534314916E+03  0.72784859874E+02  0.21322684926E+03  0.41800000000E+01 0. -1.
</event>
<event>
11    1  0.5813833E-009  0.2163450E+03  0.7561462E-02  0.1043531E+00
         22   -1    0    0    0    0  0.00000000000E+00  0.00000000000E+00  0.18508684219E+03  0.18508684219E+03  0.00000000000E+00 0.  1.
         22   -1    0    0    0    0 -0.00000000000E+00 -0.00000000000E+00 -0.88834357419E+03  0.88834357419E+03  0.00000000000E+00 0.  1.
         24    2    1    2    0    0  0.68671672422E+01 -0.10657899081E+03 -0.62251263401E+03  0.63650731900E+03  0.78824795387E+02 0.  0.
         25    2    1    2    0    0 -0.17805870085E+03  0.69850435758E+02  0.36117461698E+00  0.22853881813E+03  0.12508347862E+03 0.  0.
        -24    2    1    2    0    0  0.17119153360E+03  0.36728555052E+02 -0.81105272602E+02  0.20838427925E+03  0.78679188240E+02 0.  0.
        -13    1    3    3    0    0  0.20231010347E+02 -0.11324510625E+03 -0.58354382390E+03  0.59477486689E+03  0.00000000000E+00 0.  1.
         14    1    3    3    0    0 -0.13363843105E+02  0.66661154447E+01 -0.38968810105E+02  0.41732452104E+02  0.00000000000E+00 0. -1.
         13    1    5    5    0    0  0.22041761348E+02  0.29231041796E+02 -0.38410890832E+02  0.53063071738E+02  0.00000000000E+00 0. -1.
        -14    1    5    5    0    0  0.14914977226E+03  0.74975132554E+01 -0.42694381770E+02  0.15532120752E+03  0.00000000000E+00 0.  1.
          5    1    4    4  501    0 -0.15921767317E+03  0.45569873804E+01  0.10588110921E+02  0.15968911696E+03  0.41800000000E+01 0. -1.
         -5    1    4    4    0  501 -0.18841027677E+02  0.65293448377E+02 -0.10226936304E+02  0.68849701169E+02  0.41800000000E+01 0. -1.
</event>
<event>
11    1  0.5813833E-009  0.1577108E+03  0.7561462E-02  0.1089250E+00
         22   -1    0    0    0    0  0.00000000000E+00  0.00000000000E+00  0.90785846813E+03  0.90785846813E+03  0.00000000000E+00 0.  1.
         22   -1    0    0    0    0 -0.00000000000E+00 -0.00000000000E+00 -0.20164039015E+03  0.20164039015E+03  0.00000000000E+00 0.  1.
        -24    2    1    2    0    0  0.25824667800E+02  0.50924462852E+02 -0.13949934630E+03  0.17083543586E+03  0.80401891424E+02 0.  0.
         25    2    1    2    0    0 -0.14889210181E+01 -0.13864094184E+03  0.17129685456E+03  0.25340225658E+03  0.12508622473E+03 0.  0.
         24    2    1    2    0    0 -0.24335746782E+02  0.87716478990E+02  0.67442056971E+03  0.68526116584E+03  0.80332753634E+02 0.  0.
        -13    1    5    5    0    0 -0.51861350817E+02  0.70560919930E+02  0.53486351659E+03  0.54198470874E+03  0.00000000000E+00 0.  1.
         14    1    5    5    0    0  0.27525604035E+02  0.17155559059E+02  0.13955705311E+03  0.14327645710E+03  0.00000000000E+00 0. -1.
         11    1    3    3    0    0 -0.66284372786E+01 -0.91965091702E+01  0.39032547376E+01  0.11989468680E+02  0.00000000000E+00 0. -1.
        -12    1    3    3    0    0  0.32453105079E+02  0.60120972022E+02 -0.14340260103E+03  0.15884596718E+03  0.00000000000E+00 0.  1.
          5    1    4    4  501    0 -0.70480577309E+01  0.95707867079E+01 -0.12121788600E+02  0.17483856407E+02  0.41800000000E+01 0.  1.
         -5    1    4    4    0  501  0.55591367129E+01 -0.14821172855E+03  0.18341864316E+03  0.23591840017E+03  0.41800000000E+01 0.  1.
</event>
<event>
11    1  0.5813833E-009  0.1277242E+03  0.7561462E-02  0.1122097E+00
         22   -1    0    0    0    0  0.00000000000E+00  0.00000000000E+00  0.11230429624E+04  0.11230429624E+04  0.00000000000E+00 0.  1.
         22   -1    0    0    0    0 -0.00000000000E+00 -0.00000000000E+00 -0.37626306663E+03  0.37626306663E+03  0.00000000000E+00 0.  1.
         24    2    1    2    0    0 -0.24833354596E+01 -0.17169182458E+02 -0.35278598101E+03  0.36254508524E+03  0.81731527911E+02 0.  0.
         25    2    1    2    0    0 -0.29470985001E+00  0.40818699378E+02  0.24727708572E+03  0.28010870274E+03  0.12509466478E+03 0.  0.
        -24    2    1    2    0    0  0.27780453096E+01 -0.23649516920E+02  0.85228879104E+03  0.85665224103E+03  0.83005189856E+02 0.  0.
        -13    1    3    3    0    0  0.16992411548E+02 -0.35945192323E+02 -0.30542818151E+03  0.30800515086E+03  0.00000000000E+00 0.  1.
         14    1    3    3    0    0 -0.19475747007E+02  0.18776009865E+02 -0.47357799501E+02  0.54539934374E+02  0.00000000000E+00 0. -1.
         13    1    5    5    0    0 -0.28298511927E+02 -0.34297748276E+02  0.28842549270E+03  0.29183283940E+03  0.00000000000E+00 0. -1.
        -14    1    5    5    0    0  0.31076557237E+02  0.10648231356E+02  0.56386329834E+03  0.56481940163E+03  0.00000000000E+00 0.  1.
          5    1    4    4  501    0 -0.24535131341E+02  0.42295687528E+02  0.25049504077E+03  0.25525699932E+03  0.41800000000E+01 0.  1.
         -5    1    4    4    0  501  0.24240421491E+02 -0.14769881498E+01 -0.32179550510E+01  0.24851703418E+02  0.41800000000E+01 0.  1.
</event>
<event>
11    1  0.5813833E-009  0.2890262E+03  0.7561462E-02  0.1004946E+00
         22   -1    0    0    0    0  0.00000000000E+00  0.00000000000E+00  0.31167620843E+04  0.31167620843E+04  0.00000000000E+00 0. -1.
         22   -1    0    0    0    0 -0.00000000000E+00 -0.00000000000E+00 -0.12748942389E+03  0.12748942389E+03  0.00000000000E+00 0. -1.
        -24    2    1    2    0    0  0.37959417184E+02  0.66759885201E+02 -0.57998606012E+02  0.12461161377E+03  0.79160699608E+02 0.  0.
         25    2    1    2    0    0 -0.17227197902E+03 -0.27002882179E+03  0.10202223189E+04  0.10766119026E+04  0.12508560913E+03 0.  0.
         24    2    1    2    0    0  0.13431256183E+03  0.20326893659E+03  0.20270489476E+04  0.20430279918E+04  0.75351274972E+02 0.  0.
        -11    1    5    5    0    0  0.45950012531E+01  0.23556951677E+02  0.83454239328E+02  0.86836939551E+02  0.00000000000E+00 0.  1.
         12    1    5    5    0    0  0.12971756058E+03  0.17971198491E+03  0.19435947082E+04  0.19561910523E+04  0.00000000000E+00 0. -1.
         13    1    3    3    0    0 -0.16025404706E+01  0.53658671384E+02 -0.62849769904E+02  0.82655397450E+02  0.00000000000E+00 0. -1.
        -14    1    3    3    0    0  0.39561957654E+02  0.13101213817E+02  0.48511638917E+01  0.41956216322E+02  0.00000000000E+00 0.  1.
          5    1    4    4  501    0 -0.82460374654E+02 -0.12646179782E+03  0.28967640288E+03  0.32668362444E+03  0.41800000000E+01 0. -1.
         -5    1    4    4    0  501 -0.89811604361E+02 -0.14356702398E+03  0.73054591601E+03  0.74992827820E+03  0.41800000000E+01 0. -1.
</event>
<event>
11    1  0.5813833E-009  0.1301563E+03  0.7561462E-02  0.1119077E+00
         22   -1    0    0    0    0  0.00000000000E+00  0.00000000000E+00  0.10849539035E+03  0.10849539035E+03  0.00000000000E+00 0. -1.
         22   -1    0    0    0    0 -0.00000000000E+00 -0.00000000000E+00 -0.45688060140E+03  0.45688060140E+03  0.00000000000E+00 0.  1.
        -24    2    1    2    0    0 -0.13110600909E+02  0.16020341326E+02 -0.26202619673E+03  0.27469544090E+03  0.79820538005E+02 0.  0.
         25    2    1    2    0    0  0.45971812703E+02 -0.22596665899E+02 -0.13242266027E+03  0.18923681789E+03  0.12510313912E+03 0.  0.
         24    2    1    2    0    0 -0.32861211795E+02  0.65763245728E+01  0.46063645953E+02  0.10144373296E+03  0.83939646130E+02 0.  0.
        -11    1    5    5    0    0  0.27556147281E+02 -0.68908014435E+01  0.12551607130E+02  0.31054262816E+02  0.00000000000E+00 0.  1.
         12    1    5    5    0    0 -0.60417359075E+02  0.13467126016E+02  0.33512038823E+02  0.70389470142E+02  0.00000000000E+00 0. -1.
         11    1    3    3    0    0 -0.47988972134E+01 -0.24595784079E+02 -0.30442023104E+02  0.39429668773E+02  0.00000000000E+00 0. -1.
        -12    1    3    3    0    0 -0.83117036954E+01  0.40616125405E+02 -0.23158417363E+03  0.23526577213E+03  0.00000000000E+00 0.  1.
          5    1    4    4  501    0 -0.37130443193E+02 -0.26884360302E+02 -0.75169357891E+02  0.88143879007E+02  0.41800000000E+01 0.  1.
         -5    1    4    4    0  501  0.83102255897E+02  0.42876944031E+01 -0.57253302375E+02  0.10109293888E+03  0.41800000000E+01 0.  1.
</event>
<event>
11    1  0.5813833E-009  0.1292104E+03  0.7561462E-02  0.1120243E+00
         22   -1    0    0    0    0  0.00000000000E+00  0.00000000000E+00  0.57002026508E+03  0.57002026508E+03  0.00000000000E+00 0.  1.
         22   -1    0    0    0    0 -0.00000000000E+00 -0.00000000000E+00 -0.69922784613E+03  0.69922784613E+03  0.00000000000E+00 0. -1.
         24    2    1    2    0    0 -0.20963432992E+02  0.25152326345E+02 -0.66445503773E+03  0.67150499302E+03  0.91358379146E+02 0.  0.
         25    2    1    2    0    0  0.22592678320E+02 -0.15801025179E+01  0.12637055090E+03  0.17925007521E+03  0.12509255569E+03 0.  0.
        -24    2    1    2    0    0 -0.16292453281E+01 -0.23572223827E+02  0.40887690579E+03  0.41849304298E+03  0.86010457283E+02 0.  0.
        -11    1    3    3    0    0  0.22544673240E+02 -0.22038957181E+02 -0.16971276266E+03  0.17261633682E+03  0.00000000000E+00 0.  1.
         12    1    3    3    0    0 -0.43508106232E+02  0.47191283525E+02 -0.49474227507E+03  0.49888865621E+03  0.00000000000E+00 0. -1.
         11    1    5    5    0    0  0.54671428138E+01  0.19349852544E+02  0.24649084599E+02  0.31810121275E+02  0.00000000000E+00 0. -1.
        -12    1    5    5    0    0 -0.70963881419E+01 -0.42922076370E+02  0.38422782119E+03  0.38668292171E+03  0.00000000000E+00 0.  1.
          5    1    4    4  501    0  0.66870689798E+01 -0.21487240605E+02 -0.20136111373E+02  0.30485304354E+02  0.41800000000E+01 0. -1.
         -5    1    4    4    0  501  0.15905609340E+02  0.19907138087E+02  0.14650666228E+03  0.14876477085E+03  0.41800000000E+01 0. -1.
</event>
<event>
11    1  0.9607167E-009  0.1673876E+03  0.7561462E-02  0.1080328E+00
         22   -1    0    0    0    0  0.00000000000E+00  0.00000000000E+00  0.85732483515E+03  0.85732483515E+03  0.00000000000E+00 0.  1.
         22   -1    0    0    0    0 -0.00000000000E+00 -0.00000000000E+00 -0.52544134266E+03  0.52544134266E+03  0.00000000000E+00 0.  1.
         24    2    1    2    0    0  0.74370723423E+02  0.43859672633E+02 -0.39314274269E+03  0.41045988700E+03  0.80383003940E+02 0.  0.
         25    2    1    2    0    0 -0.15614338064E+03  0.29496152334E+02 -0.30467141498E+02  0.20451518258E+03  0.12508970732E+03 0.  0.
        -24    2    1    2    0    0  0.81772657212E+02 -0.73355824967E+02  0.75549337668E+03  0.76779110822E+03  0.81640058348E+02 0.  0.
        -11    1    3    3    0    0  0.69554702188E+02  0.59026412912E+02 -0.37665776752E+03  0.38754747819E+03  0.00000000000E+00 0.  1.
         12    1    3    3    0    0  0.48160212358E+01 -0.15166740279E+02 -0.16484975165E+02  0.22912408809E+02  0.00000000000E+00 0. -1.
         13    1    5    5    0    0  0.21724973236E+02  0.72328555890E+01  0.47844309439E+02  0.53041178417E+02  0.00000000000E+00 0. -1.
        -14    1    5    5    0    0  0.60047683976E+02 -0.80588680556E+02  0.70764906724E+03  0.71474992980E+03  0.00000000000E+00 0.  1.
          5    1    4    4  501    0 -0.57089152331E+02 -0.54917561566E+01 -0.71413501674E+02  0.91688010780E+02  0.41800000000E+01 0.  1.
         -5    1    4    4    0  501 -0.99054228305E+02  0.34987908490E+02  0.40946360175E+02  0.11282717180E+03  0.41800000000E+01 0.  1.
</event>
<event>
11    1  0.5813833E-009  0.2544184E+03  0.7561462E-02  0.1021571E+00
         22   -1    0    0    0    0  0.00000000000E+00  0.00000000000E+00  0.14184345150E+04  0.14184345150E+04  0.00000000000E+00 0.  1.
         22   -1    0    0    0    0 -0.00000000000E+00 -0.00000000000E+00 -0.14105416771E+04  0.14105416771E+04  0.00000000000E+00 0. -1.
         24    2    1    2    0    0 -0.61153471478E+02  0.79915533791E+02 -0.10072339288E+04  0.10154133038E+04  0.80110864483E+02 0.  0.
         25    2    1    2    0    0 -0.11839747052E+03 -0.20979952418E+03 -0.34160901857E+03  0.43631984449E+03  0.12507791072E+03 0.  0.
        -24    2    1    2    0    0  0.17955094200E+03  0.12988399039E+03  0.13567357854E+04  0.13772430438E+04  0.83414738379E+02 0.  0.
        -11    1    3    3    0    0  0.94764526960E+01 -0.96817128519E+01 -0.73822502493E+02  0.75055316893E+02  0.00000000000E+00 0.  1.
         12    1    3    3    0    0 -0.70629924174E+02  0.89597246643E+02 -0.93341142633E+03  0.94035798694E+03  0.00000000000E+00 0. -1.
         11    1    5    5    0    0  0.49695343487E+02  0.32053077515E+02  0.61826550541E+03  0.62108716145E+03  0.00000000000E+00 0. -1.
        -12    1    5    5    0    0  0.12985559851E+03  0.97830912874E+02  0.73847027998E+03  0.75615588234E+03  0.00000000000E+00 0.  1.
          5    1    4    4  501    0 -0.39642937259E+02 -0.96093558211E+02 -0.54138503043E+02  0.11727738195E+03  0.41800000000E+01 0. -1.
         -5    1    4    4    0  501 -0.78754533265E+02 -0.11370596597E+03 -0.28747051553E+03  0.31904246254E+03  0.41800000000E+01 0. -1.
</event>
<event>
11    1  0.5813833E-009  0.1562800E+03  0.7561462E-02  0.1090629E+00
         22   -1    0    0    0    0  0.00000000000E+00  0.00000000000E+00  0.49325524111E+03  0.49325524111E+03  0.00000000000E+00 0.  1.
         22   -1    0    0    0    0 -0.00000000000E+00 -0.00000000000E+00 -0.12640351347E+04  0.12640351347E+04  0.00000000000E+00 0. -1.
         24    2    1    2    0    0  0.82091045512E+02  0.45295809529E+02 -0.12185559866E+04  0.12247373659E+04  0.79449813531E+02 0.  0.
         25    2    1    2    0    0 -0.81930469173E+02 -0.35275156226E+02  0.12056467882E+03  0.19530349910E+03  0.12510266406E+03 0.  0.
        -24    2    1    2    0    0 -0.16057633888E+00 -0.10020653303E+02  0.32721141410E+03  0.33724951088E+03  0.81052352168E+02 0.  0.
        -13    1    3    3    0    0  0.33396401586E+02  0.34105926643E+02 -0.22906326601E+03  0.23398400309E+03  0.00000000000E+00 0.  1.
         14    1    3    3    0    0  0.48694643925E+02  0.11189882885E+02 -0.98949272056E+03  0.99075336278E+03  0.00000000000E+00 0. -1.
         11    1    5    5    0    0  0.23275954429E+02  0.24578044106E+02  0.21216605198E+03  0.21484944477E+03  0.00000000000E+00 0. -1.
        -12    1    5    5    0    0 -0.23436530768E+02 -0.34598697409E+02  0.11504536212E+03  0.12240006611E+03  0.00000000000E+00 0.  1.
          5    1    4    4  501    0 -0.10696123797E+03 -0.18740578365E+02  0.52258974722E+02  0.12058353347E+03  0.41800000000E+01 0.  1.
         -5    1    4    4    0  501  0.25030768794E+02 -0.16534577861E+02  0.68305704098E+02  0.74719965631E+02  0.41800000000E+01 0.  1.
</event>
<event>
11    1  0.5813833E-009  0.1690101E+03  0.7561462E-02  0.1078896E+00
         22   -1    0    0    0    0  0.00000000000E+00  0.00000000000E+00  0.18942020613E+04  0.18942020613E+04  0.00000000000E+00 0.  1.
         22   -1    0    0    0    0 -0.00000000000E+00 -0.00000000000E+00 -0.18186151072E+03  0.18186151072E+03  0.00000000000E+00 0. -1.
        -24    2    1    2    0    0 -0.57836487307E+02  0.70336238193E+02  0.46926863380E+01  0.12303009320E+03  0.82596227876E+02 0.  0.
         25    2    1    2    0    0  0.13376083594E+03 -0.61876026828E+02 -0.43306317010E+02  0.19809842959E+03  0.12508775633E+03 0.  0.
         24    2    1    2    0    0 -0.75924348636E+02 -0.84602113652E+01  0.17509541813E+04  0.17549350493E+04  0.90113263832E+02 0.  0.
        -13    1    5    5    0    0 -0.53576398263E+02  0.46892629852E+01  0.16441146207E+04  0.16449940139E+04  0.00000000000E+00 0.  1.
         14    1    5    5    0    0 -0.22347950373E+02 -0.13149474350E+02  0.10683956056E+03  0.10994103539E+03  0.00000000000E+00 0. -1.
         13    1    3    3    0    0 -0.27833917725E+02  0.84981950948E+02  0.59332860819E+01  0.89620660824E+02  0.00000000000E+00 0. -1.
        -14    1    3    3    0    0 -0.30002569582E+02 -0.14645712755E+02 -0.12405997439E+01  0.33409432371E+02  0.00000000000E+00 0.  1.
          5    1    4    4  501    0  0.44270863333E+02 -0.24638797306E+02  0.44261270032E+02  0.67405579130E+02  0.41800000000E+01 0. -1.
         -5    1    4    4    0  501  0.89489972610E+02 -0.37237229522E+02 -0.87567587043E+02  0.13069285046E+03  0.41800000000E+01 0. -1.
</event>
<event>
11    1  0.5813833E-009  0.1767404E+03  0.7561462E-02  0.1072310E+00
         22   -1    0    0    0    0  0.00000000000E+00  0.00000000000E+00  0.72649263633E+03  0.72649263633E+03  0.00000000000E+00 0. -1.
         22   -1    0    0    0    0 -0.00000000000E+00 -0.00000000000E+00 -0.50080260265E+03  0.50080260265E+03  0.00000000000E+00 0. -1.
        -24    2    1    2    0    0 -0.12537699608E+03  0.71379406537E+02 -0.41324837274E+03  0.44477713275E+03  0.78981449857E+02 0.  0.
         25    2    1    2    0    0  0.35199522094E+02 -0.24123378494E+02  0.14961352052E+01  0.13217951225E+03  0.12509293063E+03 0.  0.
         24    2    1    2    0    0  0.90177473989E+02 -0.47256028042E+02  0.63744227121E+03  0.65033859397E+03  0.79009674642E+02 0.  0.
        -13    1    5    5    0    0  0.71407973105E+02  0.78228608718E+00  0.46151401757E+03  0.46700631581E+03  0.00000000000E+00 0.  1.
         14    1    5    5    0    0  0.18769500884E+02 -0.48038314129E+02  0.17592825364E+03  0.18333227816E+03  0.00000000000E+00 0. -1.
         11    1    3    3    0    0 -0.45576374720E+02 -0.85111169937E+01 -0.17635600600E+03  0.18234880284E+03  0.00000000000E+00 0. -1.
        -12    1    3    3    0    0 -0.79800621363E+02  0.79890523530E+02 -0.23689236674E+03  0.26242832991E+03  0.00000000000E+00 0.  1.
          5    1    4    4  501    0 -0.33480803704E+02 -0.47825749662E+01 -0.37572451600E+02  0.50724735181E+02  0.41800000000E+01 0. -1.
         -5    1    4    4    0  501  0.68680325798E+02 -0.19340803528E+02  0.39068586805E+02  0.81454777072E+02  0.41800000000E+01 0. -1.
</event>
<event>
11    1  0.5813833E-009  0.1431997E+03  0.7561462E-02  0.1104037E+00
         22   -1    0    0    0    0  0.00000000000E+00  0.00000000000E+00  0.43346372680E+03  0.43346372680E+03  0.00000000000E+00 0. -1.
         22   -1    0    0    0    0 -0.00000000000E+00 -0.00000000000E+00 -0.43549070119E+03  0.43549070119E+03  0.00000000000E+00 0. -1.
        -24    2    1    2    0    0 -0.42724107335E+02  0.33073542657E+02 -0.25850052325E+03  0.27583851342E+03  0.79656489975E+02 0.  0.
         25    2    1    2    0    0  0.11051369526E+03 -0.28120847794E+02 -0.11663387336E+03  0.20555715117E+03  0.12508486344E+03 0.  0.
         24    2    1    2    0    0 -0.67789587929E+02 -0.49526948627E+01  0.37310742222E+03  0.38755876339E+03  0.79829124697E+02 0.  0.
        -11    1    5    5    0    0 -0.75228623672E+00 -0.96366175029E+00 -0.41728389530E+01  0.43482368241E+01  0.00000000000E+00 0.  1.
         12    1    5    5    0    0 -0.67037301692E+02 -0.39890331124E+01  0.37728026117E+03  0.38321052657E+03  0.00000000000E+00 0. -1.
         11    1    3    3    0    0 -0.64805668230E+02  0.19773313910E+02 -0.15473711905E+03  0.16892108983E+03  0.00000000000E+00 0. -1.
        -12    1    3    3    0    0  0.22081560895E+02  0.13300228747E+02 -0.10376340421E+03  0.10691742360E+03  0.00000000000E+00 0.  1.
          5    1    4    4  501    0  0.74102790320E+02  0.25367159290E+02 -0.77346386933E+01  0.78816326604E+02  0.41800000000E+01 0. -1.
         -5    1    4    4    0  501  0.36410904944E+02 -0.53488007084E+02 -0.10889923467E+03  0.12674082457E+03  0.41800000000E+01 0. -1.
</event>
<event>
11    1  0.5813833E-009  0.1451945E+03  0.7561462E-02  0.1101893E+00
         22   -1    0    0    0    0  0.00000000000E+00  0.00000000000E+00  0.19003402534E+04  0.19003402534E+04  0.00000000000E+00 0.  1.
         22   -1    0    0    0    0 -0.00000000000E+00 -0.00000000000E+00 -0.69661454739E+03  0.69661454739E+03  0.00000000000E+00 0.  1.
         24    2    1    2    0    0  0.27202686197E+02  0.11142820016E+02 -0.66142048860E+03  0.66688226811E+03  0.79942155371E+02 0.  0.
         25    2    1    2    0    0  0.19653664247E+02  0.47510058288E+02  0.11816447781E+03  0.17960185007E+03  0.12510199269E+03 0.  0.
        -24    2    1    2    0    0 -0.46856350444E+02 -0.58652878304E+02  0.17469817168E+04  0.17504706826E+04  0.81035881658E+02 0.  0.
        -11    1    3    3    0    0  0.23691465619E+02  0.28269938093E+02 -0.62872357151E+03  0.62980457629E+03  0.00000000000E+00 0.  1.
         12    1    3    3    0    0  0.35112205780E+01 -0.17127118077E+02 -0.32696917094E+02  0.37077691824E+02  0.00000000000E+00 0. -1.
         11    1    5    5    0    0 -0.43295196764E+02 -0.68569917079E+02  0.96018620411E+03  0.96360461506E+03  0.00000000000E+00 0. -1.
        -12    1    5    5    0    0 -0.35611536803E+01  0.99170387747E+01  0.78679551266E+03  0.78686606752E+03  0.00000000000E+00 0.  1.
          5    1    4    4  501    0 -0.82478478876E+01  0.72558194241E+02  0.22125337569E+02  0.76418070564E+02  0.41800000000E+01 0. -1.
         -5    1    4    4    0  501  0.27901512134E+02 -0.25048135952E+02  0.96039140240E+02  0.10318377950E+03  0.41800000000E+01 0. -1.
</event>
<event>
11    1  0.5813833E-009  0.1311787E+03  0.7561462E-02  0.1117829E+00
         22   -1    0    0    0    0  0.00000000000E+00  0.00000000000E+00  0.21342031165E+03  0.21342031165E+03  0.00000000000E+00 0. -1.
         22   -1    0    0    0    0 -0.00000000000E+00 -0.00000000000E+00 -0.31219958661E+03  0.31219958661E+03  0.00000000000E+00 0. -1.
         24    2    1    2    0    0  0.34351339638E+02  0.30924822917E+02 -0.19356057696E+03  0.21439700527E+03  0.79774806223E+02 0.  0.
         25    2    1    2    0    0 -0.27221528326E+02  0.16652288924E+02 -0.51950426342E+02  0.13915648174E+03  0.12508944513E+03 0.  0.
        -24    2    1    2    0    0 -0.71298113118E+01 -0.47577111841E+02  0.14673172834E+03  0.17206641125E+03  0.75909380172E+02 0.  0.
        -13    1    3    3    0    0  0.21981490352E+00 -0.13814477694E+02 -0.10788567974E+01  0.13858284328E+02  0.00000000000E+00 0.  1.
         14    1    3    3    0    0  0.34131524735E+02  0.44739300610E+02 -0.19248172017E+03  0.20053872094E+03  0.00000000000E+00 0. -1.
         13    1    5    5    0    0  0.14441255716E+02 -0.60369154864E+02  0.12179234675E+03  0.13669806309E+03  0.00000000000E+00 0. -1.
        -14    1    5    5    0    0 -0.21571067028E+02  0.12792043023E+02  0.24939381587E+02  0.35368348157E+02  0.00000000000E+00 0.  1.
          5    1    4    4  501    0 -0.16396196659E+02 -0.40279181302E+02  0.18837580895E+02  0.47577038214E+02  0.41800000000E+01 0.  1.
         -5    1    4    4    0  501 -0.10825331667E+02  0.56931470226E+02 -0.70788007237E+02  0.91579443525E+02  0.41800000000E+01 0.  1.
</event>
<event>
11    1  0.5813833E-009  0.1662855E+03  0.7561462E-02  0.1081310E+00
         22   -1    0    0    0    0  0.00000000000E+00  0.00000000000E+00  0.64701145341E+02  0.64701145341E+02  0.00000000000E+00 0.  1.
         22   -1    0    0    0    0 -0.00000000000E+00 -0.00000000000E+00 -0.10788806196E+04  0.10788806196E+04  0.00000000000E+00 0. -1.
        -24    2    1    2    0    0 -0.77149979455E+02 -0.83797011908E+02 -0.71618178757E+03  0.73097644824E+03  0.91848552022E+02 0.  0.
         25    2    1    2    0    0  0.10388805635E+03  0.29162616287E+02 -0.25775024359E+03  0.30615374661E+03  0.12510692248E+03 0.  0.
         24    2    1    2    0    0 -0.26738076899E+02  0.54634395620E+02 -0.40247443108E+02  0.10645157009E+03  0.77538623645E+02 0.  0.
        -13    1    5    5    0    0 -0.25010171903E+02 -0.14253721341E+02 -0.18385357879E+02  0.34156970812E+02  0.00000000000E+00 0.  1.
         14    1    5    5    0    0 -0.17279049961E+01  0.68888116962E+02 -0.21862085229E+02  0.72294599278E+02  0.00000000000E+00 0. -1.
         11    1    3    3    0    0 -0.53149524223E+02 -0.10058520547E+03 -0.49747702017E+03  0.51031915610E+03  0.00000000000E+00 0. -1.
        -12    1    3    3    0    0 -0.24000455232E+02  0.16788193559E+02 -0.21870476740E+03  0.22065729215E+03  0.00000000000E+00 0.  1.
          5    1    4    4  501    0  0.63825563619E+02 -0.45467952703E+02 -0.14729975152E+03  0.16690034899E+03  0.41800000000E+01 0. -1.
         -5    1    4    4    0  501  0.40062492734E+02  0.74630568991E+02 -0.11045049207E+03  0.13925339762E+03  0.41800000000E+01 0. -1.
</event>
<event>
11    1  0.5813833E-009  0.1468774E+03  0.7561462E-02  0.1100113E+00
         22   -1    0    0    0    0  0.00000000000E+00  0.00000000000E+00  0.29735119415E+03  0.29735119415E+03  0.00000000000E+00 0.  1.
         22   -1    0    0    0    0 -0.00000000000E+00 -0.00000000000E+00 -0.25682297872E+03  0.25682297872E+03  0.00000000000E+00 0.  1.
         24    2    1    2    0    0  0.58480306536E+02 -0.50160273787E+02 -0.13698828275E+03  0.17716049549E+03  0.81756053169E+02 0.  0.
         25    2    1    2    0    0 -0.85071357294E+02  0.13857413043E+02 -0.26218232507E+02  0.15415891441E+03  0.12509361074E+03 0.  0.
        -24    2    1    2    0    0  0.26591050758E+02  0.36302860744E+02  0.20373473069E+03  0.22285476298E+03  0.78303404872E+02 0.  0.
        -13    1    3    3    0    0  0.44212924883E+02 -0.43690979138E+02 -0.14628549530E+03  0.15894379673E+03  0.00000000000E+00 0.  1.
         14    1    3    3    0    0  0.14267381654E+02 -0.64692946490E+01  0.92972125421E+01  0.18216698756E+02  0.00000000000E+00 0. -1.
         11    1    5    5    0    0  0.11462485694E+02 -0.12884463515E+01 -0.32157218517E+01  0.11974537123E+02  0.00000000000E+00 0. -1.
        -12    1    5    5    0    0  0.15128565064E+02  0.37591307095E+02  0.20695045254E+03  0.21088022585E+03  0.00000000000E+00 0.  1.
          5    1    4    4  501    0 -0.30548141217E+02  0.16078658823E+02 -0.73836182795E+02  0.81614744324E+02  0.41800000000E+01 0. -1.
         -5    1    4    4    0  501 -0.54523216077E+02 -0.22212457794E+01  0.47617950288E+02  0.72544170088E+02  0.41800000000E+01 0. -1.
</event>
<event>
11    1  0.5813833E-009  0.1984925E+03  0.7561462E-02  0.1055595E+00
         22   -1    0    0    0    0  0.00000000000E+00  0.00000000000E+00  0.22602929698E+04  0.22602929698E+04  0.00000000000E+00 0. -1.
         22   -1    0    0    0    0 -0.00000000000E+00 -0.00000000000E+00 -0.18915526292E+03  0.18915526292E+03  0.00000000000E+00 0.  1.
         24    2    1    2    0    0 -0.89097275856E+02  0.11939825486E+03 -0.10079820626E+03  0.19707664477E+03  0.80527372364E+02 0.  0.
         25    2    1    2    0    0  0.16177089151E+03 -0.11784988334E+03  0.32188675001E+03  0.39914812456E+03  0.12509887757E+03 0.  0.
        -24    2    1    2    0    0 -0.72673615655E+02 -0.15483715188E+01  0.18500491631E+04  0.18532234634E+04  0.80445306648E+02 0.  0.
        -13    1    3    3    0    0 -0.59957479719E+02  0.12162920461E+03 -0.98807132794E+02  0.16778382604E+03  0.00000000000E+00 0.  1.
         14    1    3    3    0    0 -0.29139796136E+02 -0.22309497534E+01 -0.19910734664E+01  0.29292818731E+02  0.00000000000E+00 0. -1.
         13    1    5    5    0    0 -0.55927577892E+02 -0.50620679071E+00  0.17900200628E+04  0.17908936248E+04  0.00000000000E+00 0. -1.
        -14    1    5    5    0    0 -0.16746037763E+02 -0.10421647281E+01  0.60029100361E+02  0.62329838587E+02  0.00000000000E+00 0.  1.
          5    1    4    4  501    0  0.14860521400E+03 -0.35932369534E+02  0.20712526379E+03  0.25747425523E+03  0.41800000000E+01 0. -1.
         -5    1    4    4    0  501  0.13165677516E+02 -0.81917513804E+02  0.11476148622E+03  0.14167386933E+03  0.41800000000E+01 0. -1.
</event>
<event>
11    1  0.5813833E-009  0.1565450E+03  0.7561462E-02  0.1090373E+00
         22   -1    0    0    0    0  0.00000000000E+00  0.00000000000E+00  0.27544541621E+03  0.27544541621E+03  0.00000000000E+00 0.  1.
         22   -1    0    0    0    0 -0.00000000000E+00 -0.00000000000E+00 -0.79495573592E+03  0.79495573592E+03  0.00000000000E+00 0.  1.
         24    2    1    2    0    0  0.35358233147E+02 -0.45727887669E+02 -0.63960737724E+03  0.64715836919E+03  0.79844307398E+02 0.  0.
         25    2    1    2    0    0  0.29077160986E+02  0.11267712758E+03 -0.79749979755E+02  0.18854618989E+03  0.12509192652E+03 0.  0.
        -24    2    1    2    0    0 -0.64435394133E+02 -0.66949239910E+02  0.19984703729E+03  0.23469659306E+03  0.80681669176E+02 0.  0.
        -13    1    3    3    0    0  0.17596976724E+02 -0.33239357346E+02 -0.60588197557E+03  0.60704816678E+03  0.00000000000E+00 0.  1.
         14    1    3    3    0    0  0.17761256423E+02 -0.12488530324E+02 -0.33725401668E+02  0.40110202406E+02  0.00000000000E+00 0. -1.
         13    1    5    5    0    0  0.12994031955E+01  0.15567944872E+02  0.13923561082E+02  0.20926416545E+02  0.00000000000E+00 0. -1.
        -14    1    5    5    0    0 -0.65734797328E+02 -0.82517184782E+02  0.18592347620E+03  0.21377017652E+03  0.00000000000E+00 0.  1.
          5    1    4    4  501    0  0.75863172375E+02  0.84200031158E+02 -0.38205239424E+02  0.11967447050E+03  0.41800000000E+01 0.  1.
         -5    1    4    4    0  501 -0.46786011390E+02  0.28477096421E+02 -0.41544740331E+02  0.68871719389E+02  0.41800000000E+01 0.  1.
</event>
<event>
11    1  0.5813833E-009  0.1558904E+03  0.7561462E-02  0.1091007E+00
         22   -1    0    0    0    0  0.00000000000E+00  0.00000000000E+00  0.11568683787E+04  0.11568683787E+04  0.00000000000E+00 0.  1.
         22   -1    0    0    0    0 -0.00000000000E+00 -0.00000000000E+00 -0.10665084583E+03  0.10665084583E+03  0.00000000000E+00 0.  1.
        -24    2    1    2    0    0  0.22602036215E+02 -0.94629875409E+02 -0.47299160827E+02  0.12933897070E+03  0.70892124857E+02 0.  0.
         25    2    1    2    0    0  0.19278517970E+02  0.64483675933E+02  0.31251558722E+03  0.34328399733E+03  0.12509238528E+03 0.  0.
         24    2    1    2    0    0 -0.41880554185E+02  0.30146199477E+02  0.78500110646E+03  0.79089625648E+03  0.81408704731E+02 0.  0.
        -13    1    5    5    0    0  0.23240957038E+01  0.10553019202E+02  0.58619763725E+03  0.58629722628E+03  0.00000000000E+00 0.  1.
         14    1    5    5    0    0 -0.44204649888E+02  0.19593180274E+02  0.19880346922E+03  0.20459903020E+03  0.00000000000E+00 0. -1.
         11    1    3    3    0    0 -0.27273206846E+01  0.14751205278E+00  0.13599100566E+02  0.13870673168E+02  0.00000000000E+00 0. -1.
        -12    1    3    3    0    0  0.25329356899E+02 -0.94777387462E+02 -0.60898261394E+02  0.11546829754E+03  0.00000000000E+00 0.  1.
          5    1    4    4  501    0 -0.11048530452E+02  0.41162141373E+02  0.29966618420E+03  0.30271056516E+03  0.41800000000E+01 0.  1.
         -5    1    4    4    0  501  0.30327048421E+02  0.23321534559E+02  0.12849403016E+02  0.40573432169E+02  0.41800000000E+01 0.  1.
</event>
<event>
11    1  0.5813833E-009  0.1431556E+03  0.7561462E-02  0.1104085E+00
         22   -1    0    0    0    0  0.00000000000E+00  0.00000000000E+00  0.15588906384E+04  0.15588906384E+04  0.00000000000E+00 0.  1.
         22   -1    0    0    0    0 -0.00000000000E+00 -0.00000000000E+00 -0.25543465596E+04  0.25543465596E+04  0.00000000000E+00 0.  1.
         24    2    1    2    0    0 -0.32270897176E+02 -0.41996649880E+02 -0.15674199889E+04  0.15704189561E+04  0.81272052373E+02 0.  0.
         25    2    1    2    0    0  0.10169751611E+03  0.37705220085E+02 -0.97662487980E+03  0.99055923164E+03  0.12508943652E+03 0.  0.
        -24    2    1    2    0    0 -0.69426618930E+02  0.42914297957E+01  0.15485889476E+04  0.15522590103E+04  0.80881608998E+02 0.  0.
        -11    1    3    3    0    0 -0.48308804149E+02 -0.57220126672E+02 -0.12014918455E+04  0.12038233003E+04  0.00000000000E+00 0.  1.
         12    1    3    3    0    0  0.16037906973E+02  0.15223476792E+02 -0.36592814344E+03  0.36659565582E+03  0.00000000000E+00 0. -1.
         13    1    5    5    0    0 -0.28902067621E+01 -0.22861374040E+02  0.14392966870E+03  0.14576263324E+03  0.00000000000E+00 0. -1.
        -14    1    5    5    0    0 -0.66536412168E+02  0.27152803836E+02  0.14046592789E+04  0.14064963770E+04  0.00000000000E+00 0.  1.
          5    1    4    4  501    0  0.56591939653E+02  0.67014861868E+02 -0.82424337256E+03  0.82890786517E+03  0.41800000000E+01 0.  1.
         -5    1    4    4    0  501  0.45105576453E+02 -0.29309641783E+02 -0.15238150725E+03  0.16165136647E+03  0.41800000000E+01 0.  1.
</event>
<event>
11    1  0.5813833E-009  0.1645307E+03  0.7561462E-02  0.1082892E+00
         22   -1    0    0    0    0  0.00000000000E+00  0.00000000000E+00  0.91141601554E+03  0.91141601554E+03  0.00000000000E+00 0. -1.
         22   -1    0    0    0    0 -0.00000000000E+00 -0.00000000000E+00 -0.24595675290E+03  0.24595675290E+03  0.00000000000E+00 0.  1.
        -24    2    1    2    0    0 -0.82446361395E+02  0.72516880198E+02 -0.17129005279E+03  0.21823564003E+03  0.78932958711E+02 0.  0.
         25    2    1    2    0    0  0.61135346665E+02 -0.69091244679E+02  0.73669312142E+02  0.17200007930E+03  0.12508288861E+03 0.  0.
         24    2    1    2    0    0  0.21311014730E+02 -0.34256355193E+01  0.76308000329E+03  0.76713704912E+03  0.75777743359E+02 0.  0.
        -11    1    5    5    0    0 -0.15853634841E+01 -0.34341070569E+02  0.21726614090E+03  0.21996908530E+03  0.00000000000E+00 0.  1.
         12    1    5    5    0    0  0.22896378214E+02  0.30915435049E+02  0.54581386238E+03  0.54716796382E+03  0.00000000000E+00 0. -1.
         11    1    3    3    0    0  0.13070022939E+02  0.29961471980E+01 -0.51252664398E+01  0.14355164706E+02  0.00000000000E+00 0. -1.
        -12    1    3    3    0    0 -0.95516384334E+02  0.69520733000E+02 -0.16616478635E+03  0.20388047532E+03  0.00000000000E+00 0.  1.
          5    1    4    4  501    0 -0.21556089413E+02 -0.14315905259E+02 -0.21931441083E+02  0.34177048470E+02  0.41800000000E+01 0.  1.
         -5    1    4    4    0  501  0.82691436078E+02 -0.54775339419E+02  0.95600753225E+02  0.13782303083E+03  0.41800000000E+01 0.  1.
</event>
<event>
11    1  0.5813833E-009  0.2027240E+03  0.7561462E-02  0.1052614E+00
         22   -1    0    0    0    0  0.00000000000E+00  0.00000000000E+00  0.11337255117E+04  0.11337255117E+04  0.00000000000E+00 0.  1.
         22   -1    0    0    0    0 -0.00000000000E+00 -0.00000000000E+00 -0.26337066453E+04  0.26337066453E+04  0.00000000000E+00 0. -1.
        -24    2    1    2    0    0  0.15329807697E+03  0.43478159365E+02 -0.25772642717E+04  0.25834013794E+04  0.79252194099E+02 0.  0.
         25    2    1    2    0    0 -0.16787953407E+03 -0.41908235799E+02  0.16957056916E+03  0.27265551002E+03  0.12508801314E+03 0.  0.
         24    2    1    2    0    0  0.14581457104E+02 -0.15699235659E+01  0.90771256897E+03  0.91137526762E+03  0.80297490714E+02 0.  0.
        -13    1    5    5    0    0 -0.25941531558E+02 -0.23322252913E+02  0.45370542902E+03  0.45504451086E+03  0.00000000000E+00 0.  1.
         14    1    5    5    0    0  0.40522988662E+02  0.21752329347E+02  0.45400713995E+03  0.45633075676E+03  0.00000000000E+00 0. -1.
         11    1    3    3    0    0  0.87563133503E+02  0.54610212116E+02 -0.11640813828E+04  0.11686466717E+04  0.00000000000E+00 0. -1.
        -12    1    3    3    0    0  0.65734943463E+02 -0.11132052751E+02 -0.14131828889E+04  0.14147547077E+04  0.00000000000E+00 0.  1.
          5    1    4    4  501    0 -0.16978278648E+03 -0.57283798643E+02  0.17959802866E+03  0.25373323091E+03  0.41800000000E+01 0.  1.
         -5    1    4    4    0  501  0.19032524064E+01  0.15375562844E+02 -0.10027459502E+02  0.18922279106E+02  0.41800000000E+01 0.  1.
</event>
<event>
11    1  0.5813833E-009  0.1286830E+03  0.7561462E-02  0.1120898E+00
         22   -1    0    0    0    0  0.00000000000E+00  0.00000000000E+00  0.19409796612E+03  0.19409796612E+03  0.00000000000E+00 0. -1.
         22   -1    0    0    0    0 -0.00000000000E+00 -0.00000000000E+00 -0.58159773387E+03  0.58159773387E+03  0.00000000000E+00 0.  1.
        -24    2    1    2    0    0 -0.25878249646E+02 -0.30856792481E+01 -0.45782902186E+03  0.46535991390E+03  0.79203730931E+02 0.  0.
         25    2    1    2    0    0 -0.68690815689E+01  0.63267555612E+00 -0.71438055226E+02  0.14421650172E+03  0.12508964415E+03 0.  0.
         24    2    1    2    0    0  0.32747331214E+02  0.24530036920E+01  0.14176730933E+03  0.16611928436E+03  0.80120170459E+02 0.  0.
        -13    1    5    5    0    0 -0.34335698493E+01 -0.30940070311E+02  0.26890992978E+02  0.41136393329E+02  0.00000000000E+00 0.  1.
         14    1    5    5    0    0  0.36180901064E+02  0.33393074003E+02  0.11487631635E+03  0.12498289104E+03  0.00000000000E+00 0. -1.
         13    1    3    3    0    0  0.26300695448E+02  0.56007823893E+01 -0.96389456201E+02  0.10007008849E+03  0.00000000000E+00 0. -1.
        -14    1    3    3    0    0 -0.52178945094E+02 -0.86864616374E+01 -0.36143956566E+03  0.36528982541E+03  0.00000000000E+00 0.  1.
          5    1    4    4  501    0  0.14208877480E+02  0.23483995331E+02 -0.98778296908E+02  0.10260611374E+03  0.41800000000E+01 0.  1.
         -5    1    4    4    0  501 -0.21077959048E+02 -0.22851319775E+02  0.27340241681E+02  0.41610387985E+02  0.41800000000E+01 0.  1.
</event>
<event>
11    1  0.5813833E-009  0.1579491E+03  0.7561462E-02  0.1089022E+00
         22   -1    0    0    0    0  0.00000000000E+00  0.00000000000E+00  0.87849912672E+03  0.87849912672E+03  0.00000000000E+00 0.  1.
         22   -1    0    0    0    0 -0.00000000000E+00 -0.00000000000E+00 -0.47056407574E+03  0.47056407574E+03  0.00000000000E+00 0.  1.
         24    2    1    2    0    0  0.74159059760E+02  0.59720451701E+02 -0.41989338618E+03  0.43783578481E+03  0.79521193454E+02 0.  0.
         25    2    1    2    0    0 -0.30075103701E+01 -0.12623862106E+03  0.18662850897E+03  0.25772774792E+03  0.12509259419E+03 0.  0.
        -24    2    1    2    0    0 -0.71151549390E+02  0.66518169357E+02  0.64119992819E+03  0.65349966973E+03  0.80232540758E+02 0.  0.
        -11    1    3    3    0    0  0.79627502923E+02  0.26542895267E+02 -0.35453213378E+03  0.36433240096E+03  0.00000000000E+00 0.  1.
         12    1    3    3    0    0 -0.54684431631E+01  0.33177556434E+02 -0.65361252400E+02  0.73503383847E+02  0.00000000000E+00 0. -1.
         11    1    5    5    0    0  0.17842073129E+02  0.94989581198E+01  0.12009409351E+03  0.12178325450E+03  0.00000000000E+00 0. -1.
        -12    1    5    5    0    0 -0.88993622519E+02  0.57019211237E+02  0.52110583467E+03  0.53171641524E+03  0.00000000000E+00 0.  1.
          5    1    4    4  501    0 -0.16237628152E+01  0.24849128134E+02  0.16556385743E+02  0.30194404839E+02  0.41800000000E+01 0. -1.
         -5    1    4    4    0  501 -0.13837475549E+01 -0.15108774919E+03  0.17007212323E+03  0.22753334308E+03  0.41800000000E+01 0. -1.
</event>
<event>
11    1  0.5813833E-009  0.1655465E+03  0.7561462E-02  0.1081974E+00
         22   -1    0    0    0    0  0.00000000000E+00  0.00000000000E+00  0.48607877269E+02  0.48607877269E+02  0.00000000000E+00 0.  1.
         22   -1    0    0    0    0 -0.00000000000E+00 -0.00000000000E+00 -0.30004522906E+04  0.30004522906E+04  0.00000000000E+00 0. -1.
         24    2    1    2    0    0 -0.79549521518E+02  0.46118271938E+02 -0.22537872479E+04  0.22573025077E+04  0.86038543842E+02 0.  0.
         25    2    1    2    0    0  0.16633410939E+03 -0.30556542853E-01 -0.58654927971E+03  0.62237834942E+03  0.12509082868E+03 0.  0.
        -24    2    1    2    0    0 -0.86784587870E+02 -0.46087715395E+02 -0.11150788574E+03  0.16937931078E+03  0.81238538492E+02 0.  0.
        -13    1    3    3    0    0 -0.32405264380E+02  0.64872056910E+02 -0.10897581899E+04  0.10921682093E+04  0.00000000000E+00 0.  1.
         14    1    3    3    0    0 -0.47144257139E+02 -0.18753784972E+02 -0.11640290579E+04  0.11651342983E+04  0.00000000000E+00 0. -1.
         13    1    5    5    0    0 -0.40759464736E+02  0.18112597990E+02 -0.61191253814E+02  0.75721659483E+02  0.00000000000E+00 0. -1.
        -14    1    5    5    0    0 -0.46025123135E+02 -0.64200313385E+02 -0.50316631923E+02  0.93657651296E+02  0.00000000000E+00 0.  1.
          5    1    4    4  501    0  0.12021848346E+03 -0.54446069471E+02 -0.31428993423E+03  0.34089953565E+03  0.41800000000E+01 0.  1.
         -5    1    4    4    0  501  0.46115625929E+02  0.54415512928E+02 -0.27225934547E+03  0.28147881377E+03  0.41800000000E+01 0.  1.
</event>
<event>
11    1  0.5813833E-009  0.3300993E+03  0.7561462E-02  0.9882003E-01
         22   -1    0    0    0    0  0.00000000000E+00  0.00000000000E+00  0.13280826549E+03  0.13280826549E+03  0.00000000000E+00 0.  1.
         22   -1    0    0    0    0 -0.00000000000E+00 -0.00000000000E+00 -0.37865502881E+04  0.37865502881E+04  0.00000000000E+00 0. -1.
        -24    2    1    2    0    0 -0.26669547602E+03 -0.14468307375E+03 -0.33770763735E+04  0.33916474431E+04  0.81042438769E+02 0.  0.
         25    2    1    2    0    0  0.28827777486E+03  0.16159893066E+03 -0.26672431338E+03  0.44272696734E+03  0.12508804255E+03 0.  0.
         24    2    1    2    0    0 -0.21582298841E+02 -0.16915856905E+02 -0.99413357013E+01  0.84984143160E+02  0.79821880427E+02 0.  0.
        -11    1    5    5    0    0 -0.93873290555E+01 -0.28977528061E+02 -0.40059214325E+02  0.50324544029E+02  0.00000000000E+00 0.  1.
         12    1    5    5    0    0 -0.12194969785E+02  0.12061671156E+02  0.30117878624E+02  0.34659599131E+02  0.00000000000E+00 0. -1.
         13    1    3    3    0    0 -0.25090395748E+03 -0.15513372312E+03 -0.31495238504E+04  0.31633083555E+04  0.00000000000E+00 0. -1.
        -14    1    3    3    0    0 -0.15791518546E+02  0.10450649369E+02 -0.22755252313E+03  0.22833908757E+03  0.00000000000E+00 0.  1.
          5    1    4    4  501    0  0.26317114108E+03  0.92124099875E+02 -0.20086731568E+03  0.34367288252E+03  0.41800000000E+01 0.  1.
         -5    1    4    4    0  501  0.25106633789E+02  0.69474830781E+02 -0.65856997700E+02  0.99054084814E+02  0.41800000000E+01 0.  1.
</event>
<event>
11    1  0.5813833E-009  0.3594324E+03  0.7561462E-02  0.9777673E-01
         22   -1    0    0    0    0  0.00000000000E+00  0.00000000000E+00  0.11581548919E+04  0.11581548919E+04  0.00000000000E+00 0.  1.
         22   -1    0    0    0    0 -0.00000000000E+00 -0.00000000000E+00 -0.39581960141E+03  0.39581960141E+03  0.00000000000E+00 0. -1.
        -24    2    1    2    0    0  0.18160067453E+03  0.38250125812E+03  0.24068926437E+03  0.49351726811E+03  0.79636389227E+02 0.  0.
         25    2    1    2    0    0 -0.10398022240E+03 -0.29420376096E+03 -0.15410664370E+03  0.36981641104E+03  0.12509028989E+03 0.  0.
         24    2    1    2    0    0 -0.77620452124E+02 -0.88297497155E+02  0.67575266980E+03  0.69064081414E+03  0.80756924299E+02 0.  0.
        -11    1    5    5    0    0 -0.47293784644E+02 -0.98861770916E+02  0.55316299921E+03  0.56391458175E+03  0.00000000000E+00 0.  1.
         12    1    5    5    0    0 -0.30326667480E+02  0.10564273761E+02  0.12258967059E+03  0.12672623239E+03  0.00000000000E+00 0. -1.
         11    1    3    3    0    0  0.99009228547E+02  0.12951462116E+03  0.70430646721E+02  0.17758755708E+03  0.00000000000E+00 0. -1.
        -12    1    3    3    0    0  0.82591445979E+02  0.25298663695E+03  0.17025861765E+03  0.31592971103E+03  0.00000000000E+00 0.  1.
          5    1    4    4  501    0 -0.38558791901E+02 -0.11772264230E+03 -0.13066310944E+03  0.18009919908E+03  0.41800000000E+01 0. -1.
         -5    1    4    4    0  501 -0.65421430501E+02 -0.17648111866E+03 -0.23443534267E+02  0.18971721195E+03  0.41800000000E+01 0. -1.
</event>
<event>
11    1  0.5813833E-009  0.1584349E+03  0.7561462E-02  0.1088559E+00
         22   -1    0    0    0    0  0.00000000000E+00  0.00000000000E+00  0.82236089212E+03  0.82236089212E+03  0.00000000000E+00 0. -1.
         22   -1    0    0    0    0 -0.00000000000E+00 -0.00000000000E+00 -0.53228136894E+03  0.53228136894E+03  0.00000000000E+00 0. -1.
        -24    2    1    2    0    0  0.30512576497E+02  0.42637116822E+00 -0.48581666367E+03  0.49224520943E+03  0.73186859371E+02 0.  0.
         25    2    1    2    0    0  0.65031858314E+02  0.33946483657E+02  0.10619625884E+03  0.17974221679E+03  0.12509241687E+03 0.  0.
         24    2    1    2    0    0 -0.95544434810E+02 -0.34372854825E+02  0.66969992802E+03  0.68265483484E+03  0.84908172548E+02 0.  0.
        -11    1    5    5    0    0 -0.29112323578E+02  0.22174955641E+02  0.10363282727E+03  0.10990459012E+03  0.00000000000E+00 0.  1.
         12    1    5    5    0    0 -0.66432111233E+02 -0.56547810466E+02  0.56606710075E+03  0.57275024472E+03  0.00000000000E+00 0. -1.
         13    1    3    3    0    0  0.21684550106E+02  0.22763509733E+02 -0.43394889322E+03  0.43508624319E+03  0.00000000000E+00 0. -1.
        -14    1    3    3    0    0  0.88280263902E+01 -0.22337138565E+02 -0.51867770455E+02  0.57158966236E+02  0.00000000000E+00 0.  1.
          5    1    4    4  501    0  0.14986071383E+02  0.62088514342E+02  0.10401695848E+03  0.12213339429E+03  0.41800000000E+01 0.  1.
         -5    1    4    4    0  501  0.50045786931E+02 -0.28142030685E+02  0.21793003634E+01  0.57608822507E+02  0.41800000000E+01 0.  1.
</event>
<event>
11    1  0.5813833E-009  0.1276054E+03  0.7561462E-02  0.1122247E+00
         22   -1    0    0    0    0  0.00000000000E+00  0.00000000000E+00  0.12509907211E+04  0.12509907211E+04  0.00000000000E+00 0.  1.
         22   -1    0    0    0    0 -0.00000000000E+00 -0.00000000000E+00 -0.29355870125E+03  0.29355870125E+03  0.00000000000E+00 0.  1.
        -24    2    1    2    0    0  0.83874187673E+01  0.11573865319E+02 -0.27256744398E+03  0.28458992413E+03  0.80586042497E+02 0.  0.
         25    2    1    2    0    0  0.13408634847E+02 -0.24471586357E+02  0.30200512617E+03  0.32807426675E+03  0.12508788206E+03 0.  0.
         24    2    1    2    0    0 -0.21796053615E+02  0.12897721038E+02  0.92799433763E+03  0.93188523145E+03  0.81210681380E+02 0.  0.
        -13    1    5    5    0    0 -0.50625231597E+02  0.13795690252E+02  0.45569050804E+03  0.45870150889E+03  0.00000000000E+00 0.  1.
         14    1    5    5    0    0  0.28829177982E+02 -0.89796921368E+00  0.47230382959E+03  0.47318372256E+03  0.00000000000E+00 0. -1.
         11    1    3    3    0    0 -0.28914804613E+02 -0.41399123355E+01 -0.46396548873E+02  0.54825582963E+02  0.00000000000E+00 0. -1.
        -12    1    3    3    0    0  0.37302223380E+02  0.15713777655E+02 -0.22617089511E+03  0.22976434117E+03  0.00000000000E+00 0.  1.
          5    1    4    4  501    0 -0.36922754545E+02  0.14544350128E+02  0.33537996348E+02  0.52125785585E+02  0.41800000000E+01 0.  1.
         -5    1    4    4    0  501  0.50331389392E+02 -0.39015936485E+02  0.26846712983E+03  0.27594848116E+03  0.41800000000E+01 0.  1.
</event>
<event>
11    1  0.5813833E-009  0.1633312E+03  0.7561462E-02  0.1083985E+00
         22   -1    0    0    0    0  0.00000000000E+00  0.00000000000E+00  0.11277984643E+03  0.11277984643E+03  0.00000000000E+00 0.  1.
         22   -1    0    0    0    0 -0.00000000000E+00 -0.00000000000E+00 -0.19974620146E+04  0.19974620146E+04  0.00000000000E+00 0.  1.
         24    2    1    2    0    0 -0.88964064805E+01  0.45461234609E+02 -0.14862622410E+04  0.14892705976E+04  0.82496024570E+02 0.  0.
         25    2    1    2    0    0  0.58399348154E+02  0.50826976859E+02 -0.45215452021E+03  0.47548293956E+03  0.12508577145E+03 0.  0.
        -24    2    1    2    0    0 -0.49502941674E+02 -0.96288211468E+02  0.53734593053E+02  0.14548832383E+03  0.80978299429E+02 0.  0.
        -13    1    3    3    0    0 -0.21094158879E+02 -0.17583471291E+02 -0.29379318208E+03  0.29507384811E+03  0.00000000000E+00 0.  1.
         14    1    3    3    0    0  0.12197752399E+02  0.63044705901E+02 -0.11924690589E+04  0.11941967495E+04  0.00000000000E+00 0. -1.
         11    1    5    5    0    0  0.11717767776E+02 -0.45500833995E+01  0.30205280208E+02  0.32716483507E+02  0.00000000000E+00 0. -1.
        -12    1    5    5    0    0 -0.61220709450E+02 -0.91738128068E+02  0.23529312845E+02  0.11277184032E+03  0.00000000000E+00 0.  1.
          5    1    4    4  501    0 -0.23730718074E+02  0.52990030818E+02 -0.26039779386E+03  0.26682498719E+03  0.41800000000E+01 0.  1.
         -5    1    4    4    0  501  0.82130066228E+02 -0.21630539592E+01 -0.19175672636E+03  0.20865795236E+03  0.41800000000E+01 0.  1.
</event>
<event>
11    1  0.5813833E-009  0.4046108E+03  0.7561462E-02  0.9636251E-01
         22   -1    0    0    0    0  0.00000000000E+00  0.00000000000E+00  0.27871191510E+04  0.27871191510E+04  0.00000000000E+00 0.  1.
         22   -1    0    0    0    0 -0.00000000000E+00 -0.00000000000E+00 -0.11313411802E+03  0.11313411802E+03  0.00000000000E+00 0. -1.
        -24    2    1    2    0    0 -0.16205526128E+02 -0.15270371756E+03  0.12509812415E+03  0.21397012433E+03  0.80948310697E+02 0.  0.
         25    2    1    2    0    0 -0.30348782137E+03 -0.17404205373E+03  0.13739586207E+04  0.14233079722E+04  0.12509115947E+03 0.  0.
         24    2    1    2    0    0  0.31969334750E+03  0.32674577130E+03  0.11749282881E+04  0.12629751724E+04  0.75386793001E+02 0.  0.
        -13    1    5    5    0    0  0.30044538191E+03  0.27615892287E+03  0.10072092779E+04  0.10867390247E+04  0.00000000000E+00 0.  1.
         14    1    5    5    0    0  0.19247965585E+02  0.50586848430E+02  0.16771901013E+03  0.17623614774E+03  0.00000000000E+00 0. -1.
         13    1    3    3    0    0  0.28745829283E+02 -0.51902284050E+02  0.66095250552E+02  0.88818646332E+02  0.00000000000E+00 0. -1.
        -14    1    3    3    0    0 -0.44951355411E+02 -0.10080143352E+03  0.59002873594E+02  0.12515147800E+03  0.00000000000E+00 0.  1.
          5    1    4    4  501    0 -0.52671677798E+02  0.16838273562E+02  0.17301151942E+03  0.18168184100E+03  0.41800000000E+01 0.  1.
         -5    1    4    4    0  501 -0.25081614357E+03 -0.19088032729E+03  0.12009471013E+04  0.12416261312E+04  0.41800000000E+01 0.  1.
</event>
<event>
11    1  0.5813833E-009  0.1445667E+03  0.7561462E-02  0.1102563E+00
         22   -1    0    0    0    0  0.00000000000E+00  0.00000000000E+00  0.62225013605E+02  0.62225013605E+02  0.00000000000E+00 0.  1.
         22   -1    0    0    0    0 -0.00000000000E+00 -0.00000000000E+00 -0.70597093347E+03  0.70597093347E+03  0.00000000000E+00 0.  1.
         24    2    1    2    0    0 -0.57085247624E+02 -0.33621942570E+02 -0.34120934536E+03  0.35613026067E+03  0.77561489719E+02 0.  0.
         25    2    1    2    0    0  0.58805252976E+02  0.72482881817E+02 -0.27890749232E+03  0.31960758569E+03  0.12509114127E+03 0.  0.
        -24    2    1    2    0    0 -0.17200053521E+01 -0.38860939247E+02 -0.23629082182E+02  0.92458100709E+02  0.80480033825E+02 0.  0.
        -13    1    3    3    0    0 -0.35008369445E+02 -0.10020368549E+02 -0.30668847072E+03  0.30884269748E+03  0.00000000000E+00 0.  1.
         14    1    3    3    0    0 -0.22076878179E+02 -0.23601574021E+02 -0.34520874641E+02  0.47287563189E+02  0.00000000000E+00 0. -1.
         11    1    5    5    0    0  0.27126334784E+02 -0.26108124268E+02 -0.41640936533E+02  0.56137685978E+02  0.00000000000E+00 0. -1.
        -12    1    5    5    0    0 -0.28846340136E+02 -0.12752814979E+02  0.18011854351E+02  0.36320414732E+02  0.00000000000E+00 0.  1.
          5    1    4    4  501    0 -0.21619117754E+00  0.41955764557E+02 -0.11034073669E+02  0.43583897255E+02  0.41800000000E+01 0. -1.
         -5    1    4    4    0  501  0.59021444154E+02  0.30527117260E+02 -0.26787341865E+03  0.27602368844E+03  0.41800000000E+01 0. -1.
</event>
<event>
11    1  0.5813833E-009  0.1369334E+03  0.7561462E-02  0.1111032E+00
         22   -1    0    0    0    0  0.00000000000E+00  0.00000000000E+00  0.11538942938E+03  0.11538942938E+03  0.00000000000E+00 0.  1.
         22   -1    0    0    0    0 -0.00000000000E+00 -0.00000000000E+00 -0.11600748519E+04  0.11600748519E+04  0.00000000000E+00 0.  1.
        -24    2    1    2    0    0 -0.51157500396E+02 -0.13245889094E+02 -0.93413892645E+03  0.93907749094E+03  0.80364523648E+02 0.  0.
         25    2    1    2    0    0  0.86178903854E+02  0.29000063821E+02 -0.16671384121E+03  0.22739858771E+03  0.12509518644E+03 0.  0.
         24    2    1    2    0    0 -0.35021403458E+02 -0.15754174727E+02  0.56167345180E+02  0.10898820260E+03  0.85140853407E+02 0.  0.
        -11    1    5    5    0    0  0.15591505865E+02 -0.32283949346E+02  0.39162830560E+02  0.53094969046E+02  0.00000000000E+00 0.  1.
         12    1    5    5    0    0 -0.50612909323E+02  0.16529774619E+02  0.17004514620E+02  0.55893233549E+02  0.00000000000E+00 0. -1.
         13    1    3    3    0    0 -0.31581148804E+02  0.69088892944E+01 -0.11501911647E+03  0.11947593425E+03  0.00000000000E+00 0. -1.
        -14    1    3    3    0    0 -0.19576351592E+02 -0.20154778388E+02 -0.81911980998E+03  0.81960155669E+03  0.00000000000E+00 0.  1.
          5    1    4    4  501    0 -0.21942727330E+02 -0.56505520447E+01  0.29269098310E+01  0.23226089258E+02  0.41800000000E+01 0. -1.
         -5    1    4    4    0  501  0.10812163118E+03  0.34650615866E+02 -0.16964075105E+03  0.20417249845E+03  0.41800000000E+01 0. -1.
</event>
<event>
11    1  0.5813833E-009  0.1995834E+03  0.7561462E-02  0.1054819E+00
         22   -1    0    0    0    0  0.00000000000E+00  0.00000000000E+00  0.60555500009E+02  0.60555500009E+02  0.00000000000E+00 0. -1.
         22   -1    0    0    0    0 -0.00000000000E+00 -0.00000000000E+00 -0.16650127838E+04  0.16650127838E+04  0.00000000000E+00 0. -1.
        -24    2    1    2    0    0 -0.16637020039E+03 -0.10013371088E+03 -0.11771146226E+04  0.11957271287E+04  0.80366211990E+02 0.  0.
         25    2    1    2    0    0  0.80638402315E+02  0.28245331899E+02 -0.31610456619E+03  0.35053036110E+03  0.12509630923E+03 0.  0.
         24    2    1    2    0    0  0.85731798071E+02  0.71888378979E+02 -0.11123809504E+03  0.17931079401E+03  0.85208959790E+02 0.  0.
        -13    1    5    5    0    0  0.38337576818E+02  0.82146655445E+02 -0.59690776595E+02  0.10853953937E+03  0.00000000000E+00 0.  1.
         14    1    5    5    0    0  0.47394221253E+02 -0.10258276466E+02 -0.51547318442E+02  0.70771254636E+02  0.00000000000E+00 0. -1.
         11    1    3    3    0    0 -0.76797711270E+02 -0.73148635198E+02 -0.80851047856E+03  0.81543718656E+03  0.00000000000E+00 0. -1.
        -12    1    3    3    0    0 -0.89572489116E+02 -0.26985075680E+02 -0.36860414403E+03  0.38028994216E+03  0.00000000000E+00 0.  1.
          5    1    4    4  501    0  0.32816476014E+02  0.55538801488E+02 -0.58864020794E+02  0.87429542563E+02  0.41800000000E+01 0.  1.
         -5    1    4    4    0  501  0.47821926301E+02 -0.27293469588E+02 -0.25724054540E+03  0.26310081854E+03  0.41800000000E+01 0.  1.
</event>
<event>
11    1  0.5813833E-009  0.1306985E+03  0.7561462E-02  0.1118414E+00
         22   -1    0    0    0    0  0.00000000000E+00  0.00000000000E+00  0.10163936460E+03  0.10163936460E+03  0.00000000000E+00 0. -1.
         22   -1    0    0    0    0 -0.00000000000E+00 -0.00000000000E+00 -0.84558821484E+03  0.84558821484E+03  0.00000000000E+00 0. -1.
        -24    2    1    2    0    0  0.36305039673E+02 -0.83189593558E+00 -0.69454005323E+03  0.70019702385E+03  0.81063177274E+02 0.  0.
         25    2    1    2    0    0 -0.60388853108E+02 -0.26725578851E+01 -0.78242436923E+02  0.15944639628E+03  0.12508924097E+03 0.  0.
         24    2    1    2    0    0  0.24083813435E+02  0.35044538207E+01  0.28833639916E+02  0.87584159308E+02  0.79039831128E+02 0.  0.
        -13    1    5    5    0    0 -0.15293896663E+02  0.22274313509E+02  0.34252367650E+02  0.43626517247E+02  0.00000000000E+00 0.  1.
         14    1    5    5    0    0  0.39377710098E+02 -0.18769859688E+02 -0.54187277348E+01  0.43957642061E+02  0.00000000000E+00 0. -1.
         13    1    3    3    0    0  0.11007940210E+02 -0.61816115054E+01 -0.63687750140E+03  0.63700262076E+03  0.00000000000E+00 0. -1.
        -14    1    3    3    0    0  0.25297099463E+02  0.53497155698E+01 -0.57662551828E+02  0.63194403085E+02  0.00000000000E+00 0.  1.
          5    1    4    4  501    0 -0.41354691165E+02 -0.44613619377E+02  0.80868875386E+01  0.61509801376E+02  0.41800000000E+01 0.  1.
         -5    1    4    4    0  501 -0.19034161943E+02  0.41941061492E+02 -0.86329324461E+02  0.97936594907E+02  0.41800000000E+01 0.  1.
</event>
<event>
11    1  0.5813833E-009  0.1786745E+03  0.7561462E-02  0.1070720E+00
         22   -1    0    0    0    0  0.00000000000E+00  0.00000000000E+00  0.35238912037E+03  0.35238912037E+03  0.00000000000E+00 0.  1.
         22   -1    0    0    0    0 -0.00000000000E+00 -0.00000000000E+00 -0.65205054297E+03  0.65205054297E+03  0.00000000000E+00 0.  1.
        -24    2    1    2    0    0 -0.11112194754E+03  0.25164660656E+02 -0.28220337098E+03  0.31559413468E+03  0.83543808136E+02 0.  0.
         25    2    1    2    0    0  0.15247214227E+03 -0.14658271068E+01 -0.31789671093E+03  0.37410666764E+03  0.12509027592E+03 0.  0.
         24    2    1    2    0    0 -0.41350194729E+02 -0.23698833549E+02  0.30043865931E+03  0.31473886102E+03  0.80781738740E+02 0.  0.
        -11    1    5    5    0    0 -0.16491847645E+02  0.71547809687E+01  0.24977819854E+03  0.25042428076E+03  0.00000000000E+00 0.  1.
         12    1    5    5    0    0 -0.24858347084E+02 -0.30853614518E+02  0.50660460770E+02  0.64314580259E+02  0.00000000000E+00 0. -1.
         13    1    3    3    0    0 -0.64936047545E+02  0.14525445018E+02 -0.64074067488E+02  0.92375131654E+02  0.00000000000E+00 0. -1.
        -14    1    3    3    0    0 -0.46185899997E+02  0.10639215638E+02 -0.21812930349E+03  0.22321900302E+03  0.00000000000E+00 0.  1.
          5    1    4    4  501    0  0.87075733563E+01  0.62430442684E+01 -0.15989630852E+03  0.16030938624E+03  0.41800000000E+01 0.  1.
         -5    1    4    4    0  501  0.14376456891E+03 -0.77088713752E+01 -0.15800040241E+03  0.21379728140E+03  0.41800000000E+01 0.  1.
</event>
<event>
11    1  0.5813833E-009  0.1356822E+03  0.7561462E-02  0.1112478E+00
         22   -1    0    0    0    0  0.00000000000E+00  0.00000000000E+00  0.53074396696E+03  0.53074396696E+03  0.00000000000E+00 0.  1.
         22   -1    0    0    0    0 -0.00000000000E+00 -0.00000000000E+00 -0.13943985351E+04  0.13943985351E+04  0.00000000000E+00 0.  1.
         24    2    1    2    0    0  0.49987012213E+02  0.16457059965E+02 -0.13642972870E+04  0.13675527691E+04  0.78255687130E+02 0.  0.
         25    2    1    2    0    0 -0.42867627349E+02 -0.13496535989E+02  0.16294362045E+03  0.21027965433E+03  0.12508844720E+03 0.  0.
        -24    2    1    2    0    0 -0.71193848638E+01 -0.29605239761E+01  0.33769909842E+03  0.34731007867E+03  0.80772268295E+02 0.  0.
        -13    1    3    3    0    0  0.49522514745E+02 -0.18559623815E+00 -0.13056281680E+04  0.13065670388E+04  0.00000000000E+00 0.  1.
         14    1    3    3    0    0  0.46449746797E+00  0.16642656203E+02 -0.58669119086E+02  0.60985730280E+02  0.00000000000E+00 0. -1.
         11    1    5    5    0    0 -0.24672558150E+02 -0.78894728678E+01  0.32467900385E+02  0.41534846373E+02  0.00000000000E+00 0. -1.
        -12    1    5    5    0    0  0.17553173286E+02  0.49289488917E+01  0.30523119804E+03  0.30577523229E+03  0.00000000000E+00 0.  1.
          5    1    4    4  501    0  0.42278598021E+01  0.48732692302E+02  0.34774531553E+02  0.60162201940E+02  0.41800000000E+01 0.  1.
         -5    1    4    4    0  501 -0.47095487151E+02 -0.62229228291E+02  0.12816908890E+03  0.15011745239E+03  0.41800000000E+01 0.  1.
</event>
<event>
11    1  0.5813833E-009  0.1401023E+03  0.7561462E-02  0.1107444E+00
         22   -1    0    0    0    0  0.00000000000E+00  0.00000000000E+00  0.42814129439E+02  0.42814129439E+02  0.00000000000E+00 0.  1.
         22   -1    0    0    0    0 -0.00000000000E+00 -0.00000000000E+00 -0.12511345306E+04  0.12511345306E+04  0.00000000000E+00 0.  1.
         24    2    1    2    0    0 -0.21422478823E+01  0.61579764307E+02 -0.87132245635E+03  0.87716589539E+03  0.80128200398E+02 0.  0.
         25    2    1    2    0    0 -0.29734520390E+02 -0.72766706944E+02 -0.26591448526E+03  0.30419941915E+03  0.12509051841E+03 0.  0.
        -24    2    1    2    0    0  0.31876768272E+02  0.11186942637E+02 -0.71083459553E+02  0.11258334550E+03  0.80503884512E+02 0.  0.
        -11    1    3    3    0    0  0.12896464507E+02  0.75743102087E+02 -0.57288914876E+03  0.57801843662E+03  0.00000000000E+00 0.  1.
         12    1    3    3    0    0 -0.15038712389E+02 -0.14163337780E+02 -0.29843330759E+03  0.29914745877E+03  0.00000000000E+00 0. -1.
         13    1    5    5    0    0 -0.15808276513E+02 -0.22820069898E+02 -0.15289698566E+02  0.31692776444E+02  0.00000000000E+00 0. -1.
        -14    1    5    5    0    0  0.47685044785E+02  0.34007012535E+02 -0.55793760987E+02  0.80890569060E+02  0.00000000000E+00 0.  1.
          5    1    4    4  501    0 -0.16514409279E+02 -0.10514184737E+03 -0.23210934111E+03  0.25538158197E+03  0.41800000000E+01 0. -1.
         -5    1    4    4    0  501 -0.13220111111E+02  0.32375140424E+02 -0.33805144151E+02  0.48817837174E+02  0.41800000000E+01 0. -1.
</event>
<event>
11    1  0.5813833E-009  0.1693800E+03  0.7561462E-02  0.1078572E+00
         22   -1    0    0    0    0  0.00000000000E+00  0.00000000000E+00  0.16565285579E+03  0.16565285579E+03  0.00000000000E+00 0. -1.
         22   -1    0    0    0    0 -0.00000000000E+00 -0.00000000000E+00 -0.71043298900E+03  0.71043298900E+03  0.00000000000E+00 0. -1.
         24    2    1    2    0    0  0.38065152528E+02  0.10146881483E+03 -0.31358853337E+03  0.34139581272E+03  0.80426714842E+02 0.  0.
         25    2    1    2    0    0 -0.49303678910E+02 -0.11268085605E+03 -0.35063538866E+03  0.39207106647E+03  0.12508683906E+03 0.  0.
        -24    2    1    2    0    0  0.11238526382E+02  0.11212041216E+02  0.11944378883E+03  0.14261896560E+03  0.76297682256E+02 0.  0.
        -11    1    3    3    0    0 -0.11165753199E+01  0.25743161086E+02 -0.12828904670E+02  0.28784333902E+02  0.00000000000E+00 0.  1.
         12    1    3    3    0    0  0.39181727848E+02  0.75725653748E+02 -0.30075962870E+03  0.31261147882E+03  0.00000000000E+00 0. -1.
         11    1    5    5    0    0 -0.16930087942E+02  0.26171418409E+02  0.10116489548E+03  0.10585795717E+03  0.00000000000E+00 0. -1.
        -12    1    5    5    0    0  0.28168614324E+02 -0.14959377193E+02  0.18278893344E+02  0.36761008431E+02  0.00000000000E+00 0.  1.
          5    1    4    4  501    0 -0.42503944297E+02 -0.78354615855E+02 -0.82184925695E+02  0.12131721031E+03  0.41800000000E+01 0. -1.
         -5    1    4    4    0  501 -0.67997346126E+01 -0.34326240194E+02 -0.26845046296E+03  0.27075385615E+03  0.41800000000E+01 0. -1.
</event>
<event>
11    1  0.5813833E-009  0.1430832E+03  0.7561462E-02  0.1104163E+00
         22   -1    0    0    0    0  0.00000000000E+00  0.00000000000E+00  0.10333601496E+03  0.10333601496E+03  0.00000000000E+00 0.  1.
         22   -1    0    0    0    0 -0.00000000000E+00 -0.00000000000E+00 -0.10153706147E+04  0.10153706147E+04  0.00000000000E+00 0.  1.
        -24    2    1    2    0    0  0.21151992070E+02  0.24371935811E+02 -0.74795604220E+03  0.75286927776E+03  0.79577071546E+02 0.  0.
         25    2    1    2    0    0 -0.58664523643E+02 -0.78330962678E+02 -0.20704381690E+03  0.26094328501E+03  0.12508792839E+03 0.  0.
         24    2    1    2    0    0  0.37512531573E+02  0.53959026867E+02  0.42965259329E+02  0.10489406692E+03  0.69555626375E+02 0.  0.
        -11    1    5    5    0    0  0.58213493146E+02  0.38047999322E+02  0.32530330614E+02  0.76776841864E+02  0.00000000000E+00 0.  1.
         12    1    5    5    0    0 -0.20700961573E+02  0.15911027544E+02  0.10434928716E+02  0.28117225056E+02  0.00000000000E+00 0. -1.
         13    1    3    3    0    0 -0.18177965196E+02 -0.84461196052E+01 -0.65617324564E+02  0.68610557773E+02  0.00000000000E+00 0. -1.
        -14    1    3    3    0    0  0.39329957266E+02  0.32818055417E+02 -0.68233871763E+03  0.68425871999E+03  0.00000000000E+00 0.  1.
          5    1    4    4  501    0 -0.38532301764E+02 -0.80778983327E+02 -0.50125426905E+02  0.10266456667E+03  0.41800000000E+01 0. -1.
         -5    1    4    4    0  501 -0.20132221880E+02  0.24480206494E+01 -0.15691838999E+03  0.15827871835E+03  0.41800000000E+01 0. -1.
</event>
<event>
11    1  0.5813833E-009  0.2350181E+03  0.7561462E-02  0.1032197E+00
         22   -1    0    0    0    0  0.00000000000E+00  0.00000000000E+00  0.54552241438E+03  0.54552241438E+03  0.00000000000E+00 0. -1.
         22   -1    0    0    0    0 -0.00000000000E+00 -0.00000000000E+00 -0.50980220126E+03  0.50980220126E+03  0.00000000000E+00 0.  1.
        -24    2    1    2    0    0 -0.32749717032E+02 -0.64949671928E+02 -0.38091590637E+03  0.39620804108E+03  0.81196553140E+02 0.  0.
         25    2    1    2    0    0 -0.12886182404E+03 -0.77991740007E+02  0.14543177089E+02  0.19633554506E+03  0.12509221018E+03 0.  0.
         24    2    1    2    0    0  0.16161154107E+03  0.14294141193E+03  0.40209294240E+03  0.46278102951E+03  0.77051992162E+02 0.  0.
        -11    1    5    5    0    0  0.50340649373E+02  0.94815773043E+02  0.17336445578E+03  0.20391038798E+03  0.00000000000E+00 0.  1.
         12    1    5    5    0    0  0.11127089170E+03  0.48125638892E+02  0.22872848661E+03  0.25887064153E+03  0.00000000000E+00 0. -1.
         11    1    3    3    0    0  0.14321396629E+02 -0.16234297941E+02 -0.21668774894E+02  0.30629897755E+02  0.00000000000E+00 0. -1.
        -12    1    3    3    0    0 -0.47071113661E+02 -0.48715373987E+02 -0.35924713147E+03  0.36557814332E+03  0.00000000000E+00 0.  1.
          5    1    4    4  501    0 -0.59789115631E+02  0.85366683043E+00  0.57420224311E+02  0.83006154320E+02  0.41800000000E+01 0. -1.
         -5    1    4    4    0  501 -0.69072708408E+02 -0.78845406837E+02 -0.42877047223E+02  0.11332939074E+03  0.41800000000E+01 0. -1.
</event>
<event>
11    1  0.5813833E-009  0.1364414E+03  0.7561462E-02  0.1111599E+00
         22   -1    0    0    0    0  0.00000000000E+00  0.00000000000E+00  0.58681933800E+03  0.58681933800E+03  0.00000000000E+00 0.  1.
         22   -1    0    0    0    0 -0.00000000000E+00 -0.00000000000E+00 -0.64598915105E+03  0.64598915105E+03  0.00000000000E+00 0.  1.
         24    2    1    2    0    0  0.31052617566E+02 -0.33398426350E+02 -0.46115815282E+03  0.47036620808E+03  0.80608981193E+02 0.  0.
         25    2    1    2    0    0  0.10342598691E+02  0.68885675118E+02 -0.14666652019E+03  0.20496408623E+03  0.12508798069E+03 0.  0.
        -24    2    1    2    0    0 -0.41395216257E+02 -0.35487248768E+02  0.54865485997E+03  0.55747819474E+03  0.82382482926E+02 0.  0.
        -13    1    3    3    0    0  0.53074341617E+02 -0.12153090631E+02 -0.37507357580E+03  0.37900497440E+03  0.00000000000E+00 0.  1.
         14    1    3    3    0    0 -0.22021724052E+02 -0.21245335719E+02 -0.86084577019E+02  0.91361233686E+02  0.00000000000E+00 0. -1.
         11    1    5    5    0    0 -0.24179163976E+01  0.10986930572E+02  0.89503032285E+01  0.14375913570E+02  0.00000000000E+00 0. -1.
        -12    1    5    5    0    0 -0.38977299859E+02 -0.46474179340E+02  0.53970455674E+03  0.54310228117E+03  0.00000000000E+00 0.  1.
          5    1    4    4  501    0 -0.32400058041E+01  0.94635365054E+02 -0.14774352066E+03  0.17553338786E+03  0.41800000000E+01 0.  1.
         -5    1    4    4    0  501  0.13582604495E+02 -0.25749689935E+02  0.10770004639E+01  0.29430698372E+02  0.41800000000E+01 0.  1.
</event>
<event>
11    1  0.5813833E-009  0.1555712E+03  0.7561462E-02  0.1091318E+00
         22   -1    0    0    0    0  0.00000000000E+00  0.00000000000E+00  0.92731469993E+02  0.92731469993E+02  0.00000000000E+00 0.  1.
         22   -1    0    0    0    0 -0.00000000000E+00 -0.00000000000E+00 -0.21396596186E+04  0.21396596186E+04  0.00000000000E+00 0.  1.
        -24    2    1    2    0    0 -0.13849295030E+02  0.94267882997E+02 -0.16291019603E+04  0.16335595146E+04  0.73927355705E+02 0.  0.
         25    2    1    2    0    0  0.50802827930E+02 -0.69321222494E+02 -0.46799115347E+03  0.49198973132E+03  0.12510722115E+03 0.  0.
         24    2    1    2    0    0 -0.36953532900E+02 -0.24946660503E+02  0.50164965205E+02  0.10684184264E+03  0.83130957774E+02 0.  0.
        -13    1    5    5    0    0 -0.10529222405E+02  0.30421338839E+02  0.23957492924E+02  0.40128342209E+02  0.00000000000E+00 0.  1.
         14    1    5    5    0    0 -0.26424310495E+02 -0.55367999342E+02  0.26207472281E+02  0.66713500431E+02  0.00000000000E+00 0. -1.
         13    1    3    3    0    0 -0.13386982520E+02  0.24320355951E+02 -0.13519619237E+03  0.13801703318E+03  0.00000000000E+00 0. -1.
        -14    1    3    3    0    0 -0.46231251044E+00  0.69947527046E+02 -0.14939057680E+04  0.14955424814E+04  0.00000000000E+00 0.  1.
          5    1    4    4  501    0  0.46479299644E+02 -0.90789297269E+02 -0.21483840671E+03  0.23785717393E+03  0.41800000000E+01 0.  1.
         -5    1    4    4    0  501  0.43235282856E+01  0.21468074775E+02 -0.25315274676E+03  0.25413255739E+03  0.41800000000E+01 0.  1.
</event>
<event>
11    1  0.5813833E-009  0.2018125E+03  0.7561462E-02  0.1053249E+00
         22   -1    0    0    0    0  0.00000000000E+00  0.00000000000E+00  0.79939191148E+03  0.79939191148E+03  0.00000000000E+00 0.  1.
         22   -1    0    0    0    0 -0.00000000000E+00 -0.00000000000E+00 -0.23735950489E+04  0.23735950489E+04  0.00000000000E+00 0. -1.
         24    2    1    2    0    0  0.11272508512E+03 -0.94007865371E+02 -0.15945723292E+04  0.16033183096E+04  0.80151514535E+02 0.  0.
         25    2    1    2    0    0 -0.21302999027E+03  0.76911678819E+02 -0.74749278710E+03  0.79100559102E+03  0.12508874915E+03 0.  0.
        -24    2    1    2    0    0  0.10030490515E+03  0.17096186552E+02  0.76786197886E+03  0.77866305977E+03  0.79691834494E+02 0.  0.
        -11    1    3    3    0    0  0.20165065764E+02 -0.13341700174E+02 -0.75161211433E+02  0.78954661325E+02  0.00000000000E+00 0.  1.
         12    1    3    3    0    0  0.92560019361E+02 -0.80666165197E+02 -0.15194111178E+04  0.15243636483E+04  0.00000000000E+00 0. -1.
         11    1    5    5    0    0  0.85908156991E+01  0.15876544867E+02  0.29208832141E+02  0.34336899486E+02  0.00000000000E+00 0. -1.
        -12    1    5    5    0    0  0.91714089451E+02  0.12196416842E+01  0.73865314672E+03  0.74432616029E+03  0.00000000000E+00 0.  1.
          5    1    4    4  501    0 -0.11872635028E+03  0.67928782304E+02 -0.25433918450E+03  0.28881855703E+03  0.41800000000E+01 0. -1.
         -5    1    4    4    0  501 -0.94303639998E+02  0.89828965153E+01 -0.49315360260E+03  0.50218703398E+03  0.41800000000E+01 0. -1.
</event>
<event>
11    1  0.5813833E-009  0.6501183E+03  0.7561462E-02  0.9109224E-01
         22   -1    0    0    0    0  0.00000000000E+00  0.00000000000E+00  0.21409935503E+04  0.21409935503E+04  0.00000000000E+00 0. -1.
         22   -1    0    0    0    0 -0.00000000000E+00 -0.00000000000E+00 -0.16056853308E+04  0.16056853308E+04  0.00000000000E+00 0.  1.
         24    2    1    2    0    0 -0.83629316461E+01  0.13733341481E+02 -0.11170127770E+04  0.11200738023E+04  0.81174105235E+02 0.  0.
         25    2    1    2    0    0  0.12329798287E+03  0.61516677978E+03 -0.19606071649E+03  0.66911634763E+03  0.12507726645E+03 0.  0.
        -24    2    1    2    0    0 -0.11493505123E+03 -0.62890012126E+03  0.18483817130E+04  0.19574887311E+04  0.80757334930E+02 0.  0.
        -13    1    3    3    0    0 -0.55896664206E+01  0.51015934362E+01 -0.11049891354E+04  0.11050150497E+04  0.00000000000E+00 0.  1.
         14    1    3    3    0    0 -0.27732652255E+01  0.86317480444E+01 -0.12023641618E+02  0.15058752673E+02  0.00000000000E+00 0. -1.
         13    1    5    5    0    0 -0.10116863474E+03 -0.42217467047E+03  0.13376581245E+04  0.14063412826E+04  0.00000000000E+00 0. -1.
        -14    1    5    5    0    0 -0.13766416487E+02 -0.20672545080E+03  0.51072358846E+03  0.55114744854E+03  0.00000000000E+00 0.  1.
          5    1    4    4  501    0  0.14297366636E+03  0.46806405387E+03 -0.17160798070E+03  0.51864457892E+03  0.41800000000E+01 0.  1.
         -5    1    4    4    0  501 -0.19675683489E+02  0.14710272591E+03 -0.24452735788E+02  0.15047176871E+03  0.41800000000E+01 0.  1.
</event>
<event>
11    1  0.5813833E-009  0.1314868E+03  0.7561462E-02  0.1117456E+00
         22   -1    0    0    0    0  0.00000000000E+00  0.00000000000E+00  0.14470699542E+03  0.14470699542E+03  0.00000000000E+00 0.  1.
         22   -1    0    0    0    0 -0.00000000000E+00 -0.00000000000E+00 -0.15020103670E+04  0.15020103670E+04  0.00000000000E+00 0. -1.
        -24    2    1    2    0    0  0.15216943964E+02  0.22972735407E+02 -0.12802054507E+04  0.12828826031E+04  0.78118342247E+02 0.  0.
         25    2    1    2    0    0 -0.54450086044E+02 -0.24126319939E+02 -0.17982376601E+03  0.22700369934E+03  0.12508877451E+03 0.  0.
         24    2    1    2    0    0  0.39233142080E+02  0.11535845317E+01  0.10272584508E+03  0.13683106003E+03  0.81422168639E+02 0.  0.
        -13    1    5    5    0    0  0.40694484128E+02  0.44453007791E+01  0.11603438487E+03  0.12304381419E+03  0.00000000000E+00 0.  1.
         14    1    5    5    0    0 -0.14613420477E+01 -0.32917162474E+01 -0.13308539791E+02  0.13787245838E+02  0.00000000000E+00 0. -1.
         11    1    3    3    0    0  0.39262512614E+02  0.17651105321E+02 -0.11170288839E+04  0.11178580562E+04  0.00000000000E+00 0. -1.
        -12    1    3    3    0    0 -0.24045568650E+02  0.53216300855E+01 -0.16317656679E+03  0.16502454686E+03  0.00000000000E+00 0.  1.
          5    1    4    4  501    0  0.33826146532E+02 -0.34555490008E+02 -0.76988697352E+02  0.91011109206E+02  0.41800000000E+01 0.  1.
         -5    1    4    4    0  501 -0.88276232576E+02  0.10429170070E+02 -0.10283506866E+03  0.13599259014E+03  0.41800000000E+01 0.  1.
</event>
<event>
11    1  0.5813833E-009  0.1407450E+03  0.7561462E-02  0.1106729E+00
         22   -1    0    0    0    0  0.00000000000E+00  0.00000000000E+00  0.25311778255E+04  0.25311778255E+04  0.00000000000E+00 0. -1.
         22   -1    0    0    0    0 -0.00000000000E+00 -0.00000000000E+00 -0.13778348668E+04  0.13778348668E+04  0.00000000000E+00 0. -1.
         24    2    1    2    0    0  0.36467469910E+02  0.14754790308E+02 -0.13553498648E+04  0.13583838242E+04  0.81766604491E+02 0.  0.
         25    2    1    2    0    0  0.55986763403E+01  0.36717011124E+02  0.19554448956E+03  0.23508394644E+03  0.12508928968E+03 0.  0.
        -24    2    1    2    0    0 -0.42066146251E+02 -0.51471801432E+02  0.23131483339E+04  0.23155449216E+04  0.81695547739E+02 0.  0.
        -13    1    3    3    0    0  0.23545209245E+02 -0.89371900713E+01 -0.11434496818E+03  0.11708553281E+03  0.00000000000E+00 0.  1.
         14    1    3    3    0    0  0.12922260665E+02  0.23691980379E+02 -0.12410048966E+04  0.12412982914E+04  0.00000000000E+00 0. -1.
         13    1    5    5    0    0 -0.66328777369E+02 -0.31352187548E+02  0.17110717722E+04  0.17126438848E+04  0.00000000000E+00 0. -1.
        -14    1    5    5    0    0  0.24262631118E+02 -0.20119613884E+02  0.60207656167E+03  0.60290103686E+03  0.00000000000E+00 0.  1.
          5    1    4    4  501    0  0.53135172370E+02 -0.90775928602E+00  0.14985913044E+03  0.15905785723E+03  0.41800000000E+01 0.  1.
         -5    1    4    4    0  501 -0.47536496030E+02  0.37624770410E+02  0.45685359126E+02  0.76026089217E+02  0.41800000000E+01 0.  1.
</event>
<event>
11    1  0.5813833E-009  0.1337385E+03  0.7561462E-02  0.1114759E+00
         22   -1    0    0    0    0  0.00000000000E+00  0.00000000000E+00  0.30612664812E+03  0.30612664812E+03  0.00000000000E+00 0.  1.
         22   -1    0    0    0    0 -0.00000000000E+00 -0.00000000000E+00 -0.17736078092E+04  0.17736078092E+04  0.00000000000E+00 0.  1.
         24    2    1    2    0    0  0.17278078832E+02 -0.47877504080E+00 -0.15777150918E+04  0.15797196189E+04  0.77655665202E+02 0.  0.
         25    2    1    2    0    0 -0.62218818466E+02 -0.12015784627E+02 -0.16073925562E+03  0.21330770226E+03  0.12508999599E+03 0.  0.
        -24    2    1    2    0    0  0.44940739634E+02  0.12494559668E+02  0.27097318631E+03  0.28670713614E+03  0.81232568064E+02 0.  0.
        -11    1    3    3    0    0  0.13114715317E+02  0.47414583135E+01 -0.15672101867E+04  0.15672722311E+04  0.00000000000E+00 0.  1.
         12    1    3    3    0    0  0.41633635144E+01 -0.52202333543E+01 -0.10504905090E+02  0.12447387798E+02  0.00000000000E+00 0. -1.
         11    1    5    5    0    0  0.44159039288E+02  0.20992276012E+02  0.69076210622E+02  0.84629895881E+02  0.00000000000E+00 0. -1.
        -12    1    5    5    0    0  0.78170034634E+00 -0.84977163442E+01  0.20189697569E+03  0.20207724026E+03  0.00000000000E+00 0.  1.
          5    1    4    4  501    0 -0.98229217742E+02  0.35329352132E+01 -0.13139013090E+03  0.16414109707E+03  0.41800000000E+01 0.  1.
         -5    1    4    4    0  501  0.36010399276E+02 -0.15548719840E+02 -0.29349124718E+02  0.49166605195E+02  0.41800000000E+01 0.  1.
</event>
<event>
11    1  0.5813833E-009  0.1624819E+03  0.7561462E-02  0.1084766E+00
         22   -1    0    0    0    0  0.00000000000E+00  0.00000000000E+00  0.22519727816E+03  0.22519727816E+03  0.00000000000E+00 0.  1.
         22   -1    0    0    0    0 -0.00000000000E+00 -0.00000000000E+00 -0.28074184167E+04  0.28074184167E+04  0.00000000000E+00 0.  1.
        -24    2    1    2    0    0 -0.10326556386E+03  0.56567143927E+01 -0.26384604849E+04  0.26417059849E+04  0.80255874412E+02 0.  0.
         25    2    1    2    0    0  0.11386382013E+03  0.35674209830E+02 -0.10844010036E+03  0.20406617753E+03  0.12508449410E+03 0.  0.
         24    2    1    2    0    0 -0.10598256271E+02 -0.41330924223E+02  0.16467944670E+03  0.18684353241E+03  0.77269768379E+02 0.  0.
        -13    1    5    5    0    0 -0.14663908328E+02 -0.56462588688E+02  0.16028499178E+03  0.17057060919E+03  0.00000000000E+00 0.  1.
         14    1    5    5    0    0  0.40656520575E+01  0.15131664465E+02  0.43944549166E+01  0.16272923220E+02  0.00000000000E+00 0. -1.
         13    1    3    3    0    0 -0.34167316467E+02  0.40384207009E+02 -0.94268902866E+03  0.94417206824E+03  0.00000000000E+00 0. -1.
        -14    1    3    3    0    0 -0.69098247392E+02 -0.34727492617E+02 -0.16957714562E+04  0.16975339167E+04  0.00000000000E+00 0.  1.
          5    1    4    4  501    0  0.11832088261E+03  0.19276957844E+01 -0.11930468397E+03  0.16809112794E+03  0.41800000000E+01 0. -1.
         -5    1    4    4    0  501 -0.44570624839E+01  0.33746514046E+02  0.10864583614E+02  0.35975049595E+02  0.41800000000E+01 0. -1.
</event>
<event>
11    1  0.5813833E-009  0.1528092E+03  0.7561462E-02  0.1094042E+00
         22   -1    0    0    0    0  0.00000000000E+00  0.00000000000E+00  0.84138736675E+03  0.84138736675E+03  0.00000000000E+00 0. -1.
         22   -1    0    0    0    0 -0.00000000000E+00 -0.00000000000E+00 -0.91956992729E+03  0.91956992729E+03  0.00000000000E+00 0.  1.
         24    2    1    2    0    0 -0.85228499072E+01  0.44962905017E+02 -0.89373162246E+03  0.89848687036E+03  0.80175690980E+02 0.  0.
         25    2    1    2    0    0 -0.40009469871E+02  0.47084178919E+02  0.31762196545E+03  0.34691380263E+03  0.12509115051E+03 0.  0.
        -24    2    1    2    0    0  0.48532319778E+02 -0.92047083936E+02  0.49792709646E+03  0.51555662105E+03  0.83899847411E+02 0.  0.
        -13    1    3    3    0    0 -0.24784581004E+02  0.10298886582E+02 -0.72369887131E+03  0.72419638142E+03  0.00000000000E+00 0.  1.
         14    1    3    3    0    0  0.16261731097E+02  0.34664018435E+02 -0.17003275115E+03  0.17429048894E+03  0.00000000000E+00 0. -1.
         13    1    5    5    0    0  0.65300253055E+02 -0.41019023223E+02  0.34367452415E+03  0.35221990555E+03  0.00000000000E+00 0. -1.
        -14    1    5    5    0    0 -0.16767933277E+02 -0.51028060713E+02  0.15425257231E+03  0.16333671550E+03  0.00000000000E+00 0.  1.
          5    1    4    4  501    0 -0.55156296167E+01  0.78320568175E+02  0.11728893364E+03  0.14120446142E+03  0.41800000000E+01 0.  1.
         -5    1    4    4    0  501 -0.34493840254E+02 -0.31236389256E+02  0.20033303181E+03  0.20570934122E+03  0.41800000000E+01 0.  1.
</event>
<event>
11    1  0.5813833E-009  0.1433091E+03  0.7561462E-02  0.1103919E+00
         22   -1    0    0    0    0  0.00000000000E+00  0.00000000000E+00  0.29866398950E+03  0.29866398950E+03  0.00000000000E+00 0.  1.
         22   -1    0    0    0    0 -0.00000000000E+00 -0.00000000000E+00 -0.15209731074E+04  0.15209731074E+04  0.00000000000E+00 0. -1.
         24    2    1    2    0    0  0.86300891400E+01  0.28001194896E+02 -0.12368600442E+04  0.12399490824E+04  0.82416093770E+02 0.  0.
         25    2    1    2    0    0  0.59858044525E+02 -0.11671192748E+02 -0.25450398725E+03  0.29008067789E+03  0.12512121293E+03 0.  0.
        -24    2    1    2    0    0 -0.68488133665E+02 -0.16330002148E+02  0.26905491353E+03  0.28960733670E+03  0.80774807652E+02 0.  0.
        -11    1    3    3    0    0 -0.26093082054E+02  0.51642242936E+01 -0.15317124870E+03  0.15546365997E+03  0.00000000000E+00 0.  1.
         12    1    3    3    0    0  0.34723171194E+02  0.22836970603E+02 -0.10836887955E+04  0.10844854224E+04  0.00000000000E+00 0. -1.
         13    1    5    5    0    0 -0.44901808787E+02 -0.21265735084E+02  0.54672210559E+02  0.73874586485E+02  0.00000000000E+00 0. -1.
        -14    1    5    5    0    0 -0.23586324879E+02  0.49357329358E+01  0.21438270297E+03  0.21573275021E+03  0.00000000000E+00 0.  1.
          5    1    4    4  501    0  0.45529516805E+01 -0.24698921850E+02  0.36445905500E+01  0.25720061233E+02  0.41800000000E+01 0.  1.
         -5    1    4    4    0  501  0.55305092845E+02  0.13027729102E+02 -0.25814857780E+03  0.26436061666E+03  0.41800000000E+01 0.  1.
</event>
<event>
11    1  0.5813833E-009  0.1730739E+03  0.7561462E-02  0.1075387E+00
         22   -1    0    0    0    0  0.00000000000E+00  0.00000000000E+00  0.24901286984E+04  0.24901286984E+04  0.00000000000E+00 0.  1.
         22   -1    0    0    0    0 -0.00000000000E+00 -0.00000000000E+00 -0.92417698646E+02  0.92417698646E+02  0.00000000000E+00 0.  1.
        -24    2    1    2    0    0  0.95776391611E+01  0.39000547264E+02 -0.53397026937E+02  0.10148825078E+03  0.76392726766E+02 0.  0.
         25    2    1    2    0    0 -0.12717913896E+03 -0.24981660367E+02  0.65735201118E+03  0.68158505292E+03  0.12509157057E+03 0.  0.
         24    2    1    2    0    0  0.11760149980E+03 -0.14018886897E+02  0.17937560155E+04  0.17994730934E+04  0.80722540324E+02 0.  0.
        -13    1    5    5    0    0  0.10927362411E+03  0.13736226453E+02  0.15683315551E+04  0.15721937780E+04  0.00000000000E+00 0.  1.
         14    1    5    5    0    0  0.83278756848E+01 -0.27755113350E+02  0.22542446039E+03  0.22727931532E+03  0.00000000000E+00 0. -1.
         13    1    3    3    0    0 -0.14563248872E+02  0.11970789644E+02  0.14994652352E+02  0.24087914429E+02  0.00000000000E+00 0. -1.
        -14    1    3    3    0    0  0.24140888033E+02  0.27029757621E+02 -0.68391679288E+02  0.77400336355E+02  0.00000000000E+00 0.  1.
          5    1    4    4  501    0 -0.38393683368E+02 -0.59854785047E+02  0.15984529023E+03  0.17499902692E+03  0.41800000000E+01 0. -1.
         -5    1    4    4    0  501 -0.88785455592E+02  0.34873124680E+02  0.49750672095E+03  0.50658602600E+03  0.41800000000E+01 0. -1.
</event>
<event>
11    1  0.5813833E-009  0.1414085E+03  0.7561462E-02  0.1105996E+00
         22   -1    0    0    0    0  0.00000000000E+00  0.00000000000E+00  0.21029669894E+03  0.21029669894E+03  0.00000000000E+00 0.  1.
         22   -1    0    0    0    0 -0.00000000000E+00 -0.00000000000E+00 -0.10130839672E+04  0.10130839672E+04  0.00000000000E+00 0. -1.
         24    2    1    2    0    0 -0.26379177282E+02  0.27012563417E+02 -0.75135564693E+03  0.75644046965E+03  0.79002128921E+02 0.  0.
         25    2    1    2    0    0  0.78968895154E+02  0.12000174270E+02 -0.21602576360E+03  0.26209834085E+03  0.12509324183E+03 0.  0.
        -24    2    1    2    0    0 -0.52589717872E+02 -0.39012737687E+02  0.16459414228E+03  0.20484185563E+03  0.10286535869E+03 0.  0.
        -11    1    3    3    0    0 -0.21245157307E+02  0.40517392170E+02 -0.21149707820E+03  0.21638860844E+03  0.00000000000E+00 0.  1.
         12    1    3    3    0    0 -0.51340199754E+01 -0.13504828752E+02 -0.53985856873E+03  0.54005186120E+03  0.00000000000E+00 0. -1.
         11    1    5    5    0    0 -0.29760745860E+02 -0.15573011291E+02 -0.33356009395E+01  0.33754213195E+02  0.00000000000E+00 0. -1.
        -12    1    5    5    0    0 -0.22828972012E+02 -0.23439726396E+02  0.16792974322E+03  0.17108764243E+03  0.00000000000E+00 0.  1.
          5    1    4    4  501    0  0.46834070596E+02  0.16815514577E+02 -0.68871889767E+01  0.50409299451E+02  0.41800000000E+01 0. -1.
         -5    1    4    4    0  501  0.32134824558E+02 -0.48153403065E+01 -0.20913857463E+03  0.21168904140E+03  0.41800000000E+01 0. -1.
</event>
<event>
11    1  0.5813833E-009  0.1478617E+03  0.7561462E-02  0.1099084E+00
         22   -1    0    0    0    0  0.00000000000E+00  0.00000000000E+00  0.39100852194E+03  0.39100852194E+03  0.00000000000E+00 0. -1.
         22   -1    0    0    0    0 -0.00000000000E+00 -0.00000000000E+00 -0.75054294415E+03  0.75054294415E+03  0.00000000000E+00 0.  1.
        -24    2    1    2    0    0  0.67265968071E+02  0.41964377878E+02 -0.64686856542E+03  0.65670583736E+03  0.80857259573E+02 0.  0.
         25    2    1    2    0    0 -0.74327583548E+02 -0.19475324004E+02 -0.35660013410E+02  0.15107310618E+03  0.12509024315E+03 0.  0.
         24    2    1    2    0    0  0.70616154777E+01 -0.22489053874E+02  0.32299415662E+03  0.33377252256E+03  0.80766624600E+02 0.  0.
        -13    1    5    5    0    0  0.34229630688E+02 -0.37781818970E+02  0.16365673528E+03  0.17141371143E+03  0.00000000000E+00 0.  1.
         14    1    5    5    0    0 -0.27168015211E+02  0.15292765096E+02  0.15933742133E+03  0.16235881113E+03  0.00000000000E+00 0. -1.
         11    1    3    3    0    0 -0.83068207134E+00  0.19273443429E+02 -0.29947086561E+02  0.35622796743E+02  0.00000000000E+00 0. -1.
        -12    1    3    3    0    0  0.68096650142E+02  0.22690934449E+02 -0.61692147885E+03  0.62108304061E+03  0.00000000000E+00 0.  1.
          5    1    4    4  501    0 -0.90927926487E+02  0.28784375401E+02 -0.20153413240E+02  0.97570797617E+02  0.41800000000E+01 0.  1.
         -5    1    4    4    0  501  0.16600342938E+02 -0.48259699406E+02 -0.15506600170E+02  0.53502308560E+02  0.41800000000E+01 0.  1.
</event>
<event>
11    1  0.6076833E-009  0.1816836E+03  0.7561462E-02  0.1068289E+00
         22   -1    0    0    0    0  0.00000000000E+00  0.00000000000E+00  0.51232718912E+03  0.51232718912E+03  0.00000000000E+00 0. -1.
         22   -1    0    0    0    0 -0.00000000000E+00 -0.00000000000E+00 -0.14273674371E+04  0.14273674371E+04  0.00000000000E+00 0. -1.
        -24    2    1    2    0    0  0.17172669753E+02  0.49596638319E+02 -0.92243775961E+03  0.92799474876E+03  0.86764660135E+02 0.  0.
         25    2    1    2    0    0 -0.31432445693E+02 -0.17935320994E+03 -0.46523531188E+03  0.51502118492E+03  0.12508937983E+03 0.  0.
         24    2    1    2    0    0  0.14259775940E+02  0.12975657163E+03  0.47263282354E+03  0.49667869250E+03  0.79169619164E+02 0.  0.
        -13    1    5    5    0    0 -0.20101689792E+02  0.24701244691E+02  0.45920435332E+02  0.55883054702E+02  0.00000000000E+00 0.  1.
         14    1    5    5    0    0  0.34361465732E+02  0.10505532693E+03  0.42671238821E+03  0.44079563779E+03  0.00000000000E+00 0. -1.
         13    1    3    3    0    0 -0.28125222218E+01  0.68654937157E+02 -0.50625734466E+03  0.51089911891E+03  0.00000000000E+00 0. -1.
        -14    1    3    3    0    0  0.19985191975E+02 -0.19058298838E+02 -0.41618041495E+03  0.41709562985E+03  0.00000000000E+00 0.  1.
          5    1    4    4  501    0  0.28372591533E+02 -0.38310210711E+02 -0.37930362643E+02  0.61064400474E+02  0.41800000000E+01 0.  1.
         -5    1    4    4    0  501 -0.59805037226E+02 -0.14104299923E+03 -0.42730494923E+03  0.45395678445E+03  0.41800000000E+01 0.  1.
</event>
<event>
11    1  0.5813833E-009  0.3645733E+03  0.7561462E-02  0.9760487E-01
         22   -1    0    0    0    0  0.00000000000E+00  0.00000000000E+00  0.69417471187E+03  0.69417471187E+03  0.00000000000E+00 0.  1.
         22   -1    0    0    0    0 -0.00000000000E+00 -0.00000000000E+00 -0.11895658942E+04  0.11895658942E+04  0.00000000000E+00 0. -1.
         24    2    1    2    0    0  0.25794403055E+03 -0.18606616504E+03 -0.76299646942E+03  0.83065990306E+03  0.81709984353E+02 0.  0.
         25    2    1    2    0    0 -0.41582706286E+03  0.18776216061E+03 -0.22911965476E+03  0.52565223004E+03  0.12509066944E+03 0.  0.
        -24    2    1    2    0    0  0.15788303231E+03 -0.16959955709E+01  0.49672494185E+03  0.52742847296E+03  0.80716776107E+02 0.  0.
        -11    1    3    3    0    0  0.82492635640E+02 -0.53430458954E+02 -0.14935636963E+03  0.17879366328E+03  0.00000000000E+00 0.  1.
         12    1    3    3    0    0  0.17545139491E+03 -0.13263570608E+03 -0.61364009979E+03  0.65186623979E+03  0.00000000000E+00 0. -1.
         13    1    5    5    0    0  0.98128172306E+02  0.95448345934E+01  0.18302551678E+03  0.20789079311E+03  0.00000000000E+00 0. -1.
        -14    1    5    5    0    0  0.59754860001E+02 -0.11240830164E+02  0.31369942507E+03  0.31953767985E+03  0.00000000000E+00 0.  1.
          5    1    4    4  501    0 -0.69698192587E+02  0.23156016634E+02 -0.93717814824E+02  0.11914084258E+03  0.41800000000E+01 0. -1.
         -5    1    4    4    0  501 -0.34612887027E+03  0.16460614398E+03 -0.13540183994E+03  0.40651138745E+03  0.41800000000E+01 0. -1.
</event>
<event>
11    1  0.6053673E-009  0.1662490E+03  0.7561462E-02  0.1081343E+00
         22   -1    0    0    0    0  0.00000000000E+00  0.00000000000E+00  0.16370690854E+04  0.16370690854E+04  0.00000000000E+00 0. -1.
         22   -1    0    0    0    0 -0.00000000000E+00 -0.00000000000E+00 -0.36396440938E+03  0.36396440938E+03  0.00000000000E+00 0.  1.
         24    2    1    2    0    0  0.17765840803E+02  0.11038619820E+02 -0.28263166972E+03  0.29417118481E+03  0.78857777149E+02 0.  0.
         25    2    1    2    0    0 -0.66651449545E+02 -0.10816564070E+03  0.37407886450E+02  0.18218980284E+03  0.12510616585E+03 0.  0.
        -24    2    1    2    0    0  0.48885608742E+02  0.97127020883E+02  0.15183284593E+04  0.15246725071E+04  0.86495564984E+02 0.  0.
        -11    1    3    3    0    0 -0.12218963939E+02  0.59579057639E+01 -0.24679614632E+03  0.24717026027E+03  0.00000000000E+00 0.  1.
         12    1    3    3    0    0  0.29984804742E+02  0.50807140560E+01 -0.35835523398E+02  0.47000924544E+02  0.00000000000E+00 0. -1.
         13    1    5    5    0    0  0.21478196040E+02  0.49707463903E+02  0.12298056280E+04  0.12309971680E+04  0.00000000000E+00 0. -1.
        -14    1    5    5    0    0  0.27407412703E+02  0.47419556980E+02  0.28852283124E+03  0.29367533912E+03  0.00000000000E+00 0.  1.
          5    1    4    4  501    0  0.21742293886E+02 -0.11923569018E+02  0.44653190929E+02  0.51247231161E+02  0.41800000000E+01 0.  1.
         -5    1    4    4    0  501 -0.88393743432E+02 -0.96242071685E+02 -0.72453044785E+01  0.13094257168E+03  0.41800000000E+01 0.  1.
</event>
<event>
11    1  0.6458801E-009  0.1603497E+03  0.7561462E-02  0.1086749E+00
         22   -1    0    0    0    0  0.00000000000E+00  0.00000000000E+00  0.13817020467E+04  0.13817020467E+04  0.00000000000E+00 0. -1.
         22   -1    0    0    0    0 -0.00000000000E+00 -0.00000000000E+00 -0.39998762195E+03  0.39998762195E+03  0.00000000000E+00 0. -1.
         24    2    1    2    0    0 -0.79869041238E+02 -0.60413163892E+02 -0.35214350999E+03  0.37515356567E+03  0.81892197970E+02 0.  0.
         25    2    1    2    0    0  0.21701277945E+02  0.14138449940E+03  0.24429946494E+03  0.30950045602E+03  0.12509109311E+03 0.  0.
        -24    2    1    2    0    0  0.58167763294E+02 -0.80971335509E+02  0.10895584698E+04  0.10970356469E+04  0.80060637601E+02 0.  0.
        -13    1    3    3    0    0 -0.38731574448E+00  0.17819688809E+02 -0.46525061066E+02  0.49822410921E+02  0.00000000000E+00 0.  1.
         14    1    3    3    0    0 -0.79481725494E+02 -0.78232852700E+02 -0.30561844892E+03  0.32533115475E+03  0.00000000000E+00 0. -1.
         11    1    5    5    0    0  0.67333475159E+02 -0.89887103832E+02  0.10309010978E+04  0.10370007531E+04  0.00000000000E+00 0. -1.
        -12    1    5    5    0    0 -0.91657118658E+01  0.89157683226E+01  0.58657371925E+02  0.60034893853E+02  0.00000000000E+00 0.  1.
          5    1    4    4  501    0 -0.83646211104E+01  0.77035392037E+02  0.22163637098E+03  0.23482881394E+03  0.41800000000E+01 0.  1.
         -5    1    4    4    0  501  0.30065899055E+02  0.64349107363E+02  0.22663093952E+02  0.74671642086E+02  0.41800000000E+01 0.  1.
</event>
<event>
11    1  0.5813833E-009  0.1564053E+03  0.7561462E-02  0.1090508E+00
         22   -1    0    0    0    0  0.00000000000E+00  0.00000000000E+00  0.38360248665E+03  0.38360248665E+03  0.00000000000E+00 0. -1.
         22   -1    0    0    0    0 -0.00000000000E+00 -0.00000000000E+00 -0.62951559228E+03  0.62951559228E+03  0.00000000000E+00 0.  1.
         24    2    1    2    0    0 -0.15827652012E+02  0.18032682061E+02 -0.53855966184E+03  0.54520763883E+03  0.81419702085E+02 0.  0.
         25    2    1    2    0    0 -0.71830364837E+02  0.23874055003E+02 -0.29278850529E+01  0.14623988808E+03  0.12509180844E+03 0.  0.
        -24    2    1    2    0    0  0.87658016849E+02 -0.41906737065E+02  0.29557444125E+03  0.32167055203E+03  0.81655319410E+02 0.  0.
        -11    1    3    3    0    0  0.93685203262E+01  0.44572840911E+02 -0.22844915613E+03  0.23294532460E+03  0.00000000000E+00 0.  1.
         12    1    3    3    0    0 -0.25196172338E+02 -0.26540158850E+02 -0.31011050571E+03  0.31226231423E+03  0.00000000000E+00 0. -1.
         13    1    5    5    0    0  0.10336685568E+03 -0.40887962839E+02  0.25729170831E+03  0.28027764007E+03  0.00000000000E+00 0. -1.
        -14    1    5    5    0    0 -0.15708838832E+02 -0.10187742253E+01  0.38282732942E+02  0.41392911952E+02  0.00000000000E+00 0.  1.
          5    1    4    4  501    0 -0.37316874999E+02 -0.51117686827E+02 -0.42648204654E+01  0.63570654864E+02  0.41800000000E+01 0.  1.
         -5    1    4    4    0  501 -0.34513489838E+02  0.74991741830E+02  0.13369354125E+01  0.82669233212E+02  0.41800000000E+01 0.  1.
</event>
<event>
11    1  0.5813833E-009  0.1579610E+03  0.7561462E-02  0.1089011E+00
         22   -1    0    0    0    0  0.00000000000E+00  0.00000000000E+00  0.17841552827E+04  0.17841552827E+04  0.00000000000E+00 0. -1.
         22   -1    0    0    0    0 -0.00000000000E+00 -0.00000000000E+00 -0.99348330667E+02  0.99348330667E+02  0.00000000000E+00 0. -1.
        -24    2    1    2    0    0 -0.76948396647E+02 -0.57569970883E+02 -0.44267914441E+02  0.13298457901E+03  0.80559870354E+02 0.  0.
         25    2    1    2    0    0  0.11052614613E+03  0.24180853963E+02  0.86130116765E+03  0.87766009896E+03  0.12508719048E+03 0.  0.
         24    2    1    2    0    0 -0.33577749485E+02  0.33389116920E+02  0.86777369884E+03  0.87285893542E+03  0.81297173111E+02 0.  0.
        -11    1    5    5    0    0  0.11450433789E+02 -0.20047629222E+02  0.27882028452E+03  0.27977450015E+03  0.00000000000E+00 0.  1.
         12    1    5    5    0    0 -0.45028183274E+02  0.53436746142E+02  0.58895341432E+03  0.59308443528E+03  0.00000000000E+00 0. -1.
         13    1    3    3    0    0 -0.72604557714E+02 -0.73266562322E+02 -0.22119312609E+02  0.10549253502E+03  0.00000000000E+00 0. -1.
        -14    1    3    3    0    0 -0.43438389328E+01  0.15696591439E+02 -0.22148601831E+02  0.27492043986E+02  0.00000000000E+00 0.  1.
          5    1    4    4  501    0  0.53292568207E+02  0.26454997398E+02  0.75043615440E+03  0.75280266932E+03  0.41800000000E+01 0. -1.
         -5    1    4    4    0  501  0.57233577925E+02 -0.22741434351E+01  0.11086501326E+03  0.12485742963E+03  0.41800000000E+01 0. -1.
</event>
<event>
11    1  0.5813833E-009  0.1315563E+03  0.7561462E-02  0.1117371E+00
         22   -1    0    0    0    0  0.00000000000E+00  0.00000000000E+00  0.14760229520E+04  0.14760229520E+04  0.00000000000E+00 0.  1.
         22   -1    0    0    0    0 -0.00000000000E+00 -0.00000000000E+00 -0.20563835068E+04  0.20563835068E+04  0.00000000000E+00 0.  1.
        -24    2    1    2    0    0 -0.39610236792E+01  0.40568447474E+02 -0.20460962745E+04  0.20481082339E+04  0.81091828227E+02 0.  0.
         25    2    1    2    0    0 -0.32381285384E+02 -0.50959884084E+02  0.72310714727E+03  0.73632479690E+03  0.12507918560E+03 0.  0.
         24    2    1    2    0    0  0.36342309063E+02  0.10391436611E+02  0.74262857241E+03  0.74797342805E+03  0.80859799183E+02 0.  0.
        -13    1    5    5    0    0 -0.47132178219E+01  0.29830315956E+02  0.51339420393E+03  0.51428170374E+03  0.00000000000E+00 0.  1.
         14    1    5    5    0    0  0.41055526885E+02 -0.19438879346E+02  0.22923436848E+03  0.23369172431E+03  0.00000000000E+00 0. -1.
         11    1    3    3    0    0 -0.73848469939E+01  0.83605316940E+00 -0.16235070987E+02  0.17855320775E+02  0.00000000000E+00 0. -1.
        -12    1    3    3    0    0  0.34238233147E+01  0.39732394304E+02 -0.20298612035E+04  0.20302529131E+04  0.00000000000E+00 0.  1.
          5    1    4    4  501    0 -0.65455467225E+02 -0.47768370344E+02  0.26866435101E+03  0.28064967717E+03  0.41800000000E+01 0. -1.
         -5    1    4    4    0  501  0.33074181840E+02 -0.31915137407E+01  0.45444279627E+03  0.45567511973E+03  0.41800000000E+01 0. -1.
</event>
<event>
11    1  0.5813833E-009  0.2141245E+03  0.7561462E-02  0.1044962E+00
         22   -1    0    0    0    0  0.00000000000E+00  0.00000000000E+00  0.12573349682E+04  0.12573349682E+04  0.00000000000E+00 0. -1.
         22   -1    0    0    0    0 -0.00000000000E+00 -0.00000000000E+00 -0.83422348640E+03  0.83422348640E+03  0.00000000000E+00 0. -1.
         24    2    1    2    0    0 -0.54024530763E+02  0.16683779638E+03 -0.80190977919E+03  0.82530021926E+03  0.85484839224E+02 0.  0.
         25    2    1    2    0    0  0.11924476687E+02 -0.11783505629E+03  0.40876273417E+03  0.44358238687E+03  0.12510422638E+03 0.  0.
        -24    2    1    2    0    0  0.42100054076E+02 -0.49002740086E+02  0.81625852680E+03  0.82267584845E+03  0.79648515167E+02 0.  0.
        -11    1    3    3    0    0  0.16539749962E+02  0.68881298534E+02 -0.22476400475E+03  0.23566301035E+03  0.00000000000E+00 0.  1.
         12    1    3    3    0    0 -0.70564280724E+02  0.97956497846E+02 -0.57714577444E+03  0.58963720892E+03  0.00000000000E+00 0. -1.
         13    1    5    5    0    0  0.12999686476E+02 -0.22019744117E+02  0.68669180043E+03  0.68716773044E+03  0.00000000000E+00 0. -1.
        -14    1    5    5    0    0  0.29100367600E+02 -0.26982995969E+02  0.12956672637E+03  0.13550811802E+03  0.00000000000E+00 0.  1.
          5    1    4    4  501    0 -0.16407918382E+02 -0.53933652359E+02  0.34263874423E+03  0.34727055748E+03  0.41800000000E+01 0. -1.
         -5    1    4    4    0  501  0.28332395069E+02 -0.63901403935E+02  0.66123989939E+02  0.96311829391E+02  0.41800000000E+01 0. -1.
</event>
<event>
11    1  0.5813833E-009  0.1332290E+03  0.7561462E-02  0.1115364E+00
         22   -1    0    0    0    0  0.00000000000E+00  0.00000000000E+00  0.16491255875E+03  0.16491255875E+03  0.00000000000E+00 0.  1.
         22   -1    0    0    0    0 -0.00000000000E+00 -0.00000000000E+00 -0.23304981500E+03  0.23304981500E+03  0.00000000000E+00 0.  1.
        -24    2    1    2    0    0 -0.47971163110E+02  0.40699002452E+01 -0.12185338208E+03  0.15390890914E+03  0.80758337095E+02 0.  0.
         25    2    1    2    0    0  0.32764137760E+02 -0.31760295759E+02 -0.14778821272E+02  0.13397543546E+03  0.12509515834E+03 0.  0.
         24    2    1    2    0    0  0.15207025350E+02  0.27690395513E+02  0.68494947105E+02  0.11007802915E+03  0.80172333747E+02 0.  0.
        -11    1    5    5    0    0  0.88531185339E+01  0.54924974858E+02  0.57555746376E+02  0.80048700875E+02  0.00000000000E+00 0.  1.
         12    1    5    5    0    0  0.63539068162E+01 -0.27234579344E+02  0.10939200729E+02  0.30029328272E+02  0.00000000000E+00 0. -1.
         13    1    3    3    0    0 -0.16174490706E+02 -0.36317188210E+02 -0.72306581002E+02  0.82515416531E+02  0.00000000000E+00 0. -1.
        -14    1    3    3    0    0 -0.31796672404E+02  0.40387088455E+02 -0.49546801073E+02  0.71393492606E+02  0.00000000000E+00 0.  1.
          5    1    4    4  501    0  0.54546692455E+02  0.11836188384E+02 -0.48909426525E+02  0.74330622332E+02  0.41800000000E+01 0. -1.
         -5    1    4    4    0  501 -0.21782554695E+02 -0.43596484143E+02  0.34130605253E+02  0.59644813132E+02  0.41800000000E+01 0. -1.
</event>
<event>
11    1  0.5813833E-009  0.1618990E+03  0.7561462E-02  0.1085305E+00
         22   -1    0    0    0    0  0.00000000000E+00  0.00000000000E+00  0.20805167946E+03  0.20805167946E+03  0.00000000000E+00 0. -1.
         22   -1    0    0    0    0 -0.00000000000E+00 -0.00000000000E+00 -0.18087623761E+04  0.18087623761E+04  0.00000000000E+00 0.  1.
        -24    2    1    2    0    0 -0.97928205904E+02 -0.30861682117E+02 -0.16923090052E+04  0.16972954755E+04  0.79748261493E+02 0.  0.
         25    2    1    2    0    0  0.80335689316E+02  0.97075250619E+02 -0.10414633719E+01  0.17755632856E+03  0.12509091856E+03 0.  0.
         24    2    1    2    0    0  0.17592516589E+02 -0.66213568502E+02  0.92639771916E+02  0.14196225150E+03  0.82930212925E+02 0.  0.
        -11    1    5    5    0    0  0.17736151710E+02  0.43932947869E+01 -0.72328492302E+01  0.19651621423E+02  0.00000000000E+00 0.  1.
         12    1    5    5    0    0 -0.14363512141E+00 -0.70606863289E+02  0.99872621146E+02  0.12231063007E+03  0.00000000000E+00 0. -1.
         11    1    3    3    0    0 -0.55598492139E+02  0.47431107350E+01 -0.40826594126E+03  0.41206160731E+03  0.00000000000E+00 0. -1.
        -12    1    3    3    0    0 -0.42329713766E+02 -0.35604792852E+02 -0.12840430639E+04  0.12852338682E+04  0.00000000000E+00 0.  1.
          5    1    4    4  501    0  0.76395033800E+02  0.89040489215E+02 -0.50007951853E+02  0.12760359539E+03  0.41800000000E+01 0.  1.
         -5    1    4    4    0  501  0.39406555156E+01  0.80347614038E+01  0.48966488481E+02  0.49952733167E+02  0.41800000000E+01 0.  1.
</event>
<event>
11    1  0.5813833E-009  0.1303463E+03  0.7561462E-02  0.1118844E+00
         22   -1    0    0    0    0  0.00000000000E+00  0.00000000000E+00  0.40001999457E+03  0.40001999457E+03  0.00000000000E+00 0. -1.
         22   -1    0    0    0    0 -0.00000000000E+00 -0.00000000000E+00 -0.71786164187E+03  0.71786164187E+03  0.00000000000E+00 0. -1.
        -24    2    1    2    0    0  0.18296810436E+02  0.81243133790E+01 -0.60585450817E+03  0.61248519996E+03  0.87622242388E+02 0.  0.
         25    2    1    2    0    0  0.68918473200E+01 -0.35262639751E+02 -0.61448556528E+02  0.14391470065E+03  0.12507823409E+03 0.  0.
         24    2    1    2    0    0 -0.25188657756E+02  0.27138326372E+02  0.34946141739E+03  0.36148173583E+03  0.84704225733E+02 0.  0.
        -13    1    5    5    0    0 -0.42637864397E+02  0.29112954332E+02  0.11149847582E+03  0.12287172864E+03  0.00000000000E+00 0.  1.
         14    1    5    5    0    0  0.17449206640E+02 -0.19746279594E+01  0.23796294157E+03  0.23861000719E+03  0.00000000000E+00 0. -1.
         11    1    3    3    0    0  0.52983388799E+02 -0.37398668387E+01 -0.37290110578E+03  0.37666491844E+03  0.00000000000E+00 0. -1.
        -12    1    3    3    0    0 -0.34686578363E+02  0.11864180218E+02 -0.23295340239E+03  0.23582028152E+03  0.00000000000E+00 0.  1.
          5    1    4    4  501    0 -0.53206694082E+00 -0.61049304454E+02 -0.87172933571E+02  0.10650771529E+03  0.41800000000E+01 0.  1.
         -5    1    4    4    0  501  0.74239142608E+01  0.25786664702E+02  0.25724377043E+02  0.37406985360E+02  0.41800000000E+01 0.  1.
</event>
<event>
11    1  0.5813833E-009  0.1506227E+03  0.7561462E-02  0.1096244E+00
         22   -1    0    0    0    0  0.00000000000E+00  0.00000000000E+00  0.10070472583E+04  0.10070472583E+04  0.00000000000E+00 0.  1.
         22   -1    0    0    0    0 -0.00000000000E+00 -0.00000000000E+00 -0.66172840632E+03  0.66172840632E+03  0.00000000000E+00 0.  1.
        -24    2    1    2    0    0 -0.10505752190E+02 -0.68141591278E+02 -0.24728621050E+03  0.26823314689E+03  0.77748980047E+02 0.  0.
         25    2    1    2    0    0  0.11457958682E+02  0.10767645557E+03 -0.38486246219E+03  0.41891738827E+03  0.12508860655E+03 0.  0.
         24    2    1    2    0    0 -0.95220649173E+00 -0.39534864290E+02  0.97746752466E+03  0.98162512944E+03  0.81124723687E+02 0.  0.
        -11    1    5    5    0    0 -0.38645340135E+01 -0.18769295455E+02  0.92391500154E+03  0.92411371116E+03  0.00000000000E+00 0.  1.
         12    1    5    5    0    0  0.29123275218E+01 -0.20765568835E+02  0.53552523113E+02  0.57511418279E+02  0.00000000000E+00 0. -1.
         13    1    3    3    0    0  0.24968080457E+02 -0.61983846539E+02 -0.14144250058E+03  0.15643331884E+03  0.00000000000E+00 0. -1.
        -14    1    3    3    0    0 -0.35473832647E+02 -0.61577447387E+01 -0.10584370992E+03  0.11179982805E+03  0.00000000000E+00 0.  1.
          5    1    4    4  501    0  0.97169223062E+01  0.11135051294E+03 -0.39316828432E+03  0.40876903932E+03  0.41800000000E+01 0. -1.
         -5    1    4    4    0  501  0.17410363757E+01 -0.36740573769E+01  0.83058221254E+01  0.10148348952E+02  0.41800000000E+01 0. -1.
</event>
<event>
11    1  0.5813833E-009  0.1328857E+03  0.7561462E-02  0.1115773E+00
         22   -1    0    0    0    0  0.00000000000E+00  0.00000000000E+00  0.38564487491E+03  0.38564487491E+03  0.00000000000E+00 0. -1.
         22   -1    0    0    0    0 -0.00000000000E+00 -0.00000000000E+00 -0.32762828857E+03  0.32762828857E+03  0.00000000000E+00 0.  1.
        -24    2    1    2    0    0 -0.13654109222E+02 -0.33435866885E+02 -0.13556315007E+03  0.16161513032E+03  0.80235221684E+02 0.  0.
         25    2    1    2    0    0  0.20083576001E+02  0.60706346464E+02 -0.14540078718E+03  0.20218261279E+03  0.12509120463E+03 0.  0.
         24    2    1    2    0    0 -0.64294667786E+01 -0.27270479579E+02  0.33898052358E+03  0.34947542037E+03  0.80251211651E+02 0.  0.
        -13    1    5    5    0    0 -0.24998249546E+02  0.14203490220E+02  0.22405773145E+03  0.22589492831E+03  0.00000000000E+00 0.  1.
         14    1    5    5    0    0  0.18568782768E+02 -0.41473969799E+02  0.11492279213E+03  0.12358049205E+03  0.00000000000E+00 0. -1.
         13    1    3    3    0    0  0.49504209617E+01 -0.22889678535E+02  0.94890587628E+00  0.23438098760E+02  0.00000000000E+00 0. -1.
        -14    1    3    3    0    0 -0.18604530184E+02 -0.10546188349E+02 -0.13651205595E+03  0.13817703156E+03  0.00000000000E+00 0.  1.
          5    1    4    4  501    0  0.35771987803E+02  0.25679787330E+02  0.71635973116E+01  0.44809330671E+02  0.41800000000E+01 0. -1.
         -5    1    4    4    0  501 -0.15688411803E+02  0.35026559134E+02 -0.15256438449E+03  0.15737328212E+03  0.41800000000E+01 0. -1.
</event>
<event>
11    1  0.5813833E-009  0.1325511E+03  0.7561462E-02  0.1116174E+00
         22   -1    0    0    0    0  0.00000000000E+00  0.00000000000E+00  0.13775426897E+03  0.13775426897E+03  0.00000000000E+00 0.  1.
         22   -1    0    0    0    0 -0.00000000000E+00 -0.00000000000E+00 -0.27073834586E+04  0.27073834586E+04  0.00000000000E+00 0. -1.
         24    2    1    2    0    0  0.20175181037E+01  0.39936667690E+02 -0.21134718608E+04  0.21153540395E+04  0.79752104546E+02 0.  0.
         25    2    1    2    0    0  0.13798131658E+02 -0.79754612322E+02 -0.56711665127E+03  0.58636180512E+03  0.12509070202E+03 0.  0.
        -24    2    1    2    0    0 -0.15815649762E+02  0.39817944631E+02  0.11095932243E+03  0.14342188298E+03  0.80139015412E+02 0.  0.
        -11    1    3    3    0    0 -0.37830057035E+02  0.18748368066E+02 -0.12379451518E+04  0.12386649319E+04  0.00000000000E+00 0.  1.
         12    1    3    3    0    0  0.39847575139E+02  0.21188299624E+02 -0.87552670897E+03  0.87668910761E+03  0.00000000000E+00 0. -1.
         13    1    5    5    0    0  0.30031700768E+02  0.43858061975E+01  0.22948554388E+02  0.38049632003E+02  0.00000000000E+00 0. -1.
        -14    1    5    5    0    0 -0.45847350530E+02  0.35432138434E+02  0.88010768039E+02  0.10537225097E+03  0.00000000000E+00 0.  1.
          5    1    4    4  501    0 -0.37284418644E+02 -0.70683633524E+02 -0.19746835973E+03  0.21306695993E+03  0.41800000000E+01 0.  1.
         -5    1    4    4    0  501  0.51082550302E+02 -0.90709787972E+01 -0.36964829155E+03  0.37329484519E+03  0.41800000000E+01 0.  1.
</event>
<event>
11    1  0.5813833E-009  0.1332742E+03  0.7561462E-02  0.1115310E+00
         22   -1    0    0    0    0  0.00000000000E+00  0.00000000000E+00  0.60004076771E+03  0.60004076771E+03  0.00000000000E+00 0. -1.
         22   -1    0    0    0    0 -0.00000000000E+00 -0.00000000000E+00 -0.30279497482E+03  0.30279497482E+03  0.00000000000E+00 0. -1.
        -24    2    1    2    0    0  0.38878958609E+02 -0.12226721146E+02 -0.22355634781E+03  0.24076432338E+03  0.79554714718E+02 0.  0.
         25    2    1    2    0    0 -0.70445150628E+01 -0.24359566615E+02 -0.32493257779E+01  0.12767700958E+03  0.12509135453E+03 0.  0.
         24    2    1    2    0    0 -0.31834443546E+02  0.36586287761E+02  0.52405146648E+03  0.53439440957E+03  0.92711688661E+02 0.  0.
        -11    1    5    5    0    0  0.18589567081E+02  0.45287018698E+02  0.17915751495E+03  0.18572533814E+03  0.00000000000E+00 0.  1.
         12    1    5    5    0    0 -0.50424010627E+02 -0.87007309366E+01  0.34489395154E+03  0.34866907143E+03  0.00000000000E+00 0. -1.
         13    1    3    3    0    0  0.47540888971E+02 -0.31363592705E+02 -0.20490453503E+03  0.21267270522E+03  0.00000000000E+00 0. -1.
        -14    1    3    3    0    0 -0.86619303624E+01  0.19136871559E+02 -0.18651812784E+02  0.28091618159E+02  0.00000000000E+00 0.  1.
          5    1    4    4  501    0 -0.12632572528E+02  0.41025105481E+02  0.31401798110E+02  0.53349662538E+02  0.41800000000E+01 0.  1.
         -5    1    4    4    0  501  0.55880574649E+01 -0.65384672096E+02 -0.34651123888E+02  0.74327347040E+02  0.41800000000E+01 0.  1.
</event>
<event>
11    1  0.5813833E-009  0.1443668E+03  0.7561462E-02  0.1102778E+00
         22   -1    0    0    0    0  0.00000000000E+00  0.00000000000E+00  0.68722893534E+03  0.68722893534E+03  0.00000000000E+00 0. -1.
         22   -1    0    0    0    0 -0.00000000000E+00 -0.00000000000E+00 -0.15192159828E+04  0.15192159828E+04  0.00000000000E+00 0.  1.
         24    2    1    2    0    0  0.21154295357E+02 -0.52733732828E+02 -0.13120747800E+04  0.13158119877E+04  0.81194876756E+02 0.  0.
         25    2    1    2    0    0 -0.29527819119E+02 -0.20048572637E+02 -0.17971139197E+03  0.22181892270E+03  0.12503444604E+03 0.  0.
        -24    2    1    2    0    0  0.83735237616E+01  0.72782305465E+02  0.65979912450E+03  0.66881400770E+03  0.81301367242E+02 0.  0.
        -13    1    3    3    0    0  0.39001746502E+02 -0.56930430705E+02 -0.12188174401E+04  0.12207694961E+04  0.00000000000E+00 0.  1.
         14    1    3    3    0    0 -0.17847451144E+02  0.41966978775E+01 -0.93257339820E+02  0.95042491632E+02  0.00000000000E+00 0. -1.
         11    1    5    5    0    0 -0.82406926846E+01  0.85090288631E+02  0.58485612389E+03  0.59107102102E+03  0.00000000000E+00 0. -1.
        -12    1    5    5    0    0  0.16614216446E+02 -0.12307983167E+02  0.74943000601E+02  0.77742986673E+02  0.00000000000E+00 0.  1.
          5    1    4    4  501    0  0.47082583150E+02  0.87374147954E+01 -0.64908014261E+02  0.80769021095E+02  0.41800000000E+01 0.  1.
         -5    1    4    4    0  501 -0.76610402269E+02 -0.28785987432E+02 -0.11480337771E+03  0.14104990160E+03  0.41800000000E+01 0.  1.
</event>
<event>
11    1  0.5813833E-009  0.1640036E+03  0.7561462E-02  0.1083371E+00
         22   -1    0    0    0    0  0.00000000000E+00  0.00000000000E+00  0.10755147827E+04  0.10755147827E+04  0.00000000000E+00 0.  1.
         22   -1    0    0    0    0 -0.00000000000E+00 -0.00000000000E+00 -0.78988101143E+03  0.78988101143E+03  0.00000000000E+00 0.  1.
         24    2    1    2    0    0 -0.81162449841E+01 -0.94977236775E+02 -0.73146343966E+03  0.74183742150E+03  0.78723868364E+02 0.  0.
         25    2    1    2    0    0 -0.85573130431E+02  0.34821723639E+02  0.77309801212E+02  0.17366628595E+03  0.12509140827E+03 0.  0.
        -24    2    1    2    0    0  0.93689375415E+02  0.60155513136E+02  0.93978740967E+03  0.94989208664E+03  0.81842629804E+02 0.  0.
        -13    1    3    3    0    0  0.11281049226E+02 -0.95801723827E+02 -0.68046547190E+03  0.68726886356E+03  0.00000000000E+00 0.  1.
         14    1    3    3    0    0 -0.19397294210E+02  0.82448705128E+00 -0.50997967755E+02  0.54568557949E+02  0.00000000000E+00 0. -1.
         13    1    5    5    0    0 -0.66408436105E+01 -0.23013343739E+01  0.80373391454E+01  0.10676879895E+02  0.00000000000E+00 0. -1.
        -14    1    5    5    0    0  0.10033021903E+03  0.62456847510E+02  0.93175007053E+03  0.93921520675E+03  0.00000000000E+00 0.  1.
          5    1    4    4  501    0 -0.63602695763E+02  0.80769864463E+01  0.10901670621E+03  0.12654112079E+03  0.41800000000E+01 0. -1.
         -5    1    4    4    0  501 -0.21970434668E+02  0.26744737193E+02 -0.31706904996E+02  0.47125165161E+02  0.41800000000E+01 0. -1.
</event>
<event>
11    1  0.5813833E-009  0.1351546E+03  0.7561462E-02  0.1113093E+00
         22   -1    0    0    0    0  0.00000000000E+00  0.00000000000E+00  0.73407617536E+03  0.73407617536E+03  0.00000000000E+00 0. -1.
         22   -1    0    0    0    0 -0.00000000000E+00 -0.00000000000E+00 -0.92179395768E+02  0.92179395768E+02  0.00000000000E+00 0. -1.
        -24    2    1    2    0    0  0.12858897593E+02  0.54728202769E+02 -0.20045897633E+02  0.10039311005E+03  0.80724290689E+02 0.  0.
         25    2    1    2    0    0 -0.18216099276E+02 -0.29597496220E+02  0.11388276327E+03  0.17269589068E+03  0.12508696508E+03 0.  0.
         24    2    1    2    0    0  0.53572016826E+01 -0.25130706549E+02  0.54805991396E+03  0.55316657040E+03  0.70450928309E+02 0.  0.
        -13    1    5    5    0    0  0.12200174134E+02  0.15587180576E+02  0.56335718630E+02  0.59711955593E+02  0.00000000000E+00 0.  1.
         14    1    5    5    0    0 -0.68429724510E+01 -0.40717887124E+02  0.49172419533E+03  0.49345461481E+03  0.00000000000E+00 0. -1.
         13    1    3    3    0    0  0.34030027650E+02  0.46406313288E+02 -0.40041349324E+02  0.70106336023E+02  0.00000000000E+00 0. -1.
        -14    1    3    3    0    0 -0.21171130057E+02  0.83218894805E+01  0.19995451691E+02  0.30286774023E+02  0.00000000000E+00 0.  1.
          5    1    4    4  501    0 -0.63982506591E+02 -0.11936950499E+02  0.22677474313E+02  0.69050649368E+02  0.41800000000E+01 0. -1.
         -5    1    4    4    0  501  0.45766407315E+02 -0.17660545721E+02  0.91205288954E+02  0.10364524131E+03  0.41800000000E+01 0. -1.
</event>
<event>
11    1  0.5813833E-009  0.2124971E+03  0.7561462E-02  0.1046022E+00
         22   -1    0    0    0    0  0.00000000000E+00  0.00000000000E+00  0.18534362762E+04  0.18534362762E+04  0.00000000000E+00 0. -1.
         22   -1    0    0    0    0 -0.00000000000E+00 -0.00000000000E+00 -0.52081046477E+02  0.52081046477E+02  0.00000000000E+00 0. -1.
        -24    2    1    2    0    0 -0.78487521180E+02  0.14125142141E+03  0.24909222895E+03  0.30743426900E+03  0.79728515601E+02 0.  0.
         25    2    1    2    0    0  0.41243291867E+02 -0.20126756865E+03  0.72416970638E+03  0.76307233405E+03  0.12509188641E+03 0.  0.
         24    2    1    2    0    0  0.37244229312E+02  0.60016147239E+02  0.82809329443E+03  0.83501071966E+03  0.80717576292E+02 0.  0.
        -11    1    5    5    0    0 -0.33027974455E+01  0.23179952196E+02  0.52491718043E+02  0.57476944229E+02  0.00000000000E+00 0.  1.
         12    1    5    5    0    0  0.40547026758E+02  0.36836195043E+02  0.77560157639E+03  0.77753377543E+03  0.00000000000E+00 0. -1.
         11    1    3    3    0    0 -0.38317347445E+02  0.11171382993E+03  0.11699829852E+03  0.16624319767E+03  0.00000000000E+00 0. -1.
        -12    1    3    3    0    0 -0.40170173735E+02  0.29537591482E+02  0.13209393043E+03  0.14119107134E+03  0.00000000000E+00 0.  1.
          5    1    4    4  501    0  0.53712037477E+02 -0.70454954051E+02  0.15192555247E+03  0.17591966750E+03  0.41800000000E+01 0.  1.
         -5    1    4    4    0  501 -0.12468745610E+02 -0.13081261460E+03  0.57224415391E+03  0.58715266655E+03  0.41800000000E+01 0.  1.
</event>
<event>
11    1  0.5813833E-009  0.1483331E+03  0.7561462E-02  0.1098594E+00
         22   -1    0    0    0    0  0.00000000000E+00  0.00000000000E+00  0.39336769755E+03  0.39336769755E+03  0.00000000000E+00 0. -1.
         22   -1    0    0    0    0 -0.00000000000E+00 -0.00000000000E+00 -0.95774135619E+03  0.95774135619E+03  0.00000000000E+00 0.  1.
        -24    2    1    2    0    0  0.10569547657E+02  0.59260483691E+01 -0.52098480658E+03  0.52771836217E+03  0.83154480865E+02 0.  0.
         25    2    1    2    0    0  0.50840679317E+02 -0.56897917109E+02 -0.41197892508E+03  0.43725979550E+03  0.12508935369E+03 0.  0.
         24    2    1    2    0    0 -0.61410226974E+02  0.50971868739E+02  0.36859007303E+03  0.38613089607E+03  0.82879910634E+02 0.  0.
        -13    1    5    5    0    0 -0.96569158411E+01 -0.19966635710E+02  0.13034891558E+03  0.13222239734E+03  0.00000000000E+00 0.  1.
         14    1    5    5    0    0 -0.51753311133E+02  0.70938504449E+02  0.23824115745E+03  0.25390849873E+03  0.00000000000E+00 0. -1.
         11    1    3    3    0    0  0.24739550112E+02  0.10699753776E+02 -0.52683311595E+02  0.59178217202E+02  0.00000000000E+00 0. -1.
        -12    1    3    3    0    0 -0.14170002455E+02 -0.47737054064E+01 -0.46830149499E+03  0.46854014496E+03  0.00000000000E+00 0.  1.
          5    1    4    4  501    0 -0.32442999172E+01 -0.98163525431E+01 -0.32169660343E+03  0.32188983102E+03  0.41800000000E+01 0.  1.
         -5    1    4    4    0  501  0.54084979234E+02 -0.47081564566E+02 -0.90282321650E+02  0.11536996448E+03  0.41800000000E+01 0.  1.
</event>
<event>
11    1  0.5813833E-009  0.2988052E+03  0.7561462E-02  0.1000698E+00
         22   -1    0    0    0    0  0.00000000000E+00  0.00000000000E+00  0.63543537183E+03  0.63543537183E+03  0.00000000000E+00 0.  1.
         22   -1    0    0    0    0 -0.00000000000E+00 -0.00000000000E+00 -0.63012953870E+03  0.63012953870E+03  0.00000000000E+00 0. -1.
         24    2    1    2    0    0  0.12032975208E+03 -0.25219563065E+03 -0.51870599898E+03  0.59464224013E+03  0.80384047036E+02 0.  0.
         25    2    1    2    0    0 -0.16964958123E+03  0.14961876300E+03  0.23203546275E+03  0.34735546357E+03  0.12509439414E+03 0.  0.
        -24    2    1    2    0    0  0.49319829142E+02  0.10257686766E+03  0.29197636935E+03  0.32356720683E+03  0.80567225033E+02 0.  0.
        -13    1    3    3    0    0  0.47823387669E+02 -0.12092567934E+03 -0.32219087442E+03  0.34744360102E+03  0.00000000000E+00 0.  1.
         14    1    3    3    0    0  0.72506364416E+02 -0.13126995131E+03 -0.19651512456E+03  0.24719863911E+03  0.00000000000E+00 0. -1.
         13    1    5    5    0    0  0.97013713895E+01  0.20938666261E+02  0.64403952384E+01  0.23958777983E+02  0.00000000000E+00 0. -1.
        -14    1    5    5    0    0  0.39618457753E+02  0.81638201395E+02  0.28553597412E+03  0.29960842885E+03  0.00000000000E+00 0.  1.
          5    1    4    4  501    0 -0.53758433908E+02  0.10782218787E+03  0.57204023750E+02  0.13343674961E+03  0.41800000000E+01 0. -1.
         -5    1    4    4    0  501 -0.11589114732E+03  0.41796575129E+02  0.17483143900E+03  0.21391871396E+03  0.41800000000E+01 0. -1.
</event>
<event>
11    1  0.5813833E-009  0.2849384E+03  0.7561462E-02  0.1006775E+00
         22   -1    0    0    0    0  0.00000000000E+00  0.00000000000E+00  0.22389762188E+04  0.22389762188E+04  0.00000000000E+00 0. -1.
         22   -1    0    0    0    0 -0.00000000000E+00 -0.00000000000E+00 -0.53145141642E+03  0.53145141642E+03  0.00000000000E+00 0.  1.
        -24    2    1    2    0    0  0.21486956987E+03 -0.12087776875E+03 -0.40108270388E+03  0.47543521129E+03  0.66264151305E+02 0.  0.
         25    2    1    2    0    0 -0.28192584815E+03  0.24303115721E+03  0.34081323207E+03  0.51994944659E+03  0.12508973029E+03 0.  0.
         24    2    1    2    0    0  0.67056278280E+02 -0.12215338846E+03  0.17677942742E+04  0.17750429774E+04  0.79138996601E+02 0.  0.
        -11    1    5    5    0    0  0.64706657908E+02 -0.38382396414E+02  0.72806620703E+03  0.73194300444E+03  0.00000000000E+00 0.  1.
         12    1    5    5    0    0  0.23496203719E+01 -0.83770992042E+02  0.10397280672E+04  0.10430999729E+04  0.00000000000E+00 0. -1.
         13    1    3    3    0    0  0.25182451684E+02 -0.43194720610E+02 -0.88245860009E+02  0.10142618779E+03  0.00000000000E+00 0. -1.
        -14    1    3    3    0    0  0.18968711819E+03 -0.77683048140E+02 -0.31283684387E+03  0.37400902350E+03  0.00000000000E+00 0.  1.
          5    1    4    4  501    0 -0.16160687773E+03  0.10523586846E+03  0.99321794909E+02  0.21696465676E+03  0.41800000000E+01 0.  1.
         -5    1    4    4    0  501 -0.12031897042E+03  0.13779528875E+03  0.24149143716E+03  0.30298478983E+03  0.41800000000E+01 0.  1.
</event>
<event>
11    1  0.5813833E-009  0.1591350E+03  0.7561462E-02  0.1087894E+00
         22   -1    0    0    0    0  0.00000000000E+00  0.00000000000E+00  0.48627159223E+02  0.48627159223E+02  0.00000000000E+00 0. -1.
         22   -1    0    0    0    0 -0.00000000000E+00 -0.00000000000E+00 -0.41108290931E+04  0.41108290931E+04  0.00000000000E+00 0.  1.
         24    2    1    2    0    0 -0.63902529005E+02 -0.10624139826E+02 -0.36457435214E+04  0.36477880740E+04  0.10351620024E+03 0.  0.
         25    2    1    2    0    0  0.25675236425E+02 -0.93207551092E+02 -0.19194198805E+03  0.24867148959E+03  0.12509563386E+03 0.  0.
        -24    2    1    2    0    0  0.38227292581E+02  0.10383169092E+03 -0.22451642449E+03  0.26299668875E+03  0.80729718781E+02 0.  0.
        -11    1    3    3    0    0 -0.56475821333E+02 -0.41080635001E+02 -0.32679537260E+04  0.32686998474E+04  0.00000000000E+00 0.  1.
         12    1    3    3    0    0 -0.74267076721E+01  0.30456495176E+02 -0.37778979537E+03  0.37908822663E+03  0.00000000000E+00 0. -1.
         11    1    5    5    0    0  0.22800517426E+02  0.11540196480E+03 -0.19529524088E+03  0.22798620174E+03  0.00000000000E+00 0. -1.
        -12    1    5    5    0    0  0.15426775155E+02 -0.11570273883E+02 -0.29221183606E+02  0.35010487011E+02  0.00000000000E+00 0.  1.
          5    1    4    4  501    0  0.55184509952E+02 -0.10270604831E+03 -0.10758123353E+03  0.15869800473E+03  0.41800000000E+01 0. -1.
         -5    1    4    4    0  501 -0.29509273527E+02  0.94984972218E+01 -0.84360754522E+02  0.89973484856E+02  0.41800000000E+01 0. -1.
</event>
<event>
11    1  0.5813833E-009  0.1357882E+03  0.7561462E-02  0.1112355E+00
         22   -1    0    0    0    0  0.00000000000E+00  0.00000000000E+00  0.13057484512E+04  0.13057484512E+04  0.00000000000E+00 0.  1.
         22   -1    0    0    0    0 -0.00000000000E+00 -0.00000000000E+00 -0.35102576983E+03  0.35102576983E+03  0.00000000000E+00 0. -1.
         24    2    1    2    0    0  0.83459815598E+01  0.83992794817E+01 -0.23496334707E+03  0.24772684398E+03  0.77592599247E+02 0.  0.
         25    2    1    2    0    0  0.36363064413E+02 -0.36637148146E+02 -0.65378181382E+02  0.15028497101E+03  0.12508682118E+03 0.  0.
        -24    2    1    2    0    0 -0.44709045973E+02  0.28237868665E+02  0.12550642098E+04  0.12587624061E+04  0.80624736241E+02 0.  0.
        -13    1    3    3    0    0 -0.47130075852E+01 -0.19532377186E+02 -0.13685025354E+02  0.24310617392E+02  0.00000000000E+00 0.  1.
         14    1    3    3    0    0  0.13058989145E+02  0.27931656667E+02 -0.22127832171E+03  0.22341622659E+03  0.00000000000E+00 0. -1.
         13    1    5    5    0    0  0.10157291395E+02  0.10787682115E+02  0.45985603701E+02  0.48313770311E+02  0.00000000000E+00 0. -1.
        -14    1    5    5    0    0 -0.54866337368E+02  0.17450186549E+02  0.12090786061E+04  0.12104486358E+04  0.00000000000E+00 0.  1.
          5    1    4    4  501    0  0.61965253763E+02  0.23044161900E+02 -0.51097884346E+02  0.83661175322E+02  0.41800000000E+01 0.  1.
         -5    1    4    4    0  501 -0.25602189350E+02 -0.59681310046E+02 -0.14280297036E+02  0.66623795687E+02  0.41800000000E+01 0.  1.
</event>
<event>
11    1  0.5813833E-009  0.1349974E+03  0.7561462E-02  0.1113277E+00
         22   -1    0    0    0    0  0.00000000000E+00  0.00000000000E+00  0.63859749068E+03  0.63859749068E+03  0.00000000000E+00 0.  1.
         22   -1    0    0    0    0 -0.00000000000E+00 -0.00000000000E+00 -0.20935981021E+03  0.20935981021E+03  0.00000000000E+00 0. -1.
        -24    2    1    2    0    0  0.28966146878E+02  0.41911313593E+02 -0.16832085086E+03  0.19328530963E+03  0.80197919013E+02 0.  0.
         25    2    1    2    0    0 -0.52587371078E+02 -0.21381384964E+02  0.17451245497E+03  0.22208859372E+03  0.12508457659E+03 0.  0.
         24    2    1    2    0    0  0.23621224200E+02 -0.20529928630E+02  0.42304607635E+03  0.43258339754E+03  0.84740621351E+02 0.  0.
        -13    1    5    5    0    0  0.40840958524E+02 -0.18832576836E+02  0.40533676776E+03  0.40782415958E+03  0.00000000000E+00 0.  1.
         14    1    5    5    0    0 -0.17219734324E+02 -0.16973517932E+01  0.17709308598E+02  0.24759237959E+02  0.00000000000E+00 0. -1.
         13    1    3    3    0    0  0.47820814533E+02  0.50717394531E+02 -0.10023793484E+03  0.12209311197E+03  0.00000000000E+00 0. -1.
        -14    1    3    3    0    0 -0.18854667655E+02 -0.88060809376E+01 -0.68082916018E+02  0.71192197658E+02  0.00000000000E+00 0.  1.
          5    1    4    4  501    0  0.31417274196E+02 -0.30546664321E+02  0.10034822388E+03  0.10957820155E+03  0.41800000000E+01 0. -1.
         -5    1    4    4    0  501 -0.84004645274E+02  0.91652793576E+01  0.74164231091E+02  0.11251039217E+03  0.41800000000E+01 0. -1.
</event>
<event>
11    1  0.5813833E-009  0.1351572E+03  0.7561462E-02  0.1113090E+00
         22   -1    0    0    0    0  0.00000000000E+00  0.00000000000E+00  0.15101661537E+04  0.15101661537E+04  0.00000000000E+00 0. -1.
         22   -1    0    0    0    0 -0.00000000000E+00 -0.00000000000E+00 -0.71700130695E+02  0.71700130695E+02  0.00000000000E+00 0.  1.
        -24    2    1    2    0    0  0.49175387911E+02 -0.31916544141E+02  0.25667026581E+02  0.10379925395E+03  0.81722728174E+02 0.  0.
         25    2    1    2    0    0 -0.37783556719E+02  0.49181750052E+01  0.10824437177E+03  0.16975306155E+03  0.12508985683E+03 0.  0.
         24    2    1    2    0    0 -0.11391831192E+02  0.26998369136E+02  0.13045546247E+04  0.13083139689E+04  0.94678333120E+02 0.  0.
        -11    1    5    5    0    0 -0.23318354495E+02 -0.15650176410E+02  0.13347852220E+03  0.13640084152E+03  0.00000000000E+00 0.  1.
         12    1    5    5    0    0  0.11926523303E+02  0.42648545546E+02  0.11710761025E+04  0.11719131274E+04  0.00000000000E+00 0. -1.
         13    1    3    3    0    0  0.54463799448E+02 -0.10249557285E+02  0.47201587716E+02  0.72796626006E+02  0.00000000000E+00 0. -1.
        -14    1    3    3    0    0 -0.52884115368E+01 -0.21666986856E+02 -0.21534561135E+02  0.31002627941E+02  0.00000000000E+00 0.  1.
          5    1    4    4  501    0  0.97394884961E+01 -0.18309984856E+02  0.11439681920E+03  0.11633665727E+03  0.41800000000E+01 0. -1.
         -5    1    4    4    0  501 -0.47523045215E+02  0.23228159861E+02 -0.61524474256E+01  0.53416404282E+02  0.41800000000E+01 0. -1.
</event>
<event>
11    1  0.5813833E-009  0.1418774E+03  0.7561462E-02  0.1105480E+00
         22   -1    0    0    0    0  0.00000000000E+00  0.00000000000E+00  0.46010718764E+03  0.46010718764E+03  0.00000000000E+00 0.  1.
         22   -1    0    0    0    0 -0.00000000000E+00 -0.00000000000E+00 -0.29548427664E+03  0.29548427664E+03  0.00000000000E+00 0. -1.
         24    2    1    2    0    0 -0.28776399964E+02  0.18783496911E+02 -0.23460839528E+03  0.25143903267E+03  0.83663534838E+02 0.  0.
         25    2    1    2    0    0  0.91113555533E+02 -0.20274705785E+02  0.93060022050E+02  0.18171603854E+03  0.12509119578E+03 0.  0.
        -24    2    1    2    0    0 -0.62337155570E+02  0.14912088737E+01  0.30617128423E+03  0.32243639307E+03  0.79600424753E+02 0.  0.
        -13    1    3    3    0    0  0.12594957878E+02 -0.34993598951E+01 -0.95456730070E+00  0.13106856311E+02  0.00000000000E+00 0.  1.
         14    1    3    3    0    0 -0.41371357842E+02  0.22282856806E+02 -0.23365382798E+03  0.23833217636E+03  0.00000000000E+00 0. -1.
         13    1    5    5    0    0  0.70979263880E+01 -0.10614775750E+02  0.60135820654E+01  0.14114432064E+02  0.00000000000E+00 0. -1.
        -14    1    5    5    0    0 -0.69435081958E+02  0.12105984624E+02  0.30015770216E+03  0.30832196101E+03  0.00000000000E+00 0.  1.
          5    1    4    4  501    0  0.72507111578E+02 -0.67910167508E+02  0.37976790911E+02  0.10643674708E+03  0.41800000000E+01 0.  1.
         -5    1    4    4    0  501  0.18606443955E+02  0.47635461723E+02  0.55083231138E+02  0.75279291461E+02  0.41800000000E+01 0.  1.
</event>
<event>
11    1  0.5813833E-009  0.1415595E+03  0.7561462E-02  0.1105829E+00
         22   -1    0    0    0    0  0.00000000000E+00  0.00000000000E+00  0.90553221310E+03  0.90553221310E+03  0.00000000000E+00 0.  1.
         22   -1    0    0    0    0 -0.00000000000E+00 -0.00000000000E+00 -0.46324314105E+03  0.46324314105E+03  0.00000000000E+00 0.  1.
        -24    2    1    2    0    0  0.33673126491E+01  0.45851548893E+02 -0.26419260370E+03  0.28011279559E+03  0.80942838310E+02 0.  0.
         25    2    1    2    0    0 -0.69474471962E+02 -0.41215350180E+02 -0.15828384081E+03  0.21731462217E+03  0.12508582414E+03 0.  0.
         24    2    1    2    0    0  0.66107159313E+02 -0.46361987132E+01  0.86476551656E+03  0.87134793639E+03  0.83881921589E+02 0.  0.
        -13    1    5    5    0    0  0.66664384772E+02 -0.34888641458E+02  0.67573215769E+03  0.67990830738E+03  0.00000000000E+00 0.  1.
         14    1    5    5    0    0 -0.55722545918E+00  0.30252442745E+02  0.18903335886E+03  0.19143962901E+03  0.00000000000E+00 0. -1.
         11    1    3    3    0    0 -0.22038508416E+02 -0.12805207401E+02 -0.11521145627E+03  0.11799724084E+03  0.00000000000E+00 0. -1.
        -12    1    3    3    0    0  0.25405821065E+02  0.58656756294E+02 -0.14898114743E+03  0.16211555475E+03  0.00000000000E+00 0.  1.
          5    1    4    4  501    0 -0.37369856122E+02  0.42854836737E+02 -0.78198895692E+02  0.96775941565E+02  0.41800000000E+01 0.  1.
         -5    1    4    4    0  501 -0.32104615840E+02 -0.84070186917E+02 -0.80084945117E+02  0.12053868060E+03  0.41800000000E+01 0.  1.
</event>
<event>
11    1  0.5813833E-009  0.2882009E+03  0.7561462E-02  0.1005312E+00
         22   -1    0    0    0    0  0.00000000000E+00  0.00000000000E+00  0.25722705824E+04  0.25722705824E+04  0.00000000000E+00 0. -1.
         22   -1    0    0    0    0 -0.00000000000E+00 -0.00000000000E+00 -0.41884788681E+03  0.41884788681E+03  0.00000000000E+00 0. -1.
        -24    2    1    2    0    0 -0.75495574529E+02  0.56061709712E+02 -0.16949961523E+03  0.20946847458E+03  0.79400410633E+02 0.  0.
         25    2    1    2    0    0  0.30298175722E+03  0.66320950393E+02 -0.95814418360E+02  0.34788481471E+03  0.12508808043E+03 0.  0.
         24    2    1    2    0    0 -0.22748618270E+03 -0.12238266010E+03  0.24187367292E+04  0.24337651799E+04  0.78728058122E+02 0.  0.
        -11    1    5    5    0    0 -0.25401785056E+01  0.76927098642E+01  0.35924157834E+02  0.36826286915E+02  0.00000000000E+00 0.  1.
         12    1    5    5    0    0 -0.22494600419E+03 -0.13007536997E+03  0.23828125714E+04  0.23969388930E+04  0.00000000000E+00 0. -1.
         13    1    3    3    0    0 -0.14877298505E+02  0.43788790059E+02 -0.12498394122E+03  0.13326581598E+03  0.00000000000E+00 0. -1.
        -14    1    3    3    0    0 -0.60618276024E+02  0.12272919653E+02 -0.44515674017E+02  0.76202658602E+02  0.00000000000E+00 0.  1.
          5    1    4    4  501    0  0.11106184407E+03  0.37957188799E+02  0.23938844520E+02  0.11985834167E+03  0.41800000000E+01 0. -1.
         -5    1    4    4    0  501  0.19191991315E+03  0.28363761594E+02 -0.11975326288E+03  0.22802647304E+03  0.41800000000E+01 0. -1.
</event>
<event>
11    1  0.5813833E-009  0.1617412E+03  0.7561462E-02  0.1085451E+00
         22   -1    0    0    0    0  0.00000000000E+00  0.00000000000E+00  0.24484628568E+03  0.24484628568E+03  0.00000000000E+00 0. -1.
         22   -1    0    0    0    0 -0.00000000000E+00 -0.00000000000E+00 -0.14704484271E+04  0.14704484271E+04  0.00000000000E+00 0. -1.
        -24    2    1    2    0    0  0.10534676713E+03  0.17750813815E+02 -0.13416747257E+04  0.13479487918E+04  0.73904282954E+02 0.  0.
         25    2    1    2    0    0 -0.48710560403E+02  0.41970148407E+00 -0.73444507401E+02  0.15301802346E+03  0.12509006752E+03 0.  0.
         24    2    1    2    0    0 -0.56636206724E+02 -0.18170515299E+02  0.18951709170E+03  0.21432789749E+03  0.80510198460E+02 0.  0.
        -13    1    5    5    0    0 -0.44054168535E+02 -0.47977383208E+00  0.29908137411E+02  0.53249381514E+02  0.00000000000E+00 0.  1.
         14    1    5    5    0    0 -0.12582038189E+02 -0.17690741467E+02  0.15960895429E+03  0.16107851597E+03  0.00000000000E+00 0. -1.
         11    1    3    3    0    0  0.70854348385E+02  0.28123445126E+02 -0.11728406200E+04  0.11753154414E+04  0.00000000000E+00 0. -1.
        -12    1    3    3    0    0  0.34492418741E+02 -0.10372631311E+02 -0.16883410568E+03  0.17263335040E+03  0.00000000000E+00 0.  1.
          5    1    4    4  501    0  0.40964700130E+02  0.69380782106E+00 -0.80765952329E+01  0.41967747337E+02  0.41800000000E+01 0. -1.
         -5    1    4    4    0  501 -0.89675260532E+02 -0.27410633700E+00 -0.65367912168E+02  0.11105027612E+03  0.41800000000E+01 0. -1.
</event>
<event>
11    1  0.5813833E-009  0.2649575E+03  0.7561462E-02  0.1016220E+00
         22   -1    0    0    0    0  0.00000000000E+00  0.00000000000E+00  0.12436145824E+04  0.12436145824E+04  0.00000000000E+00 0. -1.
         22   -1    0    0    0    0 -0.00000000000E+00 -0.00000000000E+00 -0.78873751708E+03  0.78873751708E+03  0.00000000000E+00 0.  1.
        -24    2    1    2    0    0 -0.22638655809E+03  0.50534330884E+02 -0.39624007197E+03  0.46607416612E+03  0.80089583631E+02 0.  0.
         25    2    1    2    0    0  0.42356908998E+02 -0.20282343424E+03 -0.30141967032E+03  0.38656510607E+03  0.12508920960E+03 0.  0.
         24    2    1    2    0    0  0.18402964909E+03  0.15228910336E+03  0.11525368076E+04  0.11797128273E+04  0.79513390516E+02 0.  0.
        -13    1    5    5    0    0  0.26678673739E+01 -0.83027184125E+01  0.25948716447E+02  0.27374961819E+02  0.00000000000E+00 0.  1.
         14    1    5    5    0    0  0.18136178172E+03  0.16059182177E+03  0.11265880911E+04  0.11523378654E+04  0.00000000000E+00 0. -1.
         13    1    3    3    0    0 -0.46852831687E+02 -0.19975050266E+02 -0.62724098324E+02  0.80799152105E+02  0.00000000000E+00 0. -1.
        -14    1    3    3    0    0 -0.17953372640E+03  0.70509381151E+02 -0.33351597364E+03  0.38527501401E+03  0.00000000000E+00 0.  1.
          5    1    4    4  501    0  0.65257200327E+01 -0.32542510215E+02 -0.15661138656E+03  0.16014430615E+03  0.41800000000E+01 0. -1.
         -5    1    4    4    0  501  0.35831188966E+02 -0.17028092403E+03 -0.14480828376E+03  0.22642079992E+03  0.41800000000E+01 0. -1.
</event>
<event>
11    1  0.5813833E-009  0.1258133E+03  0.7561462E-02  0.1124523E+00
         22   -1    0    0    0    0  0.00000000000E+00  0.00000000000E+00  0.52262282741E+02  0.52262282741E+02  0.00000000000E+00 0.  1.
         22   -1    0    0    0    0 -0.00000000000E+00 -0.00000000000E+00 -0.62883702823E+03  0.62883702823E+03  0.00000000000E+00 0.  1.
         24    2    1    2    0    0 -0.22099517415E+02  0.61794036926E+01 -0.19309969388E+03  0.21024989298E+03  0.79943430123E+02 0.  0.
         25    2    1    2    0    0  0.29878156934E+01  0.10408254506E+02 -0.36927775984E+03  0.39003788581E+03  0.12508488977E+03 0.  0.
        -24    2    1    2    0    0  0.19111701722E+02 -0.16587658198E+02 -0.14197291766E+02  0.80811532185E+02  0.75422364677E+02 0.  0.
        -11    1    3    3    0    0 -0.15508246954E+02  0.41443920580E+02 -0.13396215687E+03  0.14108140824E+03  0.00000000000E+00 0.  1.
         12    1    3    3    0    0 -0.65912704607E+01 -0.35264516887E+02 -0.59137537009E+02  0.69168484739E+02  0.00000000000E+00 0. -1.
         13    1    5    5    0    0 -0.27530143608E+02 -0.41121991501E+01 -0.16707720040E+02  0.32464856350E+02  0.00000000000E+00 0. -1.
        -14    1    5    5    0    0  0.46641845329E+02 -0.12475459048E+02  0.25104282737E+01  0.48346675835E+02  0.00000000000E+00 0.  1.
          5    1    4    4  501    0 -0.24052566595E+02 -0.51584303543E+02 -0.18979586962E+03  0.19819033997E+03  0.41800000000E+01 0. -1.
         -5    1    4    4    0  501  0.27040382289E+02  0.61992558049E+02 -0.17948189022E+03  0.19184754584E+03  0.41800000000E+01 0. -1.
</event>
<event>
11    1  0.5813833E-009  0.1495323E+03  0.7561462E-02  0.1097358E+00
         22   -1    0    0    0    0  0.00000000000E+00  0.00000000000E+00  0.24704344339E+03  0.24704344339E+03  0.00000000000E+00 0. -1.
         22   -1    0    0    0    0 -0.00000000000E+00 -0.00000000000E+00 -0.10399811504E+04  0.10399811504E+04  0.00000000000E+00 0.  1.
         24    2    1    2    0    0 -0.34591244497E+02 -0.21263823522E+02 -0.84399289932E+03  0.84891488969E+03  0.81754336043E+02 0.  0.
         25    2    1    2    0    0  0.32458849721E+02  0.10149701015E+03 -0.14019958989E+03  0.21600570846E+03  0.12508925248E+03 0.  0.
        -24    2    1    2    0    0  0.21323947763E+01 -0.80233186627E+02  0.19125478216E+03  0.22210399566E+03  0.79434764708E+02 0.  0.
        -13    1    3    3    0    0 -0.59467606927E+02 -0.56667302430E+01 -0.64609144040E+03  0.64884717573E+03  0.00000000000E+00 0.  1.
         14    1    3    3    0    0  0.24876362430E+02 -0.15597093279E+02 -0.19790145892E+03  0.20006771396E+03  0.00000000000E+00 0. -1.
         11    1    5    5    0    0 -0.35658330526E+02 -0.34531006280E+02  0.58603729286E+02  0.76800416775E+02  0.00000000000E+00 0. -1.
        -12    1    5    5    0    0  0.37790725303E+02 -0.45702180348E+02  0.13265105288E+03  0.14530357889E+03  0.00000000000E+00 0.  1.
          5    1    4    4  501    0  0.63063886019E+02  0.45330957923E+02 -0.12943841629E+03  0.15100902449E+03  0.41800000000E+01 0. -1.
         -5    1    4    4    0  501 -0.30605036298E+02  0.56166052226E+02 -0.10761173599E+02  0.64996683967E+02  0.41800000000E+01 0. -1.
</event>
<event>
11    1  0.5813833E-009  0.2585958E+03  0.7561462E-02  0.1019417E+00
         22   -1    0    0    0    0  0.00000000000E+00  0.00000000000E+00  0.10189791734E+04  0.10189791734E+04  0.00000000000E+00 0.  1.
         22   -1    0    0    0    0 -0.00000000000E+00 -0.00000000000E+00 -0.82221751916E+03  0.82221751916E+03  0.00000000000E+00 0. -1.
         24    2    1    2    0    0 -0.66844583197E+02  0.12099376557E+02 -0.62225244014E+03  0.63097735664E+03  0.79496742793E+02 0.  0.
         25    2    1    2    0    0 -0.16387937901E+03  0.10003158500E+02 -0.12062799138E+03  0.23907047856E+03  0.12508823833E+03 0.  0.
        -24    2    1    2    0    0  0.23072396220E+03 -0.22102535056E+02  0.93964208578E+03  0.97114885739E+03  0.80503323169E+02 0.  0.
        -11    1    3    3    0    0 -0.60181545909E+02 -0.24505671886E+02 -0.32733966760E+03  0.33372684101E+03  0.00000000000E+00 0.  1.
         12    1    3    3    0    0 -0.66630372881E+01  0.36605048443E+02 -0.29491277254E+03  0.29725051563E+03  0.00000000000E+00 0. -1.
         13    1    5    5    0    0  0.82626801010E+01 -0.19345187473E+02  0.12096953490E+03  0.12278491982E+03  0.00000000000E+00 0. -1.
        -14    1    5    5    0    0  0.22246128210E+03 -0.27573475830E+01  0.81867255088E+03  0.84836393757E+03  0.00000000000E+00 0.  1.
          5    1    4    4  501    0  0.14198192641E+02 -0.87653298112E+00 -0.41101773931E+02  0.43694223928E+02  0.41800000000E+01 0.  1.
         -5    1    4    4    0  501 -0.17807757165E+03  0.10879691481E+02 -0.79526217452E+02  0.19537625463E+03  0.41800000000E+01 0.  1.
</event>
<event>
11    1  0.5813833E-009  0.2547764E+03  0.7561462E-02  0.1021385E+00
         22   -1    0    0    0    0  0.00000000000E+00  0.00000000000E+00  0.64240410330E+03  0.64240410330E+03  0.00000000000E+00 0.  1.
         22   -1    0    0    0    0 -0.00000000000E+00 -0.00000000000E+00 -0.23477184534E+03  0.23477184534E+03  0.00000000000E+00 0. -1.
         24    2    1    2    0    0  0.19824634802E+03  0.63056296184E+02 -0.63822174001E+02  0.23326597592E+03  0.84035912791E+02 0.  0.
         25    2    1    2    0    0 -0.27002027566E+03 -0.44673139840E+02  0.22715714011E+03  0.37703023463E+03  0.12507914627E+03 0.  0.
        -24    2    1    2    0    0  0.71773927647E+02 -0.18383156344E+02  0.24429729186E+03  0.26687973809E+03  0.77808679890E+02 0.  0.
        -11    1    3    3    0    0  0.11459985794E+03  0.23173612314E+02  0.62515679339E+01  0.11708640335E+03  0.00000000000E+00 0.  1.
         12    1    3    3    0    0  0.83646490077E+02  0.39882683870E+02 -0.70073741935E+02  0.11617957257E+03  0.00000000000E+00 0. -1.
         11    1    5    5    0    0 -0.18013637238E+01 -0.90343827672E+01 -0.21958866808E+01  0.94703168671E+01  0.00000000000E+00 0. -1.
        -12    1    5    5    0    0  0.73575291370E+02 -0.93487735767E+01  0.24649317854E+03  0.25740942122E+03  0.00000000000E+00 0.  1.
          5    1    4    4  501    0 -0.71471600360E+02 -0.57405347295E+02  0.11983307537E+03  0.15093376663E+03  0.41800000000E+01 0. -1.
         -5    1    4    4    0  501 -0.19854867530E+03  0.12732207455E+02  0.10732406474E+03  0.22609646800E+03  0.41800000000E+01 0. -1.
</event>
<event>
11    1  0.5813833E-009  0.2134819E+03  0.7561462E-02  0.1045379E+00
         22   -1    0    0    0    0  0.00000000000E+00  0.00000000000E+00  0.34198524116E+03  0.34198524116E+03  0.00000000000E+00 0. -1.
         22   -1    0    0    0    0 -0.00000000000E+00 -0.00000000000E+00 -0.18606540934E+04  0.18606540934E+04  0.00000000000E+00 0. -1.
        -24    2    1    2    0    0 -0.36325618096E+02 -0.16852866007E+03 -0.17364210208E+04  0.17469412420E+04  0.83212270169E+02 0.  0.
         25    2    1    2    0    0  0.96520072841E+02  0.16987290683E+03  0.18813108231E+02  0.23276672607E+03  0.12511389527E+03 0.  0.
         24    2    1    2    0    0 -0.60194454745E+02 -0.13442467630E+01  0.19893906031E+03  0.22293136645E+03  0.80600651668E+02 0.  0.
        -13    1    5    5    0    0 -0.52027447600E+02 -0.10795377766E+02  0.48398774276E+02  0.71873756242E+02  0.00000000000E+00 0.  1.
         14    1    5    5    0    0 -0.81670071442E+01  0.94511310027E+01  0.15054028603E+03  0.15105761021E+03  0.00000000000E+00 0. -1.
         13    1    3    3    0    0 -0.24345882423E+02 -0.13271037289E+03 -0.94098089551E+03  0.95060497094E+03  0.00000000000E+00 0. -1.
        -14    1    3    3    0    0 -0.11979735673E+02 -0.35818287180E+02 -0.79544012528E+03  0.79633627110E+03  0.00000000000E+00 0.  1.
          5    1    4    4  501    0  0.52651746903E+02  0.17648650903E+03  0.30430111602E+02  0.18671678664E+03  0.41800000000E+01 0.  1.
         -5    1    4    4    0  501  0.43868325938E+02 -0.66136021979E+01 -0.11617003371E+02  0.46049939435E+02  0.41800000000E+01 0.  1.
</event>
<event>
11    1  0.5813833E-009  0.1452951E+03  0.7561462E-02  0.1101786E+00
         22   -1    0    0    0    0  0.00000000000E+00  0.00000000000E+00  0.73336122202E+02  0.73336122202E+02  0.00000000000E+00 0. -1.
         22   -1    0    0    0    0 -0.00000000000E+00 -0.00000000000E+00 -0.37716686597E+04  0.37716686597E+04  0.00000000000E+00 0. -1.
         24    2    1    2    0    0 -0.73599785167E+02  0.25393102409E+02 -0.33540652660E+04  0.33559367240E+04  0.80596208773E+02 0.  0.
         25    2    1    2    0    0  0.22850716867E+02 -0.20416857804E+02 -0.37322611595E+03  0.39482273269E+03  0.12509297854E+03 0.  0.
        -24    2    1    2    0    0  0.50749068300E+02 -0.49762446049E+01  0.28958844499E+02  0.94245325164E+02  0.73778965138E+02 0.  0.
        -11    1    3    3    0    0 -0.40055183350E+02 -0.27559633995E+02 -0.12749337237E+04  0.12758604748E+04  0.00000000000E+00 0.  1.
         12    1    3    3    0    0 -0.33544601817E+02  0.52952736404E+02 -0.20791315423E+04  0.20800762492E+04  0.00000000000E+00 0. -1.
         13    1    5    5    0    0  0.42439337762E+02  0.17981459830E+02  0.45490499307E+02  0.64759677381E+02  0.00000000000E+00 0. -1.
        -14    1    5    5    0    0  0.83097305380E+01 -0.22957704435E+02 -0.16531654808E+02  0.29485647783E+02  0.00000000000E+00 0.  1.
          5    1    4    4  501    0  0.66860383095E+02 -0.15612969870E+02 -0.12529053047E+03  0.14293098013E+03  0.41800000000E+01 0.  1.
         -5    1    4    4    0  501 -0.44009666227E+02 -0.48038879345E+01 -0.24793558548E+03  0.25189175256E+03  0.41800000000E+01 0.  1.
</event>
<event>
11    1  0.5813833E-009  0.1294380E+03  0.7561462E-02  0.1119961E+00
         22   -1    0    0    0    0  0.00000000000E+00  0.00000000000E+00  0.84048685745E+02  0.84048685745E+02  0.00000000000E+00 0.  1.
         22   -1    0    0    0    0 -0.00000000000E+00 -0.00000000000E+00 -0.12452187695E+04  0.12452187695E+04  0.00000000000E+00 0.  1.
         24    2    1    2    0    0 -0.85913616672E+01  0.24888132854E+02 -0.76906343641E+03  0.77437113900E+03  0.86595964311E+02 0.  0.
         25    2    1    2    0    0  0.37009556621E+02 -0.52011431878E+02 -0.43434161753E+03  0.45648142137E+03  0.12509097094E+03 0.  0.
        -24    2    1    2    0    0 -0.28418194954E+02  0.27123299024E+02  0.42234970193E+02  0.98414894870E+02  0.79739774710E+02 0.  0.
        -11    1    3    3    0    0 -0.66225977436E+01  0.37884196077E+02 -0.75124665025E+03  0.75223041724E+03  0.00000000000E+00 0.  1.
         12    1    3    3    0    0 -0.19687639237E+01 -0.12996063223E+02 -0.17816786159E+02  0.22140721752E+02  0.00000000000E+00 0. -1.
         11    1    5    5    0    0  0.73491008860E+00 -0.16542766279E+02 -0.13851310377E+02  0.21588469333E+02  0.00000000000E+00 0. -1.
        -12    1    5    5    0    0 -0.29153105042E+02  0.43666065303E+02  0.56086280569E+02  0.76826425537E+02  0.00000000000E+00 0.  1.
          5    1    4    4  501    0  0.64917667426E+02  0.13602030788E+02 -0.16632931482E+03  0.17911513658E+03  0.41800000000E+01 0. -1.
         -5    1    4    4    0  501 -0.27908110805E+02 -0.65613462666E+02 -0.26801230271E+03  0.27736628479E+03  0.41800000000E+01 0. -1.
</event>
<event>
11    1  0.5813833E-009  0.1518665E+03  0.7561462E-02  0.1094987E+00
         22   -1    0    0    0    0  0.00000000000E+00  0.00000000000E+00  0.23528886721E+03  0.23528886721E+03  0.00000000000E+00 0.  1.
         22   -1    0    0    0    0 -0.00000000000E+00 -0.00000000000E+00 -0.25700484437E+03  0.25700484437E+03  0.00000000000E+00 0. -1.
         24    2    1    2    0    0 -0.62394208498E+02  0.45588667922E+02 -0.10766327029E+03  0.15506001189E+03  0.80503811212E+02 0.  0.
         25    2    1    2    0    0  0.66444839981E+02 -0.92640191040E+02 -0.45845754759E+02  0.17534544726E+03  0.12508825241E+03 0.  0.
        -24    2    1    2    0    0 -0.40506314830E+01  0.47051523119E+02  0.13179304790E+03  0.16188825242E+03  0.81290499785E+02 0.  0.
        -11    1    3    3    0    0 -0.15397859544E+02  0.38418039245E+02 -0.47043698801E+01  0.41655382773E+02  0.00000000000E+00 0.  1.
         12    1    3    3    0    0 -0.46996348954E+02  0.71706286766E+01 -0.10295890041E+03  0.11340462912E+03  0.00000000000E+00 0. -1.
         13    1    5    5    0    0 -0.39656383050E+02  0.78175963919E+01  0.66282095748E+02  0.77634140342E+02  0.00000000000E+00 0. -1.
        -14    1    5    5    0    0  0.35605751567E+02  0.39233926727E+02  0.65510952149E+02  0.84254112081E+02  0.00000000000E+00 0.  1.
          5    1    4    4  501    0 -0.26347871059E+00  0.72103881859E+01 -0.54257732086E+02  0.54894744830E+02  0.41800000000E+01 0.  1.
         -5    1    4    4    0  501  0.66708318691E+02 -0.99850579226E+02  0.84119773269E+01  0.12045070243E+03  0.41800000000E+01 0.  1.
</event>
<event>
11    1  0.5813833E-009  0.1981125E+03  0.7561462E-02  0.1055866E+00
         22   -1    0    0    0    0  0.00000000000E+00  0.00000000000E+00  0.17506393574E+03  0.17506393574E+03  0.00000000000E+00 0.  1.
         22   -1    0    0    0    0 -0.00000000000E+00 -0.00000000000E+00 -0.14965537179E+04  0.14965537179E+04  0.00000000000E+00 0. -1.
        -24    2    1    2    0    0  0.10302401123E+03  0.88587695627E+02 -0.91483129203E+03  0.92826869275E+03  0.79402432864E+02 0.  0.
         25    2    1    2    0    0 -0.17841097018E+03 -0.17434794960E+03 -0.50267391801E+03  0.57494114820E+03  0.12509426140E+03 0.  0.
         24    2    1    2    0    0  0.75386958954E+02  0.85760253977E+02  0.96015427903E+02  0.16840781267E+03  0.78129470947E+02 0.  0.
        -11    1    5    5    0    0  0.51462999152E+02  0.87908902343E+02  0.10146613435E+03  0.14377688205E+03  0.00000000000E+00 0.  1.
         12    1    5    5    0    0  0.23923959803E+02 -0.21486483661E+01 -0.54507064442E+01  0.24630930620E+02  0.00000000000E+00 0. -1.
         11    1    3    3    0    0  0.66488104628E+02  0.35506891642E+02 -0.69818784650E+03  0.70224474110E+03  0.00000000000E+00 0. -1.
        -12    1    3    3    0    0  0.36535906601E+02  0.53080803985E+02 -0.21664344554E+03  0.22602395164E+03  0.00000000000E+00 0.  1.
          5    1    4    4  501    0 -0.27103534771E+01 -0.75330952479E+02 -0.10897843226E+03  0.13257401523E+03  0.41800000000E+01 0.  1.
         -5    1    4    4    0  501 -0.17570061671E+03 -0.99016997125E+02 -0.39369548576E+03  0.44236713297E+03  0.41800000000E+01 0.  1.
</event>
<event>
11    1  0.5813833E-009  0.1752718E+03  0.7561462E-02  0.1073533E+00
         22   -1    0    0    0    0  0.00000000000E+00  0.00000000000E+00  0.47986093873E+03  0.47986093873E+03  0.00000000000E+00 0. -1.
         22   -1    0    0    0    0 -0.00000000000E+00 -0.00000000000E+00 -0.40232852665E+03  0.40232852665E+03  0.00000000000E+00 0.  1.
        -24    2    1    2    0    0  0.46077920730E+01 -0.36712327132E+02 -0.30281848746E+03  0.31518302746E+03  0.79197712980E+02 0.  0.
         25    2    1    2    0    0 -0.10007745559E+03 -0.45390181054E+02  0.97468529913E+01  0.16678762787E+03  0.12508935212E+03 0.  0.
         24    2    1    2    0    0  0.95469663515E+02  0.82102508187E+02  0.37060404654E+03  0.40021881005E+03  0.83501246105E+02 0.  0.
        -11    1    5    5    0    0  0.84494312389E+01  0.48122169322E+02  0.69496382886E+02  0.84952241305E+02  0.00000000000E+00 0.  1.
         12    1    5    5    0    0  0.87020232276E+02  0.33980338865E+02  0.30110766366E+03  0.31526656875E+03  0.00000000000E+00 0. -1.
         11    1    3    3    0    0  0.29390090825E+02  0.12162917811E+02 -0.13257726909E+03  0.13633945243E+03  0.00000000000E+00 0. -1.
        -12    1    3    3    0    0 -0.24782298752E+02 -0.48875244943E+02 -0.17024121836E+03  0.17884357503E+03  0.00000000000E+00 0.  1.
          5    1    4    4  501    0 -0.39202453606E+01 -0.20999738626E+02 -0.47447486158E+02  0.52202429912E+02  0.41800000000E+01 0. -1.
         -5    1    4    4    0  501 -0.96157210227E+02 -0.24390442429E+02  0.57194339149E+02  0.11458519796E+03  0.41800000000E+01 0. -1.
</event>
<event>
11    1  0.5813833E-009  0.1626815E+03  0.7561462E-02  0.1084582E+00
         22   -1    0    0    0    0  0.00000000000E+00  0.00000000000E+00  0.11237528918E+04  0.11237528918E+04  0.00000000000E+00 0.  1.
         22   -1    0    0    0    0 -0.00000000000E+00 -0.00000000000E+00 -0.20146073295E+03  0.20146073295E+03  0.00000000000E+00 0. -1.
         24    2    1    2    0    0 -0.82033215197E+02  0.36713322880E+02 -0.13450612051E+03  0.18112621765E+03  0.81470815596E+02 0.  0.
         25    2    1    2    0    0  0.12436730777E+03  0.57749963417E+02  0.18335925609E+03  0.26090414327E+03  0.12509224463E+03 0.  0.
        -24    2    1    2    0    0 -0.42334092574E+02 -0.94463286297E+02  0.87343902329E+03  0.88318326385E+03  0.80009138732E+02 0.  0.
        -13    1    3    3    0    0 -0.63541024813E+02  0.11734971171E+02 -0.28434317142E+02  0.70595196536E+02  0.00000000000E+00 0.  1.
         14    1    3    3    0    0 -0.18492190384E+02  0.24978351709E+02 -0.10607180336E+03  0.11053102111E+03  0.00000000000E+00 0. -1.
         11    1    5    5    0    0 -0.19745237368E+00 -0.68029068096E+02  0.30123081045E+03  0.30881708867E+03  0.00000000000E+00 0. -1.
        -12    1    5    5    0    0 -0.42136640201E+02 -0.26434218201E+02  0.57220821285E+03  0.57436617518E+03  0.00000000000E+00 0.  1.
          5    1    4    4  501    0  0.71008734517E+02 -0.27476859245E+02  0.11936188949E+03  0.14164021758E+03  0.41800000000E+01 0. -1.
         -5    1    4    4    0  501  0.53358573254E+02  0.85226822662E+02  0.63997366595E+02  0.11926392569E+03  0.41800000000E+01 0. -1.
</event>
<event>
11    1  0.5813833E-009  0.1367959E+03  0.7561462E-02  0.1111190E+00
         22   -1    0    0    0    0  0.00000000000E+00  0.00000000000E+00  0.84187924790E+03  0.84187924790E+03  0.00000000000E+00 0. -1.
         22   -1    0    0    0    0 -0.00000000000E+00 -0.00000000000E+00 -0.16423147848E+03  0.16423147848E+03  0.00000000000E+00 0.  1.
         24    2    1    2    0    0 -0.30510360727E+02 -0.34944051805E+02 -0.11619778436E+03  0.14925402907E+03  0.81381025018E+02 0.  0.
         25    2    1    2    0    0 -0.14934621126E+02 -0.56627461591E+01  0.11592535102E+03  0.17129403438E+03  0.12509136502E+03 0.  0.
        -24    2    1    2    0    0  0.45444981854E+02  0.40606797964E+02  0.67792020276E+03  0.68556266293E+03  0.81891422490E+02 0.  0.
        -13    1    3    3    0    0 -0.47790715997E+02  0.66365137497E+01 -0.66942573338E+02  0.82518506865E+02  0.00000000000E+00 0.  1.
         14    1    3    3    0    0  0.17280355270E+02 -0.41580565554E+02 -0.49255211027E+02  0.66735522200E+02  0.00000000000E+00 0. -1.
         11    1    5    5    0    0 -0.15957729132E+02 -0.94141240406E+01  0.22574689611E+03  0.22650592918E+03  0.00000000000E+00 0. -1.
        -12    1    5    5    0    0  0.61402710986E+02  0.50020922004E+02  0.45217330665E+03  0.45905673375E+03  0.00000000000E+00 0.  1.
          5    1    4    4  501    0 -0.43207271238E+01 -0.51023201302E+02  0.58680916716E+01  0.51710179403E+02  0.41800000000E+01 0.  1.
         -5    1    4    4    0  501 -0.10613894003E+02  0.45360455143E+02  0.11005725935E+03  0.11958385498E+03  0.41800000000E+01 0.  1.
</event>
<event>
11    1  0.5813833E-009  0.1699937E+03  0.7561462E-02  0.1078037E+00
         22   -1    0    0    0    0  0.00000000000E+00  0.00000000000E+00  0.86028581775E+03  0.86028581775E+03  0.00000000000E+00 0.  1.
         22   -1    0    0    0    0 -0.00000000000E+00 -0.00000000000E+00 -0.37881773395E+03  0.37881773395E+03  0.00000000000E+00 0. -1.
         24    2    1    2    0    0  0.28383346501E+02  0.11017178338E+03 -0.33266173780E+03  0.36017727321E+03  0.78232986173E+02 0.  0.
         25    2    1    2    0    0  0.17406052281E+02 -0.16687454700E+03  0.41198948839E+03  0.46209621872E+03  0.12508993451E+03 0.  0.
        -24    2    1    2    0    0 -0.45789398783E+02  0.56702763623E+02  0.40214033321E+03  0.41683005977E+03  0.81966936591E+02 0.  0.
        -13    1    3    3    0    0  0.87348526577E+01  0.25134517443E+02 -0.14585886267E+02  0.30344516741E+02  0.00000000000E+00 0.  1.
         14    1    3    3    0    0  0.19648493844E+02  0.85037265939E+02 -0.31807585154E+03  0.32983275647E+03  0.00000000000E+00 0. -1.
         11    1    5    5    0    0 -0.24455255634E+02  0.16833932165E+02  0.30920139120E+02  0.42866021550E+02  0.00000000000E+00 0. -1.
        -12    1    5    5    0    0 -0.21334143149E+02  0.39868831458E+02  0.37122019409E+03  0.37396403822E+03  0.00000000000E+00 0.  1.
          5    1    4    4  501    0  0.50512640767E+02 -0.16830961575E+03  0.34076412156E+03  0.38342836694E+03  0.41800000000E+01 0.  1.
         -5    1    4    4    0  501 -0.33106588486E+02  0.14350687451E+01  0.71225366831E+02  0.78667851780E+02  0.41800000000E+01 0.  1.
</event>
<event>
11    1  0.5813833E-009  0.1531875E+03  0.7561462E-02  0.1093666E+00
         22   -1    0    0    0    0  0.00000000000E+00  0.00000000000E+00  0.99849409322E+03  0.99849409322E+03  0.00000000000E+00 0. -1.
         22   -1    0    0    0    0 -0.00000000000E+00 -0.00000000000E+00 -0.13821167168E+04  0.13821167168E+04  0.00000000000E+00 0. -1.
         24    2    1    2    0    0 -0.63230266101E+01  0.35836417749E+02 -0.12877390070E+04  0.12908028693E+04  0.81092956971E+02 0.  0.
         25    2    1    2    0    0 -0.76747940429E+02 -0.27114799913E+01 -0.26583219039E+02  0.14917143051E+03  0.12509136525E+03 0.  0.
        -24    2    1    2    0    0  0.83070967039E+02 -0.33124937758E+02  0.93069960243E+03  0.94063651026E+03  0.10294293278E+03 0.  0.
        -13    1    3    3    0    0  0.69766817755E+01 -0.24654610121E+02 -0.28340187830E+03  0.28455781225E+03  0.00000000000E+00 0.  1.
         14    1    3    3    0    0 -0.13299708386E+02  0.60491027870E+02 -0.10043371287E+04  0.10062450570E+04  0.00000000000E+00 0. -1.
         11    1    5    5    0    0  0.10022681300E+03 -0.40659814592E+02  0.61933237095E+03  0.62870598873E+03  0.00000000000E+00 0. -1.
        -12    1    5    5    0    0 -0.17155845963E+02  0.75348768346E+01  0.31136723148E+03  0.31193052153E+03  0.00000000000E+00 0.  1.
          5    1    4    4  501    0 -0.30234612354E+02  0.16588464003E+02 -0.72817944910E+02  0.80679826618E+02  0.41800000000E+01 0.  1.
         -5    1    4    4    0  501 -0.46513328075E+02 -0.19299943994E+02  0.46234725871E+02  0.68491603888E+02  0.41800000000E+01 0.  1.
</event>
<event>
11    1  0.5813833E-009  0.1349383E+03  0.7561462E-02  0.1113346E+00
         22   -1    0    0    0    0  0.00000000000E+00  0.00000000000E+00  0.37552310849E+03  0.37552310849E+03  0.00000000000E+00 0.  1.
         22   -1    0    0    0    0 -0.00000000000E+00 -0.00000000000E+00 -0.23411734844E+04  0.23411734844E+04  0.00000000000E+00 0. -1.
        -24    2    1    2    0    0 -0.29114914938E+02  0.11941480454E+02 -0.22462330954E+04  0.22479014972E+04  0.80670595608E+02 0.  0.
         25    2    1    2    0    0 -0.10825346600E+02  0.22641160263E+02 -0.40323818533E+02  0.13380318302E+03  0.12508985242E+03 0.  0.
         24    2    1    2    0    0  0.39940261538E+02 -0.34582640718E+02  0.32090653805E+03  0.33499191263E+03  0.80295652643E+02 0.  0.
        -11    1    5    5    0    0 -0.11098958066E+02  0.15163048145E+02  0.12738167940E+03  0.12876023123E+03  0.00000000000E+00 0.  1.
         12    1    5    5    0    0  0.51039219604E+02 -0.49745688863E+02  0.19352485865E+03  0.20623168140E+03  0.00000000000E+00 0. -1.
         11    1    3    3    0    0 -0.13262089795E+02 -0.30747745824E+02 -0.14355043214E+04  0.14358948303E+04  0.00000000000E+00 0. -1.
        -12    1    3    3    0    0 -0.15852825143E+02  0.42689226279E+02 -0.81072877401E+03  0.81200666691E+03  0.00000000000E+00 0.  1.
          5    1    4    4  501    0 -0.52299276950E+02  0.28977932268E+00 -0.62467423468E+02  0.81577875287E+02  0.41800000000E+01 0. -1.
         -5    1    4    4    0  501  0.41473930350E+02  0.22351380941E+02  0.22143604936E+02  0.52225307737E+02  0.41800000000E+01 0. -1.
</event>
<event>
11    1  0.5813833E-009  0.1444682E+03  0.7561462E-02  0.1102669E+00
         22   -1    0    0    0    0  0.00000000000E+00  0.00000000000E+00  0.24476982935E+04  0.24476982935E+04  0.00000000000E+00 0.  1.
         22   -1    0    0    0    0 -0.00000000000E+00 -0.00000000000E+00 -0.15910417574E+03  0.15910417574E+03  0.00000000000E+00 0. -1.
        -24    2    1    2    0    0  0.38646494051E+02 -0.63122791142E+02 -0.12942347792E+03  0.17125568153E+03  0.84261696836E+02 0.  0.
         25    2    1    2    0    0 -0.41705637008E+02  0.17847574051E+01  0.58179944353E+03  0.59655603984E+03  0.12508385450E+03 0.  0.
         24    2    1    2    0    0  0.30591429562E+01  0.61338033737E+02  0.18362181522E+04  0.18389907479E+04  0.80113393114E+02 0.  0.
        -11    1    5    5    0    0 -0.87740265730E+01  0.72095021055E+02  0.10058377537E+04  0.10084563760E+04  0.00000000000E+00 0.  1.
         12    1    5    5    0    0  0.11833169529E+02 -0.10756987318E+02  0.83038039848E+03  0.83053437187E+03  0.00000000000E+00 0. -1.
         11    1    3    3    0    0  0.43803641515E+02 -0.48890810713E+02 -0.13873664030E+03  0.15348265617E+03  0.00000000000E+00 0. -1.
        -12    1    3    3    0    0 -0.51571474639E+01 -0.14231980429E+02  0.93131623795E+01  0.17773025359E+02  0.00000000000E+00 0.  1.
          5    1    4    4  501    0  0.22372751000E+02  0.71206192399E+01  0.20145282619E+02  0.31217751640E+02  0.41800000000E+01 0.  1.
         -5    1    4    4    0  501 -0.64078388008E+02 -0.53358618348E+01  0.56165416091E+03  0.56533828820E+03  0.41800000000E+01 0.  1.
</event>
<event>
11    1  0.5813833E-009  0.1426231E+03  0.7561462E-02  0.1104664E+00
         22   -1    0    0    0    0  0.00000000000E+00  0.00000000000E+00  0.10850355789E+04  0.10850355789E+04  0.00000000000E+00 0. -1.
         22   -1    0    0    0    0 -0.00000000000E+00 -0.00000000000E+00 -0.17196619759E+04  0.17196619759E+04  0.00000000000E+00 0.  1.
        -24    2    1    2    0    0 -0.44990358198E+02  0.60752139193E+01 -0.15021069972E+04  0.15051605661E+04  0.84391101614E+02 0.  0.
         25    2    1    2    0    0 -0.24035705198E+02 -0.39209215645E+01 -0.19438120565E+03  0.23243200448E+03  0.12508994702E+03 0.  0.
         24    2    1    2    0    0  0.69026063396E+02 -0.21542923548E+01  0.10618618059E+04  0.10671049842E+04  0.79958201396E+02 0.  0.
        -11    1    5    5    0    0  0.64755027618E+02  0.21317775378E+02  0.48702748574E+03  0.49177579548E+03  0.00000000000E+00 0.  1.
         12    1    5    5    0    0  0.42710357772E+01 -0.23472067733E+02  0.57483432019E+03  0.57532918871E+03  0.00000000000E+00 0. -1.
         13    1    3    3    0    0 -0.64455765978E+02  0.73090591643E+01 -0.74981667467E+03  0.75261744181E+03  0.00000000000E+00 0. -1.
        -14    1    3    3    0    0  0.19465407780E+02 -0.12338452450E+01 -0.75229032257E+03  0.75254312429E+03  0.00000000000E+00 0.  1.
          5    1    4    4  501    0 -0.54159019790E+02  0.13557962653E+02 -0.18878443484E+03  0.19691128209E+03  0.41800000000E+01 0. -1.
         -5    1    4    4    0  501  0.30123314592E+02 -0.17478884218E+02 -0.55967708111E+01  0.35520722389E+02  0.41800000000E+01 0. -1.
</event>
<event>
11    1  0.5813833E-009  0.1463809E+03  0.7561462E-02  0.1100635E+00
         22   -1    0    0    0    0  0.00000000000E+00  0.00000000000E+00  0.35400554400E+03  0.35400554400E+03  0.00000000000E+00 0. -1.
         22   -1    0    0    0    0 -0.00000000000E+00 -0.00000000000E+00 -0.77990217595E+03  0.77990217595E+03  0.00000000000E+00 0.  1.
         24    2    1    2    0    0 -0.53629329476E+01  0.11620968733E+02 -0.66702345479E+03  0.67361659459E+03  0.93140857335E+02 0.  0.
         25    2    1    2    0    0 -0.71161206513E+02 -0.11156988015E+02 -0.47012756101E+02  0.15180767748E+03  0.12508787316E+03 0.  0.
        -24    2    1    2    0    0  0.76524139461E+02 -0.46398071841E+00  0.28813957893E+03  0.30848344788E+03  0.79255671526E+02 0.  0.
        -11    1    3    3    0    0 -0.38749934521E+02  0.17593969907E+02 -0.55352903713E+03  0.55516258893E+03  0.00000000000E+00 0.  1.
         12    1    3    3    0    0  0.33387001573E+02 -0.59730011736E+01 -0.11349441766E+03  0.11845400566E+03  0.00000000000E+00 0. -1.
         13    1    5    5    0    0  0.82897561339E+01 -0.28289151206E+02  0.13949406520E+03  0.14257485879E+03  0.00000000000E+00 0. -1.
        -14    1    5    5    0    0  0.68234383327E+02  0.27825170488E+02  0.14864551373E+03  0.16590858909E+03  0.00000000000E+00 0.  1.
          5    1    4    4  501    0 -0.18684658451E+02 -0.64931762262E+02 -0.32804157789E+02  0.75225231008E+02  0.41800000000E+01 0. -1.
         -5    1    4    4    0  501 -0.52476548062E+02  0.53774774247E+02 -0.14208598312E+02  0.76582446473E+02  0.41800000000E+01 0. -1.
</event>
<event>
11    1  0.5813833E-009  0.1675491E+03  0.7561462E-02  0.1080184E+00
         22   -1    0    0    0    0  0.00000000000E+00  0.00000000000E+00  0.29632307910E+03  0.29632307910E+03  0.00000000000E+00 0. -1.
         22   -1    0    0    0    0 -0.00000000000E+00 -0.00000000000E+00 -0.68113241864E+03  0.68113241864E+03  0.00000000000E+00 0.  1.
        -24    2    1    2    0    0 -0.10832503215E+03  0.11367126519E+02 -0.50277944810E+03  0.52087291830E+03  0.81595952328E+02 0.  0.
         25    2    1    2    0    0  0.12927910389E+03  0.37057290641E+02 -0.10648267414E+03  0.21230309105E+03  0.12509081934E+03 0.  0.
         24    2    1    2    0    0 -0.20954071741E+02 -0.48424417160E+02  0.22445278270E+03  0.24427948840E+03  0.80680973536E+02 0.  0.
        -13    1    5    5    0    0 -0.18462797611E+02 -0.26056489310E+02  0.18108589384E+02  0.36711531434E+02  0.00000000000E+00 0.  1.
         14    1    5    5    0    0 -0.24912741302E+01 -0.22367927850E+02  0.20634419332E+03  0.20756795696E+03  0.00000000000E+00 0. -1.
         11    1    3    3    0    0 -0.10690858412E+01 -0.23219186494E+02 -0.95715627181E+02  0.98497486530E+02  0.00000000000E+00 0. -1.
        -12    1    3    3    0    0 -0.10725594631E+03  0.34586313014E+02 -0.40706382092E+03  0.42237543177E+03  0.00000000000E+00 0.  1.
          5    1    4    4  501    0  0.74926371696E+02 -0.18754039878E+02  0.35343518621E+01  0.77431513161E+02  0.41800000000E+01 0. -1.
         -5    1    4    4    0  501  0.54352732192E+02  0.55811330519E+02 -0.11001702600E+03  0.13487157789E+03  0.41800000000E+01 0. -1.
</event>
<event>
11    1  0.5813833E-009  0.1407970E+03  0.7561462E-02  0.1106672E+00
         22   -1    0    0    0    0  0.00000000000E+00  0.00000000000E+00  0.23784196654E+03  0.23784196654E+03  0.00000000000E+00 0. -1.
         22   -1    0    0    0    0 -0.00000000000E+00 -0.00000000000E+00 -0.36480751566E+03  0.36480751566E+03  0.00000000000E+00 0.  1.
        -24    2    1    2    0    0  0.64175419393E+01  0.53249865124E+02 -0.17229101683E+03  0.19758656177E+03  0.80495477716E+02 0.  0.
         25    2    1    2    0    0 -0.17243529689E+02 -0.95528738134E+02 -0.13104929858E+03  0.20553578621E+03  0.12509181280E+03 0.  0.
         24    2    1    2    0    0  0.10825987750E+02  0.42278873010E+02  0.17637476629E+03  0.19952713421E+03  0.82451888942E+02 0.  0.
        -11    1    5    5    0    0 -0.25980513054E+02 -0.11099820853E+02  0.47679772604E+02  0.55421600456E+02  0.00000000000E+00 0.  1.
         12    1    5    5    0    0  0.36806500804E+02  0.53378693863E+02  0.12869499368E+03  0.14410553376E+03  0.00000000000E+00 0. -1.
         11    1    3    3    0    0 -0.12444707151E+02 -0.18507905631E+02 -0.45779990829E+02  0.50923676883E+02  0.00000000000E+00 0. -1.
        -12    1    3    3    0    0  0.18862249090E+02  0.71757770755E+02 -0.12651102600E+03  0.14666288489E+03  0.00000000000E+00 0.  1.
          5    1    4    4  501    0  0.53173917067E+02 -0.36116172045E+02 -0.39372425846E+02  0.75495057165E+02  0.41800000000E+01 0.  1.
         -5    1    4    4    0  501 -0.70417446756E+02 -0.59412566089E+02 -0.91676872732E+02  0.13004072905E+03  0.41800000000E+01 0.  1.
</event>
<event>
11    1  0.6893225E-009  0.1815089E+03  0.7561462E-02  0.1068429E+00
         22   -1    0    0    0    0  0.00000000000E+00  0.00000000000E+00  0.72193676969E+03  0.72193676969E+03  0.00000000000E+00 0. -1.
         22   -1    0    0    0    0 -0.00000000000E+00 -0.00000000000E+00 -0.49936157607E+03  0.49936157607E+03  0.00000000000E+00 0. -1.
         24    2    1    2    0    0  0.40044694190E+02 -0.18287920016E+02 -0.37321378232E+03  0.38407397354E+03  0.79285965242E+02 0.  0.
         25    2    1    2    0    0  0.25458981608E+02 -0.98869898159E+02 -0.52974210793E+02  0.16993643406E+03  0.12509479648E+03 0.  0.
        -24    2    1    2    0    0 -0.65503675798E+02  0.11715781818E+03  0.64876318674E+03  0.66728793816E+03  0.79767374596E+02 0.  0.
        -13    1    3    3    0    0  0.26284530631E+01  0.15429329168E+01  0.36972378250E+01  0.47915524650E+01  0.00000000000E+00 0.  1.
         14    1    3    3    0    0  0.37416241127E+02 -0.19830852933E+02 -0.37691102015E+03  0.37928242107E+03  0.00000000000E+00 0. -1.
         11    1    5    5    0    0 -0.33430787824E+02  0.11794121263E+03  0.54784771074E+03  0.56139545899E+03  0.00000000000E+00 0. -1.
        -12    1    5    5    0    0 -0.32072887974E+02 -0.78339445180E+00  0.10091547599E+03  0.10589247917E+03  0.00000000000E+00 0.  1.
          5    1    4    4  501    0  0.21528752772E+02 -0.12790152038E+03 -0.31973838745E+02  0.13364911102E+03  0.41800000000E+01 0. -1.
         -5    1    4    4    0  501  0.39302288356E+01  0.29031622222E+02 -0.21000372048E+02  0.36287323044E+02  0.41800000000E+01 0. -1.
</event>
<event>
11    1  0.5813833E-009  0.1887753E+03  0.7561462E-02  0.1062758E+00
         22   -1    0    0    0    0  0.00000000000E+00  0.00000000000E+00  0.66524319318E+02  0.66524319318E+02  0.00000000000E+00 0.  1.
         22   -1    0    0    0    0 -0.00000000000E+00 -0.00000000000E+00 -0.19696017559E+04  0.19696017559E+04  0.00000000000E+00 0. -1.
         24    2    1    2    0    0 -0.84715745614E+02  0.67134613245E+02 -0.70501632283E+03  0.71773819468E+03  0.80101727789E+02 0.  0.
         25    2    1    2    0    0  0.18550942919E+03 -0.99007537004E+02 -0.11532167861E+04  0.11788864225E+04  0.12509196922E+03 0.  0.
        -24    2    1    2    0    0 -0.10079368358E+03  0.31872923759E+02 -0.44844327671E+02  0.13950145804E+03  0.79211067106E+02 0.  0.
        -11    1    3    3    0    0 -0.26593886487E+02 -0.78606393061E+01 -0.64165306339E+02  0.69901437656E+02  0.00000000000E+00 0.  1.
         12    1    3    3    0    0 -0.58121859127E+02  0.74995252551E+02 -0.64085101649E+03  0.64783675702E+03  0.00000000000E+00 0. -1.
         11    1    5    5    0    0 -0.20180795403E+02 -0.80536222146E+01 -0.44523063586E+02  0.49542189344E+02  0.00000000000E+00 0. -1.
        -12    1    5    5    0    0 -0.80612888173E+02  0.39926545974E+02 -0.32126408512E+00  0.89959268692E+02  0.00000000000E+00 0.  1.
          5    1    4    4  501    0  0.58930385556E+02  0.19135645608E+02 -0.18084703003E+03  0.19121214382E+03  0.41800000000E+01 0. -1.
         -5    1    4    4    0  501  0.12657904363E+03 -0.11814318261E+03 -0.97236975606E+03  0.98767427869E+03  0.41800000000E+01 0. -1.
</event>
<event>
11    1  0.5813833E-009  0.1391205E+03  0.7561462E-02  0.1108544E+00
         22   -1    0    0    0    0  0.00000000000E+00  0.00000000000E+00  0.36387725636E+03  0.36387725636E+03  0.00000000000E+00 0.  1.
         22   -1    0    0    0    0 -0.00000000000E+00 -0.00000000000E+00 -0.43091518709E+03  0.43091518709E+03  0.00000000000E+00 0.  1.
         24    2    1    2    0    0 -0.57197306766E+01  0.59412351492E+02 -0.35548475480E+03  0.36920167688E+03  0.79861908879E+02 0.  0.
         25    2    1    2    0    0 -0.38401266247E+01 -0.76531442512E+02  0.24208304969E+02  0.14868176980E+03  0.12509363843E+03 0.  0.
        -24    2    1    2    0    0  0.95598573013E+01  0.17119091020E+02  0.26423851911E+03  0.27690899677E+03  0.80449632462E+02 0.  0.
        -13    1    3    3    0    0 -0.26101750154E+02  0.61855527905E+02 -0.32853215614E+03  0.33532191296E+03  0.00000000000E+00 0.  1.
         14    1    3    3    0    0  0.20382019477E+02 -0.24431764130E+01 -0.26952598658E+02  0.33879763921E+02  0.00000000000E+00 0. -1.
         11    1    5    5    0    0  0.33418048810E+02  0.34464277676E+02  0.11224693784E+03  0.12208164267E+03  0.00000000000E+00 0. -1.
        -12    1    5    5    0    0 -0.23858191509E+02 -0.17345186656E+02  0.15199158127E+03  0.15482735410E+03  0.00000000000E+00 0.  1.
          5    1    4    4  501    0  0.10960939833E+02 -0.10952712495E+03  0.20991143765E+02  0.11213578296E+03  0.41800000000E+01 0.  1.
         -5    1    4    4    0  501 -0.14801066458E+02  0.32995682441E+02  0.32171612038E+01  0.36545986842E+02  0.41800000000E+01 0.  1.
</event>
<event>
11    1  0.5813833E-009  0.1550114E+03  0.7561462E-02  0.1091865E+00
         22   -1    0    0    0    0  0.00000000000E+00  0.00000000000E+00  0.89850718091E+03  0.89850718091E+03  0.00000000000E+00 0.  1.
         22   -1    0    0    0    0 -0.00000000000E+00 -0.00000000000E+00 -0.56831638101E+03  0.56831638101E+03  0.00000000000E+00 0. -1.
        -24    2    1    2    0    0 -0.27702232102E+02  0.14726528073E+02 -0.51441448220E+03  0.52162464455E+03  0.80534005323E+02 0.  0.
         25    2    1    2    0    0 -0.22763885180E+02 -0.91383411613E+02  0.89402035232E+02  0.18030526944E+03  0.12509254134E+03 0.  0.
         24    2    1    2    0    0  0.50466117283E+02  0.76656883539E+02  0.75520324686E+03  0.76489364793E+03  0.79418145174E+02 0.  0.
        -11    1    5    5    0    0  0.41552050904E+01  0.47925736193E+02  0.56477953421E+03  0.56682454444E+03  0.00000000000E+00 0.  1.
         12    1    5    5    0    0  0.46310912192E+02  0.28731147346E+02  0.19042371265E+03  0.19806910349E+03  0.00000000000E+00 0. -1.
         11    1    3    3    0    0 -0.15804260215E+02 -0.26707142023E+02 -0.35910940563E+03  0.36044779273E+03  0.00000000000E+00 0. -1.
        -12    1    3    3    0    0 -0.11897971887E+02  0.41433670097E+02 -0.15530507657E+03  0.16117685181E+03  0.00000000000E+00 0.  1.
          5    1    4    4  501    0 -0.63939532032E+02 -0.13743525984E+02  0.20852482061E+02  0.68770972591E+02  0.41800000000E+01 0.  1.
         -5    1    4    4    0  501  0.41175646852E+02 -0.77639885628E+02  0.68549553171E+02  0.11153429685E+03  0.41800000000E+01 0.  1.
</event>
<event>
11    1  0.5813833E-009  0.1985127E+03  0.7561462E-02  0.1055580E+00
         22   -1    0    0    0    0  0.00000000000E+00  0.00000000000E+00  0.39836672025E+03  0.39836672025E+03  0.00000000000E+00 0. -1.
         22   -1    0    0    0    0 -0.00000000000E+00 -0.00000000000E+00 -0.15953038902E+04  0.15953038902E+04  0.00000000000E+00 0.  1.
         24    2    1    2    0    0 -0.36938869393E+02 -0.15480690458E+03 -0.13681476493E+04  0.13797491556E+04  0.80932591178E+02 0.  0.
         25    2    1    2    0    0  0.67705772043E+02  0.10857831065E+03 -0.17833269681E+03  0.25263281651E+03  0.12508984018E+03 0.  0.
        -24    2    1    2    0    0 -0.30766902650E+02  0.46228593933E+02  0.34954317612E+03  0.36128863838E+03  0.72562821413E+02 0.  0.
        -11    1    3    3    0    0 -0.26281423116E+02 -0.15476321501E+03 -0.10743159269E+04  0.10857242176E+04  0.00000000000E+00 0.  1.
         12    1    3    3    0    0 -0.10657446277E+02 -0.43689578036E-01 -0.29383172237E+03  0.29402493796E+03  0.00000000000E+00 0. -1.
         13    1    5    5    0    0 -0.30281143626E+02  0.12766372211E+02  0.29817764438E+03  0.29998305873E+03  0.00000000000E+00 0. -1.
        -14    1    5    5    0    0 -0.48575902375E+00  0.33462221722E+02  0.51365531742E+02  0.61305579645E+02  0.00000000000E+00 0.  1.
          5    1    4    4  501    0  0.10274274933E+03  0.62179403979E+02 -0.11118424965E+03  0.16371243261E+03  0.41800000000E+01 0. -1.
         -5    1    4    4    0  501 -0.35036977291E+02  0.46398906671E+02 -0.67148447154E+02  0.88920383902E+02  0.41800000000E+01 0. -1.
</event>
<event>
11    1  0.5813833E-009  0.2150313E+03  0.7561462E-02  0.1044375E+00
         22   -1    0    0    0    0  0.00000000000E+00  0.00000000000E+00  0.61538966792E+03  0.61538966792E+03  0.00000000000E+00 0. -1.
         22   -1    0    0    0    0 -0.00000000000E+00 -0.00000000000E+00 -0.11880363729E+04  0.11880363729E+04  0.00000000000E+00 0.  1.
         24    2    1    2    0    0 -0.92080490151E+02  0.15080630742E+03 -0.11148188061E+04  0.11315920043E+04  0.80362521723E+02 0.  0.
         25    2    1    2    0    0  0.16271902271E+03 -0.49025697930E+02  0.16834778736E+03  0.26994487842E+03  0.12509300725E+03 0.  0.
        -24    2    1    2    0    0 -0.70638532564E+02 -0.10178060949E+03  0.37382431374E+03  0.40188915806E+03  0.80132284796E+02 0.  0.
        -13    1    3    3    0    0 -0.90456844532E+02  0.15343148532E+03 -0.11143205870E+04  0.11284653438E+04  0.00000000000E+00 0.  1.
         14    1    3    3    0    0 -0.16236456190E+01 -0.26251778988E+01 -0.49821903563E+00  0.31266605675E+01  0.00000000000E+00 0. -1.
         13    1    5    5    0    0 -0.58088033186E+02 -0.33472336090E+02  0.26039019481E+03  0.26888226129E+03  0.00000000000E+00 0. -1.
        -14    1    5    5    0    0 -0.12550499377E+02 -0.68308273398E+02  0.11343411893E+03  0.13300689676E+03  0.00000000000E+00 0.  1.
          5    1    4    4  501    0 -0.16233820297E+02 -0.22475718112E+02  0.10917751359E+02  0.30089275844E+02  0.41800000000E+01 0.  1.
         -5    1    4    4    0  501  0.17895284301E+03 -0.26549979819E+02  0.15743003600E+03  0.23985560257E+03  0.41800000000E+01 0.  1.
</event>
<event>
11    1  0.5813833E-009  0.1300453E+03  0.7561462E-02  0.1119213E+00
         22   -1    0    0    0    0  0.00000000000E+00  0.00000000000E+00  0.29414640321E+02  0.29414640321E+02  0.00000000000E+00 0. -1.
         22   -1    0    0    0    0 -0.00000000000E+00 -0.00000000000E+00 -0.88536515342E+03  0.88536515342E+03  0.00000000000E+00 0.  1.
        -24    2    1    2    0    0 -0.40947476404E+02  0.16993642070E+02 -0.20189209398E+03  0.22089523173E+03  0.77902542282E+02 0.  0.
         25    2    1    2    0    0 -0.16293122034E+02 -0.93218360859E+00 -0.43035155634E+03  0.44845922323E+03  0.12508748165E+03 0.  0.
         24    2    1    2    0    0  0.57240598438E+02 -0.16061458461E+02 -0.22370686278E+03  0.24542533878E+03  0.81574382642E+02 0.  0.
        -11    1    5    5    0    0  0.59127700178E+02 -0.12572167858E+02 -0.23009648121E+03  0.23790446611E+03  0.00000000000E+00 0.  1.
         12    1    5    5    0    0 -0.18871017398E+01 -0.34892906034E+01  0.63896184324E+01  0.75208726624E+01  0.00000000000E+00 0. -1.
         13    1    3    3    0    0 -0.52573781315E+02  0.38380765846E+02 -0.14019691589E+03  0.15457121626E+03  0.00000000000E+00 0. -1.
        -14    1    3    3    0    0  0.11626304911E+02 -0.21387123776E+02 -0.61695178087E+02  0.66324015473E+02  0.00000000000E+00 0.  1.
          5    1    4    4  501    0  0.29120350380E+02  0.40494008594E+02 -0.93840615212E+02  0.10635456267E+03  0.41800000000E+01 0. -1.
         -5    1    4    4    0  501 -0.45413472414E+02 -0.41426192202E+02 -0.33651094113E+03  0.34210466056E+03  0.41800000000E+01 0. -1.
</event>
<event>
11    1  0.5813833E-009  0.1312519E+03  0.7561462E-02  0.1117740E+00
         22   -1    0    0    0    0  0.00000000000E+00  0.00000000000E+00  0.99359318272E+03  0.99359318272E+03  0.00000000000E+00 0. -1.
         22   -1    0    0    0    0 -0.00000000000E+00 -0.00000000000E+00 -0.27279580670E+03  0.27279580670E+03  0.00000000000E+00 0.  1.
         24    2    1    2    0    0 -0.37230635901E+02 -0.16827742936E+02 -0.23375458563E+03  0.25081932013E+03  0.81239349238E+02 0.  0.
         25    2    1    2    0    0 -0.49615336157E+01  0.88213980639E+01  0.11247985899E+03  0.16853312341E+03  0.12509700687E+03 0.  0.
        -24    2    1    2    0    0  0.42192169516E+02  0.80063448724E+01  0.84207210266E+03  0.84703654589E+03  0.80877705658E+02 0.  0.
        -11    1    3    3    0    0 -0.37996821340E+02  0.21134600324E+02 -0.17888445849E+03  0.18409258337E+03  0.00000000000E+00 0.  1.
         12    1    3    3    0    0  0.76618543966E+00 -0.37962343260E+02 -0.54870127141E+02  0.66726736758E+02  0.00000000000E+00 0. -1.
         11    1    5    5    0    0  0.63229308106E+02 -0.32901125663E+01  0.71047700412E+03  0.71329260730E+03  0.00000000000E+00 0. -1.
        -12    1    5    5    0    0 -0.21037138590E+02  0.11296457439E+02  0.13159509854E+03  0.13374393859E+03  0.00000000000E+00 0.  1.
          5    1    4    4  501    0 -0.26948625620E+02 -0.52151056706E+02  0.39719602795E+02  0.71000566086E+02  0.41800000000E+01 0. -1.
         -5    1    4    4    0  501  0.21987092004E+02  0.60972454770E+02  0.72760256198E+02  0.97532557321E+02  0.41800000000E+01 0. -1.
</event>
<event>
11    1  0.5813833E-009  0.1298133E+03  0.7561462E-02  0.1119499E+00
         22   -1    0    0    0    0  0.00000000000E+00  0.00000000000E+00  0.17636244175E+04  0.17636244175E+04  0.00000000000E+00 0.  1.
         22   -1    0    0    0    0 -0.00000000000E+00 -0.00000000000E+00 -0.29399216911E+02  0.29399216911E+02  0.00000000000E+00 0. -1.
        -24    2    1    2    0    0 -0.20683925504E+02  0.31872015474E+02  0.68355157716E+02  0.11137850263E+03  0.79303802665E+02 0.  0.
         25    2    1    2    0    0 -0.12279801845E+02 -0.19243849128E+02  0.66211509866E+03  0.67421431542E+03  0.12508964777E+03 0.  0.
         24    2    1    2    0    0  0.32963727349E+02 -0.12628166347E+02  0.10037549442E+04  0.10074308163E+04  0.78401427392E+02 0.  0.
        -13    1    5    5    0    0  0.34886251930E+02  0.24938203623E+02  0.70733110818E+03  0.70862984778E+03  0.00000000000E+00 0.  1.
         14    1    5    5    0    0 -0.19225245803E+01 -0.37566369969E+02  0.29642383602E+03  0.29880096857E+03  0.00000000000E+00 0. -1.
         11    1    3    3    0    0 -0.48945672681E+02  0.56775759335E+01  0.35363603301E+02  0.60650623914E+02  0.00000000000E+00 0. -1.
        -12    1    3    3    0    0  0.28261747177E+02  0.26194439541E+02  0.32991554415E+02  0.50727878716E+02  0.00000000000E+00 0.  1.
          5    1    4    4  501    0 -0.23983076972E+02 -0.16916960972E+02  0.66084250697E+03  0.66150711483E+03  0.41800000000E+01 0.  1.
         -5    1    4    4    0  501  0.11703275127E+02 -0.23268881554E+01  0.12725916869E+01  0.12707200588E+02  0.41800000000E+01 0.  1.
</event>
<event>
11    1  0.5813833E-009  0.1628394E+03  0.7561462E-02  0.1084437E+00
         22   -1    0    0    0    0  0.00000000000E+00  0.00000000000E+00  0.75967957322E+03  0.75967957322E+03  0.00000000000E+00 0. -1.
         22   -1    0    0    0    0 -0.00000000000E+00 -0.00000000000E+00 -0.24032190068E+03  0.24032190068E+03  0.00000000000E+00 0. -1.
         24    2    1    2    0    0 -0.18666911790E+02 -0.10354444695E+03 -0.16537612767E+03  0.21197620360E+03  0.80713946741E+02 0.  0.
         25    2    1    2    0    0  0.18884617083E+02  0.97148070986E+02  0.79189440773E+02  0.17808156211E+03  0.12509076215E+03 0.  0.
        -24    2    1    2    0    0 -0.21770529301E+00  0.63963759653E+01  0.60554435944E+03  0.60994370820E+03  0.72845006036E+02 0.  0.
        -11    1    3    3    0    0  0.72350464055E+01 -0.18833393311E+02 -0.99652978633E+02  0.10167476949E+03  0.00000000000E+00 0.  1.
         12    1    3    3    0    0 -0.25901958195E+02 -0.84711053640E+02 -0.65723149034E+02  0.11030143411E+03  0.00000000000E+00 0. -1.
         11    1    5    5    0    0 -0.15462634609E+02 -0.15998716393E+02  0.51383615675E+03  0.51431765280E+03  0.00000000000E+00 0. -1.
        -12    1    5    5    0    0  0.15244929316E+02  0.22395092358E+02  0.91708202689E+02  0.95626055403E+02  0.00000000000E+00 0.  1.
          5    1    4    4  501    0  0.36651310003E+02  0.79121475574E+02  0.10841556760E+03  0.13919387242E+03  0.41800000000E+01 0.  1.
         -5    1    4    4    0  501 -0.17766692921E+02  0.18026595411E+02 -0.29226126829E+02  0.38887689683E+02  0.41800000000E+01 0.  1.
</event>
<event>
11    1  0.5813833E-009  0.1309260E+03  0.7561462E-02  0.1118136E+00
         22   -1    0    0    0    0  0.00000000000E+00  0.00000000000E+00  0.30935873705E+03  0.30935873705E+03  0.00000000000E+00 0. -1.
         22   -1    0    0    0    0 -0.00000000000E+00 -0.00000000000E+00 -0.27279452359E+03  0.27279452359E+03  0.00000000000E+00 0. -1.
        -24    2    1    2    0    0  0.13169485087E+02  0.76950795051E+01 -0.20595793341E+03  0.22153080766E+03  0.80153470425E+02 0.  0.
         25    2    1    2    0    0 -0.10135562891E+02  0.32114064548E+02  0.33988434302E+02  0.13393235913E+03  0.12509444584E+03 0.  0.
         24    2    1    2    0    0 -0.30339221963E+01 -0.39809144054E+02  0.20853371257E+03  0.22669009385E+03  0.79423653528E+02 0.  0.
        -13    1    5    5    0    0 -0.18829443489E+02 -0.54157018948E+02  0.93396715522E+02  0.10959232233E+03  0.00000000000E+00 0.  1.
         14    1    5    5    0    0  0.15795521293E+02  0.14347874895E+02  0.11513699704E+03  0.11709777152E+03  0.00000000000E+00 0. -1.
         11    1    3    3    0    0 -0.26532902222E+02 -0.25868196720E+01 -0.14887146012E+03  0.15123953906E+03  0.00000000000E+00 0. -1.
        -12    1    3    3    0    0  0.39702387309E+02  0.10281899177E+02 -0.57086473293E+02  0.70291268603E+02  0.00000000000E+00 0.  1.
          5    1    4    4  501    0  0.50240650360E+02  0.41586047641E+02  0.33463841569E+01  0.65438467233E+02  0.41800000000E+01 0.  1.
         -5    1    4    4    0  501 -0.60376213250E+02 -0.94719830923E+01  0.30642050146E+02  0.68493891897E+02  0.41800000000E+01 0.  1.
</event>
<event>
11    1  0.5813833E-009  0.1540518E+03  0.7561462E-02  0.1092809E+00
         22   -1    0    0    0    0  0.00000000000E+00  0.00000000000E+00  0.72676159623E+03  0.72676159623E+03  0.00000000000E+00 0. -1.
         22   -1    0    0    0    0 -0.00000000000E+00 -0.00000000000E+00 -0.15790116658E+03  0.15790116658E+03  0.00000000000E+00 0.  1.
        -24    2    1    2    0    0 -0.97143267567E+01  0.54215800981E+02 -0.86237828779E+02  0.13042370603E+03  0.80868156663E+02 0.  0.
         25    2    1    2    0    0  0.98248514332E+02 -0.43693866866E+02  0.11573463837E+03  0.20150971011E+03  0.12509888960E+03 0.  0.
         24    2    1    2    0    0 -0.88534187576E+02 -0.10521934115E+02  0.53936362005E+03  0.55272934668E+03  0.81532831266E+02 0.  0.
        -11    1    5    5    0    0 -0.36875660356E+02 -0.44317551526E+01  0.60093518654E+02  0.70644785828E+02  0.00000000000E+00 0.  1.
         12    1    5    5    0    0 -0.51658527219E+02 -0.60901789623E+01  0.47927010140E+03  0.48208456085E+03  0.00000000000E+00 0. -1.
         13    1    3    3    0    0  0.25259500782E+02 -0.52180954643E+01 -0.39287889828E+02  0.46997970032E+02  0.00000000000E+00 0. -1.
        -14    1    3    3    0    0 -0.34973827539E+02  0.59433896445E+02 -0.46949938951E+02  0.83425735998E+02  0.00000000000E+00 0.  1.
          5    1    4    4  501    0 -0.25161542060E+02  0.13455419287E+02  0.18250409048E+02  0.34127720953E+02  0.41800000000E+01 0. -1.
         -5    1    4    4    0  501  0.12341005639E+03 -0.57149286152E+02  0.97484229326E+02  0.16738198916E+03  0.41800000000E+01 0. -1.
</event>
<event>
11    1  0.5813833E-009  0.1581569E+03  0.7561462E-02  0.1088824E+00
         22   -1    0    0    0    0  0.00000000000E+00  0.00000000000E+00  0.41435190730E+03  0.41435190730E+03  0.00000000000E+00 0. -1.
         22   -1    0    0    0    0 -0.00000000000E+00 -0.00000000000E+00 -0.73302597612E+03  0.73302597612E+03  0.00000000000E+00 0. -1.
        -24    2    1    2    0    0  0.61062087074E+02 -0.67894945557E+02 -0.58295108324E+03  0.59566244480E+03  0.81507549220E+02 0.  0.
         25    2    1    2    0    0 -0.12641355490E+03  0.11046396480E+03 -0.53032732628E+02  0.21596921929E+03  0.12509020174E+03 0.  0.
         24    2    1    2    0    0  0.65351467822E+02 -0.42569019244E+02  0.31730974705E+03  0.33574621933E+03  0.77182332692E+02 0.  0.
        -13    1    5    5    0    0  0.63146710425E+01 -0.35594058995E+02  0.20983345925E+03  0.21292461748E+03  0.00000000000E+00 0.  1.
         14    1    5    5    0    0  0.59036796779E+02 -0.69749602496E+01  0.10747628780E+03  0.12282160186E+03  0.00000000000E+00 0. -1.
         13    1    3    3    0    0  0.68705261365E+02 -0.24434096715E+02 -0.27238465160E+03  0.28197665940E+03  0.00000000000E+00 0. -1.
        -14    1    3    3    0    0 -0.76431742905E+01 -0.43460848843E+02 -0.31056643165E+03  0.31368578540E+03  0.00000000000E+00 0.  1.
          5    1    4    4  501    0 -0.51587171104E+01 -0.68079408378E+01 -0.46118196458E+02  0.47088436640E+02  0.41800000000E+01 0.  1.
         -5    1    4    4    0  501 -0.12125483779E+03  0.11727190564E+03 -0.69145361705E+01  0.16888078265E+03  0.41800000000E+01 0.  1.
</event>
<event>
11    1  0.5813833E-009  0.1675778E+03  0.7561462E-02  0.1080159E+00
         22   -1    0    0    0    0  0.00000000000E+00  0.00000000000E+00  0.26533715592E+04  0.26533715592E+04  0.00000000000E+00 0. -1.
         22   -1    0    0    0    0 -0.00000000000E+00 -0.00000000000E+00 -0.80251246570E+02  0.80251246570E+02  0.00000000000E+00 0.  1.
         24    2    1    2    0    0  0.80619718997E+02  0.75970264379E+02  0.80920234443E+01  0.13995558161E+03  0.85153178563E+02 0.  0.
         25    2    1    2    0    0 -0.15232208841E+03 -0.72765882863E+01  0.79719438071E+03  0.82123182302E+03  0.12509140318E+03 0.  0.
        -24    2    1    2    0    0  0.71702369408E+02 -0.68693676093E+02  0.17678339085E+04  0.17724354012E+04  0.80190226039E+02 0.  0.
        -13    1    3    3    0    0  0.38818436320E+02 -0.13349926070E+02  0.41508872684E+01  0.41259197636E+02  0.00000000000E+00 0.  1.
         14    1    3    3    0    0  0.41801282677E+02  0.89320190449E+02  0.39411361760E+01  0.98696383975E+02  0.00000000000E+00 0. -1.
         11    1    5    5    0    0  0.10165319780E+02 -0.10098760952E+02  0.96700795593E+03  0.96711411195E+03  0.00000000000E+00 0. -1.
        -12    1    5    5    0    0  0.61537049627E+02 -0.58594915142E+02  0.80082595256E+03  0.80532128921E+03  0.00000000000E+00 0.  1.
          5    1    4    4  501    0 -0.20286747416E+02  0.29300455248E+02  0.38871154913E+03  0.39036420126E+03  0.41800000000E+01 0. -1.
         -5    1    4    4    0  501 -0.13203534099E+03 -0.36577043534E+02  0.40848283158E+03  0.43086762176E+03  0.41800000000E+01 0. -1.
</event>
<event>
11    1  0.5813833E-009  0.1608355E+03  0.7561462E-02  0.1086294E+00
         22   -1    0    0    0    0  0.00000000000E+00  0.00000000000E+00  0.35752928530E+03  0.35752928530E+03  0.00000000000E+00 0.  1.
         22   -1    0    0    0    0 -0.00000000000E+00 -0.00000000000E+00 -0.34248653385E+04  0.34248653385E+04  0.00000000000E+00 0. -1.
        -24    2    1    2    0    0 -0.69054088140E+02 -0.19158334290E+02 -0.28558559366E+04  0.28578950118E+04  0.80717155158E+02 0.  0.
         25    2    1    2    0    0  0.16172408727E+03 -0.18157188871E+02 -0.53707501187E+03  0.57496078293E+03  0.12508385035E+03 0.  0.
         24    2    1    2    0    0 -0.92669999126E+02  0.37315523161E+02  0.32559489527E+03  0.34953882904E+03  0.78645916460E+02 0.  0.
        -11    1    5    5    0    0 -0.47680117599E+02  0.60095951542E+02  0.19722837119E+03  0.21162218080E+03  0.00000000000E+00 0.  1.
         12    1    5    5    0    0 -0.44989881527E+02 -0.22780428381E+02  0.12836652409E+03  0.13791664824E+03  0.00000000000E+00 0. -1.
         13    1    3    3    0    0 -0.44246172653E+02 -0.31774110698E+02 -0.25925597128E+04  0.25931319253E+04  0.00000000000E+00 0. -1.
        -14    1    3    3    0    0 -0.24807915487E+02  0.12615776408E+02 -0.26329622382E+03  0.26476308648E+03  0.00000000000E+00 0.  1.
          5    1    4    4  501    0  0.15305207985E+02  0.12442432529E+02 -0.30817380987E+01  0.20396887714E+02  0.41800000000E+01 0.  1.
         -5    1    4    4    0  501  0.14641887928E+03 -0.30599621400E+02 -0.53399327377E+03  0.55456389521E+03  0.41800000000E+01 0.  1.
</event>
<event>
11    1  0.5813833E-009  0.1520971E+03  0.7561462E-02  0.1094755E+00
         22   -1    0    0    0    0  0.00000000000E+00  0.00000000000E+00  0.61509144203E+03  0.61509144203E+03  0.00000000000E+00 0.  1.
         22   -1    0    0    0    0 -0.00000000000E+00 -0.00000000000E+00 -0.16162594493E+03  0.16162594493E+03  0.00000000000E+00 0.  1.
         24    2    1    2    0    0 -0.16828533558E+02 -0.69161997526E+02 -0.55807301116E+02  0.12256967185E+03  0.82718124720E+02 0.  0.
         25    2    1    2    0    0 -0.62575899158E+02  0.10022452376E+03  0.48704799158E+02  0.17882525152E+03  0.12508243203E+03 0.  0.
        -24    2    1    2    0    0  0.79404432716E+02 -0.31062526238E+02  0.46056799905E+03  0.47532246358E+03  0.80861722484E+02 0.  0.
        -11    1    3    3    0    0 -0.20115621547E+02 -0.44017547805E+02 -0.76035975657E+02  0.90131306099E+02  0.00000000000E+00 0.  1.
         12    1    3    3    0    0  0.32870879893E+01 -0.25144449721E+02  0.20228674541E+02  0.32438365756E+02  0.00000000000E+00 0. -1.
         11    1    5    5    0    0 -0.24237702909E+01  0.26193732553E+00 -0.28176318749E+01  0.37258989476E+01  0.00000000000E+00 0. -1.
        -12    1    5    5    0    0  0.81828203007E+02 -0.31324463564E+02  0.46338563093E+03  0.47159656463E+03  0.00000000000E+00 0.  1.
          5    1    4    4  501    0 -0.76803998551E+02  0.34860933143E+02 -0.15672842533E+02  0.85890914805E+02  0.41800000000E+01 0.  1.
         -5    1    4    4    0  501  0.14228099393E+02  0.65363590621E+02  0.64377641691E+02  0.92934336717E+02  0.41800000000E+01 0.  1.
</event>
<event>
11    1  0.5813833E-009  0.1328567E+03  0.7561462E-02  0.1115808E+00
         22   -1    0    0    0    0  0.00000000000E+00  0.00000000000E+00  0.21108045953E+03  0.21108045953E+03  0.00000000000E+00 0.  1.
         22   -1    0    0    0    0 -0.00000000000E+00 -0.00000000000E+00 -0.32999409271E+03  0.32999409271E+03  0.00000000000E+00 0.  1.
        -24    2    1    2    0    0 -0.29315622839E+02  0.10064542542E+01 -0.23945773926E+03  0.25484236605E+03  0.82123102411E+02 0.  0.
         25    2    1    2    0    0 -0.17809769361E+02 -0.17216372430E+02 -0.71444620154E+01  0.12771165732E+03  0.12508250363E+03 0.  0.
         24    2    1    2    0    0  0.47125392200E+02  0.16209918176E+02  0.12768856811E+03  0.15852052887E+03  0.79629288643E+02 0.  0.
        -11    1    5    5    0    0  0.50241283358E+02 -0.22071120255E+02  0.65759136347E+02  0.85648029258E+02  0.00000000000E+00 0.  1.
         12    1    5    5    0    0 -0.31158911583E+01  0.38281038431E+02  0.61929431759E+02  0.72872499607E+02  0.00000000000E+00 0. -1.
         13    1    3    3    0    0  0.16253897326E+01  0.92891608383E+01  0.32921403708E+01  0.99884227525E+01  0.00000000000E+00 0. -1.
        -14    1    3    3    0    0 -0.30941012572E+02 -0.82827065841E+01 -0.24274987963E+03  0.24485394330E+03  0.00000000000E+00 0.  1.
          5    1    4    4  501    0  0.81104732685E+01 -0.21108879393E+02  0.55283421657E+02  0.59875651779E+02  0.41800000000E+01 0. -1.
         -5    1    4    4    0  501 -0.25920242629E+02  0.38925069627E+01 -0.62427883673E+02  0.67836005545E+02  0.41800000000E+01 0. -1.
</event>
<event>
11    1  0.5813833E-009  0.1519508E+03  0.7561462E-02  0.1094902E+00
         22   -1    0    0    0    0  0.00000000000E+00  0.00000000000E+00  0.33404854404E+04  0.33404854404E+04  0.00000000000E+00 0. -1.
         22   -1    0    0    0    0 -0.00000000000E+00 -0.00000000000E+00 -0.18640043209E+03  0.18640043209E+03  0.00000000000E+00 0.  1.
        -24    2    1    2    0    0 -0.37979737157E+02  0.53114386427E+01 -0.16593070062E+03  0.18766905063E+03  0.78841634582E+02 0.  0.
         25    2    1    2    0    0 -0.50862312776E+02 -0.26024904854E+02  0.56381957721E+03  0.58034819801E+03  0.12508894740E+03 0.  0.
         24    2    1    2    0    0  0.88842049932E+02  0.20713466211E+02  0.27561961317E+04  0.27588686238E+04  0.80106239216E+02 0.  0.
        -13    1    5    5    0    0  0.80401650187E+00 -0.15714832617E+02  0.97433447116E+03  0.97446152520E+03  0.00000000000E+00 0.  1.
         14    1    5    5    0    0  0.88038033431E+02  0.36428298828E+02  0.17818616605E+04  0.17844070986E+04  0.00000000000E+00 0. -1.
         11    1    3    3    0    0  0.22095106557E+02  0.14912223690E+02 -0.56221293201E+02  0.62220591112E+02  0.00000000000E+00 0. -1.
        -12    1    3    3    0    0 -0.60074843714E+02 -0.96007850472E+01 -0.10970940742E+03  0.12544845952E+03  0.00000000000E+00 0.  1.
          5    1    4    4  501    0  0.10433591897E+02  0.42528067234E+02  0.14471086811E+03  0.15124881518E+03  0.41800000000E+01 0. -1.
         -5    1    4    4    0  501 -0.61295904673E+02 -0.68552972088E+02  0.41910870909E+03  0.42909938283E+03  0.41800000000E+01 0. -1.
</event>
<event>
11    1  0.5813833E-009  0.1344379E+03  0.7561462E-02  0.1113933E+00
         22   -1    0    0    0    0  0.00000000000E+00  0.00000000000E+00  0.70476879248E+02  0.70476879248E+02  0.00000000000E+00 0. -1.
         22   -1    0    0    0    0 -0.00000000000E+00 -0.00000000000E+00 -0.36124480755E+04  0.36124480755E+04  0.00000000000E+00 0.  1.
         24    2    1    2    0    0 -0.22085100125E+02 -0.43827909069E+02 -0.33082870601E+04  0.33096901409E+04  0.82927192517E+02 0.  0.
         25    2    1    2    0    0  0.35168098989E+02  0.42242177202E+02 -0.24744379081E+03  0.28266139874E+03  0.12509132666E+03 0.  0.
        -24    2    1    2    0    0 -0.13082998864E+02  0.15857318672E+01  0.13759654683E+02  0.90573415116E+02  0.88546801320E+02 0.  0.
        -13    1    3    3    0    0 -0.16119522891E+02 -0.29055460211E+02 -0.32058008071E+04  0.32059729995E+04  0.00000000000E+00 0.  1.
         14    1    3    3    0    0 -0.59655772339E+01 -0.14772448858E+02 -0.10248625301E+03  0.10371714137E+03  0.00000000000E+00 0. -1.
         13    1    5    5    0    0 -0.44505907605E+02  0.65766590532E+01  0.30760002789E+02  0.54499596582E+02  0.00000000000E+00 0. -1.
        -14    1    5    5    0    0  0.31422908741E+02 -0.49909271860E+01 -0.17000348106E+02  0.36073818534E+02  0.00000000000E+00 0.  1.
          5    1    4    4  501    0 -0.37579131526E+02 -0.18073488448E+02 -0.70280529910E+02  0.81827057844E+02  0.41800000000E+01 0. -1.
         -5    1    4    4    0  501  0.72747230516E+02  0.60315665650E+02 -0.17716326090E+03  0.20083434089E+03  0.41800000000E+01 0. -1.
</event>
<event>
11    1  0.5813833E-009  0.1807592E+03  0.7561462E-02  0.1069030E+00
         22   -1    0    0    0    0  0.00000000000E+00  0.00000000000E+00  0.14445944797E+03  0.14445944797E+03  0.00000000000E+00 0. -1.
         22   -1    0    0    0    0 -0.00000000000E+00 -0.00000000000E+00 -0.14096142765E+04  0.14096142765E+04  0.00000000000E+00 0. -1.
        -24    2    1    2    0    0  0.41433468625E+02 -0.18179946775E+02 -0.10870135802E+04  0.10909678498E+04  0.81025199717E+02 0.  0.
         25    2    1    2    0    0  0.74345825183E+02 -0.56744309089E+02 -0.24446230882E+03  0.29009864134E+03  0.12509269738E+03 0.  0.
         24    2    1    2    0    0 -0.11577929381E+03  0.74924255864E+02  0.66321060478E+02  0.17300723334E+03  0.80712642966E+02 0.  0.
        -11    1    5    5    0    0 -0.37251503288E+01 -0.13473639775E+02 -0.30635111251E+01  0.14310863502E+02  0.00000000000E+00 0.  1.
         12    1    5    5    0    0 -0.11205414348E+03  0.88397895639E+02  0.69384571603E+02  0.15869636984E+03  0.00000000000E+00 0. -1.
         13    1    3    3    0    0  0.23622007378E+02 -0.31793794800E+02 -0.10095184269E+04  0.10102951544E+04  0.00000000000E+00 0. -1.
        -14    1    3    3    0    0  0.17811461246E+02  0.13613848025E+02 -0.77495153247E+02  0.80672695421E+02  0.00000000000E+00 0.  1.
          5    1    4    4  501    0  0.59348492346E+02 -0.96554668332E+02 -0.18009096907E+03  0.21282687110E+03  0.41800000000E+01 0. -1.
         -5    1    4    4    0  501  0.14997332837E+02  0.39810359243E+02 -0.64371339748E+02  0.77271770241E+02  0.41800000000E+01 0. -1.
</event>
<event>
11    1  0.5813833E-009  0.1298587E+03  0.7561462E-02  0.1119443E+00
         22   -1    0    0    0    0  0.00000000000E+00  0.00000000000E+00  0.17844862831E+04  0.17844862831E+04  0.00000000000E+00 0. -1.
         22   -1    0    0    0    0 -0.00000000000E+00 -0.00000000000E+00 -0.79601949779E+02  0.79601949779E+02  0.00000000000E+00 0. -1.
         24    2    1    2    0    0 -0.24129215264E+02 -0.25496178411E+02 -0.44067680082E+02  0.97774002691E+02  0.79909455208E+02 0.  0.
         25    2    1    2    0    0  0.38152397949E+02  0.45413694639E+01  0.59581846691E+03  0.61001839307E+03  0.12508622969E+03 0.  0.
        -24    2    1    2    0    0 -0.14023182685E+02  0.20954808947E+02  0.11531335465E+04  0.11562958371E+04  0.81653739885E+02 0.  0.
        -13    1    3    3    0    0  0.23456269933E+02 -0.13536336820E+02  0.59291151771E+01  0.27723337109E+02  0.00000000000E+00 0.  1.
         14    1    3    3    0    0 -0.47585485197E+02 -0.11959841591E+02 -0.49996795259E+02  0.70050665582E+02  0.00000000000E+00 0. -1.
         11    1    5    5    0    0  0.19647093174E+01  0.35180747897E+02  0.10656632588E+04  0.10662456219E+04  0.00000000000E+00 0. -1.
        -12    1    5    5    0    0 -0.15987892002E+02 -0.14225938950E+02  0.87470287678E+02  0.90050215192E+02  0.00000000000E+00 0.  1.
          5    1    4    4  501    0  0.65872105174E+02  0.46117323721E+02  0.35096042906E+03  0.36007865384E+03  0.41800000000E+01 0. -1.
         -5    1    4    4    0  501 -0.27719707226E+02 -0.41575954257E+02  0.24485803785E+03  0.24993973922E+03  0.41800000000E+01 0. -1.
</event>
<event>
11    1  0.5813833E-009  0.1760278E+03  0.7561462E-02  0.1072902E+00
         22   -1    0    0    0    0  0.00000000000E+00  0.00000000000E+00  0.11305465549E+04  0.11305465549E+04  0.00000000000E+00 0. -1.
         22   -1    0    0    0    0 -0.00000000000E+00 -0.00000000000E+00 -0.12337390314E+03  0.12337390314E+03  0.00000000000E+00 0.  1.
        -24    2    1    2    0    0 -0.45997855275E+01 -0.11822887608E+03 -0.33187172385E+02  0.14608400968E+03  0.78993191510E+02 0.  0.
         25    2    1    2    0    0  0.61164481023E+01  0.15628042030E+03  0.30193759724E+03  0.36231773401E+03  0.12508735765E+03 0.  0.
         24    2    1    2    0    0 -0.15166625748E+01 -0.38051544212E+02  0.73842222686E+03  0.74551871431E+03  0.95291909366E+02 0.  0.
        -11    1    5    5    0    0 -0.29668435025E+02  0.21512536651E+02  0.27914684825E+03  0.28154212501E+03  0.00000000000E+00 0.  1.
         12    1    5    5    0    0  0.28151772450E+02 -0.59564080863E+02  0.45927537861E+03  0.46397658930E+03  0.00000000000E+00 0. -1.
         13    1    3    3    0    0  0.20921160099E+02 -0.20200361803E+02 -0.34056852258E+02  0.44784134943E+02  0.00000000000E+00 0. -1.
        -14    1    3    3    0    0 -0.25520945626E+02 -0.98028514281E+02  0.86967987354E+00  0.10129987473E+03  0.00000000000E+00 0.  1.
          5    1    4    4  501    0  0.37924862184E+02  0.89987441890E-01  0.37316232632E+02  0.53369250391E+02  0.41800000000E+01 0. -1.
         -5    1    4    4    0  501 -0.31808414081E+02  0.15619043285E+03  0.26462136461E+03  0.30894848362E+03  0.41800000000E+01 0. -1.
</event>
<event>
11    1  0.5813833E-009  0.1490959E+03  0.7561462E-02  0.1097806E+00
         22   -1    0    0    0    0  0.00000000000E+00  0.00000000000E+00  0.57762956607E+02  0.57762956607E+02  0.00000000000E+00 0.  1.
         22   -1    0    0    0    0 -0.00000000000E+00 -0.00000000000E+00 -0.11742522772E+04  0.11742522772E+04  0.00000000000E+00 0. -1.
         24    2    1    2    0    0  0.69383318855E+02 -0.40001972995E+02 -0.87576034630E+03  0.88302274636E+03  0.79741981718E+02 0.  0.
         25    2    1    2    0    0 -0.59048274881E+02  0.74150324735E+02 -0.19113733327E+03  0.24732286002E+03  0.12510054955E+03 0.  0.
        -24    2    1    2    0    0 -0.10335043974E+02 -0.34148351740E+02 -0.49591641054E+02  0.10166962746E+03  0.81267824038E+02 0.  0.
        -11    1    3    3    0    0  0.45091695723E+02  0.18889889720E+02 -0.41857039781E+03  0.42141578860E+03  0.00000000000E+00 0.  1.
         12    1    3    3    0    0  0.24291623132E+02 -0.58891862716E+02 -0.45718994849E+03  0.46160695775E+03  0.00000000000E+00 0. -1.
         13    1    5    5    0    0 -0.11948210324E+02 -0.58295783648E+02 -0.49600305180E+02  0.77468370288E+02  0.00000000000E+00 0. -1.
        -14    1    5    5    0    0  0.16131663503E+01  0.24147431908E+02  0.86641257145E-02  0.24201257168E+02  0.00000000000E+00 0.  1.
          5    1    4    4  501    0  0.32616156613E+02  0.81379000929E+01 -0.88035199327E+02  0.94327661959E+02  0.41800000000E+01 0.  1.
         -5    1    4    4    0  501 -0.91664431494E+02  0.66012424642E+02 -0.10310213394E+03  0.15299519807E+03  0.41800000000E+01 0.  1.
</event>
<event>
11    1  0.5813833E-009  0.1306969E+03  0.7561462E-02  0.1118416E+00
         22   -1    0    0    0    0  0.00000000000E+00  0.00000000000E+00  0.14463208319E+03  0.14463208319E+03  0.00000000000E+00 0. -1.
         22   -1    0    0    0    0 -0.00000000000E+00 -0.00000000000E+00 -0.86151864176E+03  0.86151864176E+03  0.00000000000E+00 0.  1.
        -24    2    1    2    0    0  0.13431132415E+02 -0.20787666014E+02 -0.50926334345E+03  0.51595957808E+03  0.79073452270E+02 0.  0.
         25    2    1    2    0    0 -0.20719574619E+02 -0.17161164601E+02 -0.32154289820E+03  0.34606469450E+03  0.12508849289E+03 0.  0.
         24    2    1    2    0    0  0.72884422044E+01  0.37948830615E+02  0.11391968308E+03  0.14412645238E+03  0.79382019040E+02 0.  0.
        -13    1    5    5    0    0 -0.18520198898E+02 -0.19845036627E+00  0.90652981601E+02  0.92525673318E+02  0.00000000000E+00 0.  1.
         14    1    5    5    0    0  0.25808641102E+02  0.38147280981E+02  0.23266701478E+02  0.51600779059E+02  0.00000000000E+00 0. -1.
         13    1    3    3    0    0  0.32222921672E+01 -0.23773180587E+02 -0.40476176702E+02  0.47051760461E+02  0.00000000000E+00 0. -1.
        -14    1    3    3    0    0  0.10208840248E+02  0.29855145732E+01 -0.46878716674E+03  0.46890781761E+03  0.00000000000E+00 0.  1.
          5    1    4    4  501    0  0.50796095608E+02  0.12451639246E+01 -0.16922432380E+03  0.17673748309E+03  0.41800000000E+01 0. -1.
         -5    1    4    4    0  501 -0.71515670227E+02 -0.18406328525E+02 -0.15231857440E+03  0.16932721141E+03  0.41800000000E+01 0. -1.
</event>
<event>
11    1  0.5813833E-009  0.2078147E+03  0.7561462E-02  0.1049131E+00
         22   -1    0    0    0    0  0.00000000000E+00  0.00000000000E+00  0.30492680665E+03  0.30492680665E+03  0.00000000000E+00 0. -1.
         22   -1    0    0    0    0 -0.00000000000E+00 -0.00000000000E+00 -0.30645667573E+03  0.30645667573E+03  0.00000000000E+00 0.  1.
         24    2    1    2    0    0 -0.88128534114E+02 -0.19684443863E+03 -0.11245785750E+03  0.25607646113E+03  0.80087531402E+02 0.  0.
         25    2    1    2    0    0  0.95410076705E+02  0.42089918510E+02  0.64556355114E+02  0.17518486449E+03  0.12509024655E+03 0.  0.
        -24    2    1    2    0    0 -0.72815425909E+01  0.15475452012E+03  0.46371633298E+02  0.18012215677E+03  0.79320114869E+02 0.  0.
        -11    1    3    3    0    0 -0.55249608134E+02 -0.57822365991E+02 -0.71976604219E+02  0.10759450154E+03  0.00000000000E+00 0.  1.
         12    1    3    3    0    0 -0.32878925980E+02 -0.13902207264E+03 -0.40481253278E+02  0.14848195958E+03  0.00000000000E+00 0. -1.
         13    1    5    5    0    0 -0.31302930619E+01  0.59758572056E+02  0.59198247590E+02  0.84174332112E+02  0.00000000000E+00 0. -1.
        -14    1    5    5    0    0 -0.41512495289E+01  0.94995948067E+02 -0.12826614293E+02  0.95947824655E+02  0.00000000000E+00 0.  1.
          5    1    4    4  501    0  0.11864992566E+03  0.20764788906E+02  0.74690901907E+02  0.14179275209E+03  0.41800000000E+01 0. -1.
         -5    1    4    4    0  501 -0.23239848952E+02  0.21325129604E+02 -0.10134546792E+02  0.33392112401E+02  0.41800000000E+01 0. -1.
</event>
<event>
11    1  0.5813833E-009  0.1711226E+03  0.7561462E-02  0.1077059E+00
         22   -1    0    0    0    0  0.00000000000E+00  0.00000000000E+00  0.68511157406E+03  0.68511157406E+03  0.00000000000E+00 0. -1.
         22   -1    0    0    0    0 -0.00000000000E+00 -0.00000000000E+00 -0.57718451951E+03  0.57718451951E+03  0.00000000000E+00 0. -1.
        -24    2    1    2    0    0  0.52921029865E+01 -0.12871643436E+03 -0.41213813308E+03  0.44221352220E+03  0.95388844482E+02 0.  0.
         25    2    1    2    0    0 -0.31016062566E+02  0.82637119829E+02 -0.10655440676E+03  0.18652426872E+03  0.12508625628E+03 0.  0.
         24    2    1    2    0    0  0.25723959580E+02  0.46079314526E+02  0.62661959439E+03  0.63355830264E+03  0.77194439229E+02 0.  0.
        -13    1    5    5    0    0 -0.15432027251E+02  0.37864292195E+02  0.16327288986E+03  0.16831484977E+03  0.00000000000E+00 0.  1.
         14    1    5    5    0    0  0.41155986831E+02  0.82150223308E+01  0.46334670453E+03  0.46524345288E+03  0.00000000000E+00 0. -1.
         13    1    3    3    0    0  0.10114245021E+02 -0.60344181245E+02 -0.32815587529E+03  0.33381131894E+03  0.00000000000E+00 0. -1.
        -14    1    3    3    0    0 -0.48221420346E+01 -0.68372253111E+02 -0.83982257791E+02  0.10840220327E+03  0.00000000000E+00 0.  1.
          5    1    4    4  501    0  0.25005997726E+02  0.86406033021E+02 -0.91198508645E+02  0.12816373451E+03  0.41800000000E+01 0.  1.
         -5    1    4    4    0  501 -0.56022060292E+02 -0.37689131917E+01 -0.15355898117E+02  0.58360534207E+02  0.41800000000E+01 0.  1.
</event>
<event>
11    1  0.5813833E-009  0.2054040E+03  0.7561462E-02  0.1050767E+00
         22   -1    0    0    0    0  0.00000000000E+00  0.00000000000E+00  0.18310013755E+03  0.18310013755E+03  0.00000000000E+00 0. -1.
         22   -1    0    0    0    0 -0.00000000000E+00 -0.00000000000E+00 -0.15022146501E+04  0.15022146501E+04  0.00000000000E+00 0. -1.
         24    2    1    2    0    0 -0.44887300268E+02 -0.19029039596E+03 -0.10219669755E+04  0.10438656056E+04  0.83747233239E+02 0.  0.
         25    2    1    2    0    0 -0.10827759712E+02  0.11742527929E+03 -0.42875105968E+03  0.46193359989E+03  0.12509693415E+03 0.  0.
        -24    2    1    2    0    0  0.55715059980E+02  0.72865116669E+02  0.13160352266E+03  0.17951558211E+03  0.80578309157E+02 0.  0.
        -13    1    3    3    0    0  0.11821089862E+02 -0.91809222270E+01 -0.18720989984E+03  0.18780727913E+03  0.00000000000E+00 0.  1.
         14    1    3    3    0    0 -0.56708390131E+02 -0.18110947374E+03 -0.83475707567E+03  0.85605832650E+03  0.00000000000E+00 0. -1.
         13    1    5    5    0    0  0.57641581618E+02  0.41629682399E+02  0.13000674787E+03  0.14818008260E+03  0.00000000000E+00 0. -1.
        -14    1    5    5    0    0 -0.19265216381E+01  0.31235434270E+02  0.15967747933E+01  0.31335499507E+02  0.00000000000E+00 0.  1.
          5    1    4    4  501    0 -0.13207105069E+02  0.14288171784E+03 -0.33060280223E+03  0.36042377580E+03  0.41800000000E+01 0.  1.
         -5    1    4    4    0  501  0.23793453576E+01 -0.25456438541E+02 -0.98148257446E+02  0.10150982409E+03  0.41800000000E+01 0.  1.
</event>
<event>
11    1  0.5813833E-009  0.1291260E+03  0.7561462E-02  0.1120348E+00
         22   -1    0    0    0    0  0.00000000000E+00  0.00000000000E+00  0.18596437416E+03  0.18596437416E+03  0.00000000000E+00 0. -1.
         22   -1    0    0    0    0 -0.00000000000E+00 -0.00000000000E+00 -0.80152779247E+03  0.80152779247E+03  0.00000000000E+00 0. -1.
         24    2    1    2    0    0  0.27633044400E+02  0.18509143092E+02 -0.70752545603E+03  0.71304473550E+03  0.82063087812E+02 0.  0.
         25    2    1    2    0    0 -0.53512560652E+01 -0.93117066622E+01 -0.27550740763E+02  0.12853651721E+03  0.12508896482E+03 0.  0.
        -24    2    1    2    0    0 -0.22281788335E+02 -0.91974364302E+01  0.11951277848E+03  0.14591091392E+03  0.80159962894E+02 0.  0.
        -11    1    3    3    0    0 -0.12317205310E+02 -0.15359905682E+01 -0.16869904613E+02  0.20944366673E+02  0.00000000000E+00 0.  1.
         12    1    3    3    0    0  0.39950249710E+02  0.20045133661E+02 -0.69065555141E+03  0.69210036883E+03  0.00000000000E+00 0. -1.
         13    1    5    5    0    0  0.53022064216E+01  0.96486022317E+01  0.11085444217E+03  0.11139980371E+03  0.00000000000E+00 0. -1.
        -14    1    5    5    0    0 -0.27583994757E+02 -0.18846038662E+02  0.86583363128E+01  0.34511110206E+02  0.00000000000E+00 0.  1.
          5    1    4    4  501    0  0.17364858414E+02 -0.18632936037E+02  0.44973858744E+02  0.51854073933E+02  0.41800000000E+01 0. -1.
         -5    1    4    4    0  501 -0.22716114479E+02  0.93212293750E+01 -0.72524599507E+02  0.76682443282E+02  0.41800000000E+01 0. -1.
</event>
<event>
11    1  0.5813833E-009  0.1406067E+03  0.7561462E-02  0.1106883E+00
         22   -1    0    0    0    0  0.00000000000E+00  0.00000000000E+00  0.59994756230E+03  0.59994756230E+03  0.00000000000E+00 0.  1.
         22   -1    0    0    0    0 -0.00000000000E+00 -0.00000000000E+00 -0.32956321184E+03  0.32956321184E+03  0.00000000000E+00 0. -1.
         24    2    1    2    0    0  0.50245023017E+02  0.33408037415E+02 -0.28297020656E+03  0.30025449130E+03  0.80249376593E+02 0.  0.
         25    2    1    2    0    0  0.70348495842E+01  0.13696318556E+02  0.93813657007E+02  0.15711768881E+03  0.12509151708E+03 0.  0.
        -24    2    1    2    0    0 -0.57279872601E+02 -0.47104355970E+02  0.45954090001E+03  0.47213859403E+03  0.78976002924E+02 0.  0.
        -13    1    3    3    0    0 -0.72544976881E+01 -0.16486005763E+02 -0.22138529368E+02  0.28539982573E+02  0.00000000000E+00 0.  1.
         14    1    3    3    0    0  0.57499520705E+02  0.49894043177E+02 -0.26083167719E+03  0.27171450873E+03  0.00000000000E+00 0. -1.
         11    1    5    5    0    0 -0.19159914887E+02  0.16329040806E+02  0.50166442202E+02  0.56128529602E+02  0.00000000000E+00 0. -1.
        -12    1    5    5    0    0 -0.38119957714E+02 -0.63433396776E+02  0.40937445781E+03  0.41601006443E+03  0.00000000000E+00 0.  1.
          5    1    4    4  501    0 -0.46961158436E+02 -0.26084533436E+02  0.20454574086E+02  0.57633456319E+02  0.41800000000E+01 0. -1.
         -5    1    4    4    0  501  0.53996008020E+02  0.39780851992E+02  0.73359082921E+02  0.99484232491E+02  0.41800000000E+01 0. -1.
</event>
<event>
11    1  0.5813833E-009  0.2062827E+03  0.7561462E-02  0.1050168E+00
         22   -1    0    0    0    0  0.00000000000E+00  0.00000000000E+00  0.14201432001E+03  0.14201432001E+03  0.00000000000E+00 0. -1.
         22   -1    0    0    0    0 -0.00000000000E+00 -0.00000000000E+00 -0.11760969456E+04  0.11760969456E+04  0.00000000000E+00 0.  1.
        -24    2    1    2    0    0  0.12550213820E+02  0.81094499711E+02 -0.86306976093E+03  0.87066175746E+03  0.80178911928E+02 0.  0.
         25    2    1    2    0    0 -0.10660587998E+03 -0.18572163557E+03 -0.13298740476E+03  0.28140893871E+03  0.12509197174E+03 0.  0.
         24    2    1    2    0    0  0.94055666161E+02  0.10462713585E+03 -0.38025459892E+02  0.16604056944E+03  0.79562737555E+02 0.  0.
        -11    1    5    5    0    0  0.76885806880E+01  0.18978425408E+02 -0.39394308634E+02  0.44398270875E+02  0.00000000000E+00 0.  1.
         12    1    5    5    0    0  0.86367085473E+02  0.85648710446E+02  0.13688487419E+01  0.12164229857E+03  0.00000000000E+00 0. -1.
         11    1    3    3    0    0  0.34728799931E+02  0.48514853654E+01 -0.23820257609E+03  0.24076979402E+03  0.00000000000E+00 0. -1.
        -12    1    3    3    0    0 -0.22178586110E+02  0.76243014346E+02 -0.62486718484E+03  0.62989196344E+03  0.00000000000E+00 0.  1.
          5    1    4    4  501    0 -0.15107814861E+02 -0.14358832885E+03 -0.57521234156E+02  0.15547353160E+03  0.41800000000E+01 0.  1.
         -5    1    4    4    0  501 -0.91498065120E+02 -0.42133306719E+02 -0.75466170608E+02  0.12593540710E+03  0.41800000000E+01 0.  1.
</event>
<event>
11    1  0.5813833E-009  0.1398076E+03  0.7561462E-02  0.1107773E+00
         22   -1    0    0    0    0  0.00000000000E+00  0.00000000000E+00  0.18635019329E+04  0.18635019329E+04  0.00000000000E+00 0. -1.
         22   -1    0    0    0    0 -0.00000000000E+00 -0.00000000000E+00 -0.29115123402E+03  0.29115123402E+03  0.00000000000E+00 0.  1.
        -24    2    1    2    0    0  0.42152865004E+01  0.12845542779E+02 -0.24844966497E+03  0.26180792661E+03  0.81445551155E+02 0.  0.
         25    2    1    2    0    0 -0.58377917935E+02 -0.43067136608E+02  0.11692881522E+03  0.18596374489E+03  0.12508959599E+03 0.  0.
         24    2    1    2    0    0  0.54162631435E+02  0.30221593829E+02  0.17038715486E+04  0.17068814954E+04  0.80120221023E+02 0.  0.
        -11    1    5    5    0    0 -0.21028796446E+02  0.10759266212E+02  0.41559296330E+03  0.41626371837E+03  0.00000000000E+00 0.  1.
         12    1    5    5    0    0  0.75191427880E+02  0.19462327617E+02  0.12882785853E+04  0.12906177771E+04  0.00000000000E+00 0. -1.
         13    1    3    3    0    0 -0.24006400777E+01  0.25191803123E+02 -0.18292877151E+02  0.31225300188E+02  0.00000000000E+00 0. -1.
        -14    1    3    3    0    0  0.66159265781E+01 -0.12346260343E+02 -0.23015678782E+03  0.23058262642E+03  0.00000000000E+00 0.  1.
          5    1    4    4  501    0 -0.57492720300E+02  0.34263964455E+02  0.57635825682E+02  0.88423938782E+02  0.41800000000E+01 0. -1.
         -5    1    4    4    0  501 -0.88519763503E+00 -0.77331101063E+02  0.59292989540E+02  0.97539806106E+02  0.41800000000E+01 0. -1.
</event>
<event>
11    1  0.5813833E-009  0.1288014E+03  0.7561462E-02  0.1120751E+00
         22   -1    0    0    0    0  0.00000000000E+00  0.00000000000E+00  0.22273675611E+02  0.22273675611E+02  0.00000000000E+00 0.  1.
         22   -1    0    0    0    0 -0.00000000000E+00 -0.00000000000E+00 -0.13148740715E+04  0.13148740715E+04  0.00000000000E+00 0.  1.
        -24    2    1    2    0    0  0.27646588992E+02  0.11493493622E+02 -0.64437160800E+03  0.64986890747E+03  0.78856790555E+02 0.  0.
         25    2    1    2    0    0 -0.44993750624E+01  0.17038858650E+02 -0.50207873561E+03  0.51772678988E+03  0.12508958842E+03 0.  0.
         24    2    1    2    0    0 -0.23147213929E+02 -0.28532352272E+02 -0.14615005232E+03  0.16955204980E+03  0.77705670067E+02 0.  0.
        -11    1    5    5    0    0 -0.30641453534E+02 -0.49351327765E+02 -0.73949857889E+02  0.94037405902E+02  0.00000000000E+00 0.  1.
         12    1    5    5    0    0  0.74942396045E+01  0.20818975493E+02 -0.72200194430E+02  0.75514643901E+02  0.00000000000E+00 0. -1.
         13    1    3    3    0    0  0.36814294566E+02 -0.12163432149E+02 -0.56944363169E+03  0.57076202662E+03  0.00000000000E+00 0. -1.
        -14    1    3    3    0    0 -0.91677055741E+01  0.23656925771E+02 -0.74927976317E+02  0.79106880847E+02  0.00000000000E+00 0.  1.
          5    1    4    4  501    0 -0.33857291228E+02 -0.24696269832E+02 -0.41174636464E+03  0.41389462803E+03  0.41800000000E+01 0.  1.
         -5    1    4    4    0  501  0.29357916166E+02  0.41735128482E+02 -0.90332370963E+02  0.10383216185E+03  0.41800000000E+01 0.  1.
</event>
<event>
11    1  0.5813833E-009  0.1821400E+03  0.7561462E-02  0.1067925E+00
         22   -1    0    0    0    0  0.00000000000E+00  0.00000000000E+00  0.21476838233E+03  0.21476838233E+03  0.00000000000E+00 0.  1.
         22   -1    0    0    0    0 -0.00000000000E+00 -0.00000000000E+00 -0.84032266786E+03  0.84032266786E+03  0.00000000000E+00 0.  1.
        -24    2    1    2    0    0 -0.33039141683E+02  0.12801063427E+03 -0.73998479759E+03  0.75597468143E+03  0.80261515843E+02 0.  0.
         25    2    1    2    0    0  0.70298055268E+02 -0.12171296135E+03  0.79276513106E+02  0.20417606464E+03  0.12508892159E+03 0.  0.
         24    2    1    2    0    0 -0.37258913585E+02 -0.62976729233E+01  0.35153998957E+02  0.94940304115E+02  0.79686701381E+02 0.  0.
        -11    1    5    5    0    0  0.89850165921E+01  0.28777215565E+02  0.12444516758E+02  0.32614791984E+02  0.00000000000E+00 0.  1.
         12    1    5    5    0    0 -0.46243930177E+02 -0.35074888488E+02  0.22709482199E+02  0.62325512131E+02  0.00000000000E+00 0. -1.
         13    1    3    3    0    0  0.14823539685E+02  0.10611616059E+02 -0.22013369454E+03  0.22088727260E+03  0.00000000000E+00 0. -1.
        -14    1    3    3    0    0 -0.47862681368E+02  0.11739901821E+03 -0.51985110305E+03  0.53508740883E+03  0.00000000000E+00 0.  1.
          5    1    4    4  501    0  0.33924184729E+02 -0.13735526203E+03  0.83171085286E+02  0.16417131341E+03  0.41800000000E+01 0. -1.
         -5    1    4    4    0  501  0.36373870539E+02  0.15642300682E+02 -0.38945721802E+01  0.40004751232E+02  0.41800000000E+01 0. -1.
</event>
<event>
11    1  0.5813833E-009  0.1424936E+03  0.7561462E-02  0.1104805E+00
         22   -1    0    0    0    0  0.00000000000E+00  0.00000000000E+00  0.12461443164E+04  0.12461443164E+04  0.00000000000E+00 0. -1.
         22   -1    0    0    0    0 -0.00000000000E+00 -0.00000000000E+00 -0.15010697158E+03  0.15010697158E+03  0.00000000000E+00 0.  1.
        -24    2    1    2    0    0  0.59295845983E+02 -0.31547526939E+01 -0.10831455016E+03  0.14656541771E+03  0.78888719583E+02 0.  0.
         25    2    1    2    0    0 -0.81616256641E+02 -0.58682780427E+02  0.30447270400E+03  0.34417445638E+03  0.12509015501E+03 0.  0.
         24    2    1    2    0    0  0.22320410658E+02  0.61837533121E+02  0.89987919097E+03  0.90551141387E+03  0.76460977515E+02 0.  0.
        -11    1    5    5    0    0 -0.16456616436E+02  0.76072330379E+01  0.53057382666E+02  0.56069386249E+02  0.00000000000E+00 0.  1.
         12    1    5    5    0    0  0.38777027094E+02  0.54230300083E+02  0.84682180830E+03  0.84944202762E+03  0.00000000000E+00 0. -1.
         11    1    3    3    0    0  0.44609330655E+02 -0.34079785336E+02 -0.36366731057E+02  0.66887691527E+02  0.00000000000E+00 0. -1.
        -12    1    3    3    0    0  0.14686515329E+02  0.30925032642E+02 -0.71947819106E+02  0.79677726188E+02  0.00000000000E+00 0.  1.
          5    1    4    4  501    0 -0.88526063008E+02 -0.90395043245E+02  0.22389697715E+03  0.25720703034E+03  0.41800000000E+01 0.  1.
         -5    1    4    4    0  501  0.69098063667E+01  0.31712262817E+02  0.80575726845E+02  0.86967426049E+02  0.41800000000E+01 0.  1.
</event>
<event>
11    1  0.5813833E-009  0.1445323E+03  0.7561462E-02  0.1102600E+00
         22   -1    0    0    0    0  0.00000000000E+00  0.00000000000E+00  0.16127954156E+04  0.16127954156E+04  0.00000000000E+00 0.  1.
         22   -1    0    0    0    0 -0.00000000000E+00 -0.00000000000E+00 -0.74954515352E+03  0.74954515352E+03  0.00000000000E+00 0. -1.
         24    2    1    2    0    0 -0.72420278856E+02 -0.10250453802E+01 -0.73310135945E+03  0.74070155540E+03  0.77171519621E+02 0.  0.
         25    2    1    2    0    0  0.68622264023E+02  0.37567783342E+02  0.48973499846E+03  0.51147636597E+03  0.12508937112E+03 0.  0.
        -24    2    1    2    0    0  0.37980148324E+01 -0.36542737962E+02  0.11066166231E+04  0.11101626478E+04  0.80690503589E+02 0.  0.
        -11    1    3    3    0    0 -0.71987582335E+02  0.45666345576E+01 -0.34033092372E+03  0.34789108037E+03  0.00000000000E+00 0.  1.
         12    1    3    3    0    0 -0.43269652037E+00 -0.55916799378E+01 -0.39277043573E+03  0.39281047503E+03  0.00000000000E+00 0. -1.
         13    1    5    5    0    0  0.35683293446E+02 -0.29577785050E+02  0.87865535214E+03  0.87987690653E+03  0.00000000000E+00 0. -1.
        -14    1    5    5    0    0 -0.31885278614E+02 -0.69649529124E+01  0.22796127097E+03  0.23028574125E+03  0.00000000000E+00 0.  1.
          5    1    4    4  501    0  0.48899361664E+01  0.67149736579E+02  0.33147816702E+03  0.33827244376E+03  0.41800000000E+01 0.  1.
         -5    1    4    4    0  501  0.63732327857E+02 -0.29581953237E+02  0.15825683144E+03  0.17320392221E+03  0.41800000000E+01 0.  1.
</event>
<event>
11    1  0.5813833E-009  0.1739676E+03  0.7561462E-02  0.1074630E+00
         22   -1    0    0    0    0  0.00000000000E+00  0.00000000000E+00  0.87424769626E+03  0.87424769626E+03  0.00000000000E+00 0. -1.
         22   -1    0    0    0    0 -0.00000000000E+00 -0.00000000000E+00 -0.13679721265E+03  0.13679721265E+03  0.00000000000E+00 0. -1.
         24    2    1    2    0    0 -0.69204672111E+02 -0.33177595653E+02 -0.17986517638E+02  0.12501494830E+03  0.97031865824E+02 0.  0.
         25    2    1    2    0    0  0.15997211041E+03  0.99569970463E+02  0.16248002507E+03  0.27848549295E+03  0.12509658712E+03 0.  0.
        -24    2    1    2    0    0 -0.90767438299E+02 -0.66392374810E+02  0.59295697618E+03  0.60754446767E+03  0.69754063018E+02 0.  0.
        -11    1    3    3    0    0  0.15280612879E+02 -0.94944095471E+01  0.22144459666E+02  0.28531001323E+02  0.00000000000E+00 0.  1.
         12    1    3    3    0    0 -0.84485284990E+02 -0.23683186106E+02 -0.40130977304E+02  0.96483946972E+02  0.00000000000E+00 0. -1.
         11    1    5    5    0    0 -0.98391024149E+02 -0.70827499654E+02  0.57361943873E+03  0.58629053278E+03  0.00000000000E+00 0. -1.
        -12    1    5    5    0    0  0.76235858497E+01  0.44351248444E+01  0.19337537444E+02  0.21253934883E+02  0.00000000000E+00 0.  1.
          5    1    4    4  501    0  0.63962468624E+02 -0.24771570747E+01  0.33260682151E+00  0.64147616689E+02  0.41800000000E+01 0. -1.
         -5    1    4    4    0  501  0.96009641786E+02  0.10204712754E+03  0.16214741825E+03  0.21433787626E+03  0.41800000000E+01 0. -1.
</event>
<event>
11    1  0.5813833E-009  0.1312361E+03  0.7561462E-02  0.1117759E+00
         22   -1    0    0    0    0  0.00000000000E+00  0.00000000000E+00  0.79266971748E+02  0.79266971748E+02  0.00000000000E+00 0.  1.
         22   -1    0    0    0    0 -0.00000000000E+00 -0.00000000000E+00 -0.70556436497E+03  0.70556436497E+03  0.00000000000E+00 0.  1.
        -24    2    1    2    0    0  0.61236808286E+01 -0.28140119871E+01 -0.41858812873E+03  0.42536250596E+03  0.75311498647E+02 0.  0.
         25    2    1    2    0    0 -0.40939207150E+02 -0.15147084674E+02 -0.23115449640E+03  0.26643095074E+03  0.12509035715E+03 0.  0.
         24    2    1    2    0    0  0.34815526322E+02  0.17961096661E+02  0.23445231911E+02  0.93037880017E+02  0.81065691586E+02 0.  0.
        -13    1    5    5    0    0  0.24476996343E+02  0.23762722443E+02  0.51959295878E+02  0.62157531772E+02  0.00000000000E+00 0.  1.
         14    1    5    5    0    0  0.10338529978E+02 -0.58016257815E+01 -0.28514063967E+02  0.30880348245E+02  0.00000000000E+00 0. -1.
         13    1    3    3    0    0  0.56867459412E+01 -0.20729573501E+02 -0.33157577795E+02  0.39515557217E+02  0.00000000000E+00 0. -1.
        -14    1    3    3    0    0  0.43693488735E+00  0.17915561514E+02 -0.38543055094E+03  0.38584694874E+03  0.00000000000E+00 0.  1.
          5    1    4    4  501    0  0.22295141010E+01  0.31735171805E+02 -0.18467482555E+03  0.18744160546E+03  0.41800000000E+01 0. -1.
         -5    1    4    4    0  501 -0.43168721251E+02 -0.46882256479E+02 -0.46479670846E+02  0.78989345288E+02  0.41800000000E+01 0. -1.
</event>
<event>
11    1  0.5813833E-009  0.1278940E+03  0.7561462E-02  0.1121884E+00
         22   -1    0    0    0    0  0.00000000000E+00  0.00000000000E+00  0.12842206965E+03  0.12842206965E+03  0.00000000000E+00 0. -1.
         22   -1    0    0    0    0 -0.00000000000E+00 -0.00000000000E+00 -0.93798639066E+03  0.93798639066E+03  0.00000000000E+00 0.  1.
         24    2    1    2    0    0  0.14355084221E+02 -0.57349414882E+01 -0.69687450999E+03  0.70170529764E+03  0.80729697504E+02 0.  0.
         25    2    1    2    0    0 -0.36842284664E+02  0.17919470510E+02 -0.20278047640E+03  0.24175591954E+03  0.12509013414E+03 0.  0.
        -24    2    1    2    0    0  0.22487200443E+02 -0.12184529022E+02  0.90090665378E+02  0.12294724314E+03  0.79659021312E+02 0.  0.
        -13    1    3    3    0    0 -0.31651641895E+02  0.62158979597E+01 -0.20276278264E+03  0.20531246881E+03  0.00000000000E+00 0.  1.
         14    1    3    3    0    0  0.46006726116E+02 -0.11950839448E+02 -0.49411172735E+03  0.49639282883E+03  0.00000000000E+00 0. -1.
         13    1    5    5    0    0 -0.16445431442E+02 -0.10970556127E+02  0.80418646440E+02  0.82812825168E+02  0.00000000000E+00 0. -1.
        -14    1    5    5    0    0  0.38932631885E+02 -0.12139728951E+01  0.96720189379E+01  0.40134417972E+02  0.00000000000E+00 0.  1.
          5    1    4    4  501    0  0.18166495429E+02  0.12051956084E+02  0.81536745170E+01  0.23647959949E+02  0.41800000000E+01 0. -1.
         -5    1    4    4    0  501 -0.55008780093E+02  0.58675144264E+01 -0.21093415092E+03  0.21810795959E+03  0.41800000000E+01 0. -1.
</event>
<event>
11    1  0.5813833E-009  0.3361682E+03  0.7561462E-02  0.9859486E-01
         22   -1    0    0    0    0  0.00000000000E+00  0.00000000000E+00  0.87982584776E+03  0.87982584776E+03  0.00000000000E+00 0. -1.
         22   -1    0    0    0    0 -0.00000000000E+00 -0.00000000000E+00 -0.69496837032E+03  0.69496837032E+03  0.00000000000E+00 0.  1.
         24    2    1    2    0    0  0.32834089132E+02  0.30715343451E+02 -0.41540311870E+03  0.42536625684E+03  0.79719456206E+02 0.  0.
         25    2    1    2    0    0 -0.32180257400E+03 -0.13395505844E+03 -0.97475544489E+02  0.38294810663E+03  0.12508763442E+03 0.  0.
        -24    2    1    2    0    0  0.28896848486E+03  0.10323971499E+03  0.69773614064E+03  0.76647985461E+03  0.80587974171E+02 0.  0.
        -13    1    3    3    0    0  0.48330726599E+02  0.40337099895E+02 -0.38336632244E+03  0.38850055076E+03  0.00000000000E+00 0.  1.
         14    1    3    3    0    0 -0.15496637467E+02 -0.96217564440E+01 -0.32036796265E+02  0.36865706079E+02  0.00000000000E+00 0. -1.
         11    1    5    5    0    0  0.18457965881E+03  0.41941258433E+02  0.50001231358E+03  0.53464103222E+03  0.00000000000E+00 0. -1.
        -12    1    5    5    0    0  0.10438882605E+03  0.61298456554E+02  0.19772382706E+03  0.23183882239E+03  0.00000000000E+00 0.  1.
          5    1    4    4  501    0 -0.81212313785E+01 -0.24045028093E+02  0.17622707131E+02  0.31179319777E+02  0.41800000000E+01 0.  1.
         -5    1    4    4    0  501 -0.31368134262E+03 -0.10991003034E+03 -0.11509825162E+03  0.35176878685E+03  0.41800000000E+01 0.  1.
</event>
<event>
11    1  0.5813833E-009  0.2725614E+03  0.7561462E-02  0.1012523E+00
         22   -1    0    0    0    0  0.00000000000E+00  0.00000000000E+00  0.55625804122E+03  0.55625804122E+03  0.00000000000E+00 0.  1.
         22   -1    0    0    0    0 -0.00000000000E+00 -0.00000000000E+00 -0.62491103215E+03  0.62491103215E+03  0.00000000000E+00 0. -1.
         24    2    1    2    0    0 -0.21341652547E+03 -0.11028773516E+03 -0.41141446676E+03  0.48298350535E+03  0.79380130454E+02 0.  0.
         25    2    1    2    0    0  0.21317627211E+03 -0.15723426474E+03  0.55068345330E+02  0.29806786555E+03  0.12508074519E+03 0.  0.
        -24    2    1    2    0    0  0.24025336071E+00  0.26752199990E+03  0.28769313050E+03  0.40011770247E+03  0.75886496427E+02 0.  0.
        -13    1    3    3    0    0 -0.13471153366E+03 -0.96915507415E+02 -0.21986803374E+03  0.27546645012E+03  0.00000000000E+00 0.  1.
         14    1    3    3    0    0 -0.78704991810E+02 -0.13372227744E+02 -0.19154643302E+03  0.20751705523E+03  0.00000000000E+00 0. -1.
         13    1    5    5    0    0 -0.81460814814E+01 -0.19634102620E+01  0.70881795449E+01  0.10975240891E+02  0.00000000000E+00 0. -1.
        -14    1    5    5    0    0  0.83863348421E+01  0.26948541016E+03  0.28060495096E+03  0.38914246158E+03  0.00000000000E+00 0.  1.
          5    1    4    4  501    0 -0.40539677809E+01  0.50434644311E+01 -0.15972877554E+02  0.17733482613E+02  0.41800000000E+01 0.  1.
         -5    1    4    4    0  501  0.21723023989E+03 -0.16227772917E+03  0.71041222884E+02  0.28033438294E+03  0.41800000000E+01 0.  1.
</event>
<event>
11    1  0.5813833E-009  0.2174160E+03  0.7561462E-02  0.1042848E+00
         22   -1    0    0    0    0  0.00000000000E+00  0.00000000000E+00  0.35003518369E+03  0.35003518369E+03  0.00000000000E+00 0. -1.
         22   -1    0    0    0    0 -0.00000000000E+00 -0.00000000000E+00 -0.16861078567E+04  0.16861078567E+04  0.00000000000E+00 0.  1.
        -24    2    1    2    0    0  0.14144414373E+03  0.10443956852E+03 -0.14923168753E+04  0.15048377899E+04  0.81320651837E+02 0.  0.
         25    2    1    2    0    0 -0.15768394941E+03 -0.12832492205E+03 -0.10179790226E+03  0.25950056884E+03  0.12508484642E+03 0.  0.
         24    2    1    2    0    0  0.16239805673E+02  0.23885353534E+02  0.25804210451E+03  0.27180468167E+03  0.80360536786E+02 0.  0.
        -13    1    5    5    0    0  0.47473152305E+02  0.17523294631E+02  0.12200602325E+03  0.13208419948E+03  0.00000000000E+00 0.  1.
         14    1    5    5    0    0 -0.31233346633E+02  0.63620589028E+01  0.13603608126E+03  0.13972048218E+03  0.00000000000E+00 0. -1.
         13    1    3    3    0    0  0.39418312437E+02 -0.51828151400E+01 -0.46006195276E+03  0.46177664007E+03  0.00000000000E+00 0. -1.
        -14    1    3    3    0    0  0.10202583130E+03  0.10962238366E+03 -0.10322549225E+04  0.10430611498E+04  0.00000000000E+00 0.  1.
          5    1    4    4  501    0 -0.32622608650E+01 -0.58513926638E+02 -0.61908968586E+02  0.85350540408E+02  0.41800000000E+01 0.  1.
         -5    1    4    4    0  501 -0.15442168854E+03 -0.69810995413E+02 -0.39888933670E+02  0.17415002843E+03  0.41800000000E+01 0.  1.
</event>
<event>
11    1  0.5813833E-009  0.2709338E+03  0.7561462E-02  0.1013303E+00
         22   -1    0    0    0    0  0.00000000000E+00  0.00000000000E+00  0.63792993562E+03  0.63792993562E+03  0.00000000000E+00 0. -1.
         22   -1    0    0    0    0 -0.00000000000E+00 -0.00000000000E+00 -0.18868262739E+04  0.18868262739E+04  0.00000000000E+00 0.  1.
        -24    2    1    2    0    0 -0.69056647600E+01  0.31852117532E+02 -0.14511590754E+04  0.14536698098E+04  0.78936735754E+02 0.  0.
         25    2    1    2    0    0 -0.69332506250E+02  0.19820442460E+03 -0.37049798754E+03  0.44385610348E+03  0.12508993353E+03 0.  0.
         24    2    1    2    0    0  0.76238171010E+02 -0.23005654214E+03  0.57276072459E+03  0.62723029630E+03  0.81392417735E+02 0.  0.
        -13    1    5    5    0    0  0.61020502522E+02 -0.73138574151E+02  0.26177457713E+03  0.27856539984E+03  0.00000000000E+00 0.  1.
         14    1    5    5    0    0  0.15217668488E+02 -0.15691796798E+03  0.31098614746E+03  0.34866489646E+03  0.00000000000E+00 0. -1.
         11    1    3    3    0    0  0.31587580459E+02  0.26574916457E+02 -0.49370260597E+03  0.49542533702E+03  0.00000000000E+00 0. -1.
        -12    1    3    3    0    0 -0.38493245219E+02  0.52772010749E+01 -0.95745646941E+03  0.95824447277E+03  0.00000000000E+00 0.  1.
          5    1    4    4  501    0 -0.47139230907E+02  0.48677425392E+02 -0.36184079212E+02  0.76930870408E+02  0.41800000000E+01 0.  1.
         -5    1    4    4    0  501 -0.22193275343E+02  0.14952699921E+03 -0.33431390833E+03  0.36692523307E+03  0.41800000000E+01 0.  1.
</event>
<event>
11    1  0.5813833E-009  0.2499995E+03  0.7561462E-02  0.1023899E+00
         22   -1    0    0    0    0  0.00000000000E+00  0.00000000000E+00  0.58822378314E+03  0.58822378314E+03  0.00000000000E+00 0. -1.
         22   -1    0    0    0    0 -0.00000000000E+00 -0.00000000000E+00 -0.76892653889E+03  0.76892653889E+03  0.00000000000E+00 0. -1.
         24    2    1    2    0    0  0.22502136127E+03  0.46783212778E+02 -0.58682038611E+03  0.63526468741E+03  0.79873496763E+02 0.  0.
         25    2    1    2    0    0 -0.17618999634E+03  0.10586645724E+03 -0.37426830450E+02  0.24351287144E+03  0.12508848604E+03 0.  0.
        -24    2    1    2    0    0 -0.48831364929E+02 -0.15264967002E+03  0.44354446081E+03  0.47837276318E+03  0.80139802104E+02 0.  0.
        -13    1    3    3    0    0  0.83704858514E+01  0.14125801453E+02 -0.12699545315E+02  0.20757691376E+02  0.00000000000E+00 0.  1.
         14    1    3    3    0    0  0.21665087542E+03  0.32657411325E+02 -0.57412084080E+03  0.61450699603E+03  0.00000000000E+00 0. -1.
         13    1    5    5    0    0  0.91980483297E+01 -0.11336999121E+02  0.11647609415E+03  0.11738744460E+03  0.00000000000E+00 0. -1.
        -14    1    5    5    0    0 -0.58029413259E+02 -0.14131267090E+03  0.32706836666E+03  0.36098531858E+03  0.00000000000E+00 0.  1.
          5    1    4    4  501    0 -0.33070097971E+02  0.28131073263E+01 -0.56926541688E+02  0.66027634375E+02  0.41800000000E+01 0.  1.
         -5    1    4    4    0  501 -0.14311989837E+03  0.10305334991E+03  0.19499711238E+02  0.17748523707E+03  0.41800000000E+01 0.  1.
</event>
<event>
11    1  0.5813833E-009  0.1450155E+03  0.7561462E-02  0.1102084E+00
         22   -1    0    0    0    0  0.00000000000E+00  0.00000000000E+00  0.52783868205E+03  0.52783868205E+03  0.00000000000E+00 0.  1.
         22   -1    0    0    0    0 -0.00000000000E+00 -0.00000000000E+00 -0.10073364018E+04  0.10073364018E+04  0.00000000000E+00 0. -1.
        -24    2    1    2    0    0  0.89535668462E+01  0.75037957794E+01 -0.84729089214E+03  0.85110497143E+03  0.79632551094E+02 0.  0.
         25    2    1    2    0    0 -0.77424521565E+02 -0.32655028107E+02 -0.11485619100E+03  0.18947490294E+03  0.12509151383E+03 0.  0.
         24    2    1    2    0    0  0.68470954719E+02  0.25151232327E+02  0.48264936339E+03  0.49459520948E+03  0.79706694349E+02 0.  0.
        -11    1    5    5    0    0  0.12826184985E+02  0.15543908642E+02  0.34802097325E+03  0.34860396145E+03  0.00000000000E+00 0.  1.
         12    1    5    5    0    0  0.55644769734E+02  0.96073236856E+01  0.13462839014E+03  0.14599124802E+03  0.00000000000E+00 0. -1.
         13    1    3    3    0    0 -0.29226565126E+02 -0.15671676160E+01 -0.60055705850E+03  0.60126984678E+03  0.00000000000E+00 0. -1.
        -14    1    3    3    0    0  0.38180131972E+02  0.90709633955E+01 -0.24673383363E+03  0.24983512466E+03  0.00000000000E+00 0.  1.
          5    1    4    4  501    0 -0.11074348084E+02 -0.27995716607E+02 -0.11888439927E+03  0.12270849247E+03  0.41800000000E+01 0.  1.
         -5    1    4    4    0  501 -0.66350173481E+02 -0.46593115001E+01  0.40282082777E+01  0.66766410466E+02  0.41800000000E+01 0.  1.
</event>
<event>
11    1  0.5813833E-009  0.1473862E+03  0.7561462E-02  0.1099580E+00
         22   -1    0    0    0    0  0.00000000000E+00  0.00000000000E+00  0.20998713847E+03  0.20998713847E+03  0.00000000000E+00 0. -1.
         22   -1    0    0    0    0 -0.00000000000E+00 -0.00000000000E+00 -0.13203033808E+04  0.13203033808E+04  0.00000000000E+00 0. -1.
        -24    2    1    2    0    0 -0.87946440082E+02 -0.26707166385E+02 -0.12257097392E+04  0.12324420307E+04  0.90006362888E+02 0.  0.
         25    2    1    2    0    0 -0.32153344571E+02  0.68610308952E+01  0.41475104372E+02  0.13582614179E+03  0.12509054800E+03 0.  0.
         24    2    1    2    0    0  0.12009978465E+03  0.19846135490E+02  0.73918392493E+02  0.16202234672E+03  0.77262440562E+02 0.  0.
        -13    1    5    5    0    0  0.27979585169E+02  0.85713802442E+01 -0.15527738023E+02  0.33127577540E+02  0.00000000000E+00 0.  1.
         14    1    5    5    0    0  0.92120199483E+02  0.11274755246E+02  0.89446130516E+02  0.12889476918E+03  0.00000000000E+00 0. -1.
         13    1    3    3    0    0 -0.76695451993E+02  0.10141149273E+02 -0.10345393787E+04  0.10374279548E+04  0.00000000000E+00 0. -1.
        -14    1    3    3    0    0 -0.11250988089E+02 -0.36848315659E+02 -0.19117036048E+03  0.19501407597E+03  0.00000000000E+00 0.  1.
          5    1    4    4  501    0  0.39633849565E+02  0.30836032398E+02  0.31365772158E+02  0.59354755399E+02  0.41800000000E+01 0. -1.
         -5    1    4    4    0  501 -0.71787194136E+02 -0.23975001503E+02  0.10109332214E+02  0.76471386392E+02  0.41800000000E+01 0. -1.
</event>
<event>
11    1  0.5813833E-009  0.1983040E+03  0.7561462E-02  0.1055729E+00
         22   -1    0    0    0    0  0.00000000000E+00  0.00000000000E+00  0.23137387632E+04  0.23137387632E+04  0.00000000000E+00 0.  1.
         22   -1    0    0    0    0 -0.00000000000E+00 -0.00000000000E+00 -0.46996732244E+03  0.46996732244E+03  0.00000000000E+00 0. -1.
         24    2    1    2    0    0  0.77979241867E+02 -0.13338077771E+03 -0.41962079086E+03  0.45383515828E+03  0.77547074353E+02 0.  0.
         25    2    1    2    0    0  0.34164481693E+02  0.17899559756E+03  0.36901963992E+03  0.43015018777E+03  0.12508818345E+03 0.  0.
        -24    2    1    2    0    0 -0.11214372356E+03 -0.45614819854E+02  0.18943725916E+04  0.18997207395E+04  0.75062945129E+02 0.  0.
        -11    1    3    3    0    0 -0.33265659054E+01 -0.25565890856E+02 -0.21939664026E+02  0.33853060032E+02  0.00000000000E+00 0.  1.
         12    1    3    3    0    0  0.81305807773E+02 -0.10781488685E+03 -0.39768112684E+03  0.41998209825E+03  0.00000000000E+00 0. -1.
         11    1    5    5    0    0  0.64293984059E+01 -0.17897152568E+02  0.17174072108E+03  0.17279039473E+03  0.00000000000E+00 0. -1.
        -12    1    5    5    0    0 -0.11857312197E+03 -0.27717667286E+02  0.17226318706E+04  0.17269303448E+04  0.00000000000E+00 0.  1.
          5    1    4    4  501    0  0.37269321379E+02  0.56586315139E+02  0.25105516611E+03  0.26007149442E+03  0.41800000000E+01 0. -1.
         -5    1    4    4    0  501 -0.31048396867E+01  0.12240928242E+03  0.11796447381E+03  0.17007869336E+03  0.41800000000E+01 0. -1.
</event>
<event>
11    1  0.6584875E-009  0.1765115E+03  0.7561462E-02  0.1072500E+00
         22   -1    0    0    0    0  0.00000000000E+00  0.00000000000E+00  0.36644342713E+03  0.36644342713E+03  0.00000000000E+00 0. -1.
         22   -1    0    0    0    0 -0.00000000000E+00 -0.00000000000E+00 -0.17015382499E+04  0.17015382499E+04  0.00000000000E+00 0.  1.
        -24    2    1    2    0    0  0.17091053865E+01  0.29306845272E+02 -0.93069938157E+03  0.93464248233E+03  0.80581751564E+02 0.  0.
         25    2    1    2    0    0  0.57840384388E+02 -0.13802607409E+03 -0.73848872698E+03  0.76381280020E+03  0.12509071377E+03 0.  0.
         24    2    1    2    0    0 -0.59549489774E+02  0.10871922882E+03  0.33409328581E+03  0.36952639449E+03  0.97802965978E+02 0.  0.
        -13    1    5    5    0    0  0.27317237252E+02  0.27203862559E+02  0.73533066361E+02  0.83026462273E+02  0.00000000000E+00 0.  1.
         14    1    5    5    0    0 -0.86866727026E+02  0.81515366262E+02  0.26056021945E+03  0.28649993221E+03  0.00000000000E+00 0. -1.
         13    1    3    3    0    0  0.14538916547E+02  0.81372797470E+01 -0.36749951956E+02  0.40350395101E+02  0.00000000000E+00 0. -1.
        -14    1    3    3    0    0 -0.12829811160E+02  0.21169565525E+02 -0.89394942962E+03  0.89429208723E+03  0.00000000000E+00 0.  1.
          5    1    4    4  501    0  0.87975720795E+02 -0.63839677744E+02 -0.51534484600E+03  0.52670011829E+03  0.41800000000E+01 0. -1.
         -5    1    4    4    0  501 -0.30135336407E+02 -0.74186396350E+02 -0.22314388098E+03  0.23711268191E+03  0.41800000000E+01 0. -1.
</event>
<event>
11    1  0.5813833E-009  0.1858130E+03  0.7561462E-02  0.1065035E+00
         22   -1    0    0    0    0  0.00000000000E+00  0.00000000000E+00  0.13208078092E+04  0.13208078092E+04  0.00000000000E+00 0. -1.
         22   -1    0    0    0    0 -0.00000000000E+00 -0.00000000000E+00 -0.22530929401E+03  0.22530929401E+03  0.00000000000E+00 0.  1.
         24    2    1    2    0    0 -0.29070643747E+00 -0.60448393084E+02 -0.17348139028E+03  0.20036014097E+03  0.79964370684E+02 0.  0.
         25    2    1    2    0    0 -0.13545067185E+03  0.72244835943E+02  0.27257194299E+03  0.33691111184E+03  0.12508969722E+03 0.  0.
        -24    2    1    2    0    0  0.13574137828E+03 -0.11796442859E+02  0.99640796245E+03  0.10088458504E+04  0.79851389119E+02 0.  0.
        -11    1    3    3    0    0  0.52011951328E+01 -0.58838439452E+02 -0.18129499374E+03  0.19067482566E+03  0.00000000000E+00 0.  1.
         12    1    3    3    0    0 -0.54919015703E+01 -0.16099536324E+01  0.78136034575E+01  0.96853153045E+01  0.00000000000E+00 0. -1.
         11    1    5    5    0    0  0.91775254580E+02 -0.44109574170E+02  0.71287699147E+03  0.72011246126E+03  0.00000000000E+00 0. -1.
        -12    1    5    5    0    0  0.43966123703E+02  0.32313131311E+02  0.28353097097E+03  0.28873338912E+03  0.00000000000E+00 0.  1.
          5    1    4    4  501    0 -0.11608398120E+03  0.11110791110E+02  0.23523701516E+03  0.26258877751E+03  0.41800000000E+01 0.  1.
         -5    1    4    4    0  501 -0.19366690647E+02  0.61134044834E+02  0.37334927823E+02  0.74322334327E+02  0.41800000000E+01 0.  1.
</event>
<event>
11    1  0.5813833E-009  0.2469809E+03  0.7561462E-02  0.1025520E+00
         22   -1    0    0    0    0  0.00000000000E+00  0.00000000000E+00  0.10688186710E+04  0.10688186710E+04  0.00000000000E+00 0.  1.
         22   -1    0    0    0    0 -0.00000000000E+00 -0.00000000000E+00 -0.31562327095E+03  0.31562327095E+03  0.00000000000E+00 0.  1.
        -24    2    1    2    0    0  0.11734784268E+03  0.22707577446E+03 -0.15501285190E+03  0.30918794782E+03  0.78957452430E+02 0.  0.
         25    2    1    2    0    0  0.25009028910E+02 -0.15783127285E+03  0.64264708428E+02  0.21287003309E+03  0.12509011160E+03 0.  0.
         24    2    1    2    0    0 -0.14235687159E+03 -0.69244501606E+02  0.84394354350E+03  0.86238396103E+03  0.80031941922E+02 0.  0.
        -11    1    5    5    0    0 -0.69055625516E+02  0.84695402180E+01  0.28953074632E+03  0.29777250644E+03  0.00000000000E+00 0.  1.
         12    1    5    5    0    0 -0.73301246073E+02 -0.77714041824E+02  0.55441279719E+03  0.56461145459E+03  0.00000000000E+00 0. -1.
         13    1    3    3    0    0 -0.72662613435E+01  0.96678060084E+01 -0.22920404608E+02  0.25915438918E+02  0.00000000000E+00 0. -1.
        -14    1    3    3    0    0  0.12461410402E+03  0.21740796845E+03 -0.13209244729E+03  0.28327250890E+03  0.00000000000E+00 0.  1.
          5    1    4    4  501    0  0.46491371492E+02 -0.12771849922E+03 -0.29745761053E+01  0.13601390800E+03  0.41800000000E+01 0.  1.
         -5    1    4    4    0  501 -0.21482342582E+02 -0.30112773626E+02  0.67239284534E+02  0.76856125084E+02  0.41800000000E+01 0.  1.
</event>
<event>
11    1  0.5813833E-009  0.1481470E+03  0.7561462E-02  0.1098787E+00
         22   -1    0    0    0    0  0.00000000000E+00  0.00000000000E+00  0.60159583330E+03  0.60159583330E+03  0.00000000000E+00 0.  1.
         22   -1    0    0    0    0 -0.00000000000E+00 -0.00000000000E+00 -0.48268039914E+03  0.48268039914E+03  0.00000000000E+00 0. -1.
        -24    2    1    2    0    0  0.18108946917E+02  0.35567741259E+02 -0.44402658395E+03  0.45254812731E+03  0.77763758272E+02 0.  0.
         25    2    1    2    0    0  0.36767189475E+02  0.34711968105E+02  0.15082298698E+03  0.20236716215E+03  0.12509255759E+03 0.  0.
         24    2    1    2    0    0 -0.54876136392E+02 -0.70279709364E+02  0.41211903112E+03  0.42936094297E+03  0.80982069894E+02 0.  0.
        -11    1    5    5    0    0 -0.43105925014E+02 -0.12098788996E+02  0.29159537779E+03  0.29501248417E+03  0.00000000000E+00 0.  1.
         12    1    5    5    0    0 -0.11770211378E+02 -0.58180920368E+02  0.12052365333E+03  0.13434845880E+03  0.00000000000E+00 0. -1.
         11    1    3    3    0    0  0.27598546457E+02  0.49379258128E+02 -0.41648557138E+03  0.42030967402E+03  0.00000000000E+00 0. -1.
        -12    1    3    3    0    0 -0.94895995398E+01 -0.13811516868E+02 -0.27541012562E+02  0.32238453290E+02  0.00000000000E+00 0.  1.
          5    1    4    4  501    0 -0.31062656945E+02  0.10768543463E+01 -0.23540777362E+01  0.31449361738E+02  0.41800000000E+01 0. -1.
         -5    1    4    4    0  501  0.67829846420E+02  0.33635113758E+02  0.15317706472E+03  0.17091780042E+03  0.41800000000E+01 0. -1.
</event>
<event>
11    1  0.5813833E-009  0.1560948E+03  0.7561462E-02  0.1090809E+00
         22   -1    0    0    0    0  0.00000000000E+00  0.00000000000E+00  0.18138726000E+04  0.18138726000E+04  0.00000000000E+00 0.  1.
         22   -1    0    0    0    0 -0.00000000000E+00 -0.00000000000E+00 -0.57495511840E+02  0.57495511840E+02  0.00000000000E+00 0.  1.
        -24    2    1    2    0    0  0.80505856493E+02  0.47219864621E+02  0.27923649325E+02  0.12631492386E+03  0.80404112173E+02 0.  0.
         25    2    1    2    0    0 -0.82404843024E+02 -0.45132083353E+02  0.10351243179E+04  0.10468796341E+04  0.12508857523E+03 0.  0.
         24    2    1    2    0    0  0.18989865312E+01 -0.20877812681E+01  0.69332912089E+03  0.69817355384E+03  0.82055325459E+02 0.  0.
        -11    1    5    5    0    0  0.62072950963E+01  0.17111277690E+02  0.65345858609E+03  0.65371205440E+03  0.00000000000E+00 0.  1.
         12    1    5    5    0    0 -0.43083085651E+01 -0.19199058958E+02  0.39870534800E+02  0.44461499444E+02  0.00000000000E+00 0. -1.
         13    1    3    3    0    0 -0.13658685441E+02 -0.39053051493E+01 -0.35441341285E+01  0.14641447436E+02  0.00000000000E+00 0. -1.
        -14    1    3    3    0    0  0.94164541935E+02  0.51125169771E+02  0.31467783453E+02  0.11167347643E+03  0.00000000000E+00 0.  1.
          5    1    4    4  501    0 -0.61919202371E+02  0.13586374261E+02  0.83164274878E+03  0.83406577150E+03  0.41800000000E+01 0.  1.
         -5    1    4    4    0  501 -0.20485640654E+02 -0.58718457614E+02  0.20348156914E+03  0.21281386260E+03  0.41800000000E+01 0.  1.
</event>
<event>
11    1  0.5813833E-009  0.1430739E+03  0.7561462E-02  0.1104174E+00
         22   -1    0    0    0    0  0.00000000000E+00  0.00000000000E+00  0.11140176807E+04  0.11140176807E+04  0.00000000000E+00 0. -1.
         22   -1    0    0    0    0 -0.00000000000E+00 -0.00000000000E+00 -0.54074770988E+03  0.54074770988E+03  0.00000000000E+00 0.  1.
         24    2    1    2    0    0 -0.39872528987E+02 -0.14995290109E+02 -0.51575188540E+03  0.52428534923E+03  0.84026441276E+02 0.  0.
         25    2    1    2    0    0  0.16364886426E+02  0.79837526141E+02  0.30733542002E+03  0.34167887660E+03  0.12509018437E+03 0.  0.
        -24    2    1    2    0    0  0.23507642562E+02 -0.64842236032E+02  0.78168643624E+03  0.78880116480E+03  0.80102859901E+02 0.  0.
        -11    1    3    3    0    0 -0.53112819605E+02 -0.20934620467E+02 -0.49842741168E+03  0.50168627115E+03  0.00000000000E+00 0.  1.
         12    1    3    3    0    0  0.13240290617E+02  0.59393303585E+01 -0.17324473715E+02  0.22599078084E+02  0.00000000000E+00 0. -1.
         11    1    5    5    0    0  0.24596552060E+02 -0.51701008313E+02  0.76671896722E+03  0.76885366575E+03  0.00000000000E+00 0. -1.
        -12    1    5    5    0    0 -0.10889094983E+01 -0.13141227720E+02  0.14967469015E+02  0.19947499056E+02  0.00000000000E+00 0.  1.
          5    1    4    4  501    0  0.34662492977E+02  0.12099378201E+02  0.24487378863E+03  0.24764597337E+03  0.41800000000E+01 0. -1.
         -5    1    4    4    0  501 -0.18297606552E+02  0.67738147940E+02  0.62461631395E+02  0.94032903222E+02  0.41800000000E+01 0. -1.
</event>
<event>
11    1  0.5813833E-009  0.1647026E+03  0.7561462E-02  0.1082736E+00
         22   -1    0    0    0    0  0.00000000000E+00  0.00000000000E+00  0.22202869008E+03  0.22202869008E+03  0.00000000000E+00 0.  1.
         22   -1    0    0    0    0 -0.00000000000E+00 -0.00000000000E+00 -0.10580914079E+04  0.10580914079E+04  0.00000000000E+00 0. -1.
        -24    2    1    2    0    0  0.23731909244E+01  0.41886040491E+02 -0.82533528575E+03  0.83031269795E+03  0.80503230102E+02 0.  0.
         25    2    1    2    0    0 -0.10924473544E+03 -0.35348532234E+02 -0.17055914185E+03  0.24066819927E+03  0.12508729080E+03 0.  0.
         24    2    1    2    0    0  0.10687154452E+03 -0.65375082570E+01  0.15983170976E+03  0.20913920077E+03  0.82029042512E+02 0.  0.
        -13    1    5    5    0    0  0.93037254552E+02  0.23310615873E+02  0.88147022579E+02  0.13026593237E+03  0.00000000000E+00 0.  1.
         14    1    5    5    0    0  0.13834289963E+02 -0.29848124130E+02  0.71684687179E+02  0.78873268404E+02  0.00000000000E+00 0. -1.
         11    1    3    3    0    0 -0.14788771976E+01  0.50298708310E+01 -0.68931451225E+03  0.68933444965E+03  0.00000000000E+00 0. -1.
        -12    1    3    3    0    0  0.38520681220E+01  0.36856169660E+02 -0.13602077349E+03  0.14097824830E+03  0.00000000000E+00 0.  1.
          5    1    4    4  501    0 -0.44954248078E+02 -0.24719135516E+02  0.65670300564E+01  0.51889482216E+02  0.41800000000E+01 0. -1.
         -5    1    4    4    0  501 -0.64290487362E+02 -0.10629396718E+02 -0.17712617191E+03  0.18877871706E+03  0.41800000000E+01 0. -1.
</event>
<event>
11    1  0.5813833E-009  0.1473957E+03  0.7561462E-02  0.1099570E+00
         22   -1    0    0    0    0  0.00000000000E+00  0.00000000000E+00  0.99492756602E+03  0.99492756602E+03  0.00000000000E+00 0.  1.
         22   -1    0    0    0    0 -0.00000000000E+00 -0.00000000000E+00 -0.17536469366E+03  0.17536469366E+03  0.00000000000E+00 0. -1.
         24    2    1    2    0    0  0.47216000599E+01 -0.78180327018E+02 -0.14200253796E+03  0.18110428117E+03  0.80619990253E+02 0.  0.
         25    2    1    2    0    0  0.23400347285E+02  0.67928729258E+02  0.63849950249E+03  0.65459041545E+03  0.12508040938E+03 0.  0.
        -24    2    1    2    0    0 -0.28121947345E+02  0.10251597761E+02  0.32306590784E+03  0.33459756306E+03  0.81780249555E+02 0.  0.
        -11    1    3    3    0    0  0.37671255439E+01  0.12955910285E+02 -0.14258173650E+01  0.13567601164E+02  0.00000000000E+00 0.  1.
         12    1    3    3    0    0  0.95447451601E+00 -0.91136237304E+02 -0.14057672060E+03  0.16753668000E+03  0.00000000000E+00 0. -1.
         11    1    5    5    0    0 -0.15483524530E+02  0.38140117835E+02  0.83626176159E+02  0.93208076149E+02  0.00000000000E+00 0. -1.
        -12    1    5    5    0    0 -0.12638422815E+02 -0.27888520075E+02  0.23943973168E+03  0.24138948691E+03  0.00000000000E+00 0.  1.
          5    1    4    4  501    0  0.24614510413E+02 -0.32302609253E+02  0.25181048569E+03  0.25509865893E+03  0.41800000000E+01 0. -1.
         -5    1    4    4    0  501 -0.12141631286E+01  0.10023133851E+03  0.38668901680E+03  0.39949175652E+03  0.41800000000E+01 0. -1.
</event>
<event>
11    1  0.5813833E-009  0.1582394E+03  0.7561462E-02  0.1088745E+00
         22   -1    0    0    0    0  0.00000000000E+00  0.00000000000E+00  0.11825213001E+04  0.11825213001E+04  0.00000000000E+00 0. -1.
         22   -1    0    0    0    0 -0.00000000000E+00 -0.00000000000E+00 -0.36407526834E+02  0.36407526834E+02  0.00000000000E+00 0.  1.
        -24    2    1    2    0    0 -0.70203400705E+02  0.65222802660E+01  0.17121940388E+03  0.20098960782E+03  0.78164445746E+02 0.  0.
         25    2    1    2    0    0  0.10875507292E+03  0.39753594014E+02  0.80367771752E+03  0.82155561093E+03  0.12509090331E+03 0.  0.
         24    2    1    2    0    0 -0.38551672219E+02 -0.46275874280E+02  0.17121665184E+03  0.19638360814E+03  0.74991277564E+02 0.  0.
        -11    1    5    5    0    0 -0.56944320624E+02 -0.26235668760E+02  0.82687771423E+02  0.10377009930E+03  0.00000000000E+00 0.  1.
         12    1    5    5    0    0  0.18392648405E+02 -0.20040205521E+02  0.88528880413E+02  0.92613508841E+02  0.00000000000E+00 0. -1.
         13    1    3    3    0    0 -0.46179956832E+02 -0.30422980216E+02  0.12720290758E+03  0.13870373403E+03  0.00000000000E+00 0. -1.
        -14    1    3    3    0    0 -0.24023443873E+02  0.36945260482E+02  0.44016496302E+02  0.62285873794E+02  0.00000000000E+00 0.  1.
          5    1    4    4  501    0  0.61766322182E+01  0.13062529061E+02  0.49372091995E+03  0.49394999711E+03  0.41800000000E+01 0. -1.
         -5    1    4    4    0  501  0.10257844071E+03  0.26691064953E+02  0.30995679756E+03  0.32760561381E+03  0.41800000000E+01 0. -1.
</event>
<event>
11    1  0.5813833E-009  0.1293024E+03  0.7561462E-02  0.1120129E+00
         22   -1    0    0    0    0  0.00000000000E+00  0.00000000000E+00  0.15104711389E+03  0.15104711389E+03  0.00000000000E+00 0.  1.
         22   -1    0    0    0    0 -0.00000000000E+00 -0.00000000000E+00 -0.19066277968E+04  0.19066277968E+04  0.00000000000E+00 0.  1.
         24    2    1    2    0    0 -0.80980893078E+01  0.62478287921E+01 -0.15801756526E+04  0.15818529696E+04  0.72104853330E+02 0.  0.
         25    2    1    2    0    0 -0.12025362319E+02  0.20050512422E+02 -0.29892417627E+03  0.32488799670E+03  0.12509961973E+03 0.  0.
        -24    2    1    2    0    0  0.20123451627E+02 -0.26298341214E+02  0.12351914589E+03  0.15093394449E+03  0.80171816381E+02 0.  0.
        -11    1    3    3    0    0 -0.18416367794E+02 -0.27992110356E+02 -0.52272618827E+03  0.52379899652E+03  0.00000000000E+00 0.  1.
         12    1    3    3    0    0  0.10318278487E+02  0.34239939148E+02 -0.10574494643E+04  0.10580539730E+04  0.00000000000E+00 0. -1.
         13    1    5    5    0    0 -0.25118270373E+01  0.25974446275E+02  0.20383132904E+02  0.33112735335E+02  0.00000000000E+00 0. -1.
        -14    1    5    5    0    0  0.22635278664E+02 -0.52272787489E+02  0.10313601298E+03  0.11782120915E+03  0.00000000000E+00 0.  1.
          5    1    4    4  501    0  0.35921373530E+02  0.56287819870E+02 -0.16421009634E+03  0.17731636101E+03  0.41800000000E+01 0.  1.
         -5    1    4    4    0  501 -0.47946735849E+02 -0.36237307448E+02 -0.13471407992E+03  0.14757163569E+03  0.41800000000E+01 0.  1.
</event>
<event>
11    1  0.6531935E-009  0.3739711E+03  0.7561462E-02  0.9729841E-01
         22   -1    0    0    0    0  0.00000000000E+00  0.00000000000E+00  0.20895110920E+04  0.20895110920E+04  0.00000000000E+00 0. -1.
         22   -1    0    0    0    0 -0.00000000000E+00 -0.00000000000E+00 -0.87767799703E+03  0.87767799703E+03  0.00000000000E+00 0.  1.
         24    2    1    2    0    0 -0.34344904027E+02  0.82664834198E+02 -0.43964023543E+03  0.45586653337E+03  0.80732350373E+02 0.  0.
         25    2    1    2    0    0 -0.74690822886E+02  0.25604728058E+03 -0.36107027674E+03  0.46600299481E+03  0.12509243588E+03 0.  0.
        -24    2    1    2    0    0  0.10903572691E+03 -0.33871211478E+03  0.20125436071E+04  0.20453195609E+04  0.79910255492E+02 0.  0.
        -13    1    3    3    0    0 -0.48158731066E+01  0.75086683907E+02 -0.18974359722E+03  0.20411721000E+03  0.00000000000E+00 0.  1.
         14    1    3    3    0    0 -0.29529030920E+02  0.75781502913E+01 -0.24989663821E+03  0.25174932337E+03  0.00000000000E+00 0. -1.
         13    1    5    5    0    0  0.99359184019E+02 -0.32496834109E+03  0.19771162036E+04  0.20061069644E+04  0.00000000000E+00 0. -1.
        -14    1    5    5    0    0  0.96765428943E+01 -0.13743773694E+02  0.35427403568E+02  0.39212596462E+02  0.00000000000E+00 0.  1.
          5    1    4    4  501    0  0.10792358958E+01 -0.84616669030E+01 -0.49103996364E+02  0.50014392087E+02  0.41800000000E+01 0.  1.
         -5    1    4    4    0  501 -0.75770058782E+02  0.26450894749E+03 -0.31196628037E+03  0.41598860272E+03  0.41800000000E+01 0.  1.
</event>
<event>
11    1  0.5813833E-009  0.2046240E+03  0.7561462E-02  0.1051301E+00
         22   -1    0    0    0    0  0.00000000000E+00  0.00000000000E+00  0.56044551920E+03  0.56044551920E+03  0.00000000000E+00 0.  1.
         22   -1    0    0    0    0 -0.00000000000E+00 -0.00000000000E+00 -0.75758968208E+03  0.75758968208E+03  0.00000000000E+00 0.  1.
        -24    2    1    2    0    0 -0.17729805831E+02 -0.17558733923E+02 -0.52460097368E+03  0.53063433318E+03  0.75788909597E+02 0.  0.
         25    2    1    2    0    0 -0.28044053347E+02  0.17199386613E+03 -0.15939792681E+03  0.26725121996E+03  0.12508859493E+03 0.  0.
         24    2    1    2    0    0  0.45773859178E+02 -0.15443513221E+03  0.48685473762E+03  0.52014964814E+03  0.87078497224E+02 0.  0.
        -11    1    5    5    0    0  0.35690413615E+02 -0.12746012940E+03  0.46642129255E+03  0.48483885195E+03  0.00000000000E+00 0.  1.
         12    1    5    5    0    0  0.10083445563E+02 -0.26975002805E+02  0.20433445064E+02  0.35310796195E+02  0.00000000000E+00 0. -1.
         11    1    3    3    0    0 -0.22580432502E+00  0.21507418140E+02 -0.54536901233E+02  0.58625025533E+02  0.00000000000E+00 0. -1.
        -12    1    3    3    0    0 -0.17504001506E+02 -0.39066152063E+02 -0.47006407244E+03  0.47200930765E+03  0.00000000000E+00 0.  1.
          5    1    4    4  501    0  0.14113289122E+02 -0.14864361053E+02 -0.27881171584E+02  0.34856366538E+02  0.41800000000E+01 0.  1.
         -5    1    4    4    0  501 -0.42157342468E+02  0.18685822718E+03 -0.13151675523E+03  0.23239485342E+03  0.41800000000E+01 0.  1.
</event>
<event>
11    1  0.5813833E-009  0.1730153E+03  0.7561462E-02  0.1075437E+00
         22   -1    0    0    0    0  0.00000000000E+00  0.00000000000E+00  0.66661442653E+03  0.66661442653E+03  0.00000000000E+00 0. -1.
         22   -1    0    0    0    0 -0.00000000000E+00 -0.00000000000E+00 -0.30811892233E+03  0.30811892233E+03  0.00000000000E+00 0.  1.
         24    2    1    2    0    0 -0.31148697023E+02 -0.89932049201E+02 -0.17478690363E+03  0.21424124230E+03  0.79314774298E+02 0.  0.
         25    2    1    2    0    0  0.13130575990E+03  0.14362763073E+03  0.24102551084E+02  0.23259285701E+03  0.12509358605E+03 0.  0.
        -24    2    1    2    0    0 -0.10015706287E+03 -0.53695581533E+02  0.50917985675E+03  0.52789924955E+03  0.80615373435E+02 0.  0.
        -11    1    3    3    0    0 -0.45501033153E+02 -0.89575005744E+02 -0.11477673441E+03  0.15253761645E+03  0.00000000000E+00 0.  1.
         12    1    3    3    0    0  0.14352336130E+02 -0.35704345696E+00 -0.60010169225E+02  0.61703625848E+02  0.00000000000E+00 0. -1.
         11    1    5    5    0    0 -0.35990539928E+02 -0.51716645836E+02  0.36030758674E+03  0.36577518708E+03  0.00000000000E+00 0. -1.
        -12    1    5    5    0    0 -0.64166522945E+02 -0.19789356973E+01  0.14887227001E+03  0.16212406247E+03  0.00000000000E+00 0.  1.
          5    1    4    4  501    0 -0.23891061886E+02  0.29553132960E+02 -0.13923844497E+01  0.38256785546E+02  0.41800000000E+01 0. -1.
         -5    1    4    4    0  501  0.15519682178E+03  0.11407449777E+03  0.25494935534E+02  0.19433607146E+03  0.41800000000E+01 0. -1.
</event>
<event>
11    1  0.5813833E-009  0.1268415E+03  0.7561462E-02  0.1123212E+00
         22   -1    0    0    0    0  0.00000000000E+00  0.00000000000E+00  0.78444891716E+02  0.78444891716E+02  0.00000000000E+00 0. -1.
         22   -1    0    0    0    0 -0.00000000000E+00 -0.00000000000E+00 -0.21390390694E+04  0.21390390694E+04  0.00000000000E+00 0.  1.
         24    2    1    2    0    0  0.15240929950E+02  0.18759705708E+01 -0.17443320759E+04  0.17462949092E+04  0.81337038749E+02 0.  0.
         25    2    1    2    0    0  0.19542213777E+01 -0.15243277331E+02 -0.35569686132E+03  0.37736249541E+03  0.12508404895E+03 0.  0.
        -24    2    1    2    0    0 -0.17195151327E+02  0.13367306760E+02  0.39434759529E+02  0.93826556458E+02  0.82304096608E+02 0.  0.
        -11    1    3    3    0    0 -0.16637699572E+02 -0.22754888439E+01 -0.14684629082E+04  0.14685589208E+04  0.00000000000E+00 0.  1.
         12    1    3    3    0    0  0.31878629522E+02  0.41514594147E+01 -0.27586916766E+03  0.27773598848E+03  0.00000000000E+00 0. -1.
         13    1    5    5    0    0  0.15753604880E+02 -0.19532467738E+01  0.52781087354E+02  0.55116553066E+02  0.00000000000E+00 0. -1.
        -14    1    5    5    0    0 -0.32948756207E+02  0.15320553534E+02 -0.13346327824E+02  0.38710003392E+02  0.00000000000E+00 0.  1.
          5    1    4    4  501    0  0.55380386165E+02 -0.46968003361E+01 -0.88111909101E+02  0.10426038572E+03  0.41800000000E+01 0. -1.
         -5    1    4    4    0  501 -0.53426164787E+02 -0.10546476995E+02 -0.26758495222E+03  0.27310210969E+03  0.41800000000E+01 0. -1.
</event>
<event>
11    1  0.5813833E-009  0.1918863E+03  0.7561462E-02  0.1060414E+00
         22   -1    0    0    0    0  0.00000000000E+00  0.00000000000E+00  0.29887320252E+03  0.29887320252E+03  0.00000000000E+00 0.  1.
         22   -1    0    0    0    0 -0.00000000000E+00 -0.00000000000E+00 -0.65277671898E+03  0.65277671898E+03  0.00000000000E+00 0.  1.
        -24    2    1    2    0    0 -0.24251393268E+01 -0.55146511628E+01 -0.17462398552E+03  0.19279111585E+03  0.81477514420E+02 0.  0.
         25    2    1    2    0    0 -0.74579971302E+02 -0.11829632614E+03 -0.42349647594E+03  0.46320849412E+03  0.12512653993E+03 0.  0.
         24    2    1    2    0    0  0.77005110629E+02  0.12381097730E+03  0.24421694499E+03  0.29565031153E+03  0.80673696601E+02 0.  0.
        -11    1    5    5    0    0  0.63130856845E+02  0.13481667333E+03  0.21574309157E+03  0.26211852673E+03  0.00000000000E+00 0.  1.
         12    1    5    5    0    0  0.13874253783E+02 -0.11005696032E+02  0.28473853421E+02  0.33531784800E+02  0.00000000000E+00 0. -1.
         13    1    3    3    0    0 -0.41874644531E+02 -0.19912809551E+01 -0.96020060941E+02  0.10477262599E+03  0.00000000000E+00 0. -1.
        -14    1    3    3    0    0  0.39449505204E+02 -0.35233702077E+01 -0.78603924574E+02  0.88018489858E+02  0.00000000000E+00 0.  1.
          5    1    4    4  501    0 -0.48614005664E+02 -0.89810619802E+02 -0.40938289513E+03  0.42194916305E+03  0.41800000000E+01 0.  1.
         -5    1    4    4    0  501 -0.25965965638E+02 -0.28485706336E+02 -0.14113580812E+02  0.41259331069E+02  0.41800000000E+01 0.  1.
</event>
<event>
11    1  0.5813833E-009  0.1316888E+03  0.7561462E-02  0.1117211E+00
         22   -1    0    0    0    0  0.00000000000E+00  0.00000000000E+00  0.14577534288E+04  0.14577534288E+04  0.00000000000E+00 0. -1.
         22   -1    0    0    0    0 -0.00000000000E+00 -0.00000000000E+00 -0.63576531107E+03  0.63576531107E+03  0.00000000000E+00 0.  1.
        -24    2    1    2    0    0  0.40804974791E+02 -0.36923799703E+01 -0.61484297111E+03  0.62108898258E+03  0.77723648363E+02 0.  0.
         25    2    1    2    0    0 -0.54163651032E+02 -0.16529989222E+02  0.27265519000E+03  0.30528826485E+03  0.12511247093E+03 0.  0.
         24    2    1    2    0    0  0.13358676241E+02  0.20222369192E+02  0.11641758988E+04  0.11671414924E+04  0.79538302272E+02 0.  0.
        -13    1    5    5    0    0  0.38485107532E+02  0.37349588902E+01  0.30513482590E+03  0.30757489397E+03  0.00000000000E+00 0.  1.
         14    1    5    5    0    0 -0.25126431291E+02  0.16487410302E+02  0.85904107291E+03  0.85956659847E+03  0.00000000000E+00 0. -1.
         11    1    3    3    0    0 -0.12844974645E+02  0.16673035713E+02 -0.32134898802E+03  0.32203750650E+03  0.00000000000E+00 0. -1.
        -12    1    3    3    0    0  0.53649949435E+02 -0.20365415683E+02 -0.29349398309E+03  0.29905147607E+03  0.00000000000E+00 0.  1.
          5    1    4    4  501    0  0.25747484585E+01 -0.16740085659E+01 -0.12815213007E+02  0.13825111888E+02  0.41800000000E+01 0.  1.
         -5    1    4    4    0  501 -0.56738399491E+02 -0.14855980656E+02  0.28547040301E+03  0.29146315296E+03  0.41800000000E+01 0.  1.
</event>
<event>
11    1  0.5813833E-009  0.1270376E+03  0.7561462E-02  0.1122963E+00
         22   -1    0    0    0    0  0.00000000000E+00  0.00000000000E+00  0.21674435100E+04  0.21674435100E+04  0.00000000000E+00 0. -1.
         22   -1    0    0    0    0 -0.00000000000E+00 -0.00000000000E+00 -0.43313484219E+02  0.43313484219E+02  0.00000000000E+00 0. -1.
        -24    2    1    2    0    0  0.31734060256E+02  0.98439917533E+01  0.17136560790E+03  0.19229275996E+03  0.80662129946E+02 0.  0.
         25    2    1    2    0    0 -0.51782817349E+02 -0.14573640410E+02  0.11663423397E+03  0.17929319820E+03  0.12509458509E+03 0.  0.
         24    2    1    2    0    0  0.20048757093E+02  0.47296486571E+01  0.18361301840E+04  0.18391710361E+04  0.10369052708E+03 0.  0.
        -11    1    5    5    0    0  0.21497494430E+02 -0.14102178136E+02  0.11104583292E+03  0.11398329133E+03  0.00000000000E+00 0.  1.
         12    1    5    5    0    0 -0.14487373366E+01  0.18831826793E+02  0.17250843510E+04  0.17251877448E+04  0.00000000000E+00 0. -1.
         11    1    3    3    0    0 -0.36036508607E+01  0.14844206926E+02 -0.18968511579E+01  0.15392687325E+02  0.00000000000E+00 0. -1.
        -12    1    3    3    0    0  0.35337711117E+02 -0.50002151725E+01  0.17326245906E+03  0.17690007263E+03  0.00000000000E+00 0.  1.
          5    1    4    4  501    0 -0.34296146867E+02 -0.69430147873E+02  0.56618740635E+02  0.96020442171E+02  0.41800000000E+01 0. -1.
         -5    1    4    4    0  501 -0.17486670481E+02  0.54856507462E+02  0.60015493338E+02  0.83272756026E+02  0.41800000000E+01 0. -1.
</event>
<event>
11    1  0.5813833E-009  0.1350600E+03  0.7561462E-02  0.1113204E+00
         22   -1    0    0    0    0  0.00000000000E+00  0.00000000000E+00  0.66898715461E+03  0.66898715461E+03  0.00000000000E+00 0. -1.
         22   -1    0    0    0    0 -0.00000000000E+00 -0.00000000000E+00 -0.30240253212E+03  0.30240253212E+03  0.00000000000E+00 0. -1.
         24    2    1    2    0    0  0.10467925777E+02  0.15734359186E+02 -0.24252947091E+03  0.25590436782E+03  0.79431440100E+02 0.  0.
         25    2    1    2    0    0 -0.35258331801E+02 -0.58401880470E+02  0.55482448670E+02  0.15290241658E+03  0.12508763840E+03 0.  0.
        -24    2    1    2    0    0  0.24790406024E+02  0.42667521284E+02  0.55363164473E+03  0.56258290233E+03  0.86927799619E+02 0.  0.
        -11    1    3    3    0    0  0.10022924756E+02  0.10593583873E+02 -0.13239159068E+01  0.14643626370E+02  0.00000000000E+00 0.  1.
         12    1    3    3    0    0  0.44500102132E+00  0.51407753133E+01 -0.24120555501E+03  0.24126074145E+03  0.00000000000E+00 0. -1.
         11    1    5    5    0    0  0.20934408152E+02  0.33588594818E+02  0.55093811132E+03  0.55235789634E+03  0.00000000000E+00 0. -1.
        -12    1    5    5    0    0  0.38559978718E+01  0.90789264657E+01  0.26935334161E+01  0.10225005996E+02  0.00000000000E+00 0.  1.
          5    1    4    4  501    0 -0.40022192968E+02 -0.88560554805E+02  0.68989366579E+02  0.11925499108E+03  0.41800000000E+01 0. -1.
         -5    1    4    4    0  501  0.47638611678E+01  0.30158674335E+02 -0.13506917909E+02  0.33647425493E+02  0.41800000000E+01 0. -1.
</event>
<event>
11    1  0.5813833E-009  0.1579717E+03  0.7561462E-02  0.1089001E+00
         22   -1    0    0    0    0  0.00000000000E+00  0.00000000000E+00  0.13717443896E+04  0.13717443896E+04  0.00000000000E+00 0.  1.
         22   -1    0    0    0    0 -0.00000000000E+00 -0.00000000000E+00 -0.18817399772E+04  0.18817399772E+04  0.00000000000E+00 0. -1.
        -24    2    1    2    0    0  0.53513792113E+02 -0.32943057827E+02 -0.18510828243E+04  0.18538713308E+04  0.79889407528E+02 0.  0.
         25    2    1    2    0    0 -0.25244716302E+02  0.12289037340E+03  0.28037993352E+03  0.33165937859E+03  0.12508275944E+03 0.  0.
         24    2    1    2    0    0 -0.28269075812E+02 -0.89947315573E+02  0.10607073033E+04  0.10679536575E+04  0.80841641695E+02 0.  0.
        -13    1    5    5    0    0 -0.49928171487E+02 -0.68771610257E+02  0.56870210774E+03  0.57501690761E+03  0.00000000000E+00 0.  1.
         14    1    5    5    0    0  0.21659095675E+02 -0.21175705316E+02  0.49200519555E+03  0.49293674986E+03  0.00000000000E+00 0. -1.
         11    1    3    3    0    0  0.73705530586E+02 -0.20205145549E+02 -0.15263467871E+04  0.15282589007E+04  0.00000000000E+00 0. -1.
        -12    1    3    3    0    0 -0.20191738472E+02 -0.12737912277E+02 -0.32473603727E+03  0.32561243007E+03  0.00000000000E+00 0.  1.
          5    1    4    4  501    0  0.16932048057E+02  0.12941510680E+03  0.23740177638E+03  0.27094656290E+03  0.41800000000E+01 0.  1.
         -5    1    4    4    0  501 -0.42176764358E+02 -0.65247333959E+01  0.42978157141E+02  0.60712815689E+02  0.41800000000E+01 0.  1.
</event>
<event>
11    1  0.5813833E-009  0.1754268E+03  0.7561462E-02  0.1073403E+00
         22   -1    0    0    0    0  0.00000000000E+00  0.00000000000E+00  0.23204000182E+03  0.23204000182E+03  0.00000000000E+00 0.  1.
         22   -1    0    0    0    0 -0.00000000000E+00 -0.00000000000E+00 -0.14941308565E+04  0.14941308565E+04  0.00000000000E+00 0.  1.
         24    2    1    2    0    0  0.37599230791E+02 -0.12106491128E+03 -0.11617511357E+04  0.11728307232E+04  0.98973678479E+02 0.  0.
         25    2    1    2    0    0 -0.33808190924E+02  0.10295318115E+03 -0.29715373277E+03  0.34013188220E+03  0.12508798947E+03 0.  0.
        -24    2    1    2    0    0 -0.37910398669E+01  0.18111730127E+02  0.19681401380E+03  0.21320825292E+03  0.79872375280E+02 0.  0.
        -13    1    3    3    0    0  0.29920923663E+02 -0.62937586254E+02 -0.96541175247E+03  0.96792368152E+03  0.00000000000E+00 0.  1.
         14    1    3    3    0    0  0.76783071284E+01 -0.58127325022E+02 -0.19633938322E+03  0.20490704165E+03  0.00000000000E+00 0. -1.
         11    1    5    5    0    0  0.32144898402E+02  0.27530431939E+02  0.13057632426E+03  0.13726396335E+03  0.00000000000E+00 0. -1.
        -12    1    5    5    0    0 -0.35935938269E+02 -0.94187018123E+01  0.66237689540E+02  0.75944289573E+02  0.00000000000E+00 0.  1.
          5    1    4    4  501    0 -0.18915830156E+02 -0.12939784540E+02 -0.15185768225E+03  0.15363422377E+03  0.41800000000E+01 0.  1.
         -5    1    4    4    0  501 -0.14892360768E+02  0.11589296569E+03 -0.14529605052E+03  0.18649765843E+03  0.41800000000E+01 0.  1.
</event>
<event>
11    1  0.5813833E-009  0.1279750E+03  0.7561462E-02  0.1121782E+00
         22   -1    0    0    0    0  0.00000000000E+00  0.00000000000E+00  0.45462696566E+03  0.45462696566E+03  0.00000000000E+00 0. -1.
         22   -1    0    0    0    0 -0.00000000000E+00 -0.00000000000E+00 -0.23440163213E+03  0.23440163213E+03  0.00000000000E+00 0. -1.
        -24    2    1    2    0    0 -0.60304436361E+00 -0.53834097967E+01 -0.17859925170E+03  0.19651957825E+03  0.81810189870E+02 0.  0.
         25    2    1    2    0    0  0.27199498514E+02  0.23375992646E+00  0.56058066968E+02  0.13974347116E+03  0.12508342615E+03 0.  0.
         24    2    1    2    0    0 -0.26596454151E+02  0.51496498703E+01  0.34276651826E+03  0.35276554837E+03  0.78871768132E+02 0.  0.
        -11    1    5    5    0    0 -0.26570222234E+02 -0.34444837513E+02  0.16450263757E+03  0.17015740157E+03  0.00000000000E+00 0.  1.
         12    1    5    5    0    0 -0.26231916917E-01  0.39594487383E+02  0.17826388068E+03  0.18260814680E+03  0.00000000000E+00 0. -1.
         11    1    3    3    0    0 -0.30870501085E+02  0.12542848642E+02 -0.14159500787E+03  0.14546290641E+03  0.00000000000E+00 0. -1.
        -12    1    3    3    0    0  0.30267456722E+02 -0.17926258439E+02 -0.37004243832E+02  0.51056671842E+02  0.00000000000E+00 0.  1.
          5    1    4    4  501    0 -0.42528435949E+02 -0.76101032685E+01 -0.85847272158E+01  0.44246485481E+02  0.41800000000E+01 0. -1.
         -5    1    4    4    0  501  0.69727934463E+02  0.78438631950E+01  0.64642794184E+02  0.95496985682E+02  0.41800000000E+01 0. -1.
</event>
<event>
11    1  0.5931792E-009  0.1378322E+03  0.7561462E-02  0.1110004E+00
         22   -1    0    0    0    0  0.00000000000E+00  0.00000000000E+00  0.52333194982E+03  0.52333194982E+03  0.00000000000E+00 0. -1.
         22   -1    0    0    0    0 -0.00000000000E+00 -0.00000000000E+00 -0.11062083823E+04  0.11062083823E+04  0.00000000000E+00 0.  1.
        -24    2    1    2    0    0 -0.14871328157E+02 -0.59194895027E+02 -0.94815882385E+03  0.95352370769E+03  0.80480518685E+02 0.  0.
         25    2    1    2    0    0  0.44984696481E+02  0.11816798140E+02 -0.12058109907E+03  0.17984747343E+03  0.12506819185E+03 0.  0.
         24    2    1    2    0    0 -0.30113368324E+02  0.47378096887E+02  0.48586349041E+03  0.49616915103E+03  0.83480513288E+02 0.  0.
        -13    1    5    5    0    0 -0.45100147784E+00  0.26997493293E+02  0.36681892499E+02  0.45548098574E+02  0.00000000000E+00 0.  1.
         14    1    5    5    0    0 -0.29662366846E+02  0.20380603594E+02  0.44918159791E+03  0.45062105245E+03  0.00000000000E+00 0. -1.
         13    1    3    3    0    0 -0.25565480018E+02 -0.28991234933E+01 -0.94385139368E+02  0.97829204327E+02  0.00000000000E+00 0. -1.
        -14    1    3    3    0    0  0.10694151861E+02 -0.56295771534E+02 -0.85377368448E+03  0.85569450336E+03  0.00000000000E+00 0.  1.
          5    1    4    4  501    0  0.28064291587E+02 -0.89547596977E+01 -0.14213097315E+03  0.14521183875E+03  0.41800000000E+01 0. -1.
         -5    1    4    4    0  501  0.16920404894E+02  0.20771557838E+02  0.21549874086E+02  0.34635634683E+02  0.41800000000E+01 0. -1.
</event>
<event>
11    1  0.5813833E-009  0.1491374E+03  0.7561462E-02  0.1097763E+00
         22   -1    0    0    0    0  0.00000000000E+00  0.00000000000E+00  0.69505352234E+03  0.69505352234E+03  0.00000000000E+00 0.  1.
         22   -1    0    0    0    0 -0.00000000000E+00 -0.00000000000E+00 -0.28875462225E+03  0.28875462225E+03  0.00000000000E+00 0.  1.
        -24    2    1    2    0    0 -0.49363422826E+02 -0.55006826357E+02 -0.15892043819E+03  0.19539901048E+03  0.86386163028E+02 0.  0.
         25    2    1    2    0    0  0.95939451340E+02  0.55552714208E+02 -0.43711545220E+02  0.17276785257E+03  0.12509016475E+03 0.  0.
         24    2    1    2    0    0 -0.46576028514E+02 -0.54588785092E+00  0.60893088350E+03  0.61564128154E+03  0.77767231073E+02 0.  0.
        -13    1    5    5    0    0 -0.26095498314E+02 -0.37270623960E+02  0.39543269662E+03  0.39804157069E+03  0.00000000000E+00 0.  1.
         14    1    5    5    0    0 -0.20480530200E+02  0.36724736110E+02  0.21349818689E+03  0.21759971085E+03  0.00000000000E+00 0. -1.
         13    1    3    3    0    0 -0.18859099708E+02  0.12178319973E+02 -0.26762738026E+01  0.22608395799E+02  0.00000000000E+00 0. -1.
        -14    1    3    3    0    0 -0.30504323118E+02 -0.67185146330E+02 -0.15624416439E+03  0.17279061468E+03  0.00000000000E+00 0.  1.
          5    1    4    4  501    0 -0.11349803360E+02  0.57303180186E+02 -0.56519848926E+01  0.58837826515E+02  0.41800000000E+01 0.  1.
         -5    1    4    4    0  501  0.10728925470E+03 -0.17504659777E+01 -0.38059560328E+02  0.11393002606E+03  0.41800000000E+01 0.  1.
</event>
<event>
11    1  0.5813833E-009  0.1803158E+03  0.7561462E-02  0.1069388E+00
         22   -1    0    0    0    0  0.00000000000E+00  0.00000000000E+00  0.25479032913E+04  0.25479032913E+04  0.00000000000E+00 0. -1.
         22   -1    0    0    0    0 -0.00000000000E+00 -0.00000000000E+00 -0.19153112028E+03  0.19153112028E+03  0.00000000000E+00 0.  1.
         24    2    1    2    0    0  0.49593593833E+02  0.12610865626E+02 -0.15312141749E+03  0.18072590529E+03  0.81222693066E+02 0.  0.
         25    2    1    2    0    0 -0.89326424282E+02  0.11045457032E+03  0.39342605997E+03  0.43659017013E+03  0.12508992691E+03 0.  0.
        -24    2    1    2    0    0  0.39732830449E+02 -0.12306543595E+03  0.21160675285E+04  0.21221183361E+04  0.94449181974E+02 0.  0.
        -11    1    3    3    0    0  0.28355694829E+02  0.32047004844E+01 -0.15482786128E+03  0.15743564451E+03  0.00000000000E+00 0.  1.
         12    1    3    3    0    0  0.21237899004E+02  0.94061651416E+01  0.17064437914E+01  0.23290260780E+02  0.00000000000E+00 0. -1.
         13    1    5    5    0    0  0.45538830230E+02 -0.12726453132E+03  0.21019029864E+04  0.21062445751E+04  0.00000000000E+00 0. -1.
        -14    1    5    5    0    0 -0.58059997808E+01  0.41990953753E+01  0.14164542146E+02  0.15873761043E+02  0.00000000000E+00 0.  1.
          5    1    4    4  501    0 -0.29001473511E+02  0.12293298572E+03  0.28614876550E+03  0.31281335145E+03  0.41800000000E+01 0. -1.
         -5    1    4    4    0  501 -0.60324950771E+02 -0.12478415398E+02  0.10727729446E+03  0.12377681868E+03  0.41800000000E+01 0. -1.
</event>
<event>
11    1  0.5813833E-009  0.1294393E+03  0.7561462E-02  0.1119960E+00
         22   -1    0    0    0    0  0.00000000000E+00  0.00000000000E+00  0.84196027297E+03  0.84196027297E+03  0.00000000000E+00 0.  1.
         22   -1    0    0    0    0 -0.00000000000E+00 -0.00000000000E+00 -0.13424441243E+04  0.13424441243E+04  0.00000000000E+00 0. -1.
         24    2    1    2    0    0  0.40214246715E+02  0.62976447890E+01 -0.12139719607E+04  0.12168338908E+04  0.72800759232E+02 0.  0.
         25    2    1    2    0    0 -0.52434365879E+02 -0.36825469357E+02 -0.85140052877E+02  0.16432331508E+03  0.12509134804E+03 0.  0.
        -24    2    1    2    0    0  0.12220119164E+02  0.30527824568E+02  0.79862816222E+03  0.80324719138E+03  0.79484775825E+02 0.  0.
        -13    1    3    3    0    0  0.46022359618E+02 -0.11877599489E+02 -0.42812595089E+03  0.43075627074E+03  0.00000000000E+00 0.  1.
         14    1    3    3    0    0 -0.58081129031E+01  0.18175244278E+02 -0.78584600980E+03  0.78607762008E+03  0.00000000000E+00 0. -1.
         11    1    5    5    0    0  0.17651145284E+02 -0.19292264759E+02  0.12226567082E+03  0.12503059094E+03  0.00000000000E+00 0. -1.
        -12    1    5    5    0    0 -0.54310261198E+01  0.49820089327E+02  0.67636249140E+03  0.67821660044E+03  0.00000000000E+00 0.  1.
          5    1    4    4  501    0 -0.84871868632E+02 -0.42236748246E+02 -0.90040616437E+02  0.13081269814E+03  0.41800000000E+01 0.  1.
         -5    1    4    4    0  501  0.32437502752E+02  0.54112788887E+01  0.49005635593E+01  0.33510616933E+02  0.41800000000E+01 0.  1.
</event>
<event>
11    1  0.5813833E-009  0.2315978E+03  0.7561462E-02  0.1034186E+00
         22   -1    0    0    0    0  0.00000000000E+00  0.00000000000E+00  0.72623955207E+03  0.72623955207E+03  0.00000000000E+00 0.  1.
         22   -1    0    0    0    0 -0.00000000000E+00 -0.00000000000E+00 -0.44675652242E+03  0.44675652242E+03  0.00000000000E+00 0. -1.
         24    2    1    2    0    0 -0.19235156785E+03 -0.16690281541E+02 -0.37421444875E+03  0.42840634292E+03  0.78853343911E+02 0.  0.
         25    2    1    2    0    0  0.22415788629E+03  0.80150221169E+01  0.39154564221E+03  0.46825921507E+03  0.12509078301E+03 0.  0.
        -24    2    1    2    0    0 -0.31806318446E+02  0.86752594238E+01  0.26215183620E+03  0.27633051651E+03  0.80920127979E+02 0.  0.
        -13    1    3    3    0    0 -0.84449694683E+01  0.18570920206E+02 -0.26141011156E+02  0.33159448893E+02  0.00000000000E+00 0.  1.
         14    1    3    3    0    0 -0.18390659838E+03 -0.35261201747E+02 -0.34807343759E+03  0.39524689402E+03  0.00000000000E+00 0. -1.
         11    1    5    5    0    0  0.90610133952E+01  0.28912324970E-01 -0.16772848488E+01  0.92149923567E+01  0.00000000000E+00 0. -1.
        -12    1    5    5    0    0 -0.40867331841E+02  0.86463470988E+01  0.26382912105E+03  0.26711552415E+03  0.00000000000E+00 0.  1.
          5    1    4    4  501    0  0.20267649480E+03 -0.33895783905E+02  0.28206480913E+03  0.34900532182E+03  0.41800000000E+01 0.  1.
         -5    1    4    4    0  501  0.21481391490E+02  0.41910806022E+02  0.10948083308E+03  0.11925389324E+03  0.41800000000E+01 0.  1.
</event>
<event>
11    1  0.5813833E-009  0.1530737E+03  0.7561462E-02  0.1093779E+00
         22   -1    0    0    0    0  0.00000000000E+00  0.00000000000E+00  0.30580585221E+03  0.30580585221E+03  0.00000000000E+00 0. -1.
         22   -1    0    0    0    0 -0.00000000000E+00 -0.00000000000E+00 -0.13974447852E+04  0.13974447852E+04  0.00000000000E+00 0. -1.
        -24    2    1    2    0    0 -0.23614103072E+02 -0.85454406614E+02 -0.13468311515E+04  0.13539231197E+04  0.10627126541E+03 0.  0.
         25    2    1    2    0    0  0.47197290786E+02  0.58865791541E+02  0.11922660332E+03  0.18856255789E+03  0.12509232441E+03 0.  0.
         24    2    1    2    0    0 -0.23583187713E+02  0.26588615074E+02  0.13596561518E+03  0.16076495985E+03  0.78074340285E+02 0.  0.
        -11    1    5    5    0    0  0.26967721412E+02  0.12138983169E+02  0.28226686710E+02  0.40882254747E+02  0.00000000000E+00 0.  1.
         12    1    5    5    0    0 -0.50550909126E+02  0.14449631905E+02  0.10773892847E+03  0.11988270511E+03  0.00000000000E+00 0. -1.
         13    1    3    3    0    0  0.17400427024E+02 -0.13810425376E+02 -0.84923269371E+03  0.84952320203E+03  0.00000000000E+00 0. -1.
        -14    1    3    3    0    0 -0.41014530096E+02 -0.71643981238E+02 -0.49759845780E+03  0.50439991765E+03  0.00000000000E+00 0.  1.
          5    1    4    4  501    0  0.43934106724E+02 -0.44398216102E+00  0.12119771905E+03  0.12898357398E+03  0.41800000000E+01 0.  1.
         -5    1    4    4    0  501  0.32631840613E+01  0.59309773702E+02 -0.19711157232E+01  0.59578983912E+02  0.41800000000E+01 0.  1.
</event>
<event>
11    1  0.5813833E-009  0.3490053E+03  0.7561462E-02  0.9813495E-01
         22   -1    0    0    0    0  0.00000000000E+00  0.00000000000E+00  0.52323852031E+03  0.52323852031E+03  0.00000000000E+00 0. -1.
         22   -1    0    0    0    0 -0.00000000000E+00 -0.00000000000E+00 -0.18220798601E+04  0.18220798601E+04  0.00000000000E+00 0.  1.
         24    2    1    2    0    0  0.37112380496E+02 -0.31711288415E+03 -0.14211101173E+04  0.14587718022E+04  0.80766918462E+02 0.  0.
         25    2    1    2    0    0 -0.16145664806E+03  0.34386840971E+03 -0.25898619520E+03  0.47648187090E+03  0.12508953431E+03 0.  0.
        -24    2    1    2    0    0  0.12434426757E+03 -0.26755525556E+02  0.38125497279E+03  0.41006470730E+03  0.81365563204E+02 0.  0.
        -11    1    3    3    0    0 -0.65089226353E+01 -0.13760780053E+03 -0.75773431699E+03  0.77015554791E+03  0.00000000000E+00 0.  1.
         12    1    3    3    0    0  0.43621303131E+02 -0.17950508362E+03 -0.66337580035E+03  0.68861625426E+03  0.00000000000E+00 0. -1.
         13    1    5    5    0    0  0.88764942509E+02 -0.54542662486E+01  0.34049854093E+03  0.35192075871E+03  0.00000000000E+00 0. -1.
        -14    1    5    5    0    0  0.35579325060E+02 -0.21301259307E+02  0.40756431861E+02  0.58143948592E+02  0.00000000000E+00 0.  1.
          5    1    4    4  501    0  0.13326893600E+02  0.43000821655E+02 -0.46194545267E+01  0.45447645881E+02  0.41800000000E+01 0.  1.
         -5    1    4    4    0  501 -0.17478354167E+03  0.30086758805E+03 -0.25436674067E+03  0.43103422502E+03  0.41800000000E+01 0.  1.
</event>
<event>
11    1  0.5813833E-009  0.1633140E+03  0.7561462E-02  0.1084001E+00
         22   -1    0    0    0    0  0.00000000000E+00  0.00000000000E+00  0.13292579746E+04  0.13292579746E+04  0.00000000000E+00 0. -1.
         22   -1    0    0    0    0 -0.00000000000E+00 -0.00000000000E+00 -0.85113763612E+02  0.85113763612E+02  0.00000000000E+00 0.  1.
         24    2    1    2    0    0 -0.20422706682E+03  0.31194740281E+02  0.32767155046E+03  0.39563445058E+03  0.80474634912E+02 0.  0.
         25    2    1    2    0    0  0.63725659340E+02 -0.36733830514E+02  0.77023111053E+02  0.16428308930E+03  0.12508413101E+03 0.  0.
        -24    2    1    2    0    0  0.14050140748E+03  0.55390902335E+01  0.83944954952E+03  0.85445419838E+03  0.75133906533E+02 0.  0.
        -13    1    3    3    0    0 -0.67807492565E+02 -0.26253633132E+02  0.12591618481E+03  0.14540287101E+03  0.00000000000E+00 0.  1.
         14    1    3    3    0    0 -0.13641957425E+03  0.57448373412E+02  0.20175536565E+03  0.25023157957E+03  0.00000000000E+00 0. -1.
         11    1    5    5    0    0  0.14338617982E+03 -0.75330675286E+01  0.71412210891E+03  0.72841384536E+03  0.00000000000E+00 0. -1.
        -12    1    5    5    0    0 -0.28847723463E+01  0.13072157762E+02  0.12532744061E+03  0.12604035302E+03  0.00000000000E+00 0.  1.
          5    1    4    4  501    0  0.87589015205E+02 -0.25575642185E+01  0.84414131325E+02  0.12174397187E+03  0.41800000000E+01 0. -1.
         -5    1    4    4    0  501 -0.23863355865E+02 -0.34176266295E+02 -0.73910202711E+01  0.42539117430E+02  0.41800000000E+01 0. -1.
</event>
<event>
11    1  0.5813833E-009  0.1379212E+03  0.7561462E-02  0.1109902E+00
         22   -1    0    0    0    0  0.00000000000E+00  0.00000000000E+00  0.91423530718E+03  0.91423530718E+03  0.00000000000E+00 0. -1.
         22   -1    0    0    0    0 -0.00000000000E+00 -0.00000000000E+00 -0.11265930569E+03  0.11265930569E+03  0.00000000000E+00 0.  1.
         24    2    1    2    0    0  0.13679520908E+02 -0.34110315311E+02 -0.61418887746E+02  0.10873099885E+03  0.81850518849E+02 0.  0.
         25    2    1    2    0    0 -0.16773392163E+02  0.87562080643E+02  0.22179970624E+03  0.26979896820E+03  0.12509160205E+03 0.  0.
        -24    2    1    2    0    0  0.30938712549E+01 -0.53451765332E+02  0.64119518299E+03  0.64836464581E+03  0.79867314916E+02 0.  0.
        -11    1    3    3    0    0  0.38580589760E+01 -0.50286164197E+02 -0.67552166363E+01  0.50884338263E+02  0.00000000000E+00 0.  1.
         12    1    3    3    0    0  0.98214619318E+01  0.16175848886E+02 -0.54663671110E+02  0.57846660585E+02  0.00000000000E+00 0. -1.
         11    1    5    5    0    0  0.13051624774E+02 -0.21885671729E+02  0.56138492228E+03  0.56196295118E+03  0.00000000000E+00 0. -1.
        -12    1    5    5    0    0 -0.99577535191E+01 -0.31566093603E+02  0.79810260712E+02  0.86401694633E+02  0.00000000000E+00 0.  1.
          5    1    4    4  501    0  0.37477327560E+02  0.26736661877E+02  0.16855845470E+02  0.49203567918E+02  0.41800000000E+01 0. -1.
         -5    1    4    4    0  501 -0.54250719722E+02  0.60825418765E+02  0.20494386077E+03  0.22059540029E+03  0.41800000000E+01 0. -1.
</event>
<event>
11    1  0.5813833E-009  0.1427278E+03  0.7561462E-02  0.1104550E+00
         22   -1    0    0    0    0  0.00000000000E+00  0.00000000000E+00  0.97093166105E+03  0.97093166105E+03  0.00000000000E+00 0. -1.
         22   -1    0    0    0    0 -0.00000000000E+00 -0.00000000000E+00 -0.25842928317E+03  0.25842928317E+03  0.00000000000E+00 0.  1.
         24    2    1    2    0    0 -0.34479107446E+02  0.59225429147E+02 -0.21081198129E+03  0.23638251383E+03  0.82088617252E+02 0.  0.
         25    2    1    2    0    0  0.37988217461E+02 -0.60210697464E+02  0.12517714050E+03  0.19075005384E+03  0.12509130178E+03 0.  0.
        -24    2    1    2    0    0 -0.35091100146E+01  0.98526831658E+00  0.79813721867E+03  0.80222837654E+03  0.80833555467E+02 0.  0.
        -11    1    3    3    0    0 -0.30316386197E+02  0.52087411230E+02 -0.21753544791E+03  0.22572960102E+03  0.00000000000E+00 0.  1.
         12    1    3    3    0    0 -0.41627212489E+01  0.71380179175E+01  0.67234666182E+01  0.10652912811E+02  0.00000000000E+00 0. -1.
         13    1    5    5    0    0 -0.18651631650E+02  0.25221429906E+02  0.67852192299E+03  0.67924664435E+03  0.00000000000E+00 0. -1.
        -14    1    5    5    0    0  0.15142521636E+02 -0.24236161589E+02  0.11961529569E+03  0.12298173219E+03  0.00000000000E+00 0.  1.
          5    1    4    4  501    0 -0.64529545074E+01 -0.43104428694E+02 -0.12068663174E+02  0.45417589387E+02  0.41800000000E+01 0. -1.
         -5    1    4    4    0  501  0.44441171968E+02 -0.17106268770E+02  0.13724580368E+03  0.14533246445E+03  0.41800000000E+01 0. -1.
</event>
<event>
11    1  0.5813833E-009  0.1279443E+03  0.7561462E-02  0.1121821E+00
         22   -1    0    0    0    0  0.00000000000E+00  0.00000000000E+00  0.33745114227E+04  0.33745114227E+04  0.00000000000E+00 0.  1.
         22   -1    0    0    0    0 -0.00000000000E+00 -0.00000000000E+00 -0.84860549656E+02  0.84860549656E+02  0.00000000000E+00 0. -1.
        -24    2    1    2    0    0  0.66883502795E+01  0.15948761445E+02 -0.60146141668E+02  0.10193852445E+03  0.80466187860E+02 0.  0.
         25    2    1    2    0    0  0.13275791759E+02 -0.31664088116E+02  0.14617959098E+04  0.14675400978E+04  0.12509114936E+03 0.  0.
         24    2    1    2    0    0 -0.19964142039E+02  0.15715326670E+02  0.18880011049E+04  0.18898933501E+04  0.80642198160E+02 0.  0.
        -11    1    5    5    0    0 -0.23818462004E+02  0.41095289286E+02  0.69746703289E+03  0.69908254441E+03  0.00000000000E+00 0.  1.
         12    1    5    5    0    0  0.38543199658E+01 -0.25379962616E+02  0.11905340720E+04  0.11908108056E+04  0.00000000000E+00 0. -1.
         11    1    3    3    0    0  0.37064735300E+02 -0.40887812374E+01 -0.53079668165E+02  0.64868820764E+02  0.00000000000E+00 0. -1.
        -12    1    3    3    0    0 -0.30376385020E+02  0.20037542683E+02 -0.70664735029E+01  0.37069703687E+02  0.00000000000E+00 0.  1.
          5    1    4    4  501    0 -0.19065557601E+02 -0.46780915192E+02  0.13289824656E+04  0.13299488019E+04  0.41800000000E+01 0. -1.
         -5    1    4    4    0  501  0.32341349360E+02  0.15116827076E+02  0.13281344428E+03  0.13759129594E+03  0.41800000000E+01 0. -1.
</event>
<event>
11    1  0.5813833E-009  0.1429663E+03  0.7561462E-02  0.1104291E+00
         22   -1    0    0    0    0  0.00000000000E+00  0.00000000000E+00  0.17349727849E+03  0.17349727849E+03  0.00000000000E+00 0.  1.
         22   -1    0    0    0    0 -0.00000000000E+00 -0.00000000000E+00 -0.11426922995E+04  0.11426922995E+04  0.00000000000E+00 0.  1.
         24    2    1    2    0    0  0.70918718287E+01 -0.66653655681E+02 -0.63588323626E+03  0.64424280730E+03  0.78792767099E+02 0.  0.
         25    2    1    2    0    0  0.59094159810E+02  0.43219117420E+02 -0.47395321680E+03  0.49562062574E+03  0.12509253019E+03 0.  0.
        -24    2    1    2    0    0 -0.66186031639E+02  0.23434538260E+02  0.14064143203E+03  0.17632614498E+03  0.79881966883E+02 0.  0.
        -11    1    3    3    0    0  0.10647426232E+02 -0.37016762420E+02 -0.57644538839E+03  0.57773081464E+03  0.00000000000E+00 0.  1.
         12    1    3    3    0    0 -0.35555544036E+01 -0.29636893260E+02 -0.59437847865E+02  0.66511992664E+02  0.00000000000E+00 0. -1.
         11    1    5    5    0    0 -0.40265438723E+02  0.69883317663E+00  0.10392351599E+02  0.41590803011E+02  0.00000000000E+00 0. -1.
        -12    1    5    5    0    0 -0.25920592916E+02  0.22735705084E+02  0.13024908043E+03  0.13473534197E+03  0.00000000000E+00 0.  1.
          5    1    4    4  501    0  0.59767514287E+02 -0.18118812520E+02 -0.11044071349E+03  0.12694514850E+03  0.41800000000E+01 0. -1.
         -5    1    4    4    0  501 -0.67335447709E+00  0.61337929940E+02 -0.36351250331E+03  0.36867547724E+03  0.41800000000E+01 0. -1.
</event>
<event>
11    1  0.5813833E-009  0.1969870E+03  0.7561462E-02  0.1056675E+00
         22   -1    0    0    0    0  0.00000000000E+00  0.00000000000E+00  0.92160677662E+03  0.92160677662E+03  0.00000000000E+00 0. -1.
         22   -1    0    0    0    0 -0.00000000000E+00 -0.00000000000E+00 -0.30470873799E+04  0.30470873799E+04  0.00000000000E+00 0.  1.
         24    2    1    2    0    0 -0.15089626726E+03 -0.15175588404E+02 -0.29584809064E+04  0.29634705991E+04  0.80924262740E+02 0.  0.
         25    2    1    2    0    0  0.18126504587E+03  0.12044556146E+03  0.11800595408E+03  0.27737620250E+03  0.12509197570E+03 0.  0.
        -24    2    1    2    0    0 -0.30368778609E+02 -0.10526997305E+03  0.71499434906E+03  0.72784735489E+03  0.80875354092E+02 0.  0.
        -11    1    3    3    0    0 -0.12237336886E+03 -0.29811663379E+02 -0.17332482764E+04  0.17378186224E+04  0.00000000000E+00 0.  1.
         12    1    3    3    0    0 -0.28522898409E+02  0.14636074975E+02 -0.12252326300E+04  0.12256519767E+04  0.00000000000E+00 0. -1.
         13    1    5    5    0    0 -0.33870553727E+02 -0.10991369943E+03  0.71214136768E+03  0.72136922813E+03  0.00000000000E+00 0. -1.
        -14    1    5    5    0    0  0.35017751185E+01  0.46437263718E+01  0.28529813742E+01  0.64781267599E+01  0.00000000000E+00 0.  1.
          5    1    4    4  501    0  0.46266467534E+02  0.60529632000E+02 -0.15933869795E+02  0.77947308964E+02  0.41800000000E+01 0.  1.
         -5    1    4    4    0  501  0.13499857834E+03  0.59915929458E+02  0.13393982388E+03  0.19942889353E+03  0.41800000000E+01 0.  1.
</event>
<event>
11    1  0.5813833E-009  0.2169979E+03  0.7561462E-02  0.1043114E+00
         22   -1    0    0    0    0  0.00000000000E+00  0.00000000000E+00  0.22745433366E+04  0.22745433366E+04  0.00000000000E+00 0.  1.
         22   -1    0    0    0    0 -0.00000000000E+00 -0.00000000000E+00 -0.13058827736E+03  0.13058827736E+03  0.00000000000E+00 0.  1.
        -24    2    1    2    0    0 -0.38775204411E+02 -0.27960607081E+02 -0.80148560312E+02  0.12257083856E+03  0.79463870531E+02 0.  0.
         25    2    1    2    0    0  0.10863448110E+03 -0.13697102976E+03  0.46468318603E+03  0.51199678928E+03  0.12509090845E+03 0.  0.
         24    2    1    2    0    0 -0.69859276688E+02  0.16493163684E+03  0.17594204335E+04  0.17705639861E+04  0.85169264854E+02 0.  0.
        -13    1    5    5    0    0 -0.12775074643E+02  0.12020445727E+03  0.12791803983E+04  0.12848792961E+04  0.00000000000E+00 0.  1.
         14    1    5    5    0    0 -0.57084202045E+02  0.44727179575E+02  0.48024003518E+03  0.48568469001E+03  0.00000000000E+00 0. -1.
         13    1    3    3    0    0 -0.30262038653E+02 -0.48920610242E+02 -0.24545993108E+02  0.62542168715E+02  0.00000000000E+00 0. -1.
        -14    1    3    3    0    0 -0.85131657574E+01  0.20960003161E+02 -0.55602567204E+02  0.60028669845E+02  0.00000000000E+00 0.  1.
          5    1    4    4  501    0  0.20138358895E+02 -0.11294803997E+03  0.18592757762E+03  0.21851624596E+03  0.41800000000E+01 0.  1.
         -5    1    4    4    0  501  0.88496122203E+02 -0.24022989794E+02  0.27875560841E+03  0.29348054331E+03  0.41800000000E+01 0.  1.
</event>
<event>
11    1  0.5813833E-009  0.1406727E+03  0.7561462E-02  0.1106810E+00
         22   -1    0    0    0    0  0.00000000000E+00  0.00000000000E+00  0.11387744532E+04  0.11387744532E+04  0.00000000000E+00 0.  1.
         22   -1    0    0    0    0 -0.00000000000E+00 -0.00000000000E+00 -0.26591992426E+03  0.26591992426E+03  0.00000000000E+00 0. -1.
         24    2    1    2    0    0  0.60426985311E+02  0.23163347043E+02 -0.22254737456E+03  0.24544066508E+03  0.80782578278E+02 0.  0.
         25    2    1    2    0    0 -0.32737973107E+02 -0.74205201772E+02  0.15415488793E+03  0.21444961744E+03  0.12508685820E+03 0.  0.
        -24    2    1    2    0    0 -0.27689012204E+02  0.51041854729E+02  0.94124701557E+03  0.94480409496E+03  0.57765744074E+02 0.  0.
        -11    1    3    3    0    0  0.51868291955E+02 -0.12371762300E+01 -0.53866612720E+02  0.74789453009E+02  0.00000000000E+00 0.  1.
         12    1    3    3    0    0  0.85586933556E+01  0.24400523273E+02 -0.16868076184E+03  0.17065121207E+03  0.00000000000E+00 0. -1.
         11    1    5    5    0    0 -0.35795449343E+01 -0.80262137813E+01  0.28360309736E+02  0.29690746334E+02  0.00000000000E+00 0. -1.
        -12    1    5    5    0    0 -0.24109467269E+02  0.59068068510E+02  0.91288670584E+03  0.91511334862E+03  0.00000000000E+00 0.  1.
          5    1    4    4  501    0  0.18876140382E+02  0.64869540981E+01  0.10450907642E+03  0.10648008594E+03  0.41800000000E+01 0. -1.
         -5    1    4    4    0  501 -0.51614113489E+02 -0.80692155870E+02  0.49645811513E+02  0.10796953149E+03  0.41800000000E+01 0. -1.
</event>
<event>
11    1  0.5813833E-009  0.2391944E+03  0.7561462E-02  0.1029818E+00
         22   -1    0    0    0    0  0.00000000000E+00  0.00000000000E+00  0.32961649577E+03  0.32961649577E+03  0.00000000000E+00 0. -1.
         22   -1    0    0    0    0 -0.00000000000E+00 -0.00000000000E+00 -0.10212078825E+04  0.10212078825E+04  0.00000000000E+00 0.  1.
         24    2    1    2    0    0  0.14723108582E+03 -0.14308445610E+03 -0.90996449056E+03  0.93643896873E+03  0.82051287998E+02 0.  0.
         25    2    1    2    0    0 -0.16178095831E+03  0.10197766806E+03  0.67473057040E+02  0.23827056260E+03  0.12509086426E+03 0.  0.
        -24    2    1    2    0    0  0.14549872492E+02  0.41106788033E+02  0.15090004682E+03  0.17611484690E+03  0.79650162306E+02 0.  0.
        -13    1    3    3    0    0  0.41555145617E+02 -0.15780548740E+02 -0.95478417431E+02  0.10531848860E+03  0.00000000000E+00 0.  1.
         14    1    3    3    0    0  0.10567594020E+03 -0.12730390736E+03 -0.81448607313E+03  0.83112048013E+03  0.00000000000E+00 0. -1.
         13    1    5    5    0    0  0.44207858474E+02  0.34319709472E+02  0.12166840255E+03  0.13392302785E+03  0.00000000000E+00 0. -1.
        -14    1    5    5    0    0 -0.29657985982E+02  0.67870785608E+01  0.29231644273E+02  0.42191819051E+02  0.00000000000E+00 0.  1.
          5    1    4    4  501    0 -0.15806032531E+03  0.79073536614E+02  0.96073364546E+02  0.20120450891E+03  0.41800000000E+01 0. -1.
         -5    1    4    4    0  501 -0.37206330041E+01  0.22904131449E+02 -0.28600307506E+02  0.37066053699E+02  0.41800000000E+01 0. -1.
</event>
<event>
11    1  0.5813833E-009  0.1712645E+03  0.7561462E-02  0.1076937E+00
         22   -1    0    0    0    0  0.00000000000E+00  0.00000000000E+00  0.15435072946E+04  0.15435072946E+04  0.00000000000E+00 0.  1.
         22   -1    0    0    0    0 -0.00000000000E+00 -0.00000000000E+00 -0.34125976879E+03  0.34125976879E+03  0.00000000000E+00 0.  1.
        -24    2    1    2    0    0 -0.30219946363E+02  0.43190559045E+02 -0.29231343724E+03  0.30728986353E+03  0.78747984662E+02 0.  0.
         25    2    1    2    0    0  0.10689945475E+03 -0.12508432015E+03  0.24602475792E+03  0.32132155012E+03  0.12508307835E+03 0.  0.
         24    2    1    2    0    0 -0.76679508389E+02  0.81893761102E+02  0.12485362051E+04  0.12561556498E+04  0.80610332646E+02 0.  0.
        -11    1    5    5    0    0 -0.70672923714E+02  0.79518554112E+02  0.74295041409E+03  0.75052860065E+03  0.00000000000E+00 0.  1.
         12    1    5    5    0    0 -0.60065846751E+01  0.23752069895E+01  0.50558579106E+03  0.50562704911E+03  0.00000000000E+00 0. -1.
         11    1    3    3    0    0  0.97233554990E+01  0.13481354042E+02 -0.76348128531E+01  0.18291553140E+02  0.00000000000E+00 0. -1.
        -12    1    3    3    0    0 -0.39943301862E+02  0.29709205003E+02 -0.28467862439E+03  0.28899831039E+03  0.00000000000E+00 0.  1.
          5    1    4    4  501    0  0.21816327725E+02 -0.93420680676E+02  0.19434813151E+03  0.21677648478E+03  0.41800000000E+01 0.  1.
         -5    1    4    4    0  501  0.85083127027E+02 -0.31663639471E+02  0.51676626411E+02  0.10454506534E+03  0.41800000000E+01 0.  1.
</event>
<event>
11    1  0.5813833E-009  0.1469589E+03  0.7561462E-02  0.1100027E+00
         22   -1    0    0    0    0  0.00000000000E+00  0.00000000000E+00  0.27899903588E+03  0.27899903588E+03  0.00000000000E+00 0. -1.
         22   -1    0    0    0    0 -0.00000000000E+00 -0.00000000000E+00 -0.49808234206E+03  0.49808234206E+03  0.00000000000E+00 0. -1.
        -24    2    1    2    0    0  0.29203830530E+02 -0.32417380139E+02 -0.40694276411E+03  0.41733915033E+03  0.81644368358E+02 0.  0.
         25    2    1    2    0    0 -0.80090811017E+02 -0.26320398696E+02  0.11409634100E+02  0.15127612042E+03  0.12508790294E+03 0.  0.
         24    2    1    2    0    0  0.50886980487E+02  0.58737778835E+02  0.17644982382E+03  0.20846610719E+03  0.79271470756E+02 0.  0.
        -13    1    5    5    0    0  0.55841991029E+01  0.22327507002E+02  0.34468361858E+00  0.23017811697E+02  0.00000000000E+00 0.  1.
         14    1    5    5    0    0  0.45302781384E+02  0.36410271833E+02  0.17610514021E+03  0.18544829550E+03  0.00000000000E+00 0. -1.
         11    1    3    3    0    0  0.20220115512E+02 -0.45048920153E+02 -0.39417928067E+03  0.39726007047E+03  0.00000000000E+00 0. -1.
        -12    1    3    3    0    0  0.89837150183E+01  0.12631540013E+02 -0.12763483440E+02  0.20079079864E+02  0.00000000000E+00 0.  1.
          5    1    4    4  501    0 -0.84521126646E+02 -0.52733900195E+02  0.43914014686E+02  0.10895227471E+03  0.41800000000E+01 0.  1.
         -5    1    4    4    0  501  0.44303156288E+01  0.26413501500E+02 -0.32504380586E+02  0.42323845706E+02  0.41800000000E+01 0.  1.
</event>
<event>
11    1  0.5813833E-009  0.2459878E+03  0.7561462E-02  0.1026058E+00
         22   -1    0    0    0    0  0.00000000000E+00  0.00000000000E+00  0.75768626084E+03  0.75768626084E+03  0.00000000000E+00 0. -1.
         22   -1    0    0    0    0 -0.00000000000E+00 -0.00000000000E+00 -0.33298718606E+04  0.33298718606E+04  0.00000000000E+00 0.  1.
        -24    2    1    2    0    0 -0.25432193261E+01 -0.40545390980E+02 -0.29860832936E+04  0.29874664719E+04  0.81314743923E+02 0.  0.
         25    2    1    2    0    0  0.11545228868E+03 -0.14069461396E+03 -0.28762731323E+03  0.36263250905E+03  0.12509460400E+03 0.  0.
         24    2    1    2    0    0 -0.11290906935E+03  0.18124000494E+03  0.70152500710E+03  0.73745914047E+03  0.78180886081E+02 0.  0.
        -13    1    5    5    0    0 -0.72136908141E+02  0.45743073495E+02  0.24124728440E+03  0.25592267293E+03  0.00000000000E+00 0.  1.
         14    1    5    5    0    0 -0.40772161211E+02  0.13549693145E+03  0.46027772270E+03  0.48153646754E+03  0.00000000000E+00 0. -1.
         13    1    3    3    0    0 -0.21680830690E+02  0.18364441147E+02 -0.10973918016E+04  0.10977595718E+04  0.00000000000E+00 0. -1.
        -14    1    3    3    0    0  0.19137611364E+02 -0.58909832127E+02 -0.18886914920E+04  0.18897069001E+04  0.00000000000E+00 0.  1.
          5    1    4    4  501    0  0.10901326679E+03 -0.71460034693E+02 -0.25346384745E+03  0.28504705447E+03  0.41800000000E+01 0. -1.
         -5    1    4    4    0  501  0.64390218852E+01 -0.69234579270E+02 -0.34163465774E+02  0.77585454585E+02  0.41800000000E+01 0. -1.
</event>
<event>
11    1  0.5813833E-009  0.1530646E+03  0.7561462E-02  0.1093788E+00
         22   -1    0    0    0    0  0.00000000000E+00  0.00000000000E+00  0.13773570844E+04  0.13773570844E+04  0.00000000000E+00 0. -1.
         22   -1    0    0    0    0 -0.00000000000E+00 -0.00000000000E+00 -0.58829290503E+03  0.58829290503E+03  0.00000000000E+00 0.  1.
        -24    2    1    2    0    0 -0.22299547997E+02  0.44144529246E+02 -0.51373791756E+03  0.52227779961E+03  0.80009016469E+02 0.  0.
         25    2    1    2    0    0 -0.45662592384E+02  0.14940171297E+02 -0.90831308048E+00  0.13400071723E+03  0.12508831330E+03 0.  0.
         24    2    1    2    0    0  0.67962140381E+02 -0.59084700543E+02  0.13037104100E+04  0.13093714726E+04  0.81749408055E+02 0.  0.
        -13    1    5    5    0    0  0.73559123512E+01  0.16483780802E+02  0.89441757360E+02  0.91245013210E+02  0.00000000000E+00 0.  1.
         14    1    5    5    0    0  0.60606228030E+02 -0.75568481345E+02  0.12142686527E+04  0.12181264594E+04  0.00000000000E+00 0. -1.
         11    1    3    3    0    0 -0.65460656018E+00 -0.11782375407E+02 -0.11517263767E+02  0.16489397947E+02  0.00000000000E+00 0. -1.
        -12    1    3    3    0    0 -0.21644941437E+02  0.55926904653E+02 -0.50222065380E+03  0.50578840166E+03  0.00000000000E+00 0.  1.
          5    1    4    4  501    0 -0.30134853685E+02 -0.16680830727E+02  0.56625081726E+02  0.66409576123E+02  0.41800000000E+01 0. -1.
         -5    1    4    4    0  501 -0.15527738699E+02  0.31621002024E+02 -0.57533394807E+02  0.67591141106E+02  0.41800000000E+01 0. -1.
</event>
<event>
11    1  0.5813833E-009  0.2975615E+03  0.7561462E-02  0.1001229E+00
         22   -1    0    0    0    0  0.00000000000E+00  0.00000000000E+00  0.67456336150E+03  0.67456336150E+03  0.00000000000E+00 0. -1.
         22   -1    0    0    0    0 -0.00000000000E+00 -0.00000000000E+00 -0.28376419281E+04  0.28376419281E+04  0.00000000000E+00 0. -1.
        -24    2    1    2    0    0  0.26458774192E+03  0.57233630158E+02 -0.26698395442E+04  0.26847639795E+04  0.81437535350E+02 0.  0.
         25    2    1    2    0    0 -0.25219470133E+03 -0.51907506200E+02 -0.26869670223E+02  0.28751810039E+03  0.12509245499E+03 0.  0.
         24    2    1    2    0    0 -0.12393040594E+02 -0.53261239583E+01  0.53363064785E+03  0.53992320970E+03  0.81076809241E+02 0.  0.
        -13    1    5    5    0    0  0.26715034163E+02  0.12398554173E+02  0.10213826200E+03  0.10629977310E+03  0.00000000000E+00 0.  1.
         14    1    5    5    0    0 -0.39108074757E+02 -0.17724678131E+02  0.43149238584E+03  0.43362343660E+03  0.00000000000E+00 0. -1.
         11    1    3    3    0    0  0.17421257311E+03  0.60364340800E+02 -0.20631610139E+04  0.20713829302E+04  0.00000000000E+00 0. -1.
        -12    1    3    3    0    0  0.90375168817E+02 -0.31307106413E+01 -0.60667853033E+03  0.61338104931E+03  0.00000000000E+00 0.  1.
          5    1    4    4  501    0 -0.18928783923E+03 -0.62430976814E+02 -0.69000093658E+02  0.21096444788E+03  0.41800000000E+01 0.  1.
         -5    1    4    4    0  501 -0.62906862104E+02  0.10523470614E+02  0.42130423436E+02  0.76553652509E+02  0.41800000000E+01 0.  1.
</event>
<event>
11    1  0.5813833E-009  0.2366757E+03  0.7561462E-02  0.1031247E+00
         22   -1    0    0    0    0  0.00000000000E+00  0.00000000000E+00  0.40964240225E+03  0.40964240225E+03  0.00000000000E+00 0. -1.
         22   -1    0    0    0    0 -0.00000000000E+00 -0.00000000000E+00 -0.77632346407E+03  0.77632346407E+03  0.00000000000E+00 0. -1.
        -24    2    1    2    0    0 -0.49154001946E+02  0.70617780592E+02 -0.43176552212E+03  0.44825570218E+03  0.84313235036E+02 0.  0.
         25    2    1    2    0    0  0.14667625567E+03 -0.23657049916E+03 -0.22648870041E+03  0.38003143320E+03  0.12508890343E+03 0.  0.
         24    2    1    2    0    0 -0.97522253726E+02  0.16595271856E+03  0.29157316071E+03  0.35767873093E+03  0.76604645720E+02 0.  0.
        -11    1    5    5    0    0 -0.57115070577E+02  0.67260392931E+02  0.73169735204E+02  0.11462941112E+03  0.00000000000E+00 0.  1.
         12    1    5    5    0    0 -0.40407183150E+02  0.98692325633E+02  0.21840342550E+03  0.24304931981E+03  0.00000000000E+00 0. -1.
         11    1    3    3    0    0  0.20535338702E+02  0.27322377812E+02 -0.18722801517E+03  0.19032220609E+03  0.00000000000E+00 0. -1.
        -12    1    3    3    0    0 -0.69689340649E+02  0.43295402780E+02 -0.24453750694E+03  0.25793349609E+03  0.00000000000E+00 0.  1.
          5    1    4    4  501    0 -0.12758882290E+02  0.56722391469E+01 -0.62622945657E+01  0.15863546497E+02  0.41800000000E+01 0. -1.
         -5    1    4    4    0  501  0.15943513796E+03 -0.24224273830E+03 -0.22022640585E+03  0.36416788671E+03  0.41800000000E+01 0. -1.
</event>
<event>
11    1  0.5813833E-009  0.1452335E+03  0.7561462E-02  0.1101851E+00
         22   -1    0    0    0    0  0.00000000000E+00  0.00000000000E+00  0.13022902116E+03  0.13022902116E+03  0.00000000000E+00 0. -1.
         22   -1    0    0    0    0 -0.00000000000E+00 -0.00000000000E+00 -0.17253573201E+04  0.17253573201E+04  0.00000000000E+00 0. -1.
         24    2    1    2    0    0  0.70165251993E+02 -0.38133147733E+01 -0.13962844056E+04  0.14005652946E+04  0.83876690228E+02 0.  0.
         25    2    1    2    0    0 -0.11321762402E+03 -0.16980854201E+02 -0.28235507180E+03  0.32936158940E+03  0.12509232673E+03 0.  0.
        -24    2    1    2    0    0  0.43052372025E+02  0.20794168975E+02  0.83511178530E+02  0.12565945718E+03  0.80810135740E+02 0.  0.
        -13    1    3    3    0    0  0.43595902178E+01  0.31525249504E+02 -0.57927963944E+03  0.58015321084E+03  0.00000000000E+00 0.  1.
         14    1    3    3    0    0  0.65805661775E+02 -0.35338564277E+02 -0.81700476620E+03  0.82041208379E+03  0.00000000000E+00 0. -1.
         11    1    5    5    0    0  0.34195284024E+02  0.18602410699E+01  0.95574809812E+02  0.10152498322E+03  0.00000000000E+00 0. -1.
        -12    1    5    5    0    0  0.88570880011E+01  0.18933927905E+02 -0.12063631281E+02  0.24134473962E+02  0.00000000000E+00 0.  1.
          5    1    4    4  501    0 -0.47213628011E+02 -0.62077555970E+02 -0.19907596617E+03  0.21384915789E+03  0.41800000000E+01 0. -1.
         -5    1    4    4    0  501 -0.66003996007E+02  0.45096701769E+02 -0.83279105630E+02  0.11551243151E+03  0.41800000000E+01 0. -1.
</event>
<event>
11    1  0.5813833E-009  0.1417007E+03  0.7561462E-02  0.1105674E+00
         22   -1    0    0    0    0  0.00000000000E+00  0.00000000000E+00  0.10170025207E+04  0.10170025207E+04  0.00000000000E+00 0.  1.
         22   -1    0    0    0    0 -0.00000000000E+00 -0.00000000000E+00 -0.15343678467E+03  0.15343678467E+03  0.00000000000E+00 0. -1.
        -24    2    1    2    0    0 -0.55256985273E+00 -0.25958407248E+02 -0.93675577754E+02  0.12678736406E+03  0.81398879467E+02 0.  0.
         25    2    1    2    0    0  0.26562365269E+02  0.85319515668E+02  0.10728506418E+03  0.18747379351E+03  0.12510539258E+03 0.  0.
         24    2    1    2    0    0 -0.26009795416E+02 -0.59361108420E+02  0.84995624963E+03  0.85617814783E+03  0.80094593361E+02 0.  0.
        -11    1    5    5    0    0  0.39180681664E+01 -0.48893963219E+02  0.21900296704E+03  0.22442876480E+03  0.00000000000E+00 0.  1.
         12    1    5    5    0    0 -0.29927863582E+02 -0.10467145202E+02  0.63095328259E+03  0.63174938303E+03  0.00000000000E+00 0. -1.
         13    1    3    3    0    0 -0.23885546539E+02 -0.41751707800E+02 -0.84363501932E+02  0.97112949167E+02  0.00000000000E+00 0. -1.
        -14    1    3    3    0    0  0.23332976687E+02  0.15793300551E+02 -0.93120758213E+01  0.29674414897E+02  0.00000000000E+00 0.  1.
          5    1    4    4  501    0  0.14398947585E+01  0.22636236918E+02  0.11688311708E+03  0.11913692952E+03  0.41800000000E+01 0. -1.
         -5    1    4    4    0  501  0.25122470510E+02  0.62683278751E+02 -0.95980528994E+01  0.68336863982E+02  0.41800000000E+01 0. -1.
</event>
<event>
11    1  0.5813833E-009  0.1308755E+03  0.7561462E-02  0.1118198E+00
         22   -1    0    0    0    0  0.00000000000E+00  0.00000000000E+00  0.73691302132E+03  0.73691302132E+03  0.00000000000E+00 0. -1.
         22   -1    0    0    0    0 -0.00000000000E+00 -0.00000000000E+00 -0.63467795402E+03  0.63467795402E+03  0.00000000000E+00 0.  1.
        -24    2    1    2    0    0  0.11552124508E+02  0.13203771346E+02 -0.47647463344E+03  0.48346983218E+03  0.80045057056E+02 0.  0.
         25    2    1    2    0    0  0.23999660484E+02 -0.28155134366E+02 -0.12379475487E+03  0.17984055845E+03  0.12509512315E+03 0.  0.
         24    2    1    2    0    0 -0.35551784992E+02  0.14951363020E+02  0.70250445561E+03  0.70828058472E+03  0.81617423749E+02 0.  0.
        -11    1    5    5    0    0 -0.34701468806E+02  0.31842305132E+02  0.19919300815E+03  0.20468507232E+03  0.00000000000E+00 0.  1.
         12    1    5    5    0    0 -0.85031618628E+00 -0.16890942112E+02  0.50331144746E+03  0.50359551240E+03  0.00000000000E+00 0. -1.
         13    1    3    3    0    0 -0.13060643554E+02 -0.27839129291E+02 -0.12374817909E+03  0.12751160480E+03  0.00000000000E+00 0. -1.
        -14    1    3    3    0    0  0.24612768062E+02  0.41042900637E+02 -0.35272645435E+03  0.35595822738E+03  0.00000000000E+00 0.  1.
          5    1    4    4  501    0 -0.16969276001E+02 -0.49055266939E+02 -0.49163454355E+01  0.52306963159E+02  0.41800000000E+01 0.  1.
         -5    1    4    4    0  501  0.40968936485E+02  0.20900132573E+02 -0.11887840944E+03  0.12753359529E+03  0.41800000000E+01 0.  1.
</event>
<event>
11    1  0.5823010E-009  0.2007191E+03  0.7561462E-02  0.1054016E+00
         22   -1    0    0    0    0  0.00000000000E+00  0.00000000000E+00  0.23732129653E+04  0.23732129653E+04  0.00000000000E+00 0. -1.
         22   -1    0    0    0    0 -0.00000000000E+00 -0.00000000000E+00 -0.16017862617E+04  0.16017862617E+04  0.00000000000E+00 0. -1.
        -24    2    1    2    0    0 -0.65496187210E+01  0.55546636682E+02 -0.14533337320E+04  0.14566674238E+04  0.81072316575E+02 0.  0.
         25    2    1    2    0    0 -0.97574272911E+02  0.63334333888E+02 -0.92518797051E+02  0.19426896211E+03  0.12509486500E+03 0.  0.
         24    2    1    2    0    0  0.10412389163E+03 -0.11888097057E+03  0.23172792326E+04  0.23240628411E+04  0.80688148737E+02 0.  0.
        -11    1    5    5    0    0 -0.12731095801E+02 -0.22081173273E+02  0.37503076260E+03  0.37589590569E+03  0.00000000000E+00 0.  1.
         12    1    5    5    0    0  0.11685498743E+03 -0.96799797297E+02  0.19422484700E+04  0.19481669354E+04  0.00000000000E+00 0. -1.
         11    1    3    3    0    0 -0.35498608230E+02  0.21446397435E+01 -0.69256263553E+03  0.69347512918E+03  0.00000000000E+00 0. -1.
        -12    1    3    3    0    0  0.28948989509E+02  0.53401996939E+02 -0.76077109652E+03  0.76319229462E+03  0.00000000000E+00 0.  1.
          5    1    4    4  501    0 -0.40854892682E+02  0.61822127595E+02  0.12082112253E+02  0.75196725679E+02  0.41800000000E+01 0. -1.
         -5    1    4    4    0  501 -0.56719380229E+02  0.15122062937E+01 -0.10460090930E+03  0.11907223643E+03  0.41800000000E+01 0. -1.
</event>
<event>
11    1  0.5813833E-009  0.2575289E+03  0.7561462E-02  0.1019963E+00
         22   -1    0    0    0    0  0.00000000000E+00  0.00000000000E+00  0.14470400720E+04  0.14470400720E+04  0.00000000000E+00 0. -1.
         22   -1    0    0    0    0 -0.00000000000E+00 -0.00000000000E+00 -0.35558358734E+03  0.35558358734E+03  0.00000000000E+00 0. -1.
         24    2    1    2    0    0  0.12040955822E+03  0.19351535210E+03 -0.28652003498E+03  0.37484494182E+03  0.80426032827E+02 0.  0.
         25    2    1    2    0    0 -0.82195468517E+02 -0.17088060998E+03  0.55114325642E+03  0.59612383882E+03  0.12509382157E+03 0.  0.
        -24    2    1    2    0    0 -0.38214089701E+02 -0.22634742117E+02  0.82683326323E+03  0.83165487871E+03  0.77614070220E+02 0.  0.
        -13    1    3    3    0    0 -0.49060401101E+01  0.12627771044E+02  0.31235532228E-01  0.13547354235E+02  0.00000000000E+00 0.  1.
         14    1    3    3    0    0  0.12531559833E+03  0.18088758105E+03 -0.28655127051E+03  0.36129758758E+03  0.00000000000E+00 0. -1.
         11    1    5    5    0    0 -0.31782811754E+02 -0.20482464796E+02  0.82299316612E+03  0.82386129292E+03  0.00000000000E+00 0. -1.
        -12    1    5    5    0    0 -0.64312779466E+01 -0.21522773214E+01  0.38400971102E+01  0.77935857928E+01  0.00000000000E+00 0.  1.
          5    1    4    4  501    0 -0.89139689577E+02 -0.16375992655E+03  0.55434070870E+03  0.58487117515E+03  0.41800000000E+01 0.  1.
         -5    1    4    4    0  501  0.69442210606E+01 -0.71206834332E+01 -0.31974522715E+01  0.11252663672E+02  0.41800000000E+01 0.  1.
</event>
<event>
11    1  0.5813833E-009  0.1416447E+03  0.7561462E-02  0.1105736E+00
         22   -1    0    0    0    0  0.00000000000E+00  0.00000000000E+00  0.73611687359E+03  0.73611687359E+03  0.00000000000E+00 0. -1.
         22   -1    0    0    0    0 -0.00000000000E+00 -0.00000000000E+00 -0.41533137082E+03  0.41533137082E+03  0.00000000000E+00 0.  1.
        -24    2    1    2    0    0 -0.24986290243E+02  0.17189653460E+02 -0.13902703111E+03  0.16339257460E+03  0.80304540148E+02 0.  0.
         25    2    1    2    0    0  0.79010209379E+02 -0.55093794376E+02 -0.23616506528E+03  0.28407561002E+03  0.12508826798E+03 0.  0.
         24    2    1    2    0    0 -0.54023919137E+02  0.37904140916E+02  0.69597759917E+03  0.70398005979E+03  0.82751424777E+02 0.  0.
        -11    1    5    5    0    0  0.12847539030E+02  0.24006955668E+01  0.20764517464E+02  0.24535439345E+02  0.00000000000E+00 0.  1.
         12    1    5    5    0    0 -0.66871458167E+02  0.35503445349E+02  0.67521308170E+03  0.67944462045E+03  0.00000000000E+00 0. -1.
         13    1    3    3    0    0  0.95149994507E+01  0.25325570722E+02 -0.88334309873E+01  0.28459607340E+02  0.00000000000E+00 0. -1.
        -14    1    3    3    0    0 -0.34501289693E+02 -0.81359172619E+01 -0.13019360012E+03  0.13493296726E+03  0.00000000000E+00 0.  1.
          5    1    4    4  501    0  0.33819525891E+02 -0.90047817397E+02 -0.17840273721E+03  0.20272488450E+03  0.41800000000E+01 0. -1.
         -5    1    4    4    0  501  0.45190683489E+02  0.34954023021E+02 -0.57762328063E+02  0.81350725521E+02  0.41800000000E+01 0. -1.
</event>
<event>
11    1  0.5813833E-009  0.1629128E+03  0.7561462E-02  0.1084369E+00
         22   -1    0    0    0    0  0.00000000000E+00  0.00000000000E+00  0.11757222534E+04  0.11757222534E+04  0.00000000000E+00 0.  1.
         22   -1    0    0    0    0 -0.00000000000E+00 -0.00000000000E+00 -0.52853685064E+03  0.52853685064E+03  0.00000000000E+00 0.  1.
         24    2    1    2    0    0  0.58295829202E+02 -0.86024543041E+02 -0.49944814049E+03  0.51640568695E+03  0.80173329571E+02 0.  0.
         25    2    1    2    0    0 -0.77880654317E+02  0.10193333219E+03  0.42471783591E+03  0.46096468979E+03  0.12508958615E+03 0.  0.
        -24    2    1    2    0    0  0.19584825115E+02 -0.15908789150E+02  0.72191570731E+03  0.72688872726E+03  0.81044916003E+02 0.  0.
        -11    1    3    3    0    0  0.60310462352E+02 -0.99888449757E+02 -0.42945850298E+03  0.44502770705E+03  0.00000000000E+00 0.  1.
         12    1    3    3    0    0 -0.20146331509E+01  0.13863906716E+02 -0.69989637509E+02  0.71377979902E+02  0.00000000000E+00 0. -1.
         13    1    5    5    0    0  0.20509092469E+02  0.24463106542E+02  0.14088514971E+03  0.14445653971E+03  0.00000000000E+00 0. -1.
        -14    1    5    5    0    0 -0.92426735426E+00 -0.40371895692E+02  0.58103055759E+03  0.58243218755E+03  0.00000000000E+00 0.  1.
          5    1    4    4  501    0  0.32537003578E+02  0.26327233618E+02  0.68110261716E+02  0.80051608247E+02  0.41800000000E+01 0. -1.
         -5    1    4    4    0  501 -0.11041765790E+03  0.75606098573E+02  0.35660757419E+03  0.38091308154E+03  0.41800000000E+01 0. -1.
</event>
<event>
11    1  0.5813833E-009  0.1253476E+03  0.7561462E-02  0.1125121E+00
         22   -1    0    0    0    0  0.00000000000E+00  0.00000000000E+00  0.75252147921E+03  0.75252147921E+03  0.00000000000E+00 0. -1.
         22   -1    0    0    0    0 -0.00000000000E+00 -0.00000000000E+00 -0.25689746086E+04  0.25689746086E+04  0.00000000000E+00 0. -1.
         24    2    1    2    0    0 -0.25705432420E+01  0.35572067647E+02 -0.25294812140E+04  0.25310375710E+04  0.81264962004E+02 0.  0.
         25    2    1    2    0    0  0.10172931142E+02 -0.34217333268E+02  0.84507978475E+02  0.15512414784E+03  0.12509032094E+03 0.  0.
        -24    2    1    2    0    0 -0.76023879002E+01 -0.13547343789E+01  0.62852010606E+03  0.63533436907E+03  0.92480296210E+02 0.  0.
        -13    1    3    3    0    0 -0.49745414783E+01  0.38091693704E+02 -0.47421909485E+03  0.47577250143E+03  0.00000000000E+00 0.  1.
         14    1    3    3    0    0  0.24039982363E+01 -0.25196260573E+01 -0.20552621191E+04  0.20552650695E+04  0.00000000000E+00 0. -1.
         13    1    5    5    0    0 -0.19126802757E+02 -0.41977917563E+02  0.42390565069E+03  0.42640823260E+03  0.00000000000E+00 0. -1.
        -14    1    5    5    0    0  0.11524414857E+02  0.40623183184E+02  0.20461445537E+03  0.20892613647E+03  0.00000000000E+00 0.  1.
          5    1    4    4  501    0  0.52068580113E+02 -0.20213643156E+02  0.94304814853E+02  0.10968408685E+03  0.41800000000E+01 0. -1.
         -5    1    4    4    0  501 -0.41895648970E+02 -0.14003690111E+02 -0.97968363781E+01  0.45440060986E+02  0.41800000000E+01 0. -1.
</event>
<event>
11    1  0.5813833E-009  0.1738880E+03  0.7561462E-02  0.1074697E+00
         22   -1    0    0    0    0  0.00000000000E+00  0.00000000000E+00  0.38762123399E+03  0.38762123399E+03  0.00000000000E+00 0. -1.
         22   -1    0    0    0    0 -0.00000000000E+00 -0.00000000000E+00 -0.21832105083E+03  0.21832105083E+03  0.00000000000E+00 0. -1.
        -24    2    1    2    0    0  0.78453838012E+01 -0.36170976157E+02 -0.84198932227E+02  0.12284314799E+03  0.81431500390E+02 0.  0.
         25    2    1    2    0    0 -0.10027284281E+03 -0.45782298541E+02 -0.24877598002E+02  0.16857778233E+03  0.12509561123E+03 0.  0.
         24    2    1    2    0    0  0.92427459005E+02  0.81953274697E+02  0.27837671339E+03  0.31452135450E+03  0.78555161963E+02 0.  0.
        -11    1    5    5    0    0 -0.13116306399E+02  0.12026635889E+02  0.19855915676E+02  0.26663361598E+02  0.00000000000E+00 0.  1.
         12    1    5    5    0    0  0.10554376540E+03  0.69926638808E+02  0.25852079771E+03  0.28785799291E+03  0.00000000000E+00 0. -1.
         13    1    3    3    0    0  0.33917087823E+01  0.26333940443E+02 -0.21091148085E+02  0.33908946243E+02  0.00000000000E+00 0. -1.
        -14    1    3    3    0    0  0.44536750190E+01 -0.62504916600E+02 -0.63107784142E+02  0.88934201743E+02  0.00000000000E+00 0.  1.
          5    1    4    4  501    0 -0.99707393540E+02 -0.17201775934E+01 -0.56020234404E+02  0.11445637772E+03  0.41800000000E+01 0. -1.
         -5    1    4    4    0  501 -0.56544926635E+00 -0.44062120947E+02  0.31142636402E+02  0.54121404613E+02  0.41800000000E+01 0. -1.
</event>
<event>
11    1  0.5813833E-009  0.1384223E+03  0.7561462E-02  0.1109333E+00
         22   -1    0    0    0    0  0.00000000000E+00  0.00000000000E+00  0.41600720016E+03  0.41600720016E+03  0.00000000000E+00 0. -1.
         22   -1    0    0    0    0 -0.00000000000E+00 -0.00000000000E+00 -0.34051500589E+03  0.34051500589E+03  0.00000000000E+00 0.  1.
        -24    2    1    2    0    0 -0.61059563251E+02  0.37034742663E+01 -0.25099117491E+03  0.27053421542E+03  0.80313173532E+02 0.  0.
         25    2    1    2    0    0  0.53233838713E+02 -0.62581396186E+02  0.62452960579E+01  0.14978873646E+03  0.12508952440E+03 0.  0.
         24    2    1    2    0    0  0.78257245384E+01  0.58877921919E+02  0.32023807311E+03  0.33619925417E+03  0.83364641060E+02 0.  0.
        -11    1    5    5    0    0  0.11942653262E+02  0.10814193991E+01  0.13242790063E+01  0.12064416676E+02  0.00000000000E+00 0.  1.
         12    1    5    5    0    0 -0.41169287232E+01  0.57796502520E+02  0.31891379411E+03  0.32413483749E+03  0.00000000000E+00 0. -1.
         13    1    3    3    0    0  0.15819887591E+02 -0.13985932106E+02 -0.69558442880E+02  0.72692861521E+02  0.00000000000E+00 0. -1.
        -14    1    3    3    0    0 -0.76879450842E+02  0.17689406372E+02 -0.18143273203E+03  0.19784135390E+03  0.00000000000E+00 0.  1.
          5    1    4    4  501    0  0.55103486335E+02 -0.52479407702E+01  0.52176961087E+02  0.76182955816E+02  0.41800000000E+01 0.  1.
         -5    1    4    4    0  501 -0.18696476222E+01 -0.57333455416E+02 -0.45931665029E+02  0.73605780646E+02  0.41800000000E+01 0.  1.
</event>
<event>
11    1  0.5813833E-009  0.1369898E+03  0.7561462E-02  0.1110967E+00
         22   -1    0    0    0    0  0.00000000000E+00  0.00000000000E+00  0.17801376700E+04  0.17801376700E+04  0.00000000000E+00 0.  1.
         22   -1    0    0    0    0 -0.00000000000E+00 -0.00000000000E+00 -0.71010709454E+03  0.71010709454E+03  0.00000000000E+00 0. -1.
        -24    2    1    2    0    0 -0.33880019147E+02 -0.55722684036E+01 -0.61588885481E+03  0.62208367444E+03  0.80561223025E+02 0.  0.
         25    2    1    2    0    0  0.56940068395E+02  0.56120807392E+02 -0.28338486070E+02  0.15113403533E+03  0.12508681158E+03 0.  0.
         24    2    1    2    0    0 -0.23060049248E+02 -0.50548538988E+02  0.17142579163E+04  0.17170270548E+04  0.80092337069E+02 0.  0.
        -13    1    5    5    0    0 -0.46443351331E+02 -0.33084088996E+02  0.14576247986E+04  0.14587397284E+04  0.00000000000E+00 0.  1.
         14    1    5    5    0    0  0.23383302083E+02 -0.17464449993E+02  0.25663311774E+03  0.25828732634E+03  0.00000000000E+00 0. -1.
         11    1    3    3    0    0 -0.29594786632E+02 -0.30885976041E+02 -0.54522392356E+03  0.54689937075E+03  0.00000000000E+00 0. -1.
        -12    1    3    3    0    0 -0.42852325154E+01  0.25313707637E+02 -0.70664931249E+02  0.75184303684E+02  0.00000000000E+00 0.  1.
          5    1    4    4  501    0 -0.13941465294E+02  0.25350467696E+02 -0.60608864633E+02  0.67289802638E+02  0.41800000000E+01 0.  1.
         -5    1    4    4    0  501  0.70881533689E+02  0.30770339696E+02  0.32270378562E+02  0.83844232691E+02  0.41800000000E+01 0.  1.
</event>
<event>
11    1  0.5813833E-009  0.1303577E+03  0.7561462E-02  0.1118830E+00
         22   -1    0    0    0    0  0.00000000000E+00  0.00000000000E+00  0.50415935756E+03  0.50415935756E+03  0.00000000000E+00 0.  1.
         22   -1    0    0    0    0 -0.00000000000E+00 -0.00000000000E+00 -0.96627651461E+03  0.96627651461E+03  0.00000000000E+00 0. -1.
        -24    2    1    2    0    0  0.34401820761E+02  0.12253994318E+02 -0.92655158884E+03  0.93070564709E+03  0.79884348193E+02 0.  0.
         25    2    1    2    0    0 -0.41957274053E+02 -0.24234338858E+02  0.10312560964E+03  0.16920349512E+03  0.12508882992E+03 0.  0.
         24    2    1    2    0    0  0.75554532921E+01  0.11980344540E+02  0.36130882215E+03  0.37052672996E+03  0.80903517368E+02 0.  0.
        -13    1    5    5    0    0 -0.15757579211E+02  0.34501422730E+01  0.33080497345E+03  0.33119803025E+03  0.00000000000E+00 0.  1.
         14    1    5    5    0    0  0.23313032503E+02  0.85302022672E+01  0.30503848701E+02  0.39328699709E+02  0.00000000000E+00 0. -1.
         13    1    3    3    0    0  0.24601499649E+02  0.40007516761E+02 -0.76870067075E+03  0.77013411585E+03  0.00000000000E+00 0. -1.
        -14    1    3    3    0    0  0.98003211119E+01 -0.27753522442E+02 -0.15785091809E+03  0.16057153124E+03  0.00000000000E+00 0.  1.
          5    1    4    4  501    0 -0.74724169456E+02 -0.21934163400E+01  0.10556074817E+03  0.12941814606E+03  0.41800000000E+01 0. -1.
         -5    1    4    4    0  501  0.32766895403E+02 -0.22040922518E+02 -0.24351385258E+01  0.39785349055E+02  0.41800000000E+01 0. -1.
</event>
<event>
11    1  0.5813833E-009  0.1336855E+03  0.7561462E-02  0.1114822E+00
         22   -1    0    0    0    0  0.00000000000E+00  0.00000000000E+00  0.91064754012E+03  0.91064754012E+03  0.00000000000E+00 0. -1.
         22   -1    0    0    0    0 -0.00000000000E+00 -0.00000000000E+00 -0.40354877861E+03  0.40354877861E+03  0.00000000000E+00 0.  1.
         24    2    1    2    0    0 -0.24051445391E+01 -0.17459300350E+02 -0.34133476672E+03  0.35107228460E+03  0.80197968480E+02 0.  0.
         25    2    1    2    0    0  0.23754157130E+02  0.58743649909E+02  0.34404913321E+02  0.14438293051E+03  0.12509059188E+03 0.  0.
        -24    2    1    2    0    0 -0.21349012590E+02 -0.41284349558E+02  0.81402861492E+03  0.81874110361E+03  0.74392412143E+02 0.  0.
        -11    1    3    3    0    0  0.38771384350E+02 -0.62051564887E+01 -0.15262265541E+03  0.15759250984E+03  0.00000000000E+00 0.  1.
         12    1    3    3    0    0 -0.41176528890E+02 -0.11254143862E+02 -0.18871211131E+03  0.19347977476E+03  0.00000000000E+00 0. -1.
         11    1    5    5    0    0 -0.20602272670E+02  0.15316748721E+02  0.40517991815E+03  0.40599239218E+03  0.00000000000E+00 0. -1.
        -12    1    5    5    0    0 -0.74673992015E+00 -0.56601098279E+02  0.40884869677E+03  0.41274871144E+03  0.00000000000E+00 0.  1.
          5    1    4    4  501    0  0.78832536311E+01  0.81327107463E+02  0.63869439094E+02  0.10379316811E+03  0.41800000000E+01 0. -1.
         -5    1    4    4    0  501  0.15870903498E+02 -0.22583457555E+02 -0.29464525773E+02  0.40589762404E+02  0.41800000000E+01 0. -1.
</event>
<event>
11    1  0.5813833E-009  0.1423721E+03  0.7561462E-02  0.1104938E+00
         22   -1    0    0    0    0  0.00000000000E+00  0.00000000000E+00  0.46168476979E+03  0.46168476979E+03  0.00000000000E+00 0. -1.
         22   -1    0    0    0    0 -0.00000000000E+00 -0.00000000000E+00 -0.34332693048E+04  0.34332693048E+04  0.00000000000E+00 0. -1.
         24    2    1    2    0    0 -0.71780545834E+02 -0.10101456882E+01 -0.31533191261E+04  0.31551585229E+04  0.80313924626E+02 0.  0.
         25    2    1    2    0    0  0.84855085643E+01  0.16270157993E-02 -0.25877109215E+03  0.28754555379E+03  0.12509182032E+03 0.  0.
        -24    2    1    2    0    0  0.63295037270E+02  0.10085186724E+01  0.44050568318E+03  0.45224999797E+03  0.80483072145E+02 0.  0.
        -13    1    3    3    0    0  0.20428877965E+01 -0.28939796910E+01 -0.59607001078E+01  0.69338629044E+01  0.00000000000E+00 0.  1.
         14    1    3    3    0    0 -0.73823433630E+02  0.18838340029E+01 -0.31473584259E+04  0.31482246600E+04  0.00000000000E+00 0. -1.
         11    1    5    5    0    0  0.78445673337E+02 -0.66110691060E+01  0.28017284744E+03  0.29102277289E+03  0.00000000000E+00 0. -1.
        -12    1    5    5    0    0 -0.15150636067E+02  0.76195877783E+01  0.16033283574E+03  0.16122722508E+03  0.00000000000E+00 0.  1.
          5    1    4    4  501    0  0.50793276896E+02  0.80947098707E+01 -0.42110981673E+02  0.66605468868E+02  0.41800000000E+01 0. -1.
         -5    1    4    4    0  501 -0.42307768332E+02 -0.80930828549E+01 -0.21666011048E+03  0.22094008492E+03  0.41800000000E+01 0. -1.
</event>
<event>
11    1  0.6105613E-009  0.1542993E+03  0.7561462E-02  0.1092565E+00
         22   -1    0    0    0    0  0.00000000000E+00  0.00000000000E+00  0.70681085437E+03  0.70681085437E+03  0.00000000000E+00 0. -1.
         22   -1    0    0    0    0 -0.00000000000E+00 -0.00000000000E+00 -0.87386198834E+03  0.87386198834E+03  0.00000000000E+00 0. -1.
         24    2    1    2    0    0 -0.68842964687E+02 -0.75796008059E+02 -0.64836458581E+03  0.66101859716E+03  0.78003596276E+02 0.  0.
         25    2    1    2    0    0  0.33080322405E+02  0.37796634438E+02 -0.19476183274E+03  0.23686032222E+03  0.12509095670E+03 0.  0.
        -24    2    1    2    0    0  0.35762642282E+02  0.37999373621E+02  0.67607528457E+03  0.68279392332E+03  0.80042690721E+02 0.  0.
        -13    1    3    3    0    0  0.12917982516E+02  0.36321011565E+01 -0.10285018450E+03  0.10372187273E+03  0.00000000000E+00 0.  1.
         14    1    3    3    0    0 -0.81760947204E+02 -0.79428109215E+02 -0.54551440131E+03  0.55729672443E+03  0.00000000000E+00 0. -1.
         13    1    5    5    0    0  0.16901329005E+02  0.54072189910E+02  0.60249912074E+03  0.60515671287E+03  0.00000000000E+00 0. -1.
        -14    1    5    5    0    0  0.18861313277E+02 -0.16072816289E+02  0.73576163838E+02  0.77637210454E+02  0.00000000000E+00 0.  1.
          5    1    4    4  501    0 -0.24757096213E+02 -0.18268242677E+02 -0.12931125329E+03  0.13298689834E+03  0.41800000000E+01 0.  1.
         -5    1    4    4    0  501  0.57837418618E+02  0.56064877115E+02 -0.65450579445E+02  0.10387342388E+03  0.41800000000E+01 0.  1.
</event>
<event>
11    1  0.5813833E-009  0.2924130E+03  0.7561462E-02  0.1003454E+00
         22   -1    0    0    0    0  0.00000000000E+00  0.00000000000E+00  0.19988712469E+03  0.19988712469E+03  0.00000000000E+00 0. -1.
         22   -1    0    0    0    0 -0.00000000000E+00 -0.00000000000E+00 -0.13545967995E+04  0.13545967995E+04  0.00000000000E+00 0.  1.
         24    2    1    2    0    0  0.24943456158E+03 -0.82705773009E+02 -0.10396732502E+04  0.10752084939E+04  0.78070435120E+02 0.  0.
         25    2    1    2    0    0 -0.26368443332E+03  0.65738663389E+02 -0.20071669393E+03  0.36025788398E+03  0.12508996565E+03 0.  0.
        -24    2    1    2    0    0  0.14249871747E+02  0.16967109620E+02  0.85680269241E+02  0.11901754636E+03  0.79580940881E+02 0.  0.
        -11    1    3    3    0    0  0.23423255005E+03 -0.85185965732E+02 -0.10211022229E+04  0.10510810083E+04  0.00000000000E+00 0.  1.
         12    1    3    3    0    0  0.15202011529E+02  0.24801927231E+01 -0.18571027243E+02  0.24127485640E+02  0.00000000000E+00 0. -1.
         11    1    5    5    0    0  0.44805083945E+02  0.17773199003E+02  0.34040144441E+02  0.59009436396E+02  0.00000000000E+00 0. -1.
        -12    1    5    5    0    0 -0.30555212198E+02 -0.80608938372E+00  0.51640124800E+02  0.60008109968E+02  0.00000000000E+00 0.  1.
          5    1    4    4  501    0 -0.11824797788E+03  0.83753656737E+02 -0.59501850502E+02  0.15670099522E+03  0.41800000000E+01 0. -1.
         -5    1    4    4    0  501 -0.14543645545E+03 -0.18014993348E+02 -0.14121484343E+03  0.20355688876E+03  0.41800000000E+01 0. -1.
</event>
<event>
11    1  0.5813833E-009  0.2945892E+03  0.7561462E-02  0.1002508E+00
         22   -1    0    0    0    0  0.00000000000E+00  0.00000000000E+00  0.24356452357E+03  0.24356452357E+03  0.00000000000E+00 0. -1.
         22   -1    0    0    0    0 -0.00000000000E+00 -0.00000000000E+00 -0.49013805772E+03  0.49013805772E+03  0.00000000000E+00 0.  1.
        -24    2    1    2    0    0  0.27723079487E+03 -0.23001730085E+02 -0.18504085319E+03  0.34383155765E+03  0.81203629728E+02 0.  0.
         25    2    1    2    0    0 -0.25240538683E+03  0.27647762460E+01 -0.93782040894E+02  0.29691435532E+03  0.12508772885E+03 0.  0.
         24    2    1    2    0    0 -0.24825408037E+02  0.20236953839E+02  0.32249359929E+02  0.92956668323E+02  0.81086902673E+02 0.  0.
        -11    1    5    5    0    0 -0.39235095375E+02 -0.19516453619E+02  0.23689890540E+02  0.49814612161E+02  0.00000000000E+00 0.  1.
         12    1    5    5    0    0  0.14409687338E+02  0.39753407458E+02  0.85594693886E+01  0.43142056162E+02  0.00000000000E+00 0. -1.
         11    1    3    3    0    0  0.42832751321E+02  0.16342611370E+02 -0.59383556885E+01  0.46227584843E+02  0.00000000000E+00 0. -1.
        -12    1    3    3    0    0  0.23439804355E+03 -0.39344341455E+02 -0.17910249750E+03  0.29760397281E+03  0.00000000000E+00 0.  1.
          5    1    4    4  501    0 -0.50998411343E+01 -0.31338781465E+02 -0.99269494868E+01  0.33528261652E+02  0.41800000000E+01 0.  1.
         -5    1    4    4    0  501 -0.24730554570E+03  0.34103557711E+02 -0.83855091407E+02  0.26338609366E+03  0.41800000000E+01 0.  1.
</event>
<event>
11    1  0.5813833E-009  0.1272547E+03  0.7561462E-02  0.1122689E+00
         22   -1    0    0    0    0  0.00000000000E+00  0.00000000000E+00  0.64871981623E+03  0.64871981623E+03  0.00000000000E+00 0. -1.
         22   -1    0    0    0    0 -0.00000000000E+00 -0.00000000000E+00 -0.17514723826E+03  0.17514723826E+03  0.00000000000E+00 0. -1.
         24    2    1    2    0    0  0.22587370095E+02  0.26240391198E+02 -0.14069593250E+03  0.16393201900E+03  0.76678641175E+02 0.  0.
         25    2    1    2    0    0 -0.40000280500E+02 -0.16656292547E+02  0.24097266155E+03  0.27494117017E+03  0.12508944368E+03 0.  0.
        -24    2    1    2    0    0  0.17412910405E+02 -0.95840986518E+01  0.37329584892E+03  0.38499386533E+03  0.92062050375E+02 0.  0.
        -11    1    3    3    0    0 -0.23632688156E+02  0.11538119295E+02 -0.90031945750E+02  0.93794367645E+02  0.00000000000E+00 0.  1.
         12    1    3    3    0    0  0.46220058251E+02  0.14702271903E+02 -0.50663986750E+02  0.70137651352E+02  0.00000000000E+00 0. -1.
         13    1    5    5    0    0  0.41992518713E+01 -0.39576694190E+02  0.31972590052E+03  0.32219342002E+03  0.00000000000E+00 0. -1.
        -14    1    5    5    0    0  0.13213658534E+02  0.29992595538E+02  0.53569948403E+02  0.62800445308E+02  0.00000000000E+00 0.  1.
          5    1    4    4  501    0 -0.72156089882E+02 -0.48400921374E+02  0.16042506477E+03  0.18249061429E+03  0.41800000000E+01 0.  1.
         -5    1    4    4    0  501  0.32155809382E+02  0.31744628828E+02  0.80547596771E+02  0.92450555878E+02  0.41800000000E+01 0.  1.
</event>
<event>
11    1  0.7837653E-009  0.2035439E+03  0.7561462E-02  0.1052045E+00
         22   -1    0    0    0    0  0.00000000000E+00  0.00000000000E+00  0.66598028911E+03  0.66598028911E+03  0.00000000000E+00 0. -1.
         22   -1    0    0    0    0 -0.00000000000E+00 -0.00000000000E+00 -0.64043925395E+03  0.64043925395E+03  0.00000000000E+00 0.  1.
        -24    2    1    2    0    0 -0.38566970907E+00  0.15630844752E+02 -0.42240475215E+03  0.43035234439E+03  0.80826317759E+02 0.  0.
         25    2    1    2    0    0 -0.10129899199E+03 -0.13895934922E+03 -0.14459597091E+03  0.25714973198E+03  0.12508718296E+03 0.  0.
         24    2    1    2    0    0  0.10168466170E+03  0.12332850446E+03  0.59254175822E+03  0.61891746669E+03  0.80021277809E+02 0.  0.
        -11    1    5    5    0    0 -0.82013533092E+01  0.43153610145E+01  0.76731949940E+01  0.12031727150E+02  0.00000000000E+00 0.  1.
         12    1    5    5    0    0  0.10988601501E+03  0.11901314345E+03  0.58486856322E+03  0.60688573954E+03  0.00000000000E+00 0. -1.
         13    1    3    3    0    0  0.27096325360E+02  0.22808941234E+02 -0.89730538723E+02  0.96467757452E+02  0.00000000000E+00 0. -1.
        -14    1    3    3    0    0 -0.27481995070E+02 -0.71780964812E+01 -0.33267421342E+03  0.33388458694E+03  0.00000000000E+00 0.  1.
          5    1    4    4  501    0 -0.11275550980E+03 -0.12427716334E+03 -0.72983450772E+02  0.18303735904E+03  0.41800000000E+01 0. -1.
         -5    1    4    4    0  501  0.11456517810E+02 -0.14682185878E+02 -0.71612520138E+02  0.74112372941E+02  0.41800000000E+01 0. -1.
</event>
<event>
11    1  0.5813833E-009  0.1926381E+03  0.7561462E-02  0.1059855E+00
         22   -1    0    0    0    0  0.00000000000E+00  0.00000000000E+00  0.33732300480E+03  0.33732300480E+03  0.00000000000E+00 0. -1.
         22   -1    0    0    0    0 -0.00000000000E+00 -0.00000000000E+00 -0.15021206670E+04  0.15021206670E+04  0.00000000000E+00 0. -1.
        -24    2    1    2    0    0 -0.91440994001E+02  0.77910261368E+02 -0.12782694859E+04  0.12863876172E+04  0.79929711218E+02 0.  0.
         25    2    1    2    0    0  0.64650614099E+02 -0.21443199223E+03 -0.10937970847E+03  0.27887165116E+03  0.12507875919E+03 0.  0.
         24    2    1    2    0    0  0.26790379903E+02  0.13652173086E+03  0.22285153216E+03  0.27418440351E+03  0.78475310056E+02 0.  0.
        -13    1    5    5    0    0  0.12753105995E+02  0.20943766104E+02  0.20989530462E+01  0.24610742675E+02  0.00000000000E+00 0.  1.
         14    1    5    5    0    0  0.14037273908E+02  0.11557796476E+03  0.22075257911E+03  0.24957366083E+03  0.00000000000E+00 0. -1.
         13    1    3    3    0    0 -0.64709851742E+02  0.66269523694E+02 -0.56656292224E+03  0.57408410494E+03  0.00000000000E+00 0. -1.
        -14    1    3    3    0    0 -0.26731142259E+02  0.11640737675E+02 -0.71170656367E+03  0.71230351221E+03  0.00000000000E+00 0.  1.
          5    1    4    4  501    0  0.13717083900E+02 -0.17528867859E+03 -0.32931956984E+02  0.17893089567E+03  0.41800000000E+01 0.  1.
         -5    1    4    4    0  501  0.50933530198E+02 -0.39143313633E+02 -0.76447751486E+02  0.99940755490E+02  0.41800000000E+01 0.  1.
</event>
<event>
11    1  0.5813833E-009  0.1282031E+03  0.7561462E-02  0.1121497E+00
         22   -1    0    0    0    0  0.00000000000E+00  0.00000000000E+00  0.18404842420E+03  0.18404842420E+03  0.00000000000E+00 0. -1.
         22   -1    0    0    0    0 -0.00000000000E+00 -0.00000000000E+00 -0.83655945034E+03  0.83655945034E+03  0.00000000000E+00 0.  1.
        -24    2    1    2    0    0  0.58526126623E+01 -0.11655502092E+02 -0.62667696233E+03  0.63210966492E+03  0.81660942720E+02 0.  0.
         25    2    1    2    0    0  0.17596883059E+02 -0.49139300047E+01 -0.17538486335E+03  0.21619670936E+03  0.12508944737E+03 0.  0.
         24    2    1    2    0    0 -0.23449495721E+02  0.16569432097E+02  0.14955079954E+03  0.17230150026E+03  0.80609803501E+02 0.  0.
        -11    1    5    5    0    0  0.24098466650E+02  0.27714149501E+02  0.63022539075E+02  0.72942789973E+02  0.00000000000E+00 0.  1.
         12    1    5    5    0    0 -0.47547962371E+02 -0.11144717404E+02  0.86528260463E+02  0.99358710290E+02  0.00000000000E+00 0. -1.
         13    1    3    3    0    0 -0.23597594132E+02 -0.18015435116E+02 -0.93901499383E+02  0.98482962677E+02  0.00000000000E+00 0. -1.
        -14    1    3    3    0    0  0.29450206794E+02  0.63599330243E+01 -0.53277546295E+03  0.53362670225E+03  0.00000000000E+00 0.  1.
          5    1    4    4  501    0  0.23490809955E+02 -0.58324796101E+02 -0.52531106383E+02  0.82040170224E+02  0.41800000000E+01 0. -1.
         -5    1    4    4    0  501 -0.58939268956E+01  0.53410866096E+02 -0.12285375697E+03  0.13415653913E+03  0.41800000000E+01 0. -1.
</event>
<event>
11    1  0.5813833E-009  0.1927251E+03  0.7561462E-02  0.1059791E+00
         22   -1    0    0    0    0  0.00000000000E+00  0.00000000000E+00  0.25115143482E+04  0.25115143482E+04  0.00000000000E+00 0. -1.
         22   -1    0    0    0    0 -0.00000000000E+00 -0.00000000000E+00 -0.37927240383E+03  0.37927240383E+03  0.00000000000E+00 0.  1.
         24    2    1    2    0    0  0.67914930205E+02  0.80389188224E+02 -0.34887334763E+03  0.37324533039E+03  0.80775024868E+02 0.  0.
         25    2    1    2    0    0 -0.10058466965E+03 -0.20066032429E+03  0.11581649030E+04  0.11863287371E+04  0.12509231966E+03 0.  0.
        -24    2    1    2    0    0  0.32669739448E+02  0.12027113607E+03  0.13229503890E+04  0.13312126845E+04  0.79981383269E+02 0.  0.
        -13    1    3    3    0    0  0.84221573297E+02  0.63893793628E+02 -0.31438253176E+03  0.33168066954E+03  0.00000000000E+00 0.  1.
         14    1    3    3    0    0 -0.16306643092E+02  0.16495394596E+02 -0.34490815866E+02  0.41564660842E+02  0.00000000000E+00 0. -1.
         11    1    5    5    0    0  0.41285061852E+02  0.12003577929E+03  0.13064021756E+04  0.13125546423E+04  0.00000000000E+00 0. -1.
        -12    1    5    5    0    0 -0.86153224044E+01  0.23535678076E+00  0.16548213400E+02  0.18658042225E+02  0.00000000000E+00 0.  1.
          5    1    4    4  501    0 -0.59811680909E+02 -0.25890342362E+02  0.49529130930E+03  0.49957852282E+03  0.41800000000E+01 0.  1.
         -5    1    4    4    0  501 -0.40772988743E+02 -0.17476998193E+03  0.66287359372E+03  0.68675021430E+03  0.41800000000E+01 0.  1.
</event>
<event>
11    1  0.5813833E-009  0.1258901E+03  0.7561462E-02  0.1124424E+00
         22   -1    0    0    0    0  0.00000000000E+00  0.00000000000E+00  0.86238210089E+03  0.86238210089E+03  0.00000000000E+00 0.  1.
         22   -1    0    0    0    0 -0.00000000000E+00 -0.00000000000E+00 -0.13422059010E+03  0.13422059010E+03  0.00000000000E+00 0. -1.
         24    2    1    2    0    0 -0.56360882577E+01  0.12411557294E+02 -0.86336288753E+02  0.11805989189E+03  0.79362277387E+02 0.  0.
         25    2    1    2    0    0  0.15418831540E+02 -0.13282798348E+02  0.10511965773E+03  0.16465687356E+03  0.12509024930E+03 0.  0.
        -24    2    1    2    0    0 -0.97827432820E+01  0.87124105383E+00  0.70937814181E+03  0.71388592555E+03  0.79494059520E+02 0.  0.
        -13    1    3    3    0    0  0.70936148016E+01 -0.15918682402E+02  0.76810027145E+01  0.19045251982E+02  0.00000000000E+00 0.  1.
         14    1    3    3    0    0 -0.12729703059E+02  0.28330239696E+02 -0.94017291467E+02  0.99014639907E+02  0.00000000000E+00 0. -1.
         11    1    5    5    0    0  0.71028680973E+01 -0.35071576200E+01  0.51647348203E+01  0.94564991167E+01  0.00000000000E+00 0. -1.
        -12    1    5    5    0    0 -0.16885611379E+02  0.43783986738E+01  0.70421340699E+03  0.70442942643E+03  0.00000000000E+00 0.  1.
          5    1    4    4  501    0  0.59798833066E+02 -0.17103546027E+02  0.15111395764E+02  0.64142485177E+02  0.41800000000E+01 0.  1.
         -5    1    4    4    0  501 -0.44380001526E+02  0.38207476787E+01  0.90008261970E+02  0.10051438838E+03  0.41800000000E+01 0.  1.
</event>
<event>
11    1  0.5813833E-009  0.1390174E+03  0.7561462E-02  0.1108661E+00
         22   -1    0    0    0    0  0.00000000000E+00  0.00000000000E+00  0.58152221298E+03  0.58152221298E+03  0.00000000000E+00 0.  1.
         22   -1    0    0    0    0 -0.00000000000E+00 -0.00000000000E+00 -0.10541940256E+04  0.10541940256E+04  0.00000000000E+00 0.  1.
        -24    2    1    2    0    0 -0.12010713529E+02 -0.26047507967E+01 -0.91908961010E+03  0.92249010979E+03  0.78174479773E+02 0.  0.
         25    2    1    2    0    0  0.56236785518E+02  0.43550975390E+02 -0.88434297378E+02  0.16890149272E+03  0.12509126983E+03 0.  0.
         24    2    1    2    0    0 -0.44226071988E+02 -0.40946224594E+02  0.53485209484E+03  0.54432463609E+03  0.81178860283E+02 0.  0.
        -13    1    5    5    0    0  0.23822811474E+01 -0.23849630546E+02  0.39842846622E+03  0.39914874776E+03  0.00000000000E+00 0.  1.
         14    1    5    5    0    0 -0.46608353136E+02 -0.17096594047E+02  0.13642362861E+03  0.14517588833E+03  0.00000000000E+00 0. -1.
         13    1    3    3    0    0  0.31549576112E+02  0.92333198278E+00 -0.25172797606E+03  0.25369903868E+03  0.00000000000E+00 0. -1.
        -14    1    3    3    0    0 -0.43560289641E+02 -0.35280827795E+01 -0.66736163404E+03  0.66879107111E+03  0.00000000000E+00 0.  1.
          5    1    4    4  501    0  0.73313171365E+02  0.77624439163E+01 -0.10275430067E+03  0.12653456183E+03  0.41800000000E+01 0. -1.
         -5    1    4    4    0  501 -0.17076385847E+02  0.35788531474E+02  0.14320003293E+02  0.42366930889E+02  0.41800000000E+01 0. -1.
</event>
<event>
11    1  0.5813833E-009  0.1354397E+03  0.7561462E-02  0.1112760E+00
         22   -1    0    0    0    0  0.00000000000E+00  0.00000000000E+00  0.13187081235E+04  0.13187081235E+04  0.00000000000E+00 0.  1.
         22   -1    0    0    0    0 -0.00000000000E+00 -0.00000000000E+00 -0.10437632524E+04  0.10437632524E+04  0.00000000000E+00 0. -1.
        -24    2    1    2    0    0  0.69643164053E+01  0.14353337083E+02 -0.10200862477E+04  0.10233695913E+04  0.80342066097E+02 0.  0.
         25    2    1    2    0    0  0.39568973056E+02  0.11338279375E+02  0.19742724293E+03  0.23731715163E+03  0.12509058318E+03 0.  0.
         24    2    1    2    0    0 -0.46533289462E+02 -0.25691616458E+02  0.10976038759E+04  0.11017846329E+04  0.79810417499E+02 0.  0.
        -13    1    5    5    0    0 -0.49873297806E+02 -0.43298311396E+02  0.55986104002E+03  0.56374326935E+03  0.00000000000E+00 0.  1.
         14    1    5    5    0    0  0.33400083442E+01  0.17606694938E+02  0.53774283590E+03  0.53804136358E+03  0.00000000000E+00 0. -1.
         13    1    3    3    0    0  0.30458616374E+00 -0.15786853486E+02 -0.86994211858E+03  0.87008540225E+03  0.00000000000E+00 0. -1.
        -14    1    3    3    0    0  0.66597302415E+01  0.30140190568E+02 -0.15014412915E+03  0.15328418905E+03  0.00000000000E+00 0.  1.
          5    1    4    4  501    0 -0.19661641767E+02 -0.44968479814E+02  0.63429045392E+02  0.80308533376E+02  0.41800000000E+01 0.  1.
         -5    1    4    4    0  501  0.59230614824E+02  0.56306759189E+02  0.13399819754E+03  0.15700861826E+03  0.41800000000E+01 0.  1.
</event>
<event>
11    1  0.5813833E-009  0.1378089E+03  0.7561462E-02  0.1110030E+00
         22   -1    0    0    0    0  0.00000000000E+00  0.00000000000E+00  0.49997133041E+04  0.49997133041E+04  0.00000000000E+00 0. -1.
         22   -1    0    0    0    0 -0.00000000000E+00 -0.00000000000E+00 -0.36562383441E+03  0.36562383441E+03  0.00000000000E+00 0. -1.
         24    2    1    2    0    0  0.45358303893E+02  0.38971895719E+02 -0.32768002911E+03  0.34261015042E+03  0.80195569135E+02 0.  0.
         25    2    1    2    0    0 -0.83335395812E+01 -0.23907860581E+02  0.10534929483E+03  0.16549045626E+03  0.12509030143E+03 0.  0.
        -24    2    1    2    0    0 -0.37024764312E+02 -0.15064035138E+02  0.48564202040E+04  0.48572365318E+04  0.79572421485E+02 0.  0.
        -11    1    3    3    0    0 -0.21164343224E+02  0.11200074701E+02 -0.46084937726E+02  0.51934502815E+02  0.00000000000E+00 0.  1.
         12    1    3    3    0    0  0.66522647117E+02  0.27771821018E+02 -0.28159509138E+03  0.29067564761E+03  0.00000000000E+00 0. -1.
         11    1    5    5    0    0 -0.50787107971E+02  0.10968887293E+02  0.20369566619E+04  0.20376192209E+04  0.00000000000E+00 0. -1.
        -12    1    5    5    0    0  0.13762343660E+02 -0.26032922432E+02  0.28194635420E+04  0.28196173109E+04  0.00000000000E+00 0.  1.
          5    1    4    4  501    0 -0.48487909418E+02 -0.40502242313E+02  0.10407632467E+03  0.12182307971E+03  0.41800000000E+01 0.  1.
         -5    1    4    4    0  501  0.40154369837E+02  0.16594381733E+02  0.12729701582E+01  0.43667376554E+02  0.41800000000E+01 0.  1.
</event>
<event>
11    1  0.5813833E-009  0.1339626E+03  0.7561462E-02  0.1114494E+00
         22   -1    0    0    0    0  0.00000000000E+00  0.00000000000E+00  0.34923128118E+03  0.34923128118E+03  0.00000000000E+00 0.  1.
         22   -1    0    0    0    0 -0.00000000000E+00 -0.00000000000E+00 -0.18467991176E+03  0.18467991176E+03  0.00000000000E+00 0. -1.
        -24    2    1    2    0    0 -0.11667514764E+02  0.22984940804E+02 -0.11400500752E+03  0.14241290297E+03  0.81362490048E+02 0.  0.
         25    2    1    2    0    0 -0.21122509221E+02 -0.55895503560E+02  0.54584294292E+02  0.14898640821E+03  0.12508811667E+03 0.  0.
         24    2    1    2    0    0  0.32790023985E+02  0.32910562756E+02  0.22397208265E+03  0.24251188177E+03  0.80561952413E+02 0.  0.
        -11    1    5    5    0    0  0.22924265948E+02  0.55543150238E+02  0.10475371374E+03  0.12076383585E+03  0.00000000000E+00 0.  1.
         12    1    5    5    0    0  0.98657580371E+01 -0.22632587482E+02  0.11921836891E+03  0.12174804591E+03  0.00000000000E+00 0. -1.
         11    1    3    3    0    0  0.40648708395E+01  0.32490120349E+02 -0.11895336114E+03  0.12337760422E+03  0.00000000000E+00 0. -1.
        -12    1    3    3    0    0 -0.15732385603E+02 -0.95051795448E+01  0.49483536206E+01  0.19035298750E+02  0.00000000000E+00 0.  1.
          5    1    4    4  501    0  0.38928792288E+02 -0.21017481411E+02  0.64899509888E+02  0.78654969186E+02  0.41800000000E+01 0. -1.
         -5    1    4    4    0  501 -0.60051301509E+02 -0.34878022149E+02 -0.10315215597E+02  0.70331439021E+02  0.41800000000E+01 0. -1.
</event>
<event>
11    1  0.5813833E-009  0.1482235E+03  0.7561462E-02  0.1098708E+00
         22   -1    0    0    0    0  0.00000000000E+00  0.00000000000E+00  0.36770821243E+03  0.36770821243E+03  0.00000000000E+00 0.  1.
         22   -1    0    0    0    0 -0.00000000000E+00 -0.00000000000E+00 -0.34391143220E+03  0.34391143220E+03  0.00000000000E+00 0. -1.
         24    2    1    2    0    0 -0.28213087748E+02  0.72341802681E+02 -0.25025622071E+03  0.27359385967E+03  0.78715368966E+02 0.  0.
         25    2    1    2    0    0  0.52177310838E+02 -0.78583827897E+02  0.54410506351E+01  0.15676418982E+03  0.12509003319E+03 0.  0.
        -24    2    1    2    0    0 -0.23964223090E+02  0.62420252156E+01  0.26861195030E+03  0.28126159514E+03  0.79639551696E+02 0.  0.
        -11    1    3    3    0    0 -0.40992275300E+02  0.24159266134E+02 -0.58205233639E+02  0.75179026313E+02  0.00000000000E+00 0.  1.
         12    1    3    3    0    0  0.12779187552E+02  0.48182536547E+02 -0.19205098707E+03  0.19841483336E+03  0.00000000000E+00 0. -1.
         11    1    5    5    0    0  0.27800058263E+02  0.58139585402E+01  0.60914104781E+02  0.67209921251E+02  0.00000000000E+00 0. -1.
        -12    1    5    5    0    0 -0.51764281352E+02  0.42806667534E+00  0.20769784552E+03  0.21405167389E+03  0.00000000000E+00 0.  1.
          5    1    4    4  501    0  0.84222621620E+02 -0.45609875570E+02 -0.27861275582E+02  0.99837036310E+02  0.41800000000E+01 0.  1.
         -5    1    4    4    0  501 -0.32045310782E+02 -0.32973952327E+02  0.33302326217E+02  0.56927153509E+02  0.41800000000E+01 0.  1.
</event>
<event>
11    1  0.5813833E-009  0.2894566E+03  0.7561462E-02  0.1004755E+00
         22   -1    0    0    0    0  0.00000000000E+00  0.00000000000E+00  0.25063104554E+04  0.25063104554E+04  0.00000000000E+00 0. -1.
         22   -1    0    0    0    0 -0.00000000000E+00 -0.00000000000E+00 -0.35172588801E+03  0.35172588801E+03  0.00000000000E+00 0. -1.
         24    2    1    2    0    0  0.15133581555E+03  0.19937356947E+03 -0.21468125035E+03  0.33930881611E+03  0.79938001998E+02 0.  0.
         25    2    1    2    0    0 -0.33549507942E+03 -0.19956276995E+03  0.53847523613E+03  0.67674620925E+03  0.12509038469E+03 0.  0.
        -24    2    1    2    0    0  0.18415926388E+03  0.18920047623E+00  0.18307905816E+04  0.18419813180E+04  0.84772354658E+02 0.  0.
        -11    1    3    3    0    0 -0.89533081900E+01  0.61073875559E+01 -0.14980097860E+02  0.18489598217E+02  0.00000000000E+00 0.  1.
         12    1    3    3    0    0  0.16028912374E+03  0.19326618192E+03 -0.19970115249E+03  0.32081921789E+03  0.00000000000E+00 0. -1.
         11    1    5    5    0    0  0.15802154853E+03 -0.29234195429E+02  0.15755262163E+04  0.15837008260E+04  0.00000000000E+00 0. -1.
        -12    1    5    5    0    0  0.26137715341E+02  0.29423395905E+02  0.25526436525E+03  0.25828049202E+03  0.00000000000E+00 0.  1.
          5    1    4    4  501    0 -0.13548904454E+03 -0.13561664246E+03  0.19041389806E+03  0.27022967986E+03  0.41800000000E+01 0.  1.
         -5    1    4    4    0  501 -0.20000603489E+03 -0.63946127493E+02  0.34806133806E+03  0.40651652939E+03  0.41800000000E+01 0.  1.
</event>
<event>
11    1  0.5813833E-009  0.1513105E+03  0.7561462E-02  0.1095547E+00
         22   -1    0    0    0    0  0.00000000000E+00  0.00000000000E+00  0.11232772183E+04  0.11232772183E+04  0.00000000000E+00 0.  1.
         22   -1    0    0    0    0 -0.00000000000E+00 -0.00000000000E+00 -0.17887620179E+04  0.17887620179E+04  0.00000000000E+00 0.  1.
         24    2    1    2    0    0  0.28856387618E+02  0.79794419457E+02 -0.17538444915E+04  0.17576733939E+04  0.79027963826E+02 0.  0.
         25    2    1    2    0    0  0.65718566776E+01 -0.13886161870E+03  0.26682931266E+03  0.32583901934E+03  0.12508975170E+03 0.  0.
        -24    2    1    2    0    0 -0.35428244296E+02  0.59067199246E+02  0.82153037916E+03  0.82852682289E+03  0.82464767373E+02 0.  0.
        -13    1    3    3    0    0  0.16009299429E+02  0.47018722197E+02 -0.15511172680E+04  0.15519123161E+04  0.00000000000E+00 0.  1.
         14    1    3    3    0    0  0.12847088189E+02  0.32775697261E+02 -0.20272722345E+03  0.20576107779E+03  0.00000000000E+00 0. -1.
         11    1    5    5    0    0  0.51311282677E+01  0.54402208564E+02  0.26922045183E+03  0.27470999337E+03  0.00000000000E+00 0. -1.
        -12    1    5    5    0    0 -0.40559372564E+02  0.46649906821E+01  0.55230992733E+03  0.55381682952E+03  0.00000000000E+00 0.  1.
          5    1    4    4  501    0  0.44984607302E+02 -0.13028045971E+03  0.15627553965E+03  0.20841336275E+03  0.41800000000E+01 0.  1.
         -5    1    4    4    0  501 -0.38412750624E+02 -0.85811589884E+01  0.11055377301E+03  0.11742565660E+03  0.41800000000E+01 0.  1.
</event>
<event>
11    1  0.5813833E-009  0.1403193E+03  0.7561462E-02  0.1107202E+00
         22   -1    0    0    0    0  0.00000000000E+00  0.00000000000E+00  0.43282944686E+03  0.43282944686E+03  0.00000000000E+00 0.  1.
         22   -1    0    0    0    0 -0.00000000000E+00 -0.00000000000E+00 -0.23037530618E+04  0.23037530618E+04  0.00000000000E+00 0.  1.
         24    2    1    2    0    0  0.18804789315E+02 -0.41489659881E+02 -0.14826427357E+04  0.14854801574E+04  0.79666832257E+02 0.  0.
         25    2    1    2    0    0 -0.25960621701E+02  0.10434022486E+03 -0.80521178292E+03  0.82193302497E+03  0.12508815207E+03 0.  0.
        -24    2    1    2    0    0  0.71558323866E+01 -0.62850564983E+02  0.41693090369E+03  0.42916932632E+03  0.79709050584E+02 0.  0.
        -13    1    3    3    0    0 -0.30602287322E+02 -0.12134984781E+02 -0.66965810277E+03  0.67046680190E+03  0.00000000000E+00 0.  1.
         14    1    3    3    0    0  0.49407076636E+02 -0.29354675100E+02 -0.81298463295E+03  0.81501335547E+03  0.00000000000E+00 0. -1.
         13    1    5    5    0    0 -0.32951793155E+02 -0.14434626577E+02  0.10577380250E+03  0.11172410846E+03  0.00000000000E+00 0. -1.
        -14    1    5    5    0    0  0.40107625541E+02 -0.48415938407E+02  0.31115710120E+03  0.31744521786E+03  0.00000000000E+00 0.  1.
          5    1    4    4  501    0  0.41337357246E+02  0.56428327950E+02 -0.52841724628E+03  0.53304333020E+03  0.41800000000E+01 0. -1.
         -5    1    4    4    0  501 -0.67297978947E+02  0.47911896914E+02 -0.27679453664E+03  0.28888969478E+03  0.41800000000E+01 0. -1.
</event>
<event>
11    1  0.5813833E-009  0.1388254E+03  0.7561462E-02  0.1108877E+00
         22   -1    0    0    0    0  0.00000000000E+00  0.00000000000E+00  0.58012715780E+03  0.58012715780E+03  0.00000000000E+00 0.  1.
         22   -1    0    0    0    0 -0.00000000000E+00 -0.00000000000E+00 -0.66549019915E+03  0.66549019915E+03  0.00000000000E+00 0. -1.
         24    2    1    2    0    0  0.26783717431E+02 -0.97934292502E+01 -0.63719814187E+03  0.64282461130E+03  0.79929532146E+02 0.  0.
         25    2    1    2    0    0 -0.73769147432E+02 -0.17791703188E+02  0.28049461487E+03  0.31635862346E+03  0.12508844012E+03 0.  0.
        -24    2    1    2    0    0  0.46985430001E+02  0.27585132438E+02  0.27134048565E+03  0.28643412219E+03  0.73825991632E+02 0.  0.
        -11    1    3    3    0    0 -0.43830052375E+01  0.20729231293E+00  0.38230368892E+00  0.44045273442E+01  0.00000000000E+00 0.  1.
         12    1    3    3    0    0  0.31166722668E+02 -0.10000721563E+02 -0.63758044556E+03  0.63842008395E+03  0.00000000000E+00 0. -1.
         11    1    5    5    0    0 -0.19494381080E+01  0.19955220676E+02  0.14204197176E+02  0.24571739022E+02  0.00000000000E+00 0. -1.
        -12    1    5    5    0    0  0.48934868109E+02  0.76299117619E+01  0.25713628847E+03  0.26186238317E+03  0.00000000000E+00 0.  1.
          5    1    4    4  501    0 -0.34285781224E+02 -0.12130489882E+02  0.27314244264E+03  0.27558470558E+03  0.41800000000E+01 0.  1.
         -5    1    4    4    0  501 -0.39483366208E+02 -0.56612133057E+01  0.73521722370E+01  0.40773917887E+02  0.41800000000E+01 0.  1.
</event>
<event>
11    1  0.5813833E-009  0.1484387E+03  0.7561462E-02  0.1098485E+00
         22   -1    0    0    0    0  0.00000000000E+00  0.00000000000E+00  0.25143013182E+03  0.25143013182E+03  0.00000000000E+00 0.  1.
         22   -1    0    0    0    0 -0.00000000000E+00 -0.00000000000E+00 -0.42466583963E+04  0.42466583963E+04  0.00000000000E+00 0. -1.
        -24    2    1    2    0    0 -0.95307586634E+01 -0.31501117431E+02 -0.41331781224E+04  0.41340788338E+04  0.79770025242E+02 0.  0.
         25    2    1    2    0    0 -0.62045221821E+02 -0.11602215101E+02 -0.44653104801E+02  0.14705806171E+03  0.12509177751E+03 0.  0.
         24    2    1    2    0    0  0.71575980485E+02  0.43103332532E+02  0.18260296271E+03  0.21695163260E+03  0.82116689149E+02 0.  0.
        -11    1    5    5    0    0  0.21217380632E+02 -0.70012094346E+01  0.12062552195E+03  0.12267726244E+03  0.00000000000E+00 0.  1.
         12    1    5    5    0    0  0.50358599853E+02  0.50104541966E+02  0.61977440767E+02  0.94274370158E+02  0.00000000000E+00 0. -1.
         13    1    3    3    0    0 -0.44668654641E+02 -0.15338017536E+02 -0.20759178330E+04  0.20764550062E+04  0.00000000000E+00 0. -1.
        -14    1    3    3    0    0  0.35137895977E+02 -0.16163099895E+02 -0.20572602894E+04  0.20576238276E+04  0.00000000000E+00 0.  1.
          5    1    4    4  501    0 -0.81467816893E+02  0.22777223996E+02  0.33491612475E+01  0.84761408692E+02  0.41800000000E+01 0. -1.
         -5    1    4    4    0  501  0.19422595072E+02 -0.34379439097E+02 -0.48002266049E+02  0.62296653022E+02  0.41800000000E+01 0. -1.
</event>
<event>
11    1  0.5813833E-009  0.1297195E+03  0.7561462E-02  0.1119614E+00
         22   -1    0    0    0    0  0.00000000000E+00  0.00000000000E+00  0.68012434042E+03  0.68012434042E+03  0.00000000000E+00 0. -1.
         22   -1    0    0    0    0 -0.00000000000E+00 -0.00000000000E+00 -0.19653769489E+03  0.19653769489E+03  0.00000000000E+00 0. -1.
        -24    2    1    2    0    0  0.25855289158E+02  0.17354632012E+02 -0.14672307739E+03  0.16997627598E+03  0.79966203657E+02 0.  0.
         25    2    1    2    0    0 -0.74809202661E+01 -0.46180713340E+02  0.93710543266E+02  0.16314495986E+03  0.12508393004E+03 0.  0.
         24    2    1    2    0    0 -0.18374368892E+02  0.28826081329E+02  0.53659917965E+03  0.54354079947E+03  0.79557279297E+02 0.  0.
        -11    1    5    5    0    0  0.92191879458E+00  0.33387576233E+02  0.82440870872E+02  0.88949858747E+02  0.00000000000E+00 0.  1.
         12    1    5    5    0    0 -0.19296287687E+02 -0.45614949043E+01  0.45415830878E+03  0.45459094072E+03  0.00000000000E+00 0. -1.
         11    1    3    3    0    0  0.72039327447E+01  0.45684208477E+02 -0.11321852380E+03  0.12230035847E+03  0.00000000000E+00 0. -1.
        -12    1    3    3    0    0  0.18651356414E+02 -0.28329576465E+02 -0.33504553586E+02  0.47675917503E+02  0.00000000000E+00 0.  1.
          5    1    4    4  501    0 -0.25793493266E+02 -0.16568744611E+02  0.11701766859E+03  0.12103898032E+03  0.41800000000E+01 0.  1.
         -5    1    4    4    0  501  0.18312573000E+02 -0.29611968729E+02 -0.23307125328E+02  0.42105979539E+02  0.41800000000E+01 0.  1.
</event>
<event>
11    1  0.5813833E-009  0.1386002E+03  0.7561462E-02  0.1109132E+00
         22   -1    0    0    0    0  0.00000000000E+00  0.00000000000E+00  0.37278351778E+04  0.37278351778E+04  0.00000000000E+00 0. -1.
         22   -1    0    0    0    0 -0.00000000000E+00 -0.00000000000E+00 -0.12757057552E+03  0.12757057552E+03  0.00000000000E+00 0.  1.
        -24    2    1    2    0    0  0.68459091956E+01 -0.78271249181E+01 -0.89609478480E+02  0.12115797811E+03  0.80878097584E+02 0.  0.
         25    2    1    2    0    0 -0.43294885955E+02 -0.39531917304E+02  0.20074972871E+03  0.24368831512E+03  0.12508525778E+03 0.  0.
         24    2    1    2    0    0  0.36448976759E+02  0.47359042223E+02  0.34891243521E+04  0.34905594601E+04  0.80281962670E+02 0.  0.
        -13    1    5    5    0    0  0.10188319388E+02 -0.22658461440E+02  0.10228169755E+04  0.10231186506E+04  0.00000000000E+00 0.  1.
         14    1    5    5    0    0  0.26260657371E+02  0.70017503662E+02  0.24663073766E+04  0.24674408096E+04  0.00000000000E+00 0. -1.
         13    1    3    3    0    0  0.26977215346E+01 -0.47981042052E+01  0.15229248718E+02  0.16193502461E+02  0.00000000000E+00 0. -1.
        -14    1    3    3    0    0  0.41481876609E+01 -0.30290207129E+01 -0.10483872720E+03  0.10496447565E+03  0.00000000000E+00 0.  1.
          5    1    4    4  501    0 -0.41736950054E+02 -0.73484898385E+02  0.74044424157E+02  0.11243688202E+03  0.41800000000E+01 0. -1.
         -5    1    4    4    0  501 -0.15579359001E+01  0.33952981080E+02  0.12670530455E+03  0.13125143310E+03  0.41800000000E+01 0. -1.
</event>
<event>
11    1  0.5813833E-009  0.2247676E+03  0.7561462E-02  0.1038271E+00
         22   -1    0    0    0    0  0.00000000000E+00  0.00000000000E+00  0.14546304057E+03  0.14546304057E+03  0.00000000000E+00 0. -1.
         22   -1    0    0    0    0 -0.00000000000E+00 -0.00000000000E+00 -0.96062574559E+03  0.96062574559E+03  0.00000000000E+00 0.  1.
        -24    2    1    2    0    0 -0.12806056832E+03  0.14332403346E+03 -0.72789381131E+03  0.75705410585E+03  0.79751055863E+02 0.  0.
         25    2    1    2    0    0  0.11443734889E+03 -0.12079077323E+03 -0.14415720944E+03  0.25320908151E+03  0.12508884926E+03 0.  0.
         24    2    1    2    0    0  0.13623219428E+02 -0.22533260229E+02  0.56888315730E+02  0.95825598799E+02  0.72477065299E+02 0.  0.
        -11    1    5    5    0    0  0.50911410104E+01  0.13910289330E+02 -0.10899759722E+02  0.18390775624E+02  0.00000000000E+00 0.  1.
         12    1    5    5    0    0  0.85320784179E+01 -0.36443549559E+02  0.67788075452E+02  0.77434823175E+02  0.00000000000E+00 0. -1.
         13    1    3    3    0    0  0.79026348854E+01  0.29211545814E+02 -0.12175770354E+03  0.12546196403E+03  0.00000000000E+00 0. -1.
        -14    1    3    3    0    0 -0.13596320321E+03  0.11411248764E+03 -0.60613610777E+03  0.63159214182E+03  0.00000000000E+00 0.  1.
          5    1    4    4  501    0  0.80888981241E+02 -0.59438479065E+02 -0.88638627952E+01  0.10085633616E+03  0.41800000000E+01 0. -1.
         -5    1    4    4    0  501  0.33548367650E+02 -0.61352294164E+02 -0.13529334664E+03  0.15235274535E+03  0.41800000000E+01 0. -1.
</event>
<event>
11    1  0.5813833E-009  0.1371434E+03  0.7561462E-02  0.1110791E+00
         22   -1    0    0    0    0  0.00000000000E+00  0.00000000000E+00  0.63849598204E+03  0.63849598204E+03  0.00000000000E+00 0.  1.
         22   -1    0    0    0    0 -0.00000000000E+00 -0.00000000000E+00 -0.13053634266E+03  0.13053634266E+03  0.00000000000E+00 0. -1.
         24    2    1    2    0    0  0.29780487502E+02 -0.25295513265E+02 -0.86398420146E+02  0.12351460164E+03  0.79148148354E+02 0.  0.
         25    2    1    2    0    0 -0.77955903407E+02  0.17567612707E+02  0.27628090815E+03  0.31363094328E+03  0.12508990559E+03 0.  0.
        -24    2    1    2    0    0  0.48175415905E+02  0.77279005576E+01  0.31807715138E+03  0.33188677978E+03  0.81210647175E+02 0.  0.
        -11    1    3    3    0    0 -0.25553364310E+02 -0.18919557978E+02 -0.39450689120E+02  0.50668342914E+02  0.00000000000E+00 0.  1.
         12    1    3    3    0    0  0.55333851812E+02 -0.63759552869E+01 -0.46947731026E+02  0.72846258728E+02  0.00000000000E+00 0. -1.
         11    1    5    5    0    0 -0.16637367945E+02  0.18184300805E+02  0.48160997190E+02  0.54101316604E+02  0.00000000000E+00 0. -1.
        -12    1    5    5    0    0  0.64812783850E+02 -0.10456400247E+02  0.26991615419E+03  0.27778546317E+03  0.00000000000E+00 0.  1.
          5    1    4    4  501    0 -0.71321407297E+02  0.23670204866E+02  0.57728829330E+02  0.94853106818E+02  0.41800000000E+01 0. -1.
         -5    1    4    4    0  501 -0.66344961096E+01 -0.61025921587E+01  0.21855207882E+03  0.21877783646E+03  0.41800000000E+01 0. -1.
</event>
<event>
11    1  0.1074845E-008  0.1656187E+03  0.7561462E-02  0.1081909E+00
         22   -1    0    0    0    0  0.00000000000E+00  0.00000000000E+00  0.94090277665E+03  0.94090277665E+03  0.00000000000E+00 0. -1.
         22   -1    0    0    0    0 -0.00000000000E+00 -0.00000000000E+00 -0.15103048472E+04  0.15103048472E+04  0.00000000000E+00 0.  1.
        -24    2    1    2    0    0 -0.97631932820E+02  0.25465856778E+02 -0.11502871432E+04  0.11582981822E+04  0.91179289699E+02 0.  0.
         25    2    1    2    0    0  0.15314780770E+03 -0.11138912277E+03 -0.31468957580E+03  0.38799445587E+03  0.12509348902E+03 0.  0.
         24    2    1    2    0    0 -0.55515874885E+02  0.85923265993E+02  0.89557464841E+03  0.90491498583E+03  0.79701698228E+02 0.  0.
        -11    1    5    5    0    0  0.25513068806E+01  0.69974057655E+01  0.50103235493E+01  0.89764244727E+01  0.00000000000E+00 0.  1.
         12    1    5    5    0    0 -0.58067181765E+02  0.78925860228E+02  0.89056432486E+03  0.89593856136E+03  0.00000000000E+00 0. -1.
         13    1    3    3    0    0 -0.26530118176E+02 -0.32614831745E+02 -0.46327230262E+03  0.46517609654E+03  0.00000000000E+00 0. -1.
        -14    1    3    3    0    0 -0.71101814644E+02  0.58080688523E+02 -0.68701484058E+03  0.69312208564E+03  0.00000000000E+00 0.  1.
          5    1    4    4  501    0 -0.33297647804E+00 -0.61871952663E+02 -0.12062236742E+03  0.13562992782E+03  0.41800000000E+01 0. -1.
         -5    1    4    4    0  501  0.15348078418E+03 -0.49517170108E+02 -0.19406720838E+03  0.25236452805E+03  0.41800000000E+01 0. -1.
</event>
<event>
11    1  0.5813833E-009  0.2344744E+03  0.7561462E-02  0.1032511E+00
         22   -1    0    0    0    0  0.00000000000E+00  0.00000000000E+00  0.67991928864E+03  0.67991928864E+03  0.00000000000E+00 0. -1.
         22   -1    0    0    0    0 -0.00000000000E+00 -0.00000000000E+00 -0.83704795403E+03  0.83704795403E+03  0.00000000000E+00 0. -1.
        -24    2    1    2    0    0  0.72683864971E+02  0.75462071436E+02 -0.73575403455E+03  0.74790795759E+03  0.83993125980E+02 0.  0.
         25    2    1    2    0    0 -0.10257147617E+03  0.13687264281E+03  0.91528234420E+02  0.23082218329E+03  0.12508570872E+03 0.  0.
         24    2    1    2    0    0  0.29887611200E+02 -0.21233471425E+03  0.48709713474E+03  0.53823710180E+03  0.80350848774E+02 0.  0.
        -13    1    5    5    0    0 -0.28666867755E+01  0.67455949696E+01  0.12518312763E+02  0.14506174513E+02  0.00000000000E+00 0.  1.
         14    1    5    5    0    0  0.32754297975E+02 -0.21908030922E+03  0.47457882198E+03  0.52373092729E+03  0.00000000000E+00 0. -1.
         13    1    3    3    0    0  0.91879418354E+02  0.62378649956E+02 -0.60770757353E+03  0.61777133182E+03  0.00000000000E+00 0. -1.
        -14    1    3    3    0    0 -0.19195553383E+02  0.13083421481E+02 -0.12804646102E+03  0.13013662577E+03  0.00000000000E+00 0.  1.
          5    1    4    4  501    0  0.11296846692E+02  0.65417968798E+01  0.51290034897E+02  0.53090054919E+02  0.41800000000E+01 0. -1.
         -5    1    4    4    0  501 -0.11386832286E+03  0.13033084593E+03  0.40238199523E+02  0.17773212837E+03  0.41800000000E+01 0. -1.
</event>
<event>
11    1  0.5813833E-009  0.1616063E+03  0.7561462E-02  0.1085576E+00
         22   -1    0    0    0    0  0.00000000000E+00  0.00000000000E+00  0.62194376013E+03  0.62194376013E+03  0.00000000000E+00 0.  1.
         22   -1    0    0    0    0 -0.00000000000E+00 -0.00000000000E+00 -0.27880244053E+03  0.27880244053E+03  0.00000000000E+00 0.  1.
         24    2    1    2    0    0 -0.18358904844E+02  0.11125654770E+03 -0.18520261974E+03  0.23352401231E+03  0.86708622249E+02 0.  0.
         25    2    1    2    0    0 -0.30729931558E+02 -0.70153678386E+02  0.19349550323E+02  0.14795093156E+03  0.12509678559E+03 0.  0.
        -24    2    1    2    0    0  0.49088836402E+02 -0.41102869316E+02  0.50899438902E+03  0.51927125679E+03  0.80425060461E+02 0.  0.
        -13    1    3    3    0    0 -0.23077977488E+02  0.15814289520E+02 -0.10532460800E+03  0.10897686841E+03  0.00000000000E+00 0.  1.
         14    1    3    3    0    0  0.47190726443E+01  0.95442258183E+02 -0.79878011738E+02  0.12454714390E+03  0.00000000000E+00 0. -1.
         13    1    5    5    0    0  0.28510920896E+02 -0.19527500513E+02  0.59636926252E+02  0.68925748886E+02  0.00000000000E+00 0. -1.
        -14    1    5    5    0    0  0.20577915506E+02 -0.21575368803E+02  0.44935746277E+03  0.45034550791E+03  0.00000000000E+00 0.  1.
          5    1    4    4  501    0 -0.66425940973E+02 -0.43404091400E+01 -0.99621454202E+01  0.67438575956E+02  0.41800000000E+01 0.  1.
         -5    1    4    4    0  501  0.35696009414E+02 -0.65813269246E+02  0.29311695743E+02  0.80512355600E+02  0.41800000000E+01 0.  1.
</event>
<event>
11    1  0.5813833E-009  0.1874759E+03  0.7561462E-02  0.1063751E+00
         22   -1    0    0    0    0  0.00000000000E+00  0.00000000000E+00  0.21997845157E+04  0.21997845157E+04  0.00000000000E+00 0. -1.
         22   -1    0    0    0    0 -0.00000000000E+00 -0.00000000000E+00 -0.14980382231E+03  0.14980382231E+03  0.00000000000E+00 0.  1.
        -24    2    1    2    0    0  0.15783443736E+02 -0.30316165710E+02 -0.80930955631E+02  0.11871533110E+03  0.79845621418E+02 0.  0.
         25    2    1    2    0    0  0.85745124757E+02  0.12528873919E+03  0.16039247838E+03  0.25381610509E+03  0.12508946196E+03 0.  0.
         24    2    1    2    0    0 -0.10152856849E+03 -0.94972573480E+02  0.19705191707E+04  0.19770569018E+04  0.80500628695E+02 0.  0.
        -11    1    5    5    0    0 -0.31169046430E+02 -0.61468692428E+02  0.13349652727E+04  0.13367431275E+04  0.00000000000E+00 0.  1.
         12    1    5    5    0    0 -0.70359522063E+02 -0.33503881052E+02  0.63555389798E+03  0.64031377435E+03  0.00000000000E+00 0. -1.
         13    1    3    3    0    0  0.22566422720E+02  0.22836623612E+02 -0.21207458567E+02  0.38477410402E+02  0.00000000000E+00 0. -1.
        -14    1    3    3    0    0 -0.67829789841E+01 -0.53152789322E+02 -0.59723497063E+02  0.80237920699E+02  0.00000000000E+00 0.  1.
          5    1    4    4  501    0 -0.26092315511E+02  0.48954054056E+02  0.76089816183E+02  0.94257311992E+02  0.41800000000E+01 0. -1.
         -5    1    4    4    0  501  0.11183744027E+03  0.76334685135E+02  0.84302662196E+02  0.15955879309E+03  0.41800000000E+01 0. -1.
</event>
<event>
11    1  0.5813833E-009  0.1411918E+03  0.7561462E-02  0.1106235E+00
         22   -1    0    0    0    0  0.00000000000E+00  0.00000000000E+00  0.29952244491E+02  0.29952244491E+02  0.00000000000E+00 0.  1.
         22   -1    0    0    0    0 -0.00000000000E+00 -0.00000000000E+00 -0.33053356980E+04  0.33053356980E+04  0.00000000000E+00 0.  1.
        -24    2    1    2    0    0  0.45778585777E+02 -0.28105745510E+02 -0.27096338054E+04  0.27113591503E+04  0.80420584039E+02 0.  0.
         25    2    1    2    0    0  0.30228979990E+02 -0.17297433610E+01 -0.40214862064E+03  0.42224138022E+03  0.12508991505E+03 0.  0.
         24    2    1    2    0    0 -0.76007565767E+02  0.29835488871E+02 -0.16360102748E+03  0.20168741205E+03  0.85118796606E+02 0.  0.
        -11    1    5    5    0    0 -0.64039725807E+02 -0.19630712299E+02 -0.96559113260E+02  0.11751644013E+03  0.00000000000E+00 0.  1.
         12    1    5    5    0    0 -0.11967839960E+02  0.49466201170E+02 -0.67041914219E+02  0.84170971918E+02  0.00000000000E+00 0. -1.
         13    1    3    3    0    0  0.63527160521E+02 -0.40227239911E+02 -0.20808170747E+04  0.20821752158E+04  0.00000000000E+00 0. -1.
        -14    1    3    3    0    0 -0.17748574744E+02  0.12121494401E+02 -0.62881673071E+03  0.62918393444E+03  0.00000000000E+00 0.  1.
          5    1    4    4  501    0  0.35802954326E+02 -0.51319251221E+02 -0.31957098755E+03  0.32566640227E+03  0.41800000000E+01 0. -1.
         -5    1    4    4    0  501 -0.55739743351E+01  0.49589507860E+02 -0.82577633090E+02  0.96574977951E+02  0.41800000000E+01 0. -1.
</event>
<event>
11    1  0.5813833E-009  0.1384685E+03  0.7561462E-02  0.1109281E+00
         22   -1    0    0    0    0  0.00000000000E+00  0.00000000000E+00  0.83353771784E+03  0.83353771784E+03  0.00000000000E+00 0. -1.
         22   -1    0    0    0    0 -0.00000000000E+00 -0.00000000000E+00 -0.14681116526E+04  0.14681116526E+04  0.00000000000E+00 0. -1.
         24    2    1    2    0    0 -0.49324069221E+01 -0.54145502236E+02 -0.10893952409E+04  0.10937025400E+04  0.80294402769E+02 0.  0.
         25    2    1    2    0    0  0.16210732562E+01  0.11299175755E+03 -0.35439974354E+03  0.39244816578E+03  0.12508644789E+03 0.  0.
        -24    2    1    2    0    0  0.33113336660E+01 -0.58846255312E+02  0.80922104962E+03  0.81549866470E+03  0.82009257253E+02 0.  0.
        -11    1    3    3    0    0  0.68033202948E+01 -0.13714668894E+02 -0.32041958977E+02  0.35511469204E+02  0.00000000000E+00 0.  1.
         12    1    3    3    0    0 -0.11735727217E+02 -0.40430833342E+02 -0.10573532819E+04  0.10581910708E+04  0.00000000000E+00 0. -1.
         11    1    5    5    0    0 -0.29373337359E+02 -0.57452871326E+02  0.63182193328E+03  0.63510832206E+03  0.00000000000E+00 0. -1.
        -12    1    5    5    0    0  0.32684671025E+02 -0.13933839860E+01  0.17739911634E+03  0.18039034264E+03  0.00000000000E+00 0.  1.
          5    1    4    4  501    0  0.23731955557E+02  0.13477252973E+03 -0.27819580116E+03  0.31006002107E+03  0.41800000000E+01 0. -1.
         -5    1    4    4    0  501 -0.22110882301E+02 -0.21780772183E+02 -0.76203942383E+02  0.82388144704E+02  0.41800000000E+01 0. -1.
</event>
<event>
11    1  0.5813833E-009  0.2706141E+03  0.7561462E-02  0.1013457E+00
         22   -1    0    0    0    0  0.00000000000E+00  0.00000000000E+00  0.31458337053E+04  0.31458337053E+04  0.00000000000E+00 0.  1.
         22   -1    0    0    0    0 -0.00000000000E+00 -0.00000000000E+00 -0.65045456293E+03  0.65045456293E+03  0.00000000000E+00 0.  1.
         24    2    1    2    0    0  0.14293766897E+03 -0.19369690868E+03 -0.60560792976E+03  0.65681052974E+03  0.81788982968E+02 0.  0.
         25    2    1    2    0    0 -0.76894880487E+02  0.20821395174E+03  0.87702112831E+03  0.91327940971E+03  0.12508936148E+03 0.  0.
        -24    2    1    2    0    0 -0.66042788487E+02 -0.14517043057E+02  0.22239659438E+04  0.22261983288E+04  0.73226261368E+02 0.  0.
        -13    1    3    3    0    0  0.50611483180E+02 -0.13650404154E+03 -0.34025671973E+03  0.37009392174E+03  0.00000000000E+00 0.  1.
         14    1    3    3    0    0  0.92326185794E+02 -0.57192867141E+02 -0.26535121004E+03  0.28671660800E+03  0.00000000000E+00 0. -1.
         13    1    5    5    0    0 -0.21413760647E+02  0.22622739575E+02  0.36529675401E+03  0.36662249792E+03  0.00000000000E+00 0. -1.
        -14    1    5    5    0    0 -0.44629027841E+02 -0.37139782632E+02  0.18586691898E+04  0.18595758309E+04  0.00000000000E+00 0.  1.
          5    1    4    4  501    0 -0.45263057436E+02  0.92537931963E+02  0.63310486140E+03  0.64144465946E+03  0.41800000000E+01 0.  1.
         -5    1    4    4    0  501 -0.31631823051E+02  0.11567601978E+03  0.24391626690E+03  0.27183475025E+03  0.41800000000E+01 0.  1.
</event>
<event>
11    1  0.5813833E-009  0.1329271E+03  0.7561462E-02  0.1115724E+00
         22   -1    0    0    0    0  0.00000000000E+00  0.00000000000E+00  0.12358465583E+04  0.12358465583E+04  0.00000000000E+00 0.  1.
         22   -1    0    0    0    0 -0.00000000000E+00 -0.00000000000E+00 -0.42314779051E+03  0.42314779051E+03  0.00000000000E+00 0. -1.
         24    2    1    2    0    0 -0.48591909457E+01  0.23379409749E+02 -0.36883770679E+03  0.37830136796E+03  0.80625445855E+02 0.  0.
         25    2    1    2    0    0  0.11042112058E+02  0.22071276654E+02  0.37839246091E+02  0.13299926683E+03  0.12509167415E+03 0.  0.
        -24    2    1    2    0    0 -0.61829211127E+01 -0.45450686403E+02  0.11436972285E+04  0.11476937140E+04  0.83985220964E+02 0.  0.
        -13    1    3    3    0    0 -0.29617172750E+02  0.33920558285E+02 -0.12279164483E+03  0.13078826108E+03  0.00000000000E+00 0.  1.
         14    1    3    3    0    0  0.24757981805E+02 -0.10541148536E+02 -0.24604606196E+03  0.24751310689E+03  0.00000000000E+00 0. -1.
         11    1    5    5    0    0  0.31118874053E+02 -0.38321920063E+02  0.40116169651E+03  0.40418765521E+03  0.00000000000E+00 0. -1.
        -12    1    5    5    0    0 -0.37301795166E+02 -0.71287663398E+01  0.74253553200E+03  0.74350605882E+03  0.00000000000E+00 0.  1.
          5    1    4    4  501    0 -0.15164078103E+02  0.67941891879E+02  0.39174608633E+02  0.79988576049E+02  0.41800000000E+01 0. -1.
         -5    1    4    4    0  501  0.26206190162E+02 -0.45870615225E+02 -0.13353625415E+01  0.53010690781E+02  0.41800000000E+01 0. -1.
</event>
<event>
11    1  0.5813833E-009  0.1353330E+03  0.7561462E-02  0.1112885E+00
         22   -1    0    0    0    0  0.00000000000E+00  0.00000000000E+00  0.67224450902E+02  0.67224450902E+02  0.00000000000E+00 0.  1.
         22   -1    0    0    0    0 -0.00000000000E+00 -0.00000000000E+00 -0.28799364492E+04  0.28799364492E+04  0.00000000000E+00 0.  1.
         24    2    1    2    0    0  0.35447992097E+02 -0.35060238805E+02 -0.23070692846E+04  0.23089117400E+04  0.77581948811E+02 0.  0.
         25    2    1    2    0    0 -0.67677766685E+02  0.31143293894E+02 -0.53535950071E+03  0.55480386676E+03  0.12508937093E+03 0.  0.
        -24    2    1    2    0    0  0.32229774588E+02  0.39169449107E+01  0.29716786997E+02  0.83445293329E+02  0.70893784790E+02 0.  0.
        -11    1    3    3    0    0  0.45407817099E+02 -0.51052372465E+02 -0.20567191021E+04  0.20578536584E+04  0.00000000000E+00 0.  1.
         12    1    3    3    0    0 -0.99598250023E+01  0.15992133660E+02 -0.25035018247E+03  0.25105808156E+03  0.00000000000E+00 0. -1.
         11    1    5    5    0    0  0.52938420698E+02  0.96057823532E+01  0.30702840378E+02  0.61946846957E+02  0.00000000000E+00 0. -1.
        -12    1    5    5    0    0 -0.20708646110E+02 -0.56888374425E+01 -0.98605338122E+00  0.21498446372E+02  0.00000000000E+00 0.  1.
          5    1    4    4  501    0 -0.36575928916E+02  0.76257149346E+01 -0.30467061404E+02  0.48390746377E+02  0.41800000000E+01 0.  1.
         -5    1    4    4    0  501 -0.31101837769E+02  0.23517578960E+02 -0.50489243930E+03  0.50641312039E+03  0.41800000000E+01 0.  1.
</event>
<event>
11    1  0.5813833E-009  0.1300930E+03  0.7561462E-02  0.1119155E+00
         22   -1    0    0    0    0  0.00000000000E+00  0.00000000000E+00  0.41131682412E+04  0.41131682412E+04  0.00000000000E+00 0.  1.
         22   -1    0    0    0    0 -0.00000000000E+00 -0.00000000000E+00 -0.21890418447E+02  0.21890418447E+02  0.00000000000E+00 0. -1.
        -24    2    1    2    0    0 -0.86431375084E-01  0.46414950738E+01  0.72556731708E+02  0.10634299799E+03  0.77606719802E+02 0.  0.
         25    2    1    2    0    0  0.13766210788E+02 -0.37066872252E+02  0.98169792028E+03  0.99042469881E+03  0.12508723257E+03 0.  0.
         24    2    1    2    0    0 -0.13679779413E+02  0.32425377179E+02  0.30370231707E+04  0.30382909628E+04  0.80397100092E+02 0.  0.
        -11    1    5    5    0    0 -0.66148218659E+01  0.35900481435E+02  0.30079224699E+04  0.30081439769E+04  0.00000000000E+00 0.  1.
         12    1    5    5    0    0 -0.70649575472E+01 -0.34751042563E+01  0.29100700834E+02  0.30146985981E+02  0.00000000000E+00 0. -1.
         11    1    3    3    0    0 -0.17790392086E+01  0.28238549955E+02 -0.17623170315E+01  0.28349364109E+02  0.00000000000E+00 0. -1.
        -12    1    3    3    0    0  0.16926078335E+01 -0.23597054882E+02  0.74319048740E+02  0.77993633881E+02  0.00000000000E+00 0.  1.
          5    1    4    4  501    0  0.56093938322E+02  0.10375686115E+02  0.27650902582E+03  0.28236306157E+03  0.41800000000E+01 0.  1.
         -5    1    4    4    0  501 -0.42327727534E+02 -0.47442558367E+02  0.70518889446E+03  0.70806163724E+03  0.41800000000E+01 0.  1.
</event>
<event>
11    1  0.5813833E-009  0.1537602E+03  0.7561462E-02  0.1093097E+00
         22   -1    0    0    0    0  0.00000000000E+00  0.00000000000E+00  0.30691987673E+04  0.30691987673E+04  0.00000000000E+00 0. -1.
         22   -1    0    0    0    0 -0.00000000000E+00 -0.00000000000E+00 -0.29118023592E+03  0.29118023592E+03  0.00000000000E+00 0.  1.
        -24    2    1    2    0    0 -0.62515769147E+02 -0.16039566238E+02 -0.20546796936E+03  0.22970940437E+03  0.79898904520E+02 0.  0.
         25    2    1    2    0    0  0.73805899446E+02 -0.72790931126E+02  0.18945548085E+02  0.16356173985E+03  0.12509068112E+03 0.  0.
         24    2    1    2    0    0 -0.11290130299E+02  0.88830497364E+02  0.29645409526E+04  0.29671078590E+04  0.84897954271E+02 0.  0.
        -11    1    5    5    0    0 -0.49024953390E+01  0.59847996615E+02  0.76046726767E+03  0.76283437414E+03  0.00000000000E+00 0.  1.
         12    1    5    5    0    0 -0.63876349604E+01  0.28982500749E+02  0.22040736849E+04  0.22042734848E+04  0.00000000000E+00 0. -1.
         13    1    3    3    0    0  0.18911619375E+02 -0.74018605620E+01 -0.50666759545E+02  0.54585322295E+02  0.00000000000E+00 0. -1.
        -14    1    3    3    0    0 -0.81427388522E+02 -0.86377056761E+01 -0.15480120982E+03  0.17512408207E+03  0.00000000000E+00 0.  1.
          5    1    4    4  501    0  0.83362802248E+02 -0.79614417197E+02  0.53262000297E+02  0.12705166390E+03  0.41800000000E+01 0.  1.
         -5    1    4    4    0  501 -0.95569028018E+01  0.68234860711E+01 -0.34316452213E+02  0.36510075949E+02  0.41800000000E+01 0.  1.
</event>
<event>
11    1  0.5813833E-009  0.1902621E+03  0.7561462E-02  0.1061632E+00
         22   -1    0    0    0    0  0.00000000000E+00  0.00000000000E+00  0.14182872802E+04  0.14182872802E+04  0.00000000000E+00 0. -1.
         22   -1    0    0    0    0 -0.00000000000E+00 -0.00000000000E+00 -0.26697717492E+04  0.26697717492E+04  0.00000000000E+00 0.  1.
         24    2    1    2    0    0 -0.22207966352E+02 -0.26675918180E+01 -0.20667522693E+04  0.20686110323E+04  0.84772344551E+02 0.  0.
         25    2    1    2    0    0  0.16045935165E+03 -0.34592604781E+02 -0.57913649122E+03  0.61480915881E+03  0.12508946580E+03 0.  0.
        -24    2    1    2    0    0 -0.13825138529E+03  0.37260196599E+02  0.13944042915E+04  0.14046388384E+04  0.90250597160E+02 0.  0.
        -13    1    3    3    0    0 -0.53064589182E+02 -0.13858987988E+02 -0.13042578289E+04  0.13054104360E+04  0.00000000000E+00 0.  1.
         14    1    3    3    0    0  0.30856622830E+02  0.11191396170E+02 -0.76249444042E+03  0.76320059630E+03  0.00000000000E+00 0. -1.
         13    1    5    5    0    0 -0.44763745333E+02  0.56634294210E+02  0.69734717361E+03  0.70107368851E+03  0.00000000000E+00 0. -1.
        -14    1    5    5    0    0 -0.93487639961E+02 -0.19374097611E+02  0.69705711789E+03  0.70356514985E+03  0.00000000000E+00 0.  1.
          5    1    4    4  501    0  0.17069417253E+03 -0.67665359965E+01 -0.53374707248E+03  0.56043348965E+03  0.41800000000E+01 0.  1.
         -5    1    4    4    0  501 -0.10234820880E+02 -0.27826068784E+02 -0.45389418744E+02  0.54375669158E+02  0.41800000000E+01 0.  1.
</event>
<event>
11    1  0.5813833E-009  0.1742345E+03  0.7561462E-02  0.1074404E+00
         22   -1    0    0    0    0  0.00000000000E+00  0.00000000000E+00  0.11380254106E+04  0.11380254106E+04  0.00000000000E+00 0. -1.
         22   -1    0    0    0    0 -0.00000000000E+00 -0.00000000000E+00 -0.40832864621E+03  0.40832864621E+03  0.00000000000E+00 0.  1.
        -24    2    1    2    0    0 -0.32678782799E+02 -0.11359410822E+03 -0.30374956869E+03  0.33566706062E+03  0.80231233534E+02 0.  0.
         25    2    1    2    0    0 -0.77167736599E+01  0.14920271598E+03  0.23508884446E+02  0.19627051836E+03  0.12509376354E+03 0.  0.
         24    2    1    2    0    0  0.40395556459E+02 -0.35608607767E+02  0.10099374486E+04  0.10144164778E+04  0.78532581891E+02 0.  0.
        -11    1    5    5    0    0  0.41785053154E+02 -0.35293297513E+02  0.33183001513E+03  0.33630754743E+03  0.00000000000E+00 0.  1.
         12    1    5    5    0    0 -0.13894966953E+01 -0.31531025440E+00  0.67810743347E+03  0.67810893037E+03  0.00000000000E+00 0. -1.
         11    1    3    3    0    0  0.14090818130E+02  0.23043406984E+01 -0.13484242399E+02  0.19638888326E+02  0.00000000000E+00 0. -1.
        -12    1    3    3    0    0 -0.46769600929E+02 -0.11589844892E+03 -0.29026532629E+03  0.31602817229E+03  0.00000000000E+00 0.  1.
          5    1    4    4  501    0  0.33057321795E+02  0.61881156138E+02 -0.39914728147E+02  0.80825255535E+02  0.41800000000E+01 0. -1.
         -5    1    4    4    0  501 -0.40774095455E+02  0.87321559846E+02  0.63423612593E+02  0.11544526282E+03  0.41800000000E+01 0. -1.
</event>
<event>
11    1  0.5813833E-009  0.1796542E+03  0.7561462E-02  0.1069923E+00
         22   -1    0    0    0    0  0.00000000000E+00  0.00000000000E+00  0.40162418526E+03  0.40162418526E+03  0.00000000000E+00 0. -1.
         22   -1    0    0    0    0 -0.00000000000E+00 -0.00000000000E+00 -0.25782438743E+04  0.25782438743E+04  0.00000000000E+00 0. -1.
        -24    2    1    2    0    0  0.44012792815E+02 -0.36422090561E+02 -0.24004746372E+04  0.24024829603E+04  0.79888648619E+02 0.  0.
         25    2    1    2    0    0 -0.63080139843E+02  0.15983619728E+03 -0.89577065166E+02  0.23064630287E+03  0.12508777887E+03 0.  0.
         24    2    1    2    0    0  0.19067347028E+02 -0.12341410672E+03  0.31343201330E+03  0.34673879639E+03  0.79959743014E+02 0.  0.
        -11    1    5    5    0    0 -0.26432994706E+01  0.90428647265E+01  0.57085683766E+01  0.11015815334E+02  0.00000000000E+00 0.  1.
         12    1    5    5    0    0  0.21710646498E+02 -0.13245697145E+03  0.30772344492E+03  0.33572298106E+03  0.00000000000E+00 0. -1.
         13    1    3    3    0    0  0.61205476941E+02 -0.11089879587E+02 -0.11932168250E+04  0.11948370128E+04  0.00000000000E+00 0. -1.
        -14    1    3    3    0    0 -0.17192684126E+02 -0.25332210974E+02 -0.12072578122E+04  0.12076459475E+04  0.00000000000E+00 0.  1.
          5    1    4    4  501    0 -0.89404435896E+02  0.15113235755E+03 -0.98299261281E+02  0.20128179209E+03  0.41800000000E+01 0.  1.
         -5    1    4    4    0  501  0.26324296053E+02  0.87038397295E+01  0.87221961144E+01  0.29364510787E+02  0.41800000000E+01 0.  1.
</event>
<event>
11    1  0.5813833E-009  0.1448916E+03  0.7561462E-02  0.1102216E+00
         22   -1    0    0    0    0  0.00000000000E+00  0.00000000000E+00  0.78637949720E+03  0.78637949720E+03  0.00000000000E+00 0. -1.
         22   -1    0    0    0    0 -0.00000000000E+00 -0.00000000000E+00 -0.11512781788E+04  0.11512781788E+04  0.00000000000E+00 0. -1.
        -24    2    1    2    0    0  0.17586283174E+02 -0.91875199687E+01 -0.11239532606E+04  0.11270264745E+04  0.80771618236E+02 0.  0.
         25    2    1    2    0    0 -0.71320563183E+02 -0.37950691019E+02  0.25353079578E+03  0.29402511606E+03  0.12508407885E+03 0.  0.
         24    2    1    2    0    0  0.53734280009E+02  0.47138210988E+02  0.50552378326E+03  0.51660608541E+03  0.78855362867E+02 0.  0.
        -13    1    5    5    0    0  0.42658060771E+02  0.58017210287E+02  0.23857487718E+03  0.24920609716E+03  0.00000000000E+00 0.  1.
         14    1    5    5    0    0  0.11076219238E+02 -0.10878999299E+02  0.26694890608E+03  0.26739998825E+03  0.00000000000E+00 0. -1.
         11    1    3    3    0    0  0.24636695447E+02  0.25534019690E+02 -0.85676133496E+03  0.85749573644E+03  0.00000000000E+00 0. -1.
        -12    1    3    3    0    0 -0.70504122735E+01 -0.34721539658E+02 -0.26719192566E+03  0.26953073808E+03  0.00000000000E+00 0.  1.
          5    1    4    4  501    0  0.88350666809E+01  0.53359365062E+01  0.16998078579E+03  0.17034515127E+03  0.41800000000E+01 0.  1.
         -5    1    4    4    0  501 -0.80155629864E+02 -0.43286627525E+02  0.83550009993E+02  0.12367996479E+03  0.41800000000E+01 0.  1.
</event>
<event>
11    1  0.5813833E-009  0.1548261E+03  0.7561462E-02  0.1092047E+00
         22   -1    0    0    0    0  0.00000000000E+00  0.00000000000E+00  0.78697260888E+03  0.78697260888E+03  0.00000000000E+00 0. -1.
         22   -1    0    0    0    0 -0.00000000000E+00 -0.00000000000E+00 -0.28609296455E+03  0.28609296455E+03  0.00000000000E+00 0.  1.
        -24    2    1    2    0    0 -0.54646747476E+02  0.75872634544E+02 -0.20403954886E+03  0.24551078065E+03  0.99501167007E+02 0.  0.
         25    2    1    2    0    0  0.21660621907E+02 -0.82491495732E+02  0.39529341102E+02  0.15647514205E+03  0.12509145399E+03 0.  0.
         24    2    1    2    0    0  0.32986125570E+02  0.66188611883E+01  0.66538985208E+03  0.67107965074E+03  0.80450907871E+02 0.  0.
        -13    1    5    5    0    0 -0.19721029372E+02  0.11964229439E+02  0.78919137202E+02  0.82220994899E+02  0.00000000000E+00 0.  1.
         14    1    5    5    0    0  0.52707154942E+02 -0.53453682511E+01  0.58647071488E+03  0.58885865584E+03  0.00000000000E+00 0. -1.
         13    1    3    3    0    0 -0.25804669770E+02 -0.11992626341E+02 -0.10999019188E+03  0.11361138314E+03  0.00000000000E+00 0. -1.
        -14    1    3    3    0    0 -0.28842077706E+02  0.87865260885E+02 -0.94049356975E+02  0.13189939751E+03  0.00000000000E+00 0.  1.
          5    1    4    4  501    0  0.24263700785E-01 -0.79131550236E+02 -0.29023020642E+02  0.84389637744E+02  0.41800000000E+01 0.  1.
         -5    1    4    4    0  501  0.21636358206E+02 -0.33599454966E+01  0.68552361744E+02  0.72085504305E+02  0.41800000000E+01 0.  1.
</event>
<event>
11    1  0.5813833E-009  0.1476425E+03  0.7561462E-02  0.1099312E+00
         22   -1    0    0    0    0  0.00000000000E+00  0.00000000000E+00  0.29976035342E+03  0.29976035342E+03  0.00000000000E+00 0.  1.
         22   -1    0    0    0    0 -0.00000000000E+00 -0.00000000000E+00 -0.54978500771E+03  0.54978500771E+03  0.00000000000E+00 0. -1.
        -24    2    1    2    0    0  0.81281532443E+01  0.89504197365E+01 -0.49050469433E+03  0.49567210303E+03  0.70354826948E+02 0.  0.
         25    2    1    2    0    0 -0.76015884408E+02 -0.39583492782E+02  0.12142651805E+03  0.19424472779E+03  0.12506537253E+03 0.  0.
         24    2    1    2    0    0  0.67887731164E+02  0.30633073045E+02  0.11905352199E+03  0.15962853031E+03  0.75897281794E+02 0.  0.
        -11    1    5    5    0    0  0.27864555013E+02  0.29152860352E+02  0.11189878496E+03  0.11894393961E+03  0.00000000000E+00 0.  1.
         12    1    5    5    0    0  0.40023176151E+02  0.14802126928E+01  0.71547370277E+01  0.40684590704E+02  0.00000000000E+00 0. -1.
         13    1    3    3    0    0  0.34923737351E+02  0.55751240222E+01 -0.39005772305E+03  0.39165772908E+03  0.00000000000E+00 0. -1.
        -14    1    3    3    0    0 -0.26795584107E+02  0.33752957143E+01 -0.10044697128E+03  0.10401437395E+03  0.00000000000E+00 0.  1.
          5    1    4    4  501    0 -0.34534119492E+02 -0.75346040878E+02  0.31292457049E+02  0.88692285759E+02  0.41800000000E+01 0. -1.
         -5    1    4    4    0  501 -0.41481764916E+02  0.35762548097E+02  0.90134060999E+02  0.10555244203E+03  0.41800000000E+01 0. -1.
</event>
<event>
11    1  0.5813833E-009  0.3747767E+03  0.7561462E-02  0.9727259E-01
         22   -1    0    0    0    0  0.00000000000E+00  0.00000000000E+00  0.34205847688E+03  0.34205847688E+03  0.00000000000E+00 0. -1.
         22   -1    0    0    0    0 -0.00000000000E+00 -0.00000000000E+00 -0.40823377599E+03  0.40823377599E+03  0.00000000000E+00 0. -1.
         24    2    1    2    0    0  0.22213713137E+03  0.77720059767E+02 -0.16278086748E+03  0.29698182121E+03  0.79468726483E+02 0.  0.
         25    2    1    2    0    0 -0.16867924508E+02 -0.42275048581E+01 -0.89951666921E+02  0.15504840631E+03  0.12508519993E+03 0.  0.
        -24    2    1    2    0    0 -0.20526920686E+03 -0.73492554909E+02  0.18655723529E+03  0.29826202536E+03  0.81363571816E+02 0.  0.
        -13    1    3    3    0    0  0.94559910123E+02  0.74962134314E+02 -0.74495868197E+02  0.14181160940E+03  0.00000000000E+00 0.  1.
         14    1    3    3    0    0  0.12757722124E+03  0.27579254530E+01 -0.88284999282E+02  0.15517021180E+03  0.00000000000E+00 0. -1.
         13    1    5    5    0    0 -0.10765029428E+03 -0.14575117207E+02  0.47844975443E+02  0.11870198640E+03  0.00000000000E+00 0. -1.
        -14    1    5    5    0    0 -0.97618912584E+02 -0.58917437701E+02  0.13871225985E+03  0.17956003896E+03  0.00000000000E+00 0.  1.
          5    1    4    4  501    0 -0.60941056037E+02 -0.12847346613E+02 -0.99496385902E+01  0.63208657113E+02  0.41800000000E+01 0.  1.
         -5    1    4    4    0  501  0.44073131529E+02  0.86198417544E+01 -0.80002028330E+02  0.91839749192E+02  0.41800000000E+01 0.  1.
</event>
<event>
11    1  0.5813833E-009  0.1330280E+03  0.7561462E-02  0.1115603E+00
         22   -1    0    0    0    0  0.00000000000E+00  0.00000000000E+00  0.68652342133E+03  0.68652342133E+03  0.00000000000E+00 0. -1.
         22   -1    0    0    0    0 -0.00000000000E+00 -0.00000000000E+00 -0.55430362418E+02  0.55430362418E+02  0.00000000000E+00 0.  1.
        -24    2    1    2    0    0 -0.29801999734E+02 -0.13312625668E+02  0.21140754388E+02  0.89634545389E+02  0.80759117384E+02 0.  0.
         25    2    1    2    0    0  0.28661146160E+02  0.53322136583E+02  0.32644442045E+03  0.35479356438E+03  0.12509117529E+03 0.  0.
         24    2    1    2    0    0  0.11408535733E+01 -0.40009510915E+02  0.28350788408E+03  0.29752567398E+03  0.80887229101E+02 0.  0.
        -13    1    5    5    0    0  0.33229933580E+02 -0.38354741350E+01  0.18249286512E+03  0.18553324545E+03  0.00000000000E+00 0.  1.
         14    1    5    5    0    0 -0.32089080006E+02 -0.36174036780E+02  0.10101501895E+03  0.11199242852E+03  0.00000000000E+00 0. -1.
         13    1    3    3    0    0  0.23234938278E+02 -0.17963685159E+02 -0.58453516652E+01  0.29945358194E+02  0.00000000000E+00 0. -1.
        -14    1    3    3    0    0 -0.53036938012E+02  0.46510594904E+01  0.26986106054E+02  0.59689187195E+02  0.00000000000E+00 0.  1.
          5    1    4    4  501    0  0.32627383748E+02  0.12863972490E+02  0.11406542038E+02  0.37116163053E+02  0.41800000000E+01 0.  1.
         -5    1    4    4    0  501 -0.39662375879E+01  0.40458164093E+02  0.31503787841E+03  0.31767740133E+03  0.41800000000E+01 0.  1.
</event>
<event>
11    1  0.5813833E-009  0.1385666E+03  0.7561462E-02  0.1109170E+00
         22   -1    0    0    0    0  0.00000000000E+00  0.00000000000E+00  0.17905625587E+03  0.17905625587E+03  0.00000000000E+00 0. -1.
         22   -1    0    0    0    0 -0.00000000000E+00 -0.00000000000E+00 -0.22925735239E+04  0.22925735239E+04  0.00000000000E+00 0. -1.
        -24    2    1    2    0    0 -0.10123585160E+02  0.47660867062E+01 -0.21917216195E+04  0.21932014758E+04  0.79773765389E+02 0.  0.
         25    2    1    2    0    0  0.40063687261E+02 -0.53469991933E+02 -0.65205123421E+01  0.14196447366E+03  0.12508899083E+03 0.  0.
         24    2    1    2    0    0 -0.29940102101E+02  0.48703905227E+02  0.84724863840E+02  0.13646383024E+03  0.90418993094E+02 0.  0.
        -13    1    5    5    0    0 -0.29664432106E+02  0.66495061316E+01 -0.10663159436E+02  0.32216415585E+02  0.00000000000E+00 0.  1.
         14    1    5    5    0    0 -0.27566999506E+00  0.42054399095E+02  0.95388023276E+02  0.10424741465E+03  0.00000000000E+00 0. -1.
         13    1    3    3    0    0 -0.30581324673E+02 -0.19276616293E+02 -0.17411876163E+04  0.17415628385E+04  0.00000000000E+00 0. -1.
        -14    1    3    3    0    0  0.20457739513E+02  0.24042702999E+02 -0.45053400323E+03  0.45163863734E+03  0.00000000000E+00 0.  1.
          5    1    4    4  501    0  0.78643117155E+02 -0.40642249544E+01 -0.58213217912E+00  0.78861074544E+02  0.41800000000E+01 0. -1.
         -5    1    4    4    0  501 -0.38579429894E+02 -0.49405766979E+02 -0.59383801629E+01  0.63103399121E+02  0.41800000000E+01 0. -1.
</event>
<event>
11    1  0.5813833E-009  0.1453949E+03  0.7561462E-02  0.1101679E+00
         22   -1    0    0    0    0  0.00000000000E+00  0.00000000000E+00  0.46490053923E+03  0.46490053923E+03  0.00000000000E+00 0.  1.
         22   -1    0    0    0    0 -0.00000000000E+00 -0.00000000000E+00 -0.62461174808E+03  0.62461174808E+03  0.00000000000E+00 0.  1.
        -24    2    1    2    0    0  0.52703314584E+02  0.51661489688E+02 -0.54030762115E+03  0.55082135169E+03  0.77622723019E+02 0.  0.
         25    2    1    2    0    0 -0.20931746569E+02 -0.90082798621E+02  0.10169643290E+02  0.15589680162E+03  0.12508933804E+03 0.  0.
         24    2    1    2    0    0 -0.31771568015E+02  0.38421308933E+02  0.37042676901E+03  0.38279413400E+03  0.82642170289E+02 0.  0.
        -13    1    5    5    0    0 -0.50077752381E+02  0.17582091628E+02  0.32689990542E+03  0.33118040309E+03  0.00000000000E+00 0.  1.
         14    1    5    5    0    0  0.18306184366E+02  0.20839217304E+02  0.43526863586E+02  0.51613730901E+02  0.00000000000E+00 0. -1.
         13    1    3    3    0    0  0.33545161494E+02  0.47126992566E+02 -0.16228724468E+03  0.17228865625E+03  0.00000000000E+00 0. -1.
        -14    1    3    3    0    0  0.19158153091E+02  0.45344971222E+01 -0.37802037646E+03  0.37853269544E+03  0.00000000000E+00 0.  1.
          5    1    4    4  501    0 -0.54963909554E+02 -0.33767174771E+02  0.47418199397E+02  0.80169891353E+02  0.41800000000E+01 0.  1.
         -5    1    4    4    0  501  0.34032162985E+02 -0.56315623850E+02 -0.37248556107E+02  0.75726910270E+02  0.41800000000E+01 0.  1.
</event>
<event>
11    1  0.5813833E-009  0.1389007E+03  0.7561462E-02  0.1108792E+00
         22   -1    0    0    0    0  0.00000000000E+00  0.00000000000E+00  0.28123626781E+04  0.28123626781E+04  0.00000000000E+00 0. -1.
         22   -1    0    0    0    0 -0.00000000000E+00 -0.00000000000E+00 -0.23288192555E+03  0.23288192555E+03  0.00000000000E+00 0.  1.
        -24    2    1    2    0    0 -0.14538061822E+01  0.27494927901E+02 -0.21720636412E+03  0.23159489546E+03  0.75495075155E+02 0.  0.
         25    2    1    2    0    0 -0.38097714388E+02  0.22390181183E+02  0.60170803904E+03  0.61615938917E+03  0.12508825910E+03 0.  0.
         24    2    1    2    0    0  0.39551520570E+02 -0.49885109085E+02  0.21949790777E+04  0.21974903191E+04  0.83532652841E+02 0.  0.
        -13    1    5    5    0    0 -0.22429023643E+02 -0.29274156190E+02  0.10522019252E+04  0.10528480084E+04  0.00000000000E+00 0.  1.
         14    1    5    5    0    0  0.61980544214E+02 -0.20610952894E+02  0.11427771524E+04  0.11446423107E+04  0.00000000000E+00 0. -1.
         11    1    3    3    0    0 -0.13393966330E+01  0.44418866869E+02 -0.66750513441E+02  0.80190153771E+02  0.00000000000E+00 0. -1.
        -12    1    3    3    0    0 -0.11440954917E+00 -0.16923938968E+02 -0.15045585068E+03  0.15140474168E+03  0.00000000000E+00 0.  1.
          5    1    4    4  501    0  0.95874743124E+01 -0.97554880130E+00  0.50997171864E+03  0.51007989333E+03  0.41800000000E+01 0. -1.
         -5    1    4    4    0  501 -0.47685188701E+02  0.23365729985E+02  0.91736320398E+02  0.10607949585E+03  0.41800000000E+01 0. -1.
</event>
<event>
11    1  0.5813833E-009  0.2752640E+03  0.7561462E-02  0.1011240E+00
         22   -1    0    0    0    0  0.00000000000E+00  0.00000000000E+00  0.18661688516E+04  0.18661688516E+04  0.00000000000E+00 0. -1.
         22   -1    0    0    0    0 -0.00000000000E+00 -0.00000000000E+00 -0.74758334912E+03  0.74758334912E+03  0.00000000000E+00 0.  1.
         24    2    1    2    0    0  0.58199373053E+02 -0.61064666890E+01 -0.67960808855E+03  0.68696291720E+03  0.81402946039E+02 0.  0.
         25    2    1    2    0    0  0.36825579725E+02  0.23506817805E+03  0.28674037965E+03  0.39303977461E+03  0.12508815872E+03 0.  0.
        -24    2    1    2    0    0 -0.95024952778E+02 -0.22896171136E+03  0.15114532114E+04  0.15337495089E+04  0.80271657228E+02 0.  0.
        -13    1    3    3    0    0  0.10166422546E+02 -0.12647530195E+02 -0.51768220572E+03  0.51793646549E+03  0.00000000000E+00 0.  1.
         14    1    3    3    0    0  0.48032950507E+02  0.65410635062E+01 -0.16192588284E+03  0.16902645171E+03  0.00000000000E+00 0. -1.
         13    1    5    5    0    0 -0.58844500439E+02 -0.96898531830E+02  0.90242413468E+03  0.90951708041E+03  0.00000000000E+00 0. -1.
        -14    1    5    5    0    0 -0.36180452339E+02 -0.13206317953E+03  0.60902907671E+03  0.62423242851E+03  0.00000000000E+00 0.  1.
          5    1    4    4  501    0  0.55207919008E+02  0.55326075603E+02  0.42076794036E+02  0.88864041992E+02  0.41800000000E+01 0.  1.
         -5    1    4    4    0  501 -0.18382339284E+02  0.17974210245E+03  0.24466358561E+03  0.30417573262E+03  0.41800000000E+01 0.  1.
</event>
<event>
11    1  0.5813833E-009  0.1583305E+03  0.7561462E-02  0.1088658E+00
         22   -1    0    0    0    0  0.00000000000E+00  0.00000000000E+00  0.10249844447E+03  0.10249844447E+03  0.00000000000E+00 0.  1.
         22   -1    0    0    0    0 -0.00000000000E+00 -0.00000000000E+00 -0.60249885827E+03  0.60249885827E+03  0.00000000000E+00 0. -1.
         24    2    1    2    0    0 -0.16040193813E+01 -0.11510797963E+02 -0.32088200914E+03  0.33116092782E+03  0.81038416678E+02 0.  0.
         25    2    1    2    0    0  0.78796118236E+02  0.67511799825E+02 -0.18870974450E+03  0.24904981003E+03  0.12509104222E+03 0.  0.
        -24    2    1    2    0    0 -0.77192098855E+02 -0.56001001862E+02  0.95913398479E+01  0.12478656489E+03  0.79905948722E+02 0.  0.
        -13    1    3    3    0    0 -0.22372930853E+02  0.19538793879E+01 -0.22625476470E+02  0.31879113304E+02  0.00000000000E+00 0.  1.
         14    1    3    3    0    0  0.20768911471E+02 -0.13464677350E+02 -0.29825653267E+03  0.29928181452E+03  0.00000000000E+00 0. -1.
         11    1    5    5    0    0 -0.35325244998E+01 -0.19486482410E+02 -0.28073654328E+02  0.34355957175E+02  0.00000000000E+00 0. -1.
        -12    1    5    5    0    0 -0.73659574355E+02 -0.36514519452E+02  0.37664994176E+02  0.90430607713E+02  0.00000000000E+00 0.  1.
          5    1    4    4  501    0  0.31290682340E+02  0.55077402988E+02 -0.10743551096E+02  0.64385739193E+02  0.41800000000E+01 0. -1.
         -5    1    4    4    0  501  0.47505435896E+02  0.12434396836E+02 -0.17796619340E+03  0.18466407084E+03  0.41800000000E+01 0. -1.
</event>
<event>
11    1  0.5813833E-009  0.1721061E+03  0.7561462E-02  0.1076213E+00
         22   -1    0    0    0    0  0.00000000000E+00  0.00000000000E+00  0.70756257535E+03  0.70756257535E+03  0.00000000000E+00 0.  1.
         22   -1    0    0    0    0 -0.00000000000E+00 -0.00000000000E+00 -0.63580501681E+03  0.63580501681E+03  0.00000000000E+00 0. -1.
         24    2    1    2    0    0 -0.68158137195E+02 -0.92312768201E+02 -0.55429132813E+03  0.57164544857E+03  0.79827711965E+02 0.  0.
         25    2    1    2    0    0  0.10869512586E+03  0.18749714306E+03  0.17994406590E+03  0.30821647339E+03  0.12509084129E+03 0.  0.
        -24    2    1    2    0    0 -0.40536988666E+02 -0.95184374859E+02  0.44610482076E+03  0.46350567019E+03  0.71586887904E+02 0.  0.
        -13    1    3    3    0    0 -0.40976808407E+02 -0.39706760090E+02 -0.11495757983E+03  0.12833927998E+03  0.00000000000E+00 0.  1.
         14    1    3    3    0    0 -0.27181328789E+02 -0.52606008111E+02 -0.43933374830E+03  0.44330616860E+03  0.00000000000E+00 0. -1.
         11    1    5    5    0    0 -0.10216188792E+01 -0.64930911653E+02  0.15307719281E+03  0.16628197122E+03  0.00000000000E+00 0. -1.
        -12    1    5    5    0    0 -0.39515369787E+02 -0.30253463206E+02  0.29302762796E+03  0.29722369897E+03  0.00000000000E+00 0.  1.
          5    1    4    4  501    0  0.11107104839E+03  0.18353130472E+03  0.19623858569E+03  0.29077065278E+03  0.41800000000E+01 0. -1.
         -5    1    4    4    0  501 -0.23759225323E+01  0.39658383375E+01 -0.16294519790E+02  0.17445820611E+02  0.41800000000E+01 0. -1.
</event>
<event>
11    1  0.5813833E-009  0.1477270E+03  0.7561462E-02  0.1099224E+00
         22   -1    0    0    0    0  0.00000000000E+00  0.00000000000E+00  0.89973904709E+03  0.89973904709E+03  0.00000000000E+00 0. -1.
         22   -1    0    0    0    0 -0.00000000000E+00 -0.00000000000E+00 -0.76402125725E+03  0.76402125725E+03  0.00000000000E+00 0.  1.
        -24    2    1    2    0    0  0.15266487266E+02  0.77642828707E+02 -0.72064642569E+03  0.72954365829E+03  0.81493582547E+02 0.  0.
         25    2    1    2    0    0  0.91326960250E+01 -0.64843423633E+02  0.99792274081E+02  0.17289866538E+03  0.12508946718E+03 0.  0.
         24    2    1    2    0    0 -0.24399183291E+02 -0.12799405074E+02  0.75657194145E+03  0.76131798068E+03  0.80279637506E+02 0.  0.
        -13    1    5    5    0    0  0.24324702514E+02  0.13035555948E+02  0.33871099686E+03  0.33983342429E+03  0.00000000000E+00 0.  1.
         14    1    5    5    0    0 -0.48723885805E+02 -0.25834961022E+02  0.41786094459E+03  0.42148455638E+03  0.00000000000E+00 0. -1.
         13    1    3    3    0    0  0.23306635163E+02  0.14895731995E+02 -0.62292626180E+02  0.68157562682E+02  0.00000000000E+00 0. -1.
        -14    1    3    3    0    0 -0.80401478974E+01  0.62747096712E+02 -0.65835379951E+03  0.66138609560E+03  0.00000000000E+00 0.  1.
          5    1    4    4  501    0  0.38773038147E+02  0.24120849513E+02  0.44820546523E+02  0.64121117106E+02  0.41800000000E+01 0. -1.
         -5    1    4    4    0  501 -0.29640342122E+02 -0.88964273145E+02  0.54971727559E+02  0.10877754827E+03  0.41800000000E+01 0. -1.
</event>
<event>
11    1  0.5813833E-009  0.1392826E+03  0.7561462E-02  0.1108362E+00
         22   -1    0    0    0    0  0.00000000000E+00  0.00000000000E+00  0.66488222382E+03  0.66488222382E+03  0.00000000000E+00 0.  1.
         22   -1    0    0    0    0 -0.00000000000E+00 -0.00000000000E+00 -0.72769871533E+03  0.72769871533E+03  0.00000000000E+00 0. -1.
        -24    2    1    2    0    0  0.40654623145E+02  0.45801584923E+02 -0.68392888904E+03  0.69421536199E+03  0.10210612125E+03 0.  0.
         25    2    1    2    0    0 -0.21285775435E+02 -0.63150512826E+02  0.10834824424E+03  0.17840453128E+03  0.12509101985E+03 0.  0.
         24    2    1    2    0    0 -0.19368847710E+02  0.17348927902E+02  0.51276415330E+03  0.51996104587E+03  0.82196561685E+02 0.  0.
        -13    1    5    5    0    0  0.27652305552E+02  0.18897273682E+02  0.31031642370E+03  0.31211863092E+03  0.00000000000E+00 0.  1.
         14    1    5    5    0    0 -0.47021153262E+02 -0.15483457801E+01  0.20244772960E+03  0.20784241495E+03  0.00000000000E+00 0. -1.
         13    1    3    3    0    0  0.14167695513E+02  0.64693471872E+02 -0.60818219775E+03  0.61177737336E+03  0.00000000000E+00 0. -1.
        -14    1    3    3    0    0  0.26486927632E+02 -0.18891886948E+02 -0.75746691294E+02  0.82437988633E+02  0.00000000000E+00 0.  1.
          5    1    4    4  501    0 -0.47707950283E+02 -0.74925802174E+02  0.28506221620E+02  0.93380947857E+02  0.41800000000E+01 0. -1.
         -5    1    4    4    0  501  0.26422174847E+02  0.11775289348E+02  0.79842022617E+02  0.85023583425E+02  0.41800000000E+01 0. -1.
</event>
<event>
11    1  0.5813833E-009  0.1291748E+03  0.7561462E-02  0.1120287E+00
         22   -1    0    0    0    0  0.00000000000E+00  0.00000000000E+00  0.21152974467E+03  0.21152974467E+03  0.00000000000E+00 0. -1.
         22   -1    0    0    0    0 -0.00000000000E+00 -0.00000000000E+00 -0.47149321634E+03  0.47149321634E+03  0.00000000000E+00 0. -1.
        -24    2    1    2    0    0 -0.31880999531E+02 -0.11456060061E+01 -0.40802493026E+03  0.41702587796E+03  0.80053286165E+02 0.  0.
         25    2    1    2    0    0  0.39047294499E+02 -0.12843821380E+01  0.58407009237E+02  0.14348093206E+03  0.12509619616E+03 0.  0.
         24    2    1    2    0    0 -0.71662949677E+01  0.24299881441E+01  0.89654449352E+02  0.12251615100E+03  0.83156637379E+02 0.  0.
        -11    1    5    5    0    0 -0.41980437519E+01 -0.38376953734E+02  0.24967927674E+02  0.45976206472E+02  0.00000000000E+00 0.  1.
         12    1    5    5    0    0 -0.29682512158E+01  0.40806941878E+02  0.64686521678E+02  0.76539944523E+02  0.00000000000E+00 0. -1.
         13    1    3    3    0    0 -0.52883991519E+02 -0.15380096418E+02 -0.33982970461E+03  0.34426369553E+03  0.00000000000E+00 0. -1.
        -14    1    3    3    0    0  0.21002991988E+02  0.14234490412E+02 -0.68195225655E+02  0.72762182429E+02  0.00000000000E+00 0.  1.
          5    1    4    4  501    0  0.51566571207E+02 -0.52408443179E+02  0.52308803332E+02  0.90329615788E+02  0.41800000000E+01 0.  1.
         -5    1    4    4    0  501 -0.12519276708E+02  0.51124061041E+02  0.60982059050E+01  0.53151316276E+02  0.41800000000E+01 0.  1.
</event>
<event>
11    1  0.5813833E-009  0.1410168E+03  0.7561462E-02  0.1106428E+00
         22   -1    0    0    0    0  0.00000000000E+00  0.00000000000E+00  0.14540363095E+03  0.14540363095E+03  0.00000000000E+00 0.  1.
         22   -1    0    0    0    0 -0.00000000000E+00 -0.00000000000E+00 -0.96654061787E+03  0.96654061787E+03  0.00000000000E+00 0. -1.
         24    2    1    2    0    0 -0.22354786482E+02 -0.19934067693E+02 -0.83373713946E+03  0.83842533966E+03  0.83320639273E+02 0.  0.
         25    2    1    2    0    0 -0.39044215427E+02 -0.17515140940E+02 -0.56611333024E+02  0.14381875038E+03  0.12509100293E+03 0.  0.
        -24    2    1    2    0    0  0.61399001908E+02  0.37449208633E+02  0.69211485572E+02  0.12970015878E+03  0.82822827708E+02 0.  0.
        -13    1    3    3    0    0 -0.17952237620E+02  0.30439064217E+02 -0.44734555840E+03  0.44873919829E+03  0.00000000000E+00 0.  1.
         14    1    3    3    0    0 -0.44025488620E+01 -0.50373131911E+02 -0.38639158106E+03  0.38968614137E+03  0.00000000000E+00 0. -1.
         13    1    5    5    0    0  0.42802913041E+02  0.14967298048E+02 -0.89955906853E+01  0.46228022102E+02  0.00000000000E+00 0. -1.
        -14    1    5    5    0    0  0.18596088867E+02  0.22481910585E+02  0.78207076257E+02  0.83472136677E+02  0.00000000000E+00 0.  1.
          5    1    4    4  501    0 -0.19445272563E+02  0.15283811745E+02 -0.89675552699E+02  0.93117617444E+02  0.41800000000E+01 0. -1.
         -5    1    4    4    0  501 -0.19598942863E+02 -0.32798952685E+02  0.33064219675E+02  0.50701132939E+02  0.41800000000E+01 0. -1.
</event>
<event>
11    1  0.5813833E-009  0.1365392E+03  0.7561462E-02  0.1111486E+00
         22   -1    0    0    0    0  0.00000000000E+00  0.00000000000E+00  0.58375795291E+03  0.58375795291E+03  0.00000000000E+00 0. -1.
         22   -1    0    0    0    0 -0.00000000000E+00 -0.00000000000E+00 -0.77088316160E+03  0.77088316160E+03  0.00000000000E+00 0.  1.
         24    2    1    2    0    0  0.48028052024E+02  0.33158632477E+02 -0.63861302462E+03  0.64594731669E+03  0.77557411231E+02 0.  0.
         25    2    1    2    0    0 -0.18810540325E+02 -0.13575566169E+02 -0.92696539497E+02  0.15739350371E+03  0.12506771826E+03 0.  0.
        -24    2    1    2    0    0 -0.29217511699E+02 -0.19583066308E+02  0.54418435543E+03  0.55130029411E+03  0.80982974272E+02 0.  0.
        -13    1    3    3    0    0  0.53392561081E+02  0.43454362189E+02 -0.32940730872E+03  0.33652373202E+03  0.00000000000E+00 0.  1.
         14    1    3    3    0    0 -0.53645090570E+01 -0.10295729711E+02 -0.30920571590E+03  0.30942358467E+03  0.00000000000E+00 0. -1.
         13    1    5    5    0    0 -0.51843009536E+02 -0.13593065091E+02  0.22648730847E+03  0.23274228226E+03  0.00000000000E+00 0. -1.
        -14    1    5    5    0    0  0.22625497836E+02 -0.59900012167E+01  0.31769704696E+03  0.31855801185E+03  0.00000000000E+00 0.  1.
          5    1    4    4  501    0 -0.86749611698E+01  0.34645117902E+02  0.14941636603E+02  0.38939235356E+02  0.41800000000E+01 0.  1.
         -5    1    4    4    0  501 -0.10135579155E+02 -0.48220684071E+02 -0.10763817610E+03  0.11845426835E+03  0.41800000000E+01 0.  1.
</event>
<event>
11    1  0.5813833E-009  0.2141571E+03  0.7561462E-02  0.1044941E+00
         22   -1    0    0    0    0  0.00000000000E+00  0.00000000000E+00  0.25380253616E+03  0.25380253616E+03  0.00000000000E+00 0.  1.
         22   -1    0    0    0    0 -0.00000000000E+00 -0.00000000000E+00 -0.37554926867E+04  0.37554926867E+04  0.00000000000E+00 0. -1.
         24    2    1    2    0    0  0.11396404541E+03 -0.13659698145E+03 -0.32831795505E+04  0.32889831035E+04  0.80593770273E+02 0.  0.
         25    2    1    2    0    0 -0.10706503127E+03  0.10014760804E+03 -0.44072983125E+03  0.48102165828E+03  0.12508631928E+03 0.  0.
        -24    2    1    2    0    0 -0.68990141385E+01  0.36449373410E+02  0.22221923119E+03  0.23929046103E+03  0.80637366095E+02 0.  0.
        -13    1    3    3    0    0  0.24307585487E+02 -0.72479131850E+02 -0.18463429229E+04  0.18479248557E+04  0.00000000000E+00 0.  1.
         14    1    3    3    0    0  0.89656459926E+02 -0.64117849598E+02 -0.14368366276E+04  0.14410582479E+04  0.00000000000E+00 0. -1.
         11    1    5    5    0    0  0.10418958193E+02 -0.21072073794E+02  0.31304858317E+02  0.39148194570E+02  0.00000000000E+00 0. -1.
        -12    1    5    5    0    0 -0.17317972331E+02  0.57521447204E+02  0.19091437287E+03  0.20014226646E+03  0.00000000000E+00 0.  1.
          5    1    4    4  501    0 -0.74336468229E+02  0.74395729648E+02 -0.42242401940E+03  0.43533913179E+03  0.41800000000E+01 0. -1.
         -5    1    4    4    0  501 -0.32728563046E+02  0.25751878389E+02 -0.18305811841E+02  0.45682526493E+02  0.41800000000E+01 0. -1.
</event>
<event>
11    1  0.5813833E-009  0.1673798E+03  0.7561462E-02  0.1080335E+00
         22   -1    0    0    0    0  0.00000000000E+00  0.00000000000E+00  0.42696841994E+03  0.42696841994E+03  0.00000000000E+00 0. -1.
         22   -1    0    0    0    0 -0.00000000000E+00 -0.00000000000E+00 -0.18875218778E+03  0.18875218778E+03  0.00000000000E+00 0. -1.
        -24    2    1    2    0    0  0.13251834567E+02 -0.45250113868E+02 -0.98229551376E+02  0.13618155081E+03  0.81689571499E+02 0.  0.
         25    2    1    2    0    0 -0.10885738051E+03  0.85162991011E+02  0.10673812825E+03  0.21480341493E+03  0.12507923374E+03 0.  0.
         24    2    1    2    0    0  0.95605545947E+02 -0.39912877143E+02  0.22970765529E+03  0.26473564199E+03  0.81153527731E+02 0.  0.
        -13    1    5    5    0    0 -0.82187612281E+01  0.12476271604E+02  0.32973247800E+02  0.36200006350E+02  0.00000000000E+00 0.  1.
         14    1    5    5    0    0  0.10382430717E+03 -0.52389148747E+02  0.19673440749E+03  0.22853563564E+03  0.00000000000E+00 0. -1.
         11    1    3    3    0    0 -0.29377151862E+01 -0.36237372997E+02 -0.10889383723E+03  0.11480263568E+03  0.00000000000E+00 0. -1.
        -12    1    3    3    0    0  0.16189549753E+02 -0.90127408710E+01  0.10664285853E+02  0.21378915126E+02  0.00000000000E+00 0.  1.
          5    1    4    4  501    0  0.21616879247E+02  0.40973979381E+02  0.13589227299E+02  0.48459219487E+02  0.41800000000E+01 0.  1.
         -5    1    4    4    0  501 -0.13047425976E+03  0.44189011630E+02  0.93148900950E+02  0.16634419544E+03  0.41800000000E+01 0.  1.
</event>
<event>
11    1  0.5813833E-009  0.1963080E+03  0.7561462E-02  0.1057166E+00
         22   -1    0    0    0    0  0.00000000000E+00  0.00000000000E+00  0.23309242872E+03  0.23309242872E+03  0.00000000000E+00 0. -1.
         22   -1    0    0    0    0 -0.00000000000E+00 -0.00000000000E+00 -0.10940384271E+04  0.10940384271E+04  0.00000000000E+00 0.  1.
        -24    2    1    2    0    0  0.12248175848E+03 -0.96720912374E+02 -0.84480183498E+03  0.86268983745E+03  0.78656844578E+02 0.  0.
         25    2    1    2    0    0 -0.80674515862E+02  0.10878677924E+03 -0.19212017078E+03  0.26626775277E+03  0.12508163454E+03 0.  0.
         24    2    1    2    0    0 -0.41807242620E+02 -0.12065866870E+02  0.17597600735E+03  0.19817326563E+03  0.80072825389E+02 0.  0.
        -11    1    5    5    0    0 -0.34263002171E+02 -0.31011786956E+02  0.41352006556E+02  0.62013488002E+02  0.00000000000E+00 0.  1.
         12    1    5    5    0    0 -0.75442404490E+01  0.18945920086E+02  0.13462400080E+03  0.13615977762E+03  0.00000000000E+00 0. -1.
         13    1    3    3    0    0  0.25504863423E+02 -0.40746936197E+02 -0.11967242272E+03  0.12896627322E+03  0.00000000000E+00 0. -1.
        -14    1    3    3    0    0  0.96976895059E+02 -0.55973976177E+02 -0.72512941226E+03  0.73372356423E+03  0.00000000000E+00 0.  1.
          5    1    4    4  501    0 -0.67023753409E+02  0.45265983827E+02 -0.21711153842E+02  0.83845330306E+02  0.41800000000E+01 0. -1.
         -5    1    4    4    0  501 -0.13650762453E+02  0.63520795417E+02 -0.17040901693E+03  0.18242242247E+03  0.41800000000E+01 0. -1.
</event>
<event>
11    1  0.5813833E-009  0.1395119E+03  0.7561462E-02  0.1108105E+00
         22   -1    0    0    0    0  0.00000000000E+00  0.00000000000E+00  0.11116499102E+04  0.11116499102E+04  0.00000000000E+00 0.  1.
         22   -1    0    0    0    0 -0.00000000000E+00 -0.00000000000E+00 -0.33658876689E+03  0.33658876689E+03  0.00000000000E+00 0.  1.
         24    2    1    2    0    0  0.11901789353E+02 -0.37346621701E+02 -0.31179458987E+03  0.32398286511E+03  0.78820098145E+02 0.  0.
         25    2    1    2    0    0  0.14702806265E+02  0.87327873571E+02  0.36802533451E+03  0.39866256139E+03  0.12508741343E+03 0.  0.
        -24    2    1    2    0    0 -0.26604595618E+02 -0.49981251870E+02  0.71883039869E+03  0.72559325060E+03  0.81009216716E+02 0.  0.
        -13    1    3    3    0    0 -0.28418164200E+02 -0.25224070148E+02 -0.21639281764E+03  0.21970365791E+03  0.00000000000E+00 0.  1.
         14    1    3    3    0    0  0.40319953553E+02 -0.12122551553E+02 -0.95401772226E+02  0.10427920720E+03  0.00000000000E+00 0. -1.
         13    1    5    5    0    0 -0.10684059686E+02 -0.28532620840E+02  0.71610573941E+02  0.77822451025E+02  0.00000000000E+00 0. -1.
        -14    1    5    5    0    0 -0.15920535933E+02 -0.21448631030E+02  0.64721982475E+03  0.64777079958E+03  0.00000000000E+00 0.  1.
          5    1    4    4  501    0 -0.28053724018E+01  0.96026384091E+01 -0.85003405446E+01  0.13777117554E+02  0.41800000000E+01 0.  1.
         -5    1    4    4    0  501  0.17508178667E+02  0.77725235162E+02  0.37652567505E+03  0.38488544384E+03  0.41800000000E+01 0.  1.
</event>
<event>
11    1  0.5813833E-009  0.1835249E+03  0.7561462E-02  0.1066827E+00
         22   -1    0    0    0    0  0.00000000000E+00  0.00000000000E+00  0.11603629577E+04  0.11603629577E+04  0.00000000000E+00 0. -1.
         22   -1    0    0    0    0 -0.00000000000E+00 -0.00000000000E+00 -0.52205417357E+03  0.52205417357E+03  0.00000000000E+00 0.  1.
        -24    2    1    2    0    0 -0.12482910495E+03 -0.47109586861E+02 -0.48022668173E+03  0.50432945027E+03  0.76999415224E+02 0.  0.
         25    2    1    2    0    0  0.13420338132E+03  0.13436549154E+03  0.52015002921E+03  0.56768645496E+03  0.12508886994E+03 0.  0.
         24    2    1    2    0    0 -0.93742763703E+01 -0.87255904684E+02  0.59838543670E+03  0.61040122607E+03  0.82601791607E+02 0.  0.
        -13    1    5    5    0    0  0.19188897133E+02  0.80369668590E+01  0.11858982652E+03  0.12040080383E+03  0.00000000000E+00 0.  1.
         14    1    5    5    0    0 -0.28563173504E+02 -0.95292871543E+02  0.47979561018E+03  0.49000042224E+03  0.00000000000E+00 0. -1.
         11    1    3    3    0    0 -0.40966358968E+02 -0.53729325036E+02 -0.17100057911E+03  0.18386484436E+03  0.00000000000E+00 0. -1.
        -12    1    3    3    0    0 -0.83862745985E+02  0.66197381752E+01 -0.30922610263E+03  0.32046460591E+03  0.00000000000E+00 0.  1.
          5    1    4    4  501    0  0.10738426111E+02  0.94280694654E+02  0.26244950172E+03  0.27910818070E+03  0.41800000000E+01 0. -1.
         -5    1    4    4    0  501  0.12346495521E+03  0.40084796890E+02  0.25770052749E+03  0.28857827426E+03  0.41800000000E+01 0. -1.
</event>
<event>
11    1  0.5813833E-009  0.1506959E+03  0.7561462E-02  0.1096170E+00
         22   -1    0    0    0    0  0.00000000000E+00  0.00000000000E+00  0.15788015947E+04  0.15788015947E+04  0.00000000000E+00 0. -1.
         22   -1    0    0    0    0 -0.00000000000E+00 -0.00000000000E+00 -0.71388357107E+03  0.71388357107E+03  0.00000000000E+00 0.  1.
         24    2    1    2    0    0  0.38812086894E+02  0.74305769551E+02 -0.69665618106E+03  0.70568174146E+03  0.75027729235E+02 0.  0.
         25    2    1    2    0    0 -0.73925467905E+02 -0.96723021651E+02  0.74766181747E+03  0.76776567389E+03  0.12508244870E+03 0.  0.
        -24    2    1    2    0    0  0.35113381011E+02  0.22417252100E+02  0.81391238723E+03  0.81923775043E+03  0.83436412515E+02 0.  0.
        -11    1    3    3    0    0  0.36141239498E+02  0.78291352284E+02 -0.40926897325E+03  0.41825448892E+03  0.00000000000E+00 0.  1.
         12    1    3    3    0    0  0.26708473959E+01 -0.39855827325E+01 -0.28738720781E+03  0.28742725255E+03  0.00000000000E+00 0. -1.
         11    1    5    5    0    0 -0.37683927352E+01  0.11921516173E+02  0.66077113884E+03  0.66088941681E+03  0.00000000000E+00 0. -1.
        -12    1    5    5    0    0  0.38881773746E+02  0.10495735927E+02  0.15314124839E+03  0.15834833362E+03  0.00000000000E+00 0.  1.
          5    1    4    4  501    0 -0.22155509244E+01 -0.27779401686E+01 -0.40431548369E+01  0.68150655546E+01  0.41800000000E+01 0.  1.
         -5    1    4    4    0  501 -0.71709916981E+02 -0.93945081483E+02  0.75170497231E+03  0.76095060833E+03  0.41800000000E+01 0.  1.
</event>
<event>
11    1  0.5813833E-009  0.1708841E+03  0.7561462E-02  0.1077265E+00
         22   -1    0    0    0    0  0.00000000000E+00  0.00000000000E+00  0.24426354937E+03  0.24426354937E+03  0.00000000000E+00 0.  1.
         22   -1    0    0    0    0 -0.00000000000E+00 -0.00000000000E+00 -0.48125306433E+03  0.48125306433E+03  0.00000000000E+00 0.  1.
        -24    2    1    2    0    0  0.25236505121E+02 -0.78261651205E+02 -0.25765930919E+03  0.28207804602E+03  0.80112029041E+02 0.  0.
         25    2    1    2    0    0  0.60622204781E+01 -0.44738324040E+02 -0.16035294216E+03  0.20832383164E+03  0.12508990612E+03 0.  0.
         24    2    1    2    0    0 -0.31298725599E+02  0.12299997525E+03  0.18102273640E+03  0.23511473603E+03  0.80006898900E+02 0.  0.
        -11    1    5    5    0    0  0.14293659819E+02  0.41084967712E+02  0.10752251458E+03  0.11598868232E+03  0.00000000000E+00 0.  1.
         12    1    5    5    0    0 -0.45592385417E+02  0.81915007533E+02  0.73500221817E+02  0.11912605372E+03  0.00000000000E+00 0. -1.
         13    1    3    3    0    0  0.51833364244E+02 -0.69565453962E+02 -0.19890040816E+03  0.21699636494E+03  0.00000000000E+00 0. -1.
        -14    1    3    3    0    0 -0.26596859124E+02 -0.86961972430E+01 -0.58758901035E+02  0.65081681083E+02  0.00000000000E+00 0.  1.
          5    1    4    4  501    0  0.32072499930E+01 -0.19264205737E+02 -0.17657560745E+03  0.17770147333E+03  0.41800000000E+01 0.  1.
         -5    1    4    4    0  501  0.28549704851E+01 -0.25474118303E+02  0.16222665288E+02  0.30622358316E+02  0.41800000000E+01 0.  1.
</event>
<event>
11    1  0.5813833E-009  0.1638128E+03  0.7561462E-02  0.1083545E+00
         22   -1    0    0    0    0  0.00000000000E+00  0.00000000000E+00  0.81046136401E+03  0.81046136401E+03  0.00000000000E+00 0.  1.
         22   -1    0    0    0    0 -0.00000000000E+00 -0.00000000000E+00 -0.13138466678E+03  0.13138466678E+03  0.00000000000E+00 0.  1.
         24    2    1    2    0    0 -0.40495521459E+02 -0.84312854603E+02 -0.23835284608E+02  0.12510450631E+03  0.79589396261E+02 0.  0.
         25    2    1    2    0    0  0.83146265861E+02  0.12608872236E+03  0.13083708464E+03  0.23574682260E+03  0.12508618716E+03 0.  0.
        -24    2    1    2    0    0 -0.42650744402E+02 -0.41775867753E+02  0.57207489720E+03  0.58099470187E+03  0.81980768928E+02 0.  0.
        -11    1    3    3    0    0  0.15428808681E+02  0.17215408162E+01 -0.15841860335E+02  0.22180540547E+02  0.00000000000E+00 0.  1.
         12    1    3    3    0    0 -0.55924330140E+02 -0.86034395420E+02 -0.79934242737E+01  0.10292396576E+03  0.00000000000E+00 0. -1.
         13    1    5    5    0    0  0.20521247569E+02  0.68558629244E+01  0.11434105077E+03  0.11637010076E+03  0.00000000000E+00 0. -1.
        -14    1    5    5    0    0 -0.63171991971E+02 -0.48631730677E+02  0.45773384642E+03  0.46462460111E+03  0.00000000000E+00 0.  1.
          5    1    4    4  501    0  0.53731248780E+02  0.58999164125E+02  0.14060497911E+03  0.16172563499E+03  0.41800000000E+01 0. -1.
         -5    1    4    4    0  501  0.29415017081E+02  0.67089558231E+02 -0.97678944680E+01  0.74021187615E+02  0.41800000000E+01 0. -1.
</event>
<event>
11    1  0.5813833E-009  0.1487649E+03  0.7561462E-02  0.1098148E+00
         22   -1    0    0    0    0  0.00000000000E+00  0.00000000000E+00  0.11395288751E+04  0.11395288751E+04  0.00000000000E+00 0.  1.
         22   -1    0    0    0    0 -0.00000000000E+00 -0.00000000000E+00 -0.87288968726E+02  0.87288968726E+02  0.00000000000E+00 0.  1.
         24    2    1    2    0    0 -0.72157964152E+02  0.24802555077E+01  0.15523197646E+02  0.11128542464E+03  0.83249940630E+02 0.  0.
         25    2    1    2    0    0 -0.33573644154E+01  0.39548615574E+02  0.84689074900E+02  0.15619036975E+03  0.12509127590E+03 0.  0.
        -24    2    1    2    0    0  0.75515328568E+02 -0.42028871082E+02  0.95202763379E+03  0.95934204940E+03  0.80694246292E+02 0.  0.
        -13    1    3    3    0    0  0.15374499829E+02  0.28862612957E+01 -0.11791307243E+02  0.19589300032E+02  0.00000000000E+00 0.  1.
         14    1    3    3    0    0 -0.87532463981E+02 -0.40600578792E+00  0.27314504889E+02  0.91696124611E+02  0.00000000000E+00 0. -1.
         11    1    5    5    0    0  0.43103950141E+02  0.18037462004E+02  0.28173817043E+03  0.28558658448E+03  0.00000000000E+00 0. -1.
        -12    1    5    5    0    0  0.32411378426E+02 -0.60066333086E+02  0.67028946336E+03  0.67375546492E+03  0.00000000000E+00 0.  1.
          5    1    4    4  501    0  0.46450539507E+02 -0.76440944719E+01  0.18950816150E+00  0.47260904711E+02  0.41800000000E+01 0. -1.
         -5    1    4    4    0  501 -0.49807903922E+02  0.47192710046E+02  0.84499566739E+02  0.10892946504E+03  0.41800000000E+01 0. -1.
</event>
<event>
11    1  0.5813833E-009  0.1366640E+03  0.7561462E-02  0.1111342E+00
         22   -1    0    0    0    0  0.00000000000E+00  0.00000000000E+00  0.10423328811E+04  0.10423328811E+04  0.00000000000E+00 0.  1.
         22   -1    0    0    0    0 -0.00000000000E+00 -0.00000000000E+00 -0.15578968998E+04  0.15578968998E+04  0.00000000000E+00 0. -1.
         24    2    1    2    0    0  0.31992315636E+01 -0.80183531928E+01 -0.80080088784E+03  0.80482961093E+03  0.79963188959E+02 0.  0.
         25    2    1    2    0    0 -0.22393691165E+02 -0.43589888468E+02 -0.74670006521E+03  0.75868965365E+03  0.12508975737E+03 0.  0.
        -24    2    1    2    0    0  0.19194459602E+02  0.51608241661E+02  0.10319369343E+04  0.10367105163E+04  0.82722549800E+02 0.  0.
        -11    1    3    3    0    0 -0.26190144146E+02 -0.16515721329E+02 -0.14281423874E+03  0.14613213024E+03  0.00000000000E+00 0.  1.
         12    1    3    3    0    0  0.29389375710E+02  0.84973681365E+01 -0.65798664910E+03  0.65869748069E+03  0.00000000000E+00 0. -1.
         11    1    5    5    0    0  0.24650575931E+02  0.11215208908E+02  0.92328322773E+02  0.96218246662E+02  0.00000000000E+00 0. -1.
        -12    1    5    5    0    0 -0.54561163296E+01  0.40393032753E+02  0.93960861158E+03  0.94049226964E+03  0.00000000000E+00 0.  1.
          5    1    4    4  501    0 -0.66063102188E+02 -0.52347229203E+01 -0.25324002711E+03  0.26180091582E+03  0.41800000000E+01 0.  1.
         -5    1    4    4    0  501  0.43669411022E+02 -0.38355165547E+02 -0.49346003810E+03  0.49688873783E+03  0.41800000000E+01 0.  1.
</event>
<event>
11    1  0.5813833E-009  0.1406605E+03  0.7561462E-02  0.1106823E+00
         22   -1    0    0    0    0  0.00000000000E+00  0.00000000000E+00  0.13144881677E+04  0.13144881677E+04  0.00000000000E+00 0. -1.
         22   -1    0    0    0    0 -0.00000000000E+00 -0.00000000000E+00 -0.26780781656E+03  0.26780781656E+03  0.00000000000E+00 0.  1.
         24    2    1    2    0    0 -0.64374980391E+02  0.10737049698E+02 -0.24318782653E+03  0.26416970785E+03  0.79911784092E+02 0.  0.
         25    2    1    2    0    0  0.27469347487E+02 -0.28842767227E+02  0.35141220184E+03  0.37513207836E+03  0.12508825022E+03 0.  0.
        -24    2    1    2    0    0  0.36905632903E+02  0.18105717529E+02  0.93845597584E+03  0.94299419805E+03  0.82756245836E+02 0.  0.
        -13    1    3    3    0    0 -0.70667658642E+02 -0.18667329715E+02 -0.17028719450E+03  0.18531086257E+03  0.00000000000E+00 0.  1.
         14    1    3    3    0    0  0.62926782509E+01  0.29404379413E+02 -0.72900632035E+02  0.78858845283E+02  0.00000000000E+00 0. -1.
         13    1    5    5    0    0  0.22033266423E+02  0.38800125220E+02  0.84345822443E+03  0.84463760921E+03  0.00000000000E+00 0. -1.
        -14    1    5    5    0    0  0.14872366480E+02 -0.20694407691E+02  0.94997751413E+02  0.98356588839E+02  0.00000000000E+00 0.  1.
          5    1    4    4  501    0 -0.15269115732E+02  0.43952183077E+02  0.12973093646E+03  0.13788592592E+03  0.41800000000E+01 0. -1.
         -5    1    4    4    0  501  0.42738463220E+02 -0.72794950304E+02  0.22168126538E+03  0.23724615245E+03  0.41800000000E+01 0. -1.
</event>
<event>
11    1  0.5813833E-009  0.1335652E+03  0.7561462E-02  0.1114964E+00
         22   -1    0    0    0    0  0.00000000000E+00  0.00000000000E+00  0.78581133428E+02  0.78581133428E+02  0.00000000000E+00 0. -1.
         22   -1    0    0    0    0 -0.00000000000E+00 -0.00000000000E+00 -0.35487496075E+03  0.35487496075E+03  0.00000000000E+00 0. -1.
        -24    2    1    2    0    0  0.50485536404E+02  0.29542453411E+02 -0.15732131307E+03  0.18591824976E+03  0.79962829529E+02 0.  0.
         25    2    1    2    0    0 -0.17415733522E+02 -0.97124887822E+01 -0.88934517333E+02  0.15477309683E+03  0.12509085865E+03 0.  0.
         24    2    1    2    0    0 -0.33069802881E+02 -0.19829964628E+02 -0.30037996913E+02  0.92764747587E+02  0.78842740798E+02 0.  0.
        -13    1    5    5    0    0  0.52894051268E+00 -0.66693631128E+01 -0.50729585634E+02  0.51168848345E+02  0.00000000000E+00 0.  1.
         14    1    5    5    0    0 -0.33598743394E+02 -0.13160601516E+02  0.20691588721E+02  0.41595899241E+02  0.00000000000E+00 0. -1.
         11    1    3    3    0    0  0.67992505375E+02  0.93584025787E+01 -0.13355813679E+03  0.15016103485E+03  0.00000000000E+00 0. -1.
        -12    1    3    3    0    0 -0.17506968972E+02  0.20184050832E+02 -0.23763176288E+02  0.35757214907E+02  0.00000000000E+00 0.  1.
          5    1    4    4  501    0  0.42103365853E+02  0.31891814339E+02 -0.28249269232E+02  0.60043940994E+02  0.41800000000E+01 0. -1.
         -5    1    4    4    0  501 -0.59519099375E+02 -0.41604303121E+02 -0.60685248100E+02  0.94729155837E+02  0.41800000000E+01 0. -1.
</event>
<event>
11    1  0.5813833E-009  0.2845941E+03  0.7561462E-02  0.1006931E+00
         22   -1    0    0    0    0  0.00000000000E+00  0.00000000000E+00  0.21786377288E+04  0.21786377288E+04  0.00000000000E+00 0. -1.
         22   -1    0    0    0    0 -0.00000000000E+00 -0.00000000000E+00 -0.27093403195E+03  0.27093403195E+03  0.00000000000E+00 0.  1.
        -24    2    1    2    0    0  0.49806391220E+02 -0.13881791388E+02 -0.21406462124E+03  0.23371951799E+03  0.78280075910E+02 0.  0.
         25    2    1    2    0    0 -0.29346000789E+03  0.90775501446E+01  0.67677748313E+03  0.74824922758E+03  0.12509183329E+03 0.  0.
         24    2    1    2    0    0  0.24365361667E+03  0.48042412436E+01  0.14449908349E+04  0.14676030151E+04  0.80435883576E+02 0.  0.
        -11    1    5    5    0    0  0.32977097278E+01 -0.25521413855E+01  0.17482746142E+03  0.17487718428E+03  0.00000000000E+00 0.  1.
         12    1    5    5    0    0  0.24035590694E+03  0.73563826291E+01  0.12701633735E+04  0.12927258308E+04  0.00000000000E+00 0. -1.
         11    1    3    3    0    0 -0.15507765040E+02 -0.31897366281E+01 -0.89399553845E+01  0.18182079049E+02  0.00000000000E+00 0. -1.
        -12    1    3    3    0    0  0.65314156260E+02 -0.10692054760E+02 -0.20512466586E+03  0.21553743894E+03  0.00000000000E+00 0.  1.
          5    1    4    4  501    0  0.47681457284E+01  0.99404987459E+01  0.82363723447E+02  0.83203389769E+02  0.41800000000E+01 0. -1.
         -5    1    4    4    0  501 -0.29822815362E+03 -0.86294860125E+00  0.59441375969E+03  0.66504583781E+03  0.41800000000E+01 0. -1.
</event>
<event>
11    1  0.5813833E-009  0.1418491E+03  0.7561462E-02  0.1105511E+00
         22   -1    0    0    0    0  0.00000000000E+00  0.00000000000E+00  0.31027321188E+03  0.31027321188E+03  0.00000000000E+00 0.  1.
         22   -1    0    0    0    0 -0.00000000000E+00 -0.00000000000E+00 -0.45894887442E+03  0.45894887442E+03  0.00000000000E+00 0.  1.
         24    2    1    2    0    0  0.36999221462E+02  0.41703472045E+01 -0.37896634848E+03  0.38931324218E+03  0.81012178529E+02 0.  0.
         25    2    1    2    0    0 -0.80604309225E+02  0.41203498484E+02  0.33319759507E+02  0.15796156306E+03  0.12508743373E+03 0.  0.
        -24    2    1    2    0    0  0.43605087763E+02 -0.45373845688E+02  0.19697092642E+03  0.22194728107E+03  0.80640313525E+02 0.  0.
        -11    1    3    3    0    0  0.10217699855E+02  0.20545517077E+02 -0.33218130440E+03  0.33297287976E+03  0.00000000000E+00 0.  1.
         12    1    3    3    0    0  0.26781521606E+02 -0.16375169873E+02 -0.46785044082E+02  0.56340362420E+02  0.00000000000E+00 0. -1.
         13    1    5    5    0    0  0.34303214041E+02  0.12523750856E+02  0.11841674380E+03  0.12391965155E+03  0.00000000000E+00 0. -1.
        -14    1    5    5    0    0  0.93018737214E+01 -0.57897596544E+02  0.78554182626E+02  0.98027629515E+02  0.00000000000E+00 0.  1.
          5    1    4    4  501    0  0.13944817580E+02  0.48181507721E+02 -0.13542956381E+02  0.52122928651E+02  0.41800000000E+01 0.  1.
         -5    1    4    4    0  501 -0.94549126805E+02 -0.69780092373E+01  0.46862715887E+02  0.10583863441E+03  0.41800000000E+01 0.  1.
</event>
<event>
11    1  0.5813833E-009  0.1425111E+03  0.7561462E-02  0.1104786E+00
         22   -1    0    0    0    0  0.00000000000E+00  0.00000000000E+00  0.15021715413E+04  0.15021715413E+04  0.00000000000E+00 0. -1.
         22   -1    0    0    0    0 -0.00000000000E+00 -0.00000000000E+00 -0.68798196667E+02  0.68798196667E+02  0.00000000000E+00 0.  1.
         24    2    1    2    0    0  0.63723998016E+02 -0.23943564410E+02  0.86834859084E-01  0.10537342747E+03  0.80433261013E+02 0.  0.
         25    2    1    2    0    0 -0.72562701550E+02  0.36042422500E+01  0.34332531712E+03  0.37255643847E+03  0.12509072808E+03 0.  0.
        -24    2    1    2    0    0  0.88387035343E+01  0.20339322159E+02  0.10899611927E+04  0.10930398721E+04  0.78923695018E+02 0.  0.
        -13    1    3    3    0    0  0.60504947591E+02 -0.35609673708E+02 -0.27381882999E+02  0.75356917805E+02  0.00000000000E+00 0.  1.
         14    1    3    3    0    0  0.32190504251E+01  0.11666109299E+02  0.27468717858E+02  0.30016509666E+02  0.00000000000E+00 0. -1.
         11    1    5    5    0    0 -0.20121431574E+02 -0.20547977607E+02  0.55258703300E+03  0.55333490801E+03  0.00000000000E+00 0. -1.
        -12    1    5    5    0    0  0.28960135108E+02  0.40887299766E+02  0.53737415969E+03  0.53970496404E+03  0.00000000000E+00 0.  1.
          5    1    4    4  501    0 -0.16754412364E+02 -0.51875263592E+02  0.21604543986E+03  0.22285613699E+03  0.41800000000E+01 0.  1.
         -5    1    4    4    0  501 -0.55808289186E+02  0.55479505842E+02  0.12727987725E+03  0.14970030148E+03  0.41800000000E+01 0.  1.
</event>
<event>
11    1  0.5813833E-009  0.1677450E+03  0.7561462E-02  0.1080011E+00
         22   -1    0    0    0    0  0.00000000000E+00  0.00000000000E+00  0.11490612132E+03  0.11490612132E+03  0.00000000000E+00 0.  1.
         22   -1    0    0    0    0 -0.00000000000E+00 -0.00000000000E+00 -0.78094554993E+03  0.78094554993E+03  0.00000000000E+00 0. -1.
         24    2    1    2    0    0  0.71847667146E+02 -0.67546027751E+02 -0.49990982401E+03  0.51602350870E+03  0.81522243871E+02 0.  0.
         25    2    1    2    0    0 -0.25528629058E+01 -0.52038204173E+02 -0.17225604285E+03  0.21916844469E+03  0.12509264984E+03 0.  0.
        -24    2    1    2    0    0 -0.69294804240E+02  0.11958423192E+03  0.61264382532E+01  0.16065971787E+03  0.81681413310E+02 0.  0.
        -11    1    3    3    0    0  0.51388574250E+02 -0.42198486794E+02 -0.14382973296E+03  0.15845658691E+03  0.00000000000E+00 0.  1.
         12    1    3    3    0    0  0.20459092896E+02 -0.25347540958E+02 -0.35608009105E+03  0.35756692179E+03  0.00000000000E+00 0. -1.
         13    1    5    5    0    0  0.95518464645E+01  0.23957160002E+02 -0.21616323360E+02  0.33651875458E+02  0.00000000000E+00 0. -1.
        -14    1    5    5    0    0 -0.78846650704E+02  0.95627071922E+02  0.27742761613E+02  0.12700784241E+03  0.00000000000E+00 0.  1.
          5    1    4    4  501    0 -0.19199468438E+01 -0.26569898458E+02 -0.18733823684E+03  0.18926894378E+03  0.41800000000E+01 0.  1.
         -5    1    4    4    0  501 -0.63291606199E+00 -0.25468305715E+02  0.15082193986E+02  0.29899500902E+02  0.41800000000E+01 0.  1.
</event>
<event>
11    1  0.5813833E-009  0.1583840E+03  0.7561462E-02  0.1088607E+00
         22   -1    0    0    0    0  0.00000000000E+00  0.00000000000E+00  0.62952411621E+02  0.62952411621E+02  0.00000000000E+00 0. -1.
         22   -1    0    0    0    0 -0.00000000000E+00 -0.00000000000E+00 -0.13532266363E+04  0.13532266363E+04  0.00000000000E+00 0.  1.
        -24    2    1    2    0    0  0.60340433070E+01  0.15426303846E+02 -0.80198073391E+03  0.80612321742E+03  0.79919732086E+02 0.  0.
         25    2    1    2    0    0 -0.94692309164E+02 -0.50720281570E+02 -0.45060968058E+03  0.47982427536E+03  0.12507226157E+03 0.  0.
         24    2    1    2    0    0  0.88658265857E+02  0.35293977724E+02 -0.37683810157E+02  0.13023155511E+03  0.80213686050E+02 0.  0.
        -13    1    5    5    0    0  0.44010531190E+02  0.28704234787E+02 -0.60107954725E+02  0.79836245977E+02  0.00000000000E+00 0.  1.
         14    1    5    5    0    0  0.44647734667E+02  0.65897429365E+01  0.22424144569E+02  0.50395309132E+02  0.00000000000E+00 0. -1.
         11    1    3    3    0    0 -0.34784853879E+02 -0.46934546454E+01 -0.28778809536E+03  0.28992068296E+03  0.00000000000E+00 0. -1.
        -12    1    3    3    0    0  0.40818897186E+02  0.20119758491E+02 -0.51419263855E+03  0.51620253446E+03  0.00000000000E+00 0.  1.
          5    1    4    4  501    0 -0.21517768970E+02  0.40181336303E+02 -0.93382434695E+02  0.10399666186E+03  0.41800000000E+01 0.  1.
         -5    1    4    4    0  501 -0.73174540194E+02 -0.90901617873E+02 -0.35722724589E+03  0.37582761350E+03  0.41800000000E+01 0.  1.
</event>
<event>
11    1  0.5813833E-009  0.1447144E+03  0.7561462E-02  0.1102405E+00
         22   -1    0    0    0    0  0.00000000000E+00  0.00000000000E+00  0.15346143069E+03  0.15346143069E+03  0.00000000000E+00 0. -1.
         22   -1    0    0    0    0 -0.00000000000E+00 -0.00000000000E+00 -0.65565836212E+03  0.65565836212E+03  0.00000000000E+00 0.  1.
         24    2    1    2    0    0  0.15481028426E+02  0.78941312237E+02 -0.48496303058E+03  0.49756584157E+03  0.76884541050E+02 0.  0.
         25    2    1    2    0    0 -0.15148964637E+02 -0.34815914335E+02 -0.11738117989E+03  0.17569635543E+03  0.12509687805E+03 0.  0.
        -24    2    1    2    0    0 -0.33206378843E+00 -0.44125397902E+02  0.10014727905E+03  0.13585759581E+03  0.80502470967E+02 0.  0.
        -13    1    3    3    0    0  0.31822862209E+02  0.16560247403E+02 -0.29010227729E+03  0.29231193551E+03  0.00000000000E+00 0.  1.
         14    1    3    3    0    0 -0.16341833783E+02  0.62381064834E+02 -0.19486075329E+03  0.20525390606E+03  0.00000000000E+00 0. -1.
         13    1    5    5    0    0 -0.19904139616E+02 -0.43316293388E+02  0.10531246072E+03  0.11559926656E+03  0.00000000000E+00 0. -1.
        -14    1    5    5    0    0  0.19572075827E+02 -0.80910451382E+00 -0.51651816688E+01  0.20258329249E+02  0.00000000000E+00 0.  1.
          5    1    4    4  501    0  0.37576013173E+02 -0.55195832820E+02 -0.91591446612E+02  0.11342399314E+03  0.41800000000E+01 0.  1.
         -5    1    4    4    0  501 -0.52724977810E+02  0.20379918485E+02 -0.25789733282E+02  0.62272362291E+02  0.41800000000E+01 0.  1.
</event>
<event>
11    1  0.5813833E-009  0.1531813E+03  0.7561462E-02  0.1093672E+00
         22   -1    0    0    0    0  0.00000000000E+00  0.00000000000E+00  0.16171460183E+04  0.16171460183E+04  0.00000000000E+00 0. -1.
         22   -1    0    0    0    0 -0.00000000000E+00 -0.00000000000E+00 -0.31421686160E+03  0.31421686160E+03  0.00000000000E+00 0.  1.
        -24    2    1    2    0    0  0.26260735463E+02 -0.43396712528E+02 -0.28390024666E+03  0.29934759023E+03  0.80229226827E+02 0.  0.
         25    2    1    2    0    0  0.29071733163E+02 -0.33322309648E+02  0.20205946799E+03  0.24172461441E+03  0.12508884291E+03 0.  0.
         24    2    1    2    0    0 -0.55332468626E+02  0.76719022177E+02  0.13847699354E+04  0.13902906753E+04  0.79830428535E+02 0.  0.
        -11    1    5    5    0    0  0.14563508171E+02  0.33123342839E+02  0.25964771251E+03  0.26215679702E+03  0.00000000000E+00 0.  1.
         12    1    5    5    0    0 -0.69895976797E+02  0.43595679337E+02  0.11251222229E+04  0.11281338783E+04  0.00000000000E+00 0. -1.
         13    1    3    3    0    0  0.52525869927E+02 -0.25637958296E+02 -0.13500800825E+03  0.14711707653E+03  0.00000000000E+00 0. -1.
        -14    1    3    3    0    0 -0.26265134464E+02 -0.17758754232E+02 -0.14889223842E+03  0.15223051370E+03  0.00000000000E+00 0.  1.
          5    1    4    4  501    0 -0.35565869862E+02 -0.53354179272E+02  0.86696952853E+02  0.10791401011E+03  0.41800000000E+01 0.  1.
         -5    1    4    4    0  501  0.64637603024E+02  0.20031869623E+02  0.11536251513E+03  0.13381060430E+03  0.41800000000E+01 0.  1.
</event>
<event>
11    1  0.5813833E-009  0.1484209E+03  0.7561462E-02  0.1098503E+00
         22   -1    0    0    0    0  0.00000000000E+00  0.00000000000E+00  0.81288242170E+03  0.81288242170E+03  0.00000000000E+00 0.  1.
         22   -1    0    0    0    0 -0.00000000000E+00 -0.00000000000E+00 -0.45888503268E+03  0.45888503268E+03  0.00000000000E+00 0. -1.
         24    2    1    2    0    0  0.38128394959E+02 -0.15299835126E+02 -0.42911697780E+03  0.44044035836E+03  0.90324244704E+02 0.  0.
         25    2    1    2    0    0 -0.10297095432E+03  0.31050429832E+02  0.40047665815E+03  0.43312469117E+03  0.12509315629E+03 0.  0.
        -24    2    1    2    0    0  0.64842559366E+02 -0.15750594706E+02  0.38263770867E+03  0.39820240485E+03  0.87754774210E+02 0.  0.
        -13    1    3    3    0    0 -0.11584880840E+02  0.11771363731E+02 -0.14502165328E+02  0.21979246287E+02  0.00000000000E+00 0.  1.
         14    1    3    3    0    0  0.49713275799E+02 -0.27071198856E+02 -0.41461481247E+03  0.41846111207E+03  0.00000000000E+00 0. -1.
         11    1    5    5    0    0  0.26544731705E+02  0.18357367842E+02  0.38382031419E+02  0.50147742434E+02  0.00000000000E+00 0. -1.
        -12    1    5    5    0    0  0.38297827660E+02 -0.34107962549E+02  0.34425567725E+03  0.34805466242E+03  0.00000000000E+00 0.  1.
          5    1    4    4  501    0 -0.39456233616E+01 -0.33606053179E+02  0.34553851082E+02  0.48542515165E+02  0.41800000000E+01 0.  1.
         -5    1    4    4    0  501 -0.99025330963E+02  0.64656483011E+02  0.36592280707E+03  0.38458217600E+03  0.41800000000E+01 0.  1.
</event>
<event>
11    1  0.5813833E-009  0.1407500E+03  0.7561462E-02  0.1106724E+00
         22   -1    0    0    0    0  0.00000000000E+00  0.00000000000E+00  0.10743734330E+04  0.10743734330E+04  0.00000000000E+00 0.  1.
         22   -1    0    0    0    0 -0.00000000000E+00 -0.00000000000E+00 -0.30776622453E+03  0.30776622453E+03  0.00000000000E+00 0. -1.
         24    2    1    2    0    0  0.39758349597E+02 -0.11490848866E+02 -0.14711547453E+03  0.16968898226E+03  0.73747012727E+02 0.  0.
         25    2    1    2    0    0 -0.19035214536E+02  0.72626794949E+02 -0.11041084981E+03  0.18296139252E+03  0.12508926677E+03 0.  0.
        -24    2    1    2    0    0 -0.20723135061E+02 -0.61135946083E+02  0.10241335328E+04  0.10294892827E+04  0.82653723724E+02 0.  0.
        -13    1    3    3    0    0  0.43555568345E+02 -0.27099563634E+02 -0.51340971713E+02  0.72576644035E+02  0.00000000000E+00 0.  1.
         14    1    3    3    0    0 -0.37972187480E+01  0.15608714768E+02 -0.95774502814E+02  0.97112338228E+02  0.00000000000E+00 0. -1.
         13    1    5    5    0    0 -0.12653914276E+02 -0.18455602388E+01  0.21100634748E+02  0.24673151924E+02  0.00000000000E+00 0. -1.
        -14    1    5    5    0    0 -0.80692207846E+01 -0.59290385844E+02  0.10030328980E+04  0.10048161308E+04  0.00000000000E+00 0.  1.
          5    1    4    4  501    0 -0.15288943802E+02 -0.34839772207E+02 -0.29452118034E+02  0.48295560735E+02  0.41800000000E+01 0.  1.
         -5    1    4    4    0  501 -0.37462707347E+01  0.10746656716E+03 -0.80958731772E+02  0.13466583179E+03  0.41800000000E+01 0.  1.
</event>
<event>
11    1  0.7528383E-009  0.1783043E+03  0.7561462E-02  0.1071023E+00
         22   -1    0    0    0    0  0.00000000000E+00  0.00000000000E+00  0.13814784991E+04  0.13814784991E+04  0.00000000000E+00 0. -1.
         22   -1    0    0    0    0 -0.00000000000E+00 -0.00000000000E+00 -0.93020751049E+03  0.93020751049E+03  0.00000000000E+00 0. -1.
         24    2    1    2    0    0 -0.11336838895E+03  0.77640703401E+02 -0.77694663948E+03  0.79312037661E+03  0.80705518722E+02 0.  0.
         25    2    1    2    0    0  0.74794978261E+02 -0.28170687802E+02 -0.10470497867E+03  0.18165213643E+03  0.12508592921E+03 0.  0.
        -24    2    1    2    0    0  0.38573410687E+02 -0.49470015599E+02  0.13329226068E+04  0.13369134966E+04  0.81974576524E+02 0.  0.
        -13    1    3    3    0    0  0.87265984668E+01  0.15427218481E+02 -0.43322054473E+02  0.46807616844E+02  0.00000000000E+00 0.  1.
         14    1    3    3    0    0 -0.12209498741E+03  0.62213484920E+02 -0.73362458501E+03  0.74631275976E+03  0.00000000000E+00 0. -1.
         11    1    5    5    0    0  0.75847337879E+01 -0.55326017041E+02  0.11451590339E+04  0.11465198251E+04  0.00000000000E+00 0. -1.
        -12    1    5    5    0    0  0.30988676899E+02  0.58560014414E+01  0.18776357291E+03  0.19039367154E+03  0.00000000000E+00 0.  1.
          5    1    4    4  501    0  0.38075437420E+01  0.27433824740E+02  0.14962274195E+02  0.31756167563E+02  0.41800000000E+01 0.  1.
         -5    1    4    4    0  501  0.70987434519E+02 -0.55604512542E+02 -0.11966725286E+03  0.14989596887E+03  0.41800000000E+01 0.  1.
</event>
<event>
11    1  0.5813833E-009  0.1520671E+03  0.7561462E-02  0.1094785E+00
         22   -1    0    0    0    0  0.00000000000E+00  0.00000000000E+00  0.23774236386E+03  0.23774236386E+03  0.00000000000E+00 0. -1.
         22   -1    0    0    0    0 -0.00000000000E+00 -0.00000000000E+00 -0.69092957365E+03  0.69092957365E+03  0.00000000000E+00 0. -1.
         24    2    1    2    0    0 -0.56446033585E+02 -0.77712815133E+02 -0.54349363870E+03  0.55770186318E+03  0.80128624971E+02 0.  0.
         25    2    1    2    0    0  0.59855996336E+02 -0.42855523832E+01 -0.84869339544E+02  0.16263887269E+03  0.12508993509E+03 0.  0.
        -24    2    1    2    0    0 -0.34099627506E+01  0.81998367516E+02  0.17517576846E+03  0.20833120163E+03  0.77330327803E+02 0.  0.
        -11    1    3    3    0    0 -0.23543412576E+02 -0.79979305720E+02 -0.27990226621E+03  0.29205523493E+03  0.00000000000E+00 0.  1.
         12    1    3    3    0    0 -0.32902621009E+02  0.22664905869E+01 -0.26359137249E+03  0.26564662825E+03  0.00000000000E+00 0. -1.
         13    1    5    5    0    0  0.27062606993E+02  0.53749889509E+02  0.14495938800E+03  0.15695432294E+03  0.00000000000E+00 0. -1.
        -14    1    5    5    0    0 -0.30472569744E+02  0.28248478007E+02  0.30216380455E+02  0.51376878693E+02  0.00000000000E+00 0.  1.
          5    1    4    4  501    0  0.90075906487E+02 -0.32242176232E+02 -0.70191094960E+02  0.11873284747E+03  0.41800000000E+01 0.  1.
         -5    1    4    4    0  501 -0.30219910151E+02  0.27956623849E+02 -0.14678244584E+02  0.43906025221E+02  0.41800000000E+01 0.  1.
</event>
<event>
11    1  0.5813833E-009  0.1848469E+03  0.7561462E-02  0.1065788E+00
         22   -1    0    0    0    0  0.00000000000E+00  0.00000000000E+00  0.92281299479E+03  0.92281299479E+03  0.00000000000E+00 0. -1.
         22   -1    0    0    0    0 -0.00000000000E+00 -0.00000000000E+00 -0.13063635518E+03  0.13063635518E+03  0.00000000000E+00 0.  1.
        -24    2    1    2    0    0  0.79834256043E+02 -0.11018428805E+03 -0.45407846706E+02  0.16362321083E+03  0.78718465475E+02 0.  0.
         25    2    1    2    0    0 -0.26859555708E+02  0.14725676802E+03  0.60315717769E+03  0.63391818009E+03  0.12509071342E+03 0.  0.
         24    2    1    2    0    0 -0.52974700335E+02 -0.37072479966E+02  0.23442730863E+03  0.25590795906E+03  0.79699641371E+02 0.  0.
        -11    1    5    5    0    0 -0.70384886748E+02 -0.10947813072E+02  0.16175724386E+03  0.17674640826E+03  0.00000000000E+00 0.  1.
         12    1    5    5    0    0  0.17410186413E+02 -0.26124666894E+02  0.72670064766E+02  0.79161550796E+02  0.00000000000E+00 0. -1.
         13    1    3    3    0    0  0.34273154694E+02 -0.90908852332E+02 -0.10235317537E+01  0.97160260304E+02  0.00000000000E+00 0. -1.
        -14    1    3    3    0    0  0.45561101349E+02 -0.19275435722E+02 -0.44384314952E+02  0.66462950522E+02  0.00000000000E+00 0.  1.
          5    1    4    4  501    0 -0.14889219082E+02 -0.10110987651E+02  0.11974910318E+02  0.22017987948E+02  0.41800000000E+01 0. -1.
         -5    1    4    4    0  501 -0.11970336626E+02  0.15736775567E+03  0.59118226737E+03  0.61190019214E+03  0.41800000000E+01 0. -1.
</event>
<event>
11    1  0.5813833E-009  0.1382388E+03  0.7561462E-02  0.1109541E+00
         22   -1    0    0    0    0  0.00000000000E+00  0.00000000000E+00  0.25080190554E+03  0.25080190554E+03  0.00000000000E+00 0.  1.
         22   -1    0    0    0    0 -0.00000000000E+00 -0.00000000000E+00 -0.10893127797E+04  0.10893127797E+04  0.00000000000E+00 0.  1.
         24    2    1    2    0    0 -0.52029478763E+02 -0.33021048731E+01 -0.94429916622E+03  0.94930322006E+03  0.82205338822E+02 0.  0.
         25    2    1    2    0    0  0.52444334819E+02  0.61673562967E+02 -0.87909550631E+02  0.17299994042E+03  0.12508738413E+03 0.  0.
        -24    2    1    2    0    0 -0.41485605655E+00 -0.58371458093E+02  0.19369784272E+03  0.21781152473E+03  0.80719308767E+02 0.  0.
        -13    1    3    3    0    0 -0.49976316304E+02  0.27960405667E+02 -0.77618422745E+03  0.77829388499E+03  0.00000000000E+00 0.  1.
         14    1    3    3    0    0 -0.20531624590E+01 -0.31262510540E+02 -0.16811493877E+03  0.17100933507E+03  0.00000000000E+00 0. -1.
         11    1    5    5    0    0  0.24096864112E+02  0.68320851436E+01  0.85803572422E+02  0.89384502503E+02  0.00000000000E+00 0. -1.
        -12    1    5    5    0    0 -0.24511720169E+02 -0.65203543237E+02  0.10789427030E+03  0.12842702223E+03  0.00000000000E+00 0.  1.
          5    1    4    4  501    0  0.88551862451E+02  0.27185296991E+02 -0.32405606225E+02  0.98224581601E+02  0.41800000000E+01 0. -1.
         -5    1    4    4    0  501 -0.36107527631E+02  0.34488265976E+02 -0.55503944405E+02  0.74775358817E+02  0.41800000000E+01 0. -1.
</event>
<event>
11    1  0.5813833E-009  0.1631414E+03  0.7561462E-02  0.1084159E+00
         22   -1    0    0    0    0  0.00000000000E+00  0.00000000000E+00  0.24080642518E+03  0.24080642518E+03  0.00000000000E+00 0.  1.
         22   -1    0    0    0    0 -0.00000000000E+00 -0.00000000000E+00 -0.49131704607E+03  0.49131704607E+03  0.00000000000E+00 0. -1.
         24    2    1    2    0    0 -0.46685393432E+02 -0.17027948339E+02 -0.29252165173E+03  0.30770805316E+03  0.81522096798E+02 0.  0.
         25    2    1    2    0    0  0.63619524502E+02 -0.87293871899E+02 -0.12760289724E+03  0.20879878041E+03  0.12508703909E+03 0.  0.
        -24    2    1    2    0    0 -0.16934131070E+02  0.10432182024E+03  0.16961392808E+03  0.21561663767E+03  0.80943454758E+02 0.  0.
        -13    1    3    3    0    0 -0.38861139704E+02 -0.12339639190E+02 -0.47846270066E+02  0.62862710996E+02  0.00000000000E+00 0.  1.
         14    1    3    3    0    0 -0.78242537281E+01 -0.46883091482E+01 -0.24467538166E+03  0.24484534217E+03  0.00000000000E+00 0. -1.
         11    1    5    5    0    0  0.73947698517E+01  0.15619647319E+02  0.96731861899E+02  0.98263467829E+02  0.00000000000E+00 0. -1.
        -12    1    5    5    0    0 -0.24328900921E+02  0.88702172919E+02  0.72882066184E+02  0.11735316984E+03  0.00000000000E+00 0.  1.
          5    1    4    4  501    0 -0.18321106722E+02 -0.58647369330E+02 -0.10031593598E+03  0.11771124115E+03  0.41800000000E+01 0. -1.
         -5    1    4    4    0  501  0.81940631224E+02 -0.28646502569E+02 -0.27286961261E+02  0.91087539267E+02  0.41800000000E+01 0. -1.
</event>
<event>
11    1  0.5813833E-009  0.2250425E+03  0.7561462E-02  0.1038104E+00
         22   -1    0    0    0    0  0.00000000000E+00  0.00000000000E+00  0.19331152893E+04  0.19331152893E+04  0.00000000000E+00 0.  1.
         22   -1    0    0    0    0 -0.00000000000E+00 -0.00000000000E+00 -0.10216459801E+04  0.10216459801E+04  0.00000000000E+00 0. -1.
        -24    2    1    2    0    0  0.11731277762E+03 -0.69048274736E+02 -0.77579785984E+03  0.79170991840E+03  0.80076984963E+02 0.  0.
         25    2    1    2    0    0  0.16088790257E+02  0.20132601711E+03 -0.17155750993E+03  0.29303589043E+03  0.12508812705E+03 0.  0.
         24    2    1    2    0    0 -0.13340156788E+03 -0.13227774237E+03  0.18588246789E+04  0.18700154605E+04  0.80220048474E+02 0.  0.
        -13    1    5    5    0    0 -0.82160961754E+02 -0.97905202990E+02  0.87825555065E+03  0.88750699414E+03  0.00000000000E+00 0.  1.
         14    1    5    5    0    0 -0.51240606124E+02 -0.34372539384E+02  0.98056912828E+03  0.98250846638E+03  0.00000000000E+00 0. -1.
         13    1    3    3    0    0  0.10814454327E+03 -0.59873603353E+02 -0.48109404919E+03  0.49672082178E+03  0.00000000000E+00 0. -1.
        -14    1    3    3    0    0  0.91682343540E+01 -0.91746713829E+01 -0.29470381065E+03  0.29498909663E+03  0.00000000000E+00 0.  1.
          5    1    4    4  501    0 -0.53457945675E+01  0.21238831176E+03 -0.14719008181E+03  0.25849519352E+03  0.41800000000E+01 0. -1.
         -5    1    4    4    0  501  0.21434584824E+02 -0.11062294649E+02 -0.24367428118E+02  0.34540696904E+02  0.41800000000E+01 0. -1.
</event>
<event>
11    1  0.5813833E-009  0.1351668E+03  0.7561462E-02  0.1113079E+00
         22   -1    0    0    0    0  0.00000000000E+00  0.00000000000E+00  0.80621133109E+03  0.80621133109E+03  0.00000000000E+00 0. -1.
         22   -1    0    0    0    0 -0.00000000000E+00 -0.00000000000E+00 -0.26318875335E+03  0.26318875335E+03  0.00000000000E+00 0.  1.
         24    2    1    2    0    0  0.50952642900E+02  0.36421894440E+01 -0.22307489817E+03  0.24179643185E+03  0.78061942699E+02 0.  0.
         25    2    1    2    0    0 -0.52068164441E+02 -0.15640925101E+02  0.13726365365E+03  0.19351095124E+03  0.12509774318E+03 0.  0.
        -24    2    1    2    0    0  0.11155215412E+01  0.11998735657E+02  0.62883382225E+03  0.63409270135E+03  0.80600023911E+02 0.  0.
        -11    1    3    3    0    0  0.11683612998E+02  0.22502344241E+02 -0.17537101397E+03  0.17719439847E+03  0.00000000000E+00 0.  1.
         12    1    3    3    0    0  0.39269029901E+02 -0.18860154797E+02 -0.47703884201E+02  0.64602033375E+02  0.00000000000E+00 0. -1.
         11    1    5    5    0    0  0.16317585281E+02  0.13731178973E+02  0.60731236733E+03  0.60768669591E+03  0.00000000000E+00 0. -1.
        -12    1    5    5    0    0 -0.15202063740E+02 -0.17324433158E+01  0.21521454919E+02  0.26406005446E+02  0.00000000000E+00 0.  1.
          5    1    4    4  501    0 -0.26051442215E+02 -0.67478618908E+02  0.47769846097E+02  0.86784055260E+02  0.41800000000E+01 0.  1.
         -5    1    4    4    0  501 -0.26016722226E+02  0.51837693807E+02  0.89493807556E+02  0.10672689598E+03  0.41800000000E+01 0.  1.
</event>
<event>
11    1  0.5813833E-009  0.1342621E+03  0.7561462E-02  0.1114140E+00
         22   -1    0    0    0    0  0.00000000000E+00  0.00000000000E+00  0.20177056575E+03  0.20177056575E+03  0.00000000000E+00 0. -1.
         22   -1    0    0    0    0 -0.00000000000E+00 -0.00000000000E+00 -0.74703605486E+03  0.74703605486E+03  0.00000000000E+00 0.  1.
        -24    2    1    2    0    0 -0.20654753960E+02 -0.48210673159E+02 -0.62199815665E+03  0.62950756818E+03  0.81530262215E+02 0.  0.
         25    2    1    2    0    0  0.38190050669E+01  0.13018990509E+02 -0.73638242415E+02  0.14578757836E+03  0.12508936144E+03 0.  0.
         24    2    1    2    0    0  0.16835748893E+02  0.35191682650E+02  0.15037090995E+03  0.17351147406E+03  0.77284695149E+02 0.  0.
        -11    1    5    5    0    0  0.35828490755E+02  0.25160703129E+02  0.34703185038E+02  0.55866383305E+02  0.00000000000E+00 0.  1.
         12    1    5    5    0    0 -0.18992741862E+02  0.10030979521E+02  0.11566772491E+03  0.11764509076E+03  0.00000000000E+00 0. -1.
         13    1    3    3    0    0 -0.82434505892E+01 -0.70727495855E+02 -0.46341229396E+03  0.46885102895E+03  0.00000000000E+00 0. -1.
        -14    1    3    3    0    0 -0.12411303371E+02  0.22516822696E+02 -0.15858586268E+03  0.16065653923E+03  0.00000000000E+00 0.  1.
          5    1    4    4  501    0  0.58302999505E+02  0.94533763373E+01 -0.68862853610E+02  0.90819442207E+02  0.41800000000E+01 0. -1.
         -5    1    4    4    0  501 -0.54483994438E+02  0.35656141719E+01 -0.47753888047E+01  0.54968136157E+02  0.41800000000E+01 0. -1.
</event>
<event>
11    1  0.5813833E-009  0.1354411E+03  0.7561462E-02  0.1112759E+00
         22   -1    0    0    0    0  0.00000000000E+00  0.00000000000E+00  0.79190565708E+03  0.79190565708E+03  0.00000000000E+00 0. -1.
         22   -1    0    0    0    0 -0.00000000000E+00 -0.00000000000E+00 -0.57389436955E+03  0.57389436955E+03  0.00000000000E+00 0.  1.
         24    2    1    2    0    0  0.46407868128E+02  0.21300596635E+02 -0.51177035469E+03  0.52066889653E+03  0.81115955457E+02 0.  0.
         25    2    1    2    0    0 -0.61988400077E+02 -0.33284648402E+02  0.38119287410E+02  0.14849423759E+03  0.12508808481E+03 0.  0.
        -24    2    1    2    0    0  0.15580531948E+02  0.11984051767E+02  0.69166235482E+03  0.69663689251E+03  0.80745132748E+02 0.  0.
        -11    1    3    3    0    0  0.65526563392E+02  0.12240190306E+02 -0.45900220542E+03  0.46381739656E+03  0.00000000000E+00 0.  1.
         12    1    3    3    0    0 -0.19118695263E+02  0.90604063296E+01 -0.52768149269E+02  0.56851499969E+02  0.00000000000E+00 0. -1.
         13    1    5    5    0    0  0.37270292839E+02  0.34684993113E+02  0.47293861090E+03  0.47567116073E+03  0.00000000000E+00 0. -1.
        -14    1    5    5    0    0 -0.21689760891E+02 -0.22700941346E+02  0.21872374392E+03  0.22096573178E+03  0.00000000000E+00 0.  1.
          5    1    4    4  501    0 -0.25737994268E+02  0.18400394083E+02 -0.37928748510E+02  0.49568954143E+02  0.41800000000E+01 0.  1.
         -5    1    4    4    0  501 -0.36250405809E+02 -0.51685042485E+02  0.76048035920E+02  0.98925283447E+02  0.41800000000E+01 0.  1.
</event>
<event>
11    1  0.5813833E-009  0.1918186E+03  0.7561462E-02  0.1060465E+00
         22   -1    0    0    0    0  0.00000000000E+00  0.00000000000E+00  0.28444342930E+03  0.28444342930E+03  0.00000000000E+00 0.  1.
         22   -1    0    0    0    0 -0.00000000000E+00 -0.00000000000E+00 -0.73918914414E+03  0.73918914414E+03  0.00000000000E+00 0.  1.
         24    2    1    2    0    0 -0.55953169482E+02  0.49541114506E+01 -0.25489662480E+03  0.27321443083E+03  0.80737447847E+02 0.  0.
         25    2    1    2    0    0 -0.35391924310E+02 -0.12033345110E+03 -0.43042353814E+03  0.46545090600E+03  0.12508955175E+03 0.  0.
        -24    2    1    2    0    0  0.91345093792E+02  0.11537933965E+03  0.23057444810E+03  0.28496723661E+03  0.79908895907E+02 0.  0.
        -11    1    3    3    0    0 -0.32617723295E+02 -0.81493637802E+01 -0.24047402650E+03  0.24281286091E+03  0.00000000000E+00 0.  1.
         12    1    3    3    0    0 -0.23335446187E+02  0.13103475231E+02 -0.14422598299E+02  0.30401569919E+02  0.00000000000E+00 0. -1.
         11    1    5    5    0    0  0.25289479850E+02 -0.67436974474E+01  0.56779672667E+02  0.62521728019E+02  0.00000000000E+00 0. -1.
        -12    1    5    5    0    0  0.66055613942E+02  0.12212303710E+03  0.17379477543E+03  0.22244550859E+03  0.00000000000E+00 0.  1.
          5    1    4    4  501    0 -0.16384536219E+02 -0.13473718342E+03 -0.41522019586E+03  0.43686135681E+03  0.41800000000E+01 0.  1.
         -5    1    4    4    0  501 -0.19007388090E+02  0.14403732321E+02 -0.15203342278E+02  0.28589549196E+02  0.41800000000E+01 0.  1.
</event>
<event>
11    1  0.5813833E-009  0.1454156E+03  0.7561462E-02  0.1101657E+00
         22   -1    0    0    0    0  0.00000000000E+00  0.00000000000E+00  0.74680623695E+02  0.74680623695E+02  0.00000000000E+00 0. -1.
         22   -1    0    0    0    0 -0.00000000000E+00 -0.00000000000E+00 -0.64272813372E+03  0.64272813372E+03  0.00000000000E+00 0. -1.
        -24    2    1    2    0    0 -0.49596131145E+02  0.19471444813E+02 -0.37187725464E+03  0.38296757733E+03  0.74381176244E+02 0.  0.
         25    2    1    2    0    0 -0.29978962159E+02 -0.52593081845E+02 -0.14663651986E+03  0.20202480557E+03  0.12508789981E+03 0.  0.
         24    2    1    2    0    0  0.79575093304E+02  0.33121637032E+02 -0.49533735523E+02  0.13241637451E+03  0.87471520911E+02 0.  0.
        -13    1    5    5    0    0  0.42197756235E+02 -0.27786515652E+02 -0.28079053355E+02  0.57802891975E+02  0.00000000000E+00 0.  1.
         14    1    5    5    0    0  0.37377337069E+02  0.60908152684E+02 -0.21454682168E+02  0.74613482539E+02  0.00000000000E+00 0. -1.
         11    1    3    3    0    0 -0.54180272192E+02  0.41782015823E+02 -0.26497366874E+03  0.27366454623E+03  0.00000000000E+00 0. -1.
        -12    1    3    3    0    0  0.45841410473E+01 -0.22310571010E+02 -0.10690358591E+03  0.10930303110E+03  0.00000000000E+00 0.  1.
          5    1    4    4  501    0 -0.64697217508E+02 -0.22682549903E+02 -0.13945442919E+03  0.15545172319E+03  0.41800000000E+01 0. -1.
         -5    1    4    4    0  501  0.34718255349E+02 -0.29910531942E+02 -0.71820906700E+01  0.46573082375E+02  0.41800000000E+01 0. -1.
</event>
<event>
11    1  0.5813833E-009  0.1559477E+03  0.7561462E-02  0.1090952E+00
         22   -1    0    0    0    0  0.00000000000E+00  0.00000000000E+00  0.10513599859E+03  0.10513599859E+03  0.00000000000E+00 0.  1.
         22   -1    0    0    0    0 -0.00000000000E+00 -0.00000000000E+00 -0.12968154035E+04  0.12968154035E+04  0.00000000000E+00 0. -1.
        -24    2    1    2    0    0  0.93699203246E+02 -0.22559467389E+02 -0.82190203075E+03  0.83145172923E+03  0.80626048026E+02 0.  0.
         25    2    1    2    0    0 -0.83237376641E+02  0.15173314647E+02 -0.43815231637E+03  0.46344761344E+03  0.12509015836E+03 0.  0.
         24    2    1    2    0    0 -0.10461826605E+02  0.73861527423E+01  0.68374942257E+02  0.10705205937E+03  0.81369561992E+02 0.  0.
        -11    1    5    5    0    0 -0.45775699762E+02 -0.11957523603E+01  0.42138687092E+02  0.62229522433E+02  0.00000000000E+00 0.  1.
         12    1    5    5    0    0  0.35313873157E+02  0.85819051026E+01  0.26236255164E+02  0.44822536938E+02  0.00000000000E+00 0. -1.
         13    1    3    3    0    0  0.67869366670E+02  0.11975791325E+02 -0.67034094775E+03  0.67387436273E+03  0.00000000000E+00 0. -1.
        -14    1    3    3    0    0  0.25829836576E+02 -0.34535258714E+02 -0.15156108300E+03  0.15757736650E+03  0.00000000000E+00 0.  1.
          5    1    4    4  501    0  0.12578794743E+01  0.47936223688E+02 -0.74864499002E+02  0.89003535958E+02  0.41800000000E+01 0. -1.
         -5    1    4    4    0  501 -0.84495256115E+02 -0.32762909042E+02 -0.36328781737E+03  0.37444407749E+03  0.41800000000E+01 0. -1.
</event>
<event>
11    1  0.5813833E-009  0.1374158E+03  0.7561462E-02  0.1110479E+00
         22   -1    0    0    0    0  0.00000000000E+00  0.00000000000E+00  0.23643538381E+03  0.23643538381E+03  0.00000000000E+00 0. -1.
         22   -1    0    0    0    0 -0.00000000000E+00 -0.00000000000E+00 -0.18594637349E+04  0.18594637349E+04  0.00000000000E+00 0. -1.
        -24    2    1    2    0    0  0.46365917159E+02 -0.57223861169E+02 -0.11027440673E+04  0.11081213645E+04  0.80399701966E+02 0.  0.
         25    2    1    2    0    0  0.20489939343E+02  0.37119366417E+02 -0.73548365654E+03  0.74724802939E+03  0.12508286615E+03 0.  0.
         24    2    1    2    0    0 -0.66855856502E+02  0.20104494752E+02  0.21519937274E+03  0.24052972477E+03  0.81669346840E+02 0.  0.
        -11    1    5    5    0    0  0.15049262284E+02  0.15443327317E+02  0.22859923998E+02  0.31425352490E+02  0.00000000000E+00 0.  1.
         12    1    5    5    0    0 -0.81905118786E+02  0.46611674350E+01  0.19233944874E+03  0.20910437228E+03  0.00000000000E+00 0. -1.
         11    1    3    3    0    0  0.12213869175E+02 -0.15429571648E+02 -0.82203555436E+03  0.82227106413E+03  0.00000000000E+00 0. -1.
        -12    1    3    3    0    0  0.34152047984E+02 -0.41794289521E+02 -0.28070851290E+03  0.28585030039E+03  0.00000000000E+00 0.  1.
          5    1    4    4  501    0  0.52802700075E+02 -0.60910420890E+01 -0.14861739009E+03  0.15789182046E+03  0.41800000000E+01 0.  1.
         -5    1    4    4    0  501 -0.32312760732E+02  0.43210408506E+02 -0.58686626645E+03  0.58935620893E+03  0.41800000000E+01 0.  1.
</event>
<event>
11    1  0.5813833E-009  0.1906296E+03  0.7561462E-02  0.1061355E+00
         22   -1    0    0    0    0  0.00000000000E+00  0.00000000000E+00  0.63567806957E+03  0.63567806957E+03  0.00000000000E+00 0. -1.
         22   -1    0    0    0    0 -0.00000000000E+00 -0.00000000000E+00 -0.28506215486E+03  0.28506215486E+03  0.00000000000E+00 0.  1.
        -24    2    1    2    0    0  0.14088983092E+03  0.32570215664E+02 -0.22795095549E+03  0.28055466720E+03  0.76410207258E+02 0.  0.
         25    2    1    2    0    0 -0.13588033503E+03 -0.25445645656E+01  0.34805340211E+03  0.39402899168E+03  0.12509090818E+03 0.  0.
         24    2    1    2    0    0 -0.50094958930E+01 -0.30025651099E+02  0.23051346809E+03  0.24615656554E+03  0.80808174165E+02 0.  0.
        -13    1    5    5    0    0  0.96531002606E+00  0.14494242221E+02  0.37713962401E+01  0.15007941585E+02  0.00000000000E+00 0.  1.
         14    1    5    5    0    0 -0.59748059191E+01 -0.44519893320E+02  0.22674207185E+03  0.23114862395E+03  0.00000000000E+00 0. -1.
         11    1    3    3    0    0 -0.91550645163E+01  0.65505683447E+01 -0.16512526681E+02  0.19984711390E+02  0.00000000000E+00 0. -1.
        -12    1    3    3    0    0  0.15004489544E+03  0.26019647320E+02 -0.21143842881E+03  0.26056995581E+03  0.00000000000E+00 0.  1.
          5    1    4    4  501    0 -0.96973776513E+02  0.10808671412E+02  0.90403551315E+02  0.13308273817E+03  0.41800000000E+01 0. -1.
         -5    1    4    4    0  501 -0.38906558515E+02 -0.13353235978E+02  0.25764985080E+03  0.26094625351E+03  0.41800000000E+01 0. -1.
</event>
<event>
11    1  0.5813833E-009  0.1452425E+03  0.7561462E-02  0.1101842E+00
         22   -1    0    0    0    0  0.00000000000E+00  0.00000000000E+00  0.25517249146E+03  0.25517249146E+03  0.00000000000E+00 0. -1.
         22   -1    0    0    0    0 -0.00000000000E+00 -0.00000000000E+00 -0.57204175108E+03  0.57204175108E+03  0.00000000000E+00 0.  1.
        -24    2    1    2    0    0  0.59434413327E+02 -0.30370738462E+02 -0.35804465319E+03  0.37316069060E+03  0.81228665439E+02 0.  0.
         25    2    1    2    0    0 -0.93833605028E+02  0.48448028936E+02 -0.16307320652E+03  0.23106713061E+03  0.12508873340E+03 0.  0.
         24    2    1    2    0    0  0.34399191701E+02 -0.18077290474E+02  0.20424860008E+03  0.22298642133E+03  0.80593800257E+02 0.  0.
        -11    1    5    5    0    0 -0.13988560421E+02  0.21180761641E+02  0.40659358547E+02  0.47932117873E+02  0.00000000000E+00 0.  1.
         12    1    5    5    0    0  0.48387752123E+02 -0.39258052116E+02  0.16358924154E+03  0.17505430345E+03  0.00000000000E+00 0. -1.
         13    1    3    3    0    0  0.73967488856E+01  0.17427004015E+02 -0.18963958776E+02  0.26796344816E+02  0.00000000000E+00 0. -1.
        -14    1    3    3    0    0  0.52037664442E+02 -0.47797742478E+02 -0.33908069441E+03  0.34636434578E+03  0.00000000000E+00 0.  1.
          5    1    4    4  501    0  0.30650053582E+02  0.80924660006E+01 -0.23396261064E+02  0.39620338493E+02  0.41800000000E+01 0.  1.
         -5    1    4    4    0  501 -0.12448365861E+03  0.40355562936E+02 -0.13967694545E+03  0.19144679212E+03  0.41800000000E+01 0.  1.
</event>
<event>
11    1  0.5813833E-009  0.1771690E+03  0.7561462E-02  0.1071956E+00
         22   -1    0    0    0    0  0.00000000000E+00  0.00000000000E+00  0.16354727283E+03  0.16354727283E+03  0.00000000000E+00 0.  1.
         22   -1    0    0    0    0 -0.00000000000E+00 -0.00000000000E+00 -0.37413779675E+03  0.37413779675E+03  0.00000000000E+00 0.  1.
         24    2    1    2    0    0  0.18046621028E+02 -0.13168732338E+03 -0.16803686646E+03  0.22187453917E+03  0.57660133304E+02 0.  0.
         25    2    1    2    0    0 -0.57581247244E+02  0.10307365722E+03 -0.11410940715E+03  0.20642098318E+03  0.12509551011E+03 0.  0.
        -24    2    1    2    0    0  0.39534626216E+02  0.28613666162E+02  0.71555749682E+02  0.10938954722E+03  0.66814064149E+02 0.  0.
        -11    1    3    3    0    0  0.18454522421E+02 -0.40562139155E+02 -0.21898936584E+02  0.49652995419E+02  0.00000000000E+00 0.  1.
         12    1    3    3    0    0 -0.40790139246E+00 -0.91125184229E+02 -0.14613792987E+03  0.17222154375E+03  0.00000000000E+00 0. -1.
         11    1    5    5    0    0 -0.87295650692E+01  0.11344741294E+01  0.48438449356E+02  0.49231856697E+02  0.00000000000E+00 0. -1.
        -12    1    5    5    0    0  0.48264191285E+02  0.27479192033E+02  0.23117300326E+02  0.60157690527E+02  0.00000000000E+00 0.  1.
          5    1    4    4  501    0 -0.65290712561E+02 -0.23485216172E+01 -0.53166148898E+02  0.84335665582E+02  0.41800000000E+01 0.  1.
         -5    1    4    4    0  501  0.77094653165E+01  0.10542217884E+03 -0.60943258252E+02  0.12208531760E+03  0.41800000000E+01 0.  1.
</event>
<event>
11    1  0.5813833E-009  0.1437622E+03  0.7561462E-02  0.1103429E+00
         22   -1    0    0    0    0  0.00000000000E+00  0.00000000000E+00  0.15146025327E+04  0.15146025327E+04  0.00000000000E+00 0.  1.
         22   -1    0    0    0    0 -0.00000000000E+00 -0.00000000000E+00 -0.49488814158E+02  0.49488814158E+02  0.00000000000E+00 0. -1.
         24    2    1    2    0    0 -0.28822338214E+02  0.13613409623E+02  0.87133399126E+01  0.86208941354E+02  0.79624162007E+02 0.  0.
         25    2    1    2    0    0  0.59819490406E+02 -0.62628005683E+02  0.99451420326E+03  0.10060850287E+04  0.12509175000E+03 0.  0.
        -24    2    1    2    0    0 -0.30997152192E+02  0.49014596060E+02  0.46188617532E+03  0.47179737677E+03  0.76750711456E+02 0.  0.
        -11    1    3    3    0    0  0.30561132274E+01 -0.22289926141E+02  0.26719604430E+02  0.34930186034E+02  0.00000000000E+00 0.  1.
         12    1    3    3    0    0 -0.31878451442E+02  0.35903335764E+02 -0.18006264518E+02  0.51278755320E+02  0.00000000000E+00 0. -1.
         13    1    5    5    0    0  0.42375580192E+01  0.22522442519E+02  0.30428196731E+02  0.38093207679E+02  0.00000000000E+00 0. -1.
        -14    1    5    5    0    0 -0.35234710211E+02  0.26492153541E+02  0.43145797859E+03  0.43370416910E+03  0.00000000000E+00 0.  1.
          5    1    4    4  501    0  0.95845100253E+02 -0.48613901960E+02  0.83513839737E+03  0.84203515952E+03  0.41800000000E+01 0. -1.
         -5    1    4    4    0  501 -0.36025609847E+02 -0.14014103723E+02  0.15937580589E+03  0.16404986916E+03  0.41800000000E+01 0. -1.
</event>
<event>
11    1  0.5813833E-009  0.1919014E+03  0.7561462E-02  0.1060403E+00
         22   -1    0    0    0    0  0.00000000000E+00  0.00000000000E+00  0.17636594673E+04  0.17636594673E+04  0.00000000000E+00 0. -1.
         22   -1    0    0    0    0 -0.00000000000E+00 -0.00000000000E+00 -0.37211483450E+03  0.37211483450E+03  0.00000000000E+00 0.  1.
         24    2    1    2    0    0  0.49887116741E+02 -0.13101169256E+03 -0.29672320456E+03  0.33717689381E+03  0.77400320357E+02 0.  0.
         25    2    1    2    0    0 -0.89461052773E+02  0.21679462693E+03  0.28423447584E+03  0.38915239540E+03  0.12508860603E+03 0.  0.
        -24    2    1    2    0    0  0.39573936032E+02 -0.85782934371E+02  0.14040333615E+04  0.14094450126E+04  0.79377295481E+02 0.  0.
        -11    1    3    3    0    0  0.98340724561E+01 -0.11473066384E+03 -0.23646503516E+03  0.26301244658E+03  0.00000000000E+00 0.  1.
         12    1    3    3    0    0  0.40053044285E+02 -0.16281028720E+02 -0.60258169404E+02  0.74164447228E+02  0.00000000000E+00 0. -1.
         13    1    5    5    0    0 -0.25926398582E+01 -0.41653521540E+02  0.99578510079E+03  0.99665927207E+03  0.00000000000E+00 0. -1.
        -14    1    5    5    0    0  0.42166575890E+02 -0.44129412830E+02  0.40824826069E+03  0.41278574050E+03  0.00000000000E+00 0.  1.
          5    1    4    4  501    0  0.19291766601E+02  0.49092801929E+02  0.11736520984E+03  0.12874136997E+03  0.41800000000E+01 0.  1.
         -5    1    4    4    0  501 -0.10875281937E+03  0.16770182500E+03  0.16686926600E+03  0.26041102543E+03  0.41800000000E+01 0.  1.
</event>
<event>
11    1  0.5813833E-009  0.1773552E+03  0.7561462E-02  0.1071803E+00
         22   -1    0    0    0    0  0.00000000000E+00  0.00000000000E+00  0.10623706177E+04  0.10623706177E+04  0.00000000000E+00 0. -1.
         22   -1    0    0    0    0 -0.00000000000E+00 -0.00000000000E+00 -0.36416693903E+03  0.36416693903E+03  0.00000000000E+00 0. -1.
         24    2    1    2    0    0 -0.46463196072E+02 -0.67555347945E+02 -0.27819521233E+03  0.30140405599E+03  0.82032159405E+02 0.  0.
         25    2    1    2    0    0  0.15352751150E+03  0.12142617806E+03  0.12910009570E+03  0.26576146390E+03  0.12508919808E+03 0.  0.
        -24    2    1    2    0    0 -0.10706431543E+03 -0.53870830115E+02  0.84729879526E+03  0.85937203680E+03  0.78995032820E+02 0.  0.
        -13    1    3    3    0    0 -0.39771843343E+02 -0.86660104441E+02 -0.23826509536E+03  0.25663598518E+03  0.00000000000E+00 0.  1.
         14    1    3    3    0    0 -0.66913527294E+01  0.19104756496E+02 -0.39930116975E+02  0.44768070807E+02  0.00000000000E+00 0. -1.
         11    1    5    5    0    0 -0.11286349024E+03 -0.48042589022E+02  0.62511235401E+03  0.63703352575E+03  0.00000000000E+00 0. -1.
        -12    1    5    5    0    0  0.57991748067E+01 -0.58282410928E+01  0.22218644125E+03  0.22233851105E+03  0.00000000000E+00 0.  1.
          5    1    4    4  501    0  0.85629800010E+02  0.82039066808E+02  0.48816529003E+01  0.11876099556E+03  0.41800000000E+01 0. -1.
         -5    1    4    4    0  501  0.67897711494E+02  0.39387111251E+02  0.12421844280E+03  0.14700046833E+03  0.41800000000E+01 0. -1.
</event>
<event>
11    1  0.5813833E-009  0.1419015E+03  0.7561462E-02  0.1105454E+00
         22   -1    0    0    0    0  0.00000000000E+00  0.00000000000E+00  0.33478434317E+03  0.33478434317E+03  0.00000000000E+00 0.  1.
         22   -1    0    0    0    0 -0.00000000000E+00 -0.00000000000E+00 -0.62847120240E+03  0.62847120240E+03  0.00000000000E+00 0.  1.
         24    2    1    2    0    0 -0.58623611553E+02 -0.29794538514E+02 -0.55802421177E+03  0.56783661737E+03  0.81993662850E+02 0.  0.
         25    2    1    2    0    0  0.95315633635E+02  0.21655281961E+02  0.54195882511E+02  0.16774579298E+03  0.12508971232E+03 0.  0.
        -24    2    1    2    0    0 -0.36692022083E+02  0.81392565530E+01  0.21014147003E+03  0.22767313522E+03  0.79139541914E+02 0.  0.
        -13    1    3    3    0    0 -0.52049551674E+02 -0.48425937676E+02 -0.52138817521E+03  0.52621274834E+03  0.00000000000E+00 0.  1.
         14    1    3    3    0    0 -0.65740598783E+01  0.18631399162E+02 -0.36636036564E+02  0.41623869031E+02  0.00000000000E+00 0. -1.
         13    1    5    5    0    0  0.74296872211E+01  0.35030760400E+02  0.79985798419E+02  0.87636079186E+02  0.00000000000E+00 0. -1.
        -14    1    5    5    0    0 -0.44121709304E+02 -0.26891503847E+02  0.13015567161E+03  0.14003705603E+03  0.00000000000E+00 0.  1.
          5    1    4    4  501    0  0.60920236193E+02 -0.39653158139E+01  0.91952730847E+02  0.11045259625E+03  0.41800000000E+01 0.  1.
         -5    1    4    4    0  501  0.34395397442E+02  0.25620597775E+02 -0.37756848336E+02  0.57293196733E+02  0.41800000000E+01 0.  1.
</event>
<event>
11    1  0.5813833E-009  0.1460638E+03  0.7561462E-02  0.1100970E+00
         22   -1    0    0    0    0  0.00000000000E+00  0.00000000000E+00  0.46167237369E+03  0.46167237369E+03  0.00000000000E+00 0.  1.
         22   -1    0    0    0    0 -0.00000000000E+00 -0.00000000000E+00 -0.18482583602E+04  0.18482583602E+04  0.00000000000E+00 0. -1.
        -24    2    1    2    0    0  0.72534524718E+02 -0.16188526594E+02 -0.17447017281E+04  0.17481134049E+04  0.79956430248E+02 0.  0.
         25    2    1    2    0    0 -0.13015729773E+03  0.18376951253E+02 -0.90237115384E+01  0.18167766460E+03  0.12508681767E+03 0.  0.
         24    2    1    2    0    0  0.57622773011E+02 -0.21884246586E+01  0.36713945309E+03  0.38013966442E+03  0.79935056625E+02 0.  0.
        -13    1    5    5    0    0  0.53196050371E+02 -0.29296598164E+02  0.31887711670E+03  0.32460857351E+03  0.00000000000E+00 0.  1.
         14    1    5    5    0    0  0.44267226392E+01  0.27108173505E+02  0.48262336389E+02  0.55531090912E+02  0.00000000000E+00 0. -1.
         11    1    3    3    0    0  0.89793400070E+02 -0.18159757892E+02 -0.14279025317E+04  0.14308383107E+04  0.00000000000E+00 0. -1.
        -12    1    3    3    0    0 -0.17258875353E+02  0.19712312973E+01 -0.31679919637E+03  0.31727509413E+03  0.00000000000E+00 0.  1.
          5    1    4    4  501    0 -0.86866686534E+01 -0.14322710793E+02 -0.47112519543E+02  0.50176290760E+02  0.41800000000E+01 0. -1.
         -5    1    4    4    0  501 -0.12147062907E+03  0.32699662046E+02  0.38088808005E+02  0.13150137384E+03  0.41800000000E+01 0. -1.
</event>
<event>
11    1  0.5813833E-009  0.1520249E+03  0.7561462E-02  0.1094828E+00
         22   -1    0    0    0    0  0.00000000000E+00  0.00000000000E+00  0.87733047354E+03  0.87733047354E+03  0.00000000000E+00 0. -1.
         22   -1    0    0    0    0 -0.00000000000E+00 -0.00000000000E+00 -0.90937113444E+02  0.90937113444E+02  0.00000000000E+00 0. -1.
        -24    2    1    2    0    0  0.93324039670E+02 -0.22247011773E+02  0.11452100783E+00  0.12484898689E+03  0.79893369552E+02 0.  0.
         25    2    1    2    0    0 -0.60811032388E+02 -0.26903913169E+02  0.18065750713E+03  0.22957446381E+03  0.12508196252E+03 0.  0.
         24    2    1    2    0    0 -0.32513007281E+02  0.49150924942E+02  0.60562133196E+03  0.61384413628E+03  0.80959970760E+02 0.  0.
        -11    1    5    5    0    0 -0.15776491264E+02  0.16948537661E+01  0.45020084919E+03  0.45048038228E+03  0.00000000000E+00 0.  1.
         12    1    5    5    0    0 -0.16736516018E+02  0.47456071176E+02  0.15542048276E+03  0.16336375400E+03  0.00000000000E+00 0. -1.
         11    1    3    3    0    0  0.70133530615E+02 -0.51633967639E+02 -0.40380080483E+01  0.87184197190E+02  0.00000000000E+00 0. -1.
        -12    1    3    3    0    0  0.23190509055E+02  0.29386955866E+02  0.41525290561E+01  0.37664789696E+02  0.00000000000E+00 0.  1.
          5    1    4    4  501    0 -0.58789996413E+02  0.96561143279E+01  0.17397456498E+02  0.62206495760E+02  0.41800000000E+01 0. -1.
         -5    1    4    4    0  501 -0.20210359754E+01 -0.36560027497E+02  0.16326005063E+03  0.16736796805E+03  0.41800000000E+01 0. -1.
</event>
<event>
11    1  0.5813833E-009  0.2765810E+03  0.7561462E-02  0.1010621E+00
         22   -1    0    0    0    0  0.00000000000E+00  0.00000000000E+00  0.92695187149E+03  0.92695187149E+03  0.00000000000E+00 0.  1.
         22   -1    0    0    0    0 -0.00000000000E+00 -0.00000000000E+00 -0.16841615899E+04  0.16841615899E+04  0.00000000000E+00 0.  1.
         24    2    1    2    0    0  0.16785004979E+03  0.18095783034E+03 -0.16232165782E+04  0.16437833346E+04  0.79197321569E+02 0.  0.
         25    2    1    2    0    0 -0.18311007386E+03 -0.15915027661E+03  0.34617886669E+03  0.44084651318E+03  0.12509088995E+03 0.  0.
        -24    2    1    2    0    0  0.15260024067E+02 -0.21807553732E+02  0.51982799309E+03  0.52648361364E+03  0.79091183384E+02 0.  0.
        -13    1    3    3    0    0  0.13258244521E+03  0.18013720181E+03 -0.14265209095E+04  0.14439492448E+04  0.00000000000E+00 0.  1.
         14    1    3    3    0    0  0.35267604576E+02  0.82062852280E+00 -0.19669566872E+03  0.19983408983E+03  0.00000000000E+00 0. -1.
         11    1    5    5    0    0  0.84334737789E+01  0.15988070455E+02  0.29114994041E+02  0.34269881162E+02  0.00000000000E+00 0. -1.
        -12    1    5    5    0    0  0.68265502878E+01 -0.37795624188E+02  0.49071299905E+03  0.49221373247E+03  0.00000000000E+00 0.  1.
          5    1    4    4  501    0 -0.11699300300E+03 -0.14982333834E+03  0.18049351102E+03  0.26216364237E+03  0.41800000000E+01 0. -1.
         -5    1    4    4    0  501 -0.66117070853E+02 -0.93269382657E+01  0.16568535567E+03  0.17868287081E+03  0.41800000000E+01 0. -1.
</event>
<event>
11    1  0.5813833E-009  0.1414766E+03  0.7561462E-02  0.1105921E+00
         22   -1    0    0    0    0  0.00000000000E+00  0.00000000000E+00  0.21179769079E+04  0.21179769079E+04  0.00000000000E+00 0.  1.
         22   -1    0    0    0    0 -0.00000000000E+00 -0.00000000000E+00 -0.10383092924E+04  0.10383092924E+04  0.00000000000E+00 0. -1.
         24    2    1    2    0    0 -0.49275678778E+02 -0.44098527221E+02 -0.99413410390E+03  0.99944832264E+03  0.78876869085E+02 0.  0.
         25    2    1    2    0    0  0.12886152020E+02  0.81329843753E+02  0.98335761693E+02  0.17915942827E+03  0.12509029663E+03 0.  0.
        -24    2    1    2    0    0  0.36389526758E+02 -0.37231316531E+02  0.19754659577E+04  0.19776784493E+04  0.77691249915E+02 0.  0.
        -11    1    3    3    0    0  0.14638831817E+02 -0.57520774261E+00 -0.40453031061E+03  0.40479550203E+03  0.00000000000E+00 0.  1.
         12    1    3    3    0    0 -0.63914510595E+02 -0.43523319479E+02 -0.58960379328E+03  0.59465282061E+03  0.00000000000E+00 0. -1.
         13    1    5    5    0    0  0.28294968877E+02  0.10202291350E+02  0.13606143502E+04  0.13609467668E+04  0.00000000000E+00 0. -1.
        -14    1    5    5    0    0  0.80945578808E+01 -0.47433607882E+02  0.61485160748E+03  0.61673168253E+03  0.00000000000E+00 0.  1.
          5    1    4    4  501    0 -0.23404899658E+01  0.86501209501E+01 -0.29582147172E+02  0.31190997372E+02  0.41800000000E+01 0.  1.
         -5    1    4    4    0  501  0.15226641986E+02  0.72679722802E+02  0.12791790886E+03  0.14796843089E+03  0.41800000000E+01 0.  1.
</event>
<event>
11    1  0.5813833E-009  0.1405799E+03  0.7561462E-02  0.1106913E+00
         22   -1    0    0    0    0  0.00000000000E+00  0.00000000000E+00  0.21262494469E+04  0.21262494469E+04  0.00000000000E+00 0. -1.
         22   -1    0    0    0    0 -0.00000000000E+00 -0.00000000000E+00 -0.21269367826E+03  0.21269367826E+03  0.00000000000E+00 0. -1.
        -24    2    1    2    0    0 -0.79037061061E+02  0.27704123349E+02 -0.18804728751E+03  0.22060105855E+03  0.79301130019E+02 0.  0.
         25    2    1    2    0    0  0.67730783601E+00  0.12606218730E+02  0.65902550516E+03  0.67091069962E+03  0.12508866821E+03 0.  0.
         24    2    1    2    0    0  0.78359753225E+02 -0.40310342079E+02  0.14425775510E+04  0.14474313670E+04  0.79135307489E+02 0.  0.
        -11    1    5    5    0    0 -0.95073625595E+01  0.19906891785E+01  0.30929651963E+02  0.32419070881E+02  0.00000000000E+00 0.  1.
         12    1    5    5    0    0  0.87867115784E+02 -0.42301031257E+02  0.14116478990E+04  0.14150122961E+04  0.00000000000E+00 0. -1.
         13    1    3    3    0    0 -0.10744532725E+02 -0.32974241857E+01 -0.11619444192E+03  0.11673673939E+03  0.00000000000E+00 0. -1.
        -14    1    3    3    0    0 -0.68292528335E+02  0.31001547535E+02 -0.71852845594E+02  0.10386431917E+03  0.00000000000E+00 0.  1.
          5    1    4    4  501    0 -0.28558124317E+02  0.61872075644E+02  0.36243892524E+03  0.36881318732E+03  0.41800000000E+01 0. -1.
         -5    1    4    4    0  501  0.29235432153E+02 -0.49265856914E+02  0.29658657992E+03  0.30209751230E+03  0.41800000000E+01 0. -1.
</event>
<event>
11    1  0.5813833E-009  0.1926651E+03  0.7561462E-02  0.1059835E+00
         22   -1    0    0    0    0  0.00000000000E+00  0.00000000000E+00  0.15906599587E+04  0.15906599587E+04  0.00000000000E+00 0. -1.
         22   -1    0    0    0    0 -0.00000000000E+00 -0.00000000000E+00 -0.16018392423E+03  0.16018392423E+03  0.00000000000E+00 0.  1.
        -24    2    1    2    0    0  0.12271782372E+03  0.27378130786E+02 -0.15967578089E+02  0.14979152344E+03  0.79833017230E+02 0.  0.
         25    2    1    2    0    0 -0.20553919746E+03 -0.32275094542E+02  0.12227193097E+03  0.27181966764E+03  0.12508982050E+03 0.  0.
         24    2    1    2    0    0  0.82821373744E+02  0.48969637563E+01  0.13241716816E+04  0.13292326919E+04  0.80904552174E+02 0.  0.
        -11    1    5    5    0    0  0.28876288612E+02 -0.29305946951E+02  0.26885218139E+03  0.27198193692E+03  0.00000000000E+00 0.  1.
         12    1    5    5    0    0  0.53945085132E+02  0.34202910707E+02  0.10553195002E+04  0.10572507550E+04  0.00000000000E+00 0. -1.
         11    1    3    3    0    0  0.75008579786E+02 -0.16915013508E+02  0.13947336549E+02  0.78146867629E+02  0.00000000000E+00 0. -1.
        -12    1    3    3    0    0  0.47709243933E+02  0.44293144294E+02 -0.29914914638E+02  0.71644655808E+02  0.00000000000E+00 0.  1.
          5    1    4    4  501    0 -0.13340311711E+03  0.39244208098E+02  0.53369955344E+02  0.14900444308E+03  0.41800000000E+01 0. -1.
         -5    1    4    4    0  501 -0.72136080350E+02 -0.71519302640E+02  0.68901975627E+02  0.12281522456E+03  0.41800000000E+01 0. -1.
</event>
<event>
11    1  0.5813833E-009  0.1605444E+03  0.7561462E-02  0.1086566E+00
         22   -1    0    0    0    0  0.00000000000E+00  0.00000000000E+00  0.23216770367E+03  0.23216770367E+03  0.00000000000E+00 0.  1.
         22   -1    0    0    0    0 -0.00000000000E+00 -0.00000000000E+00 -0.72762098083E+03  0.72762098083E+03  0.00000000000E+00 0.  1.
        -24    2    1    2    0    0  0.32551740706E+02  0.52083065062E+01 -0.61621801116E+03  0.62268201965E+03  0.83195661197E+02 0.  0.
         25    2    1    2    0    0 -0.11330279787E+03 -0.50742941055E+02  0.15871522155E+02  0.17694491776E+03  0.12508088836E+03 0.  0.
         24    2    1    2    0    0  0.80751057167E+02  0.45534634549E+02  0.10489321184E+03  0.16016174710E+03  0.77814286388E+02 0.  0.
        -11    1    5    5    0    0  0.36688120649E+02  0.26425831570E+01  0.89512326750E+02  0.96775296862E+02  0.00000000000E+00 0.  1.
         12    1    5    5    0    0  0.44062936518E+02  0.42892051392E+02  0.15380885088E+02  0.63386450234E+02  0.00000000000E+00 0. -1.
         13    1    3    3    0    0  0.57624398510E+02 -0.12115564746E+02 -0.38992439081E+03  0.39434551952E+03  0.00000000000E+00 0. -1.
        -14    1    3    3    0    0 -0.25072657804E+02  0.17323871252E+02 -0.22629362034E+03  0.22833650013E+03  0.00000000000E+00 0.  1.
          5    1    4    4  501    0 -0.91222890245E+02  0.19005490978E+02  0.37514039942E+02  0.10053656044E+03  0.41800000000E+01 0.  1.
         -5    1    4    4    0  501 -0.22079907628E+02 -0.69748432034E+02 -0.21642517787E+02  0.76408357319E+02  0.41800000000E+01 0.  1.
</event>
<event>
11    1  0.5813833E-009  0.2688252E+03  0.7561462E-02  0.1014323E+00
         22   -1    0    0    0    0  0.00000000000E+00  0.00000000000E+00  0.61866317605E+03  0.61866317605E+03  0.00000000000E+00 0. -1.
         22   -1    0    0    0    0 -0.00000000000E+00 -0.00000000000E+00 -0.23681196458E+04  0.23681196458E+04  0.00000000000E+00 0. -1.
         24    2    1    2    0    0  0.15595842431E+02  0.37301820304E+02 -0.16446276129E+04  0.16471322468E+04  0.81301888627E+02 0.  0.
         25    2    1    2    0    0 -0.24533142870E+03 -0.95734086546E+02 -0.66506976263E+03  0.72616628362E+03  0.12508859687E+03 0.  0.
        -24    2    1    2    0    0  0.22973558627E+03  0.58432266243E+02  0.56024090579E+03  0.61348429146E+03  0.79374643407E+02 0.  0.
        -13    1    3    3    0    0 -0.11810728205E+02  0.37195058985E+02 -0.34248337196E+03  0.34469961674E+03  0.00000000000E+00 0.  1.
         14    1    3    3    0    0  0.27406570636E+02  0.10676131886E+00 -0.13021442409E+04  0.13024326300E+04  0.00000000000E+00 0. -1.
         13    1    5    5    0    0  0.63315625660E+02  0.54139943483E+02  0.17531219599E+03  0.19409886140E+03  0.00000000000E+00 0. -1.
        -14    1    5    5    0    0  0.16641996061E+03  0.42923227601E+01  0.38492870979E+03  0.41938543006E+03  0.00000000000E+00 0.  1.
          5    1    4    4  501    0 -0.24215464933E+02 -0.42822518724E+02 -0.49392933330E+02  0.69837605305E+02  0.41800000000E+01 0. -1.
         -5    1    4    4    0  501 -0.22111596376E+03 -0.52911567822E+02 -0.61567682930E+03  0.65632867832E+03  0.41800000000E+01 0. -1.
</event>
<event>
11    1  0.5813833E-009  0.2354641E+03  0.7561462E-02  0.1031941E+00
         22   -1    0    0    0    0  0.00000000000E+00  0.00000000000E+00  0.17656759482E+04  0.17656759482E+04  0.00000000000E+00 0.  1.
         22   -1    0    0    0    0 -0.00000000000E+00 -0.00000000000E+00 -0.15094983231E+03  0.15094983231E+03  0.00000000000E+00 0. -1.
         24    2    1    2    0    0 -0.46062927340E+02 -0.15185353050E+02 -0.43258792327E+02  0.11127422837E+03  0.90322990229E+02 0.  0.
         25    2    1    2    0    0 -0.32679174047E+02  0.19888107231E+03  0.14702940672E+03  0.27908215364E+03  0.12509033816E+03 0.  0.
        -24    2    1    2    0    0  0.78742101387E+02 -0.18369571927E+03  0.15109555015E+04  0.15262693985E+04  0.81038962688E+02 0.  0.
        -13    1    3    3    0    0 -0.46627386688E+02  0.26501003527E+02 -0.36306052411E+01  0.53754978110E+02  0.00000000000E+00 0.  1.
         14    1    3    3    0    0  0.56445934768E+00 -0.41686356576E+02 -0.39628187086E+02  0.57519250262E+02  0.00000000000E+00 0. -1.
         13    1    5    5    0    0  0.50520838509E+02 -0.59512109002E+02  0.36470347907E+03  0.37296470863E+03  0.00000000000E+00 0. -1.
        -14    1    5    5    0    0  0.28221262877E+02 -0.12418361026E+03  0.11462520224E+04  0.11533046899E+04  0.00000000000E+00 0.  1.
          5    1    4    4  501    0 -0.42816906285E+02  0.18364431573E+03  0.16682083139E+03  0.25180386087E+03  0.41800000000E+01 0.  1.
         -5    1    4    4    0  501  0.10137732238E+02  0.15236756584E+02 -0.19791424669E+02  0.27278292773E+02  0.41800000000E+01 0.  1.
</event>
<event>
11    1  0.5813833E-009  0.1722390E+03  0.7561462E-02  0.1076099E+00
         22   -1    0    0    0    0  0.00000000000E+00  0.00000000000E+00  0.98362344131E+03  0.98362344131E+03  0.00000000000E+00 0. -1.
         22   -1    0    0    0    0 -0.00000000000E+00 -0.00000000000E+00 -0.70227443623E+03  0.70227443623E+03  0.00000000000E+00 0.  1.
        -24    2    1    2    0    0 -0.60297946844E+01 -0.80972419409E+02 -0.60188995612E+03  0.61270277151E+03  0.80871971708E+02 0.  0.
         25    2    1    2    0    0  0.12398010013E+03  0.71898867887E+02  0.12381318861E+02  0.19063935174E+03  0.12509817323E+03 0.  0.
         24    2    1    2    0    0 -0.11795030545E+03  0.90735515228E+01  0.87085764234E+03  0.88255575429E+03  0.80728076383E+02 0.  0.
        -13    1    5    5    0    0 -0.49712833630E+02  0.44054103723E+02  0.38672298837E+03  0.39238603393E+03  0.00000000000E+00 0.  1.
         14    1    5    5    0    0 -0.68237471817E+02 -0.34980552200E+02  0.48413465396E+03  0.49016972036E+03  0.00000000000E+00 0. -1.
         13    1    3    3    0    0  0.10056983248E+02 -0.86789483734E+02 -0.56861509795E+03  0.57528835119E+03  0.00000000000E+00 0. -1.
        -14    1    3    3    0    0 -0.16086777932E+02  0.58170643248E+01 -0.33274858178E+02  0.37414420326E+02  0.00000000000E+00 0.  1.
          5    1    4    4  501    0  0.54426761718E+02 -0.19538143861E+02  0.42395901166E+02  0.71825457132E+02  0.41800000000E+01 0.  1.
         -5    1    4    4    0  501  0.69553338414E+02  0.91437011748E+02 -0.30014582305E+02  0.11881389461E+03  0.41800000000E+01 0.  1.
</event>
<event>
11    1  0.5813833E-009  0.1408847E+03  0.7561462E-02  0.1106575E+00
         22   -1    0    0    0    0  0.00000000000E+00  0.00000000000E+00  0.65536017079E+03  0.65536017079E+03  0.00000000000E+00 0. -1.
         22   -1    0    0    0    0 -0.00000000000E+00 -0.00000000000E+00 -0.82665127184E+02  0.82665127184E+02  0.00000000000E+00 0.  1.
        -24    2    1    2    0    0  0.15725814712E+02 -0.14756768257E+02  0.37771496468E+01  0.85260756219E+02  0.82401858194E+02 0.  0.
         25    2    1    2    0    0  0.32397401317E+02 -0.32846913180E+02  0.86063728301E+02  0.15869492242E+03  0.12509437140E+03 0.  0.
         24    2    1    2    0    0 -0.48123216029E+02  0.47603681437E+02  0.48285416566E+03  0.49406961934E+03  0.79841649837E+02 0.  0.
        -11    1    5    5    0    0 -0.47534585746E+02  0.40525473578E+02  0.16964019810E+03  0.18077513010E+03  0.00000000000E+00 0.  1.
         12    1    5    5    0    0 -0.58863028289E+00  0.70782078585E+01  0.31321396756E+03  0.31329448924E+03  0.00000000000E+00 0. -1.
         13    1    3    3    0    0  0.52505202216E+01 -0.20277031191E+01  0.42658917070E+02  0.43028627077E+02  0.00000000000E+00 0. -1.
        -14    1    3    3    0    0  0.10475294491E+02 -0.12729065138E+02 -0.38881767423E+02  0.42232129142E+02  0.00000000000E+00 0.  1.
          5    1    4    4  501    0 -0.52872659534E+01  0.22843783881E+02  0.88129055278E+02  0.91290724762E+02  0.41800000000E+01 0.  1.
         -5    1    4    4    0  501  0.37684667270E+02 -0.55690697061E+02 -0.20653269770E+01  0.67404197658E+02  0.41800000000E+01 0.  1.
</event>
<event>
11    1  0.5813833E-009  0.1627868E+03  0.7561462E-02  0.1084485E+00
         22   -1    0    0    0    0  0.00000000000E+00  0.00000000000E+00  0.12846797874E+04  0.12846797874E+04  0.00000000000E+00 0. -1.
         22   -1    0    0    0    0 -0.00000000000E+00 -0.00000000000E+00 -0.47554066650E+03  0.47554066650E+03  0.00000000000E+00 0.  1.
        -24    2    1    2    0    0  0.89303603855E+02 -0.62591088749E+01 -0.18002784684E+03  0.21491165653E+03  0.75912346618E+02 0.  0.
         25    2    1    2    0    0 -0.12925157795E+03 -0.12351213635E+02 -0.24698827334E+03  0.30579034256E+03  0.12508398600E+03 0.  0.
         24    2    1    2    0    0  0.39947974098E+02  0.18610322510E+02  0.12361552411E+04  0.12395184548E+04  0.79900156486E+02 0.  0.
        -13    1    5    5    0    0  0.21460608585E+02  0.22824464092E+01  0.73534186146E+02  0.76635786775E+02  0.00000000000E+00 0.  1.
         14    1    5    5    0    0  0.18487365513E+02  0.16327876101E+02  0.11626210549E+04  0.11628826680E+04  0.00000000000E+00 0. -1.
         11    1    3    3    0    0 -0.16957009463E+01 -0.13335237630E+02 -0.42806078601E+00  0.13449431229E+02  0.00000000000E+00 0. -1.
        -12    1    3    3    0    0  0.90999304801E+02  0.70761287548E+01 -0.17959978606E+03  0.20146222530E+03  0.00000000000E+00 0.  1.
          5    1    4    4  501    0 -0.82961372347E+02 -0.67587799480E+02 -0.13140245555E+03  0.16951335542E+03  0.41800000000E+01 0. -1.
         -5    1    4    4    0  501 -0.46290205606E+02  0.55236585844E+02 -0.11558581778E+03  0.13627698714E+03  0.41800000000E+01 0. -1.
</event>
<event>
11    1  0.5813833E-009  0.2925934E+03  0.7561462E-02  0.1003375E+00
         22   -1    0    0    0    0  0.00000000000E+00  0.00000000000E+00  0.85234167546E+03  0.85234167546E+03  0.00000000000E+00 0. -1.
         22   -1    0    0    0    0 -0.00000000000E+00 -0.00000000000E+00 -0.63226026556E+03  0.63226026556E+03  0.00000000000E+00 0.  1.
        -24    2    1    2    0    0 -0.57618823957E+02 -0.25173656416E+03 -0.42211856476E+03  0.50132362584E+03  0.80312318454E+02 0.  0.
         25    2    1    2    0    0 -0.12664723855E+03  0.32677248419E+03  0.80814211512E+02  0.38078644000E+03  0.12509035395E+03 0.  0.
         24    2    1    2    0    0  0.18426606250E+03 -0.75035920030E+02  0.56138576315E+03  0.60249187518E+03  0.90874163010E+02 0.  0.
        -11    1    5    5    0    0  0.14050748634E+03 -0.11376218441E+02  0.38200007853E+03  0.40718034341E+03  0.00000000000E+00 0.  1.
         12    1    5    5    0    0  0.43758576159E+02 -0.63659701590E+02  0.17938568462E+03  0.19531153177E+03  0.00000000000E+00 0. -1.
         11    1    3    3    0    0  0.38064005949E+01 -0.45376306306E+02 -0.31739107568E+02  0.55505574573E+02  0.00000000000E+00 0. -1.
        -12    1    3    3    0    0 -0.61425224552E+02 -0.20636025786E+03 -0.39037945720E+03  0.44581805127E+03  0.00000000000E+00 0.  1.
          5    1    4    4  501    0 -0.10431676018E+03  0.11923854682E+03  0.65388251914E+02  0.17144361577E+03  0.41800000000E+01 0. -1.
         -5    1    4    4    0  501 -0.22330478367E+02  0.20753393737E+03  0.15425959598E+02  0.20934282423E+03  0.41800000000E+01 0. -1.
</event>
<event>
11    1  0.5813833E-009  0.1669472E+03  0.7561462E-02  0.1080719E+00
         22   -1    0    0    0    0  0.00000000000E+00  0.00000000000E+00  0.14504592681E+04  0.14504592681E+04  0.00000000000E+00 0. -1.
         22   -1    0    0    0    0 -0.00000000000E+00 -0.00000000000E+00 -0.34546630019E+03  0.34546630019E+03  0.00000000000E+00 0. -1.
         24    2    1    2    0    0 -0.72296979173E+02 -0.36656164956E+02 -0.26368890407E+03  0.28729995204E+03  0.80242736026E+02 0.  0.
         25    2    1    2    0    0  0.75490347211E+02  0.14508570844E+03  0.93477814801E+02  0.22613024956E+03  0.12509249614E+03 0.  0.
        -24    2    1    2    0    0 -0.31933680385E+01 -0.10842954348E+03  0.12752040571E+04  0.12824953666E+04  0.82956703270E+02 0.  0.
        -11    1    3    3    0    0  0.15564500299E+02 -0.13697859201E+02 -0.28960742183E+02  0.35617546295E+02  0.00000000000E+00 0.  1.
         12    1    3    3    0    0 -0.87861479472E+02 -0.22958305755E+02 -0.23472816189E+03  0.25168240575E+03  0.00000000000E+00 0. -1.
         13    1    5    5    0    0  0.10294143136E+02 -0.14850414100E+02  0.64364780236E+03  0.64390138815E+03  0.00000000000E+00 0. -1.
        -14    1    5    5    0    0 -0.13487511174E+02 -0.93579129383E+02  0.63155625478E+03  0.63859397849E+03  0.00000000000E+00 0.  1.
          5    1    4    4  501    0 -0.10350005210E+02 -0.17707887886E+02  0.16255336034E+02  0.26502834769E+02  0.41800000000E+01 0.  1.
         -5    1    4    4    0  501  0.85840352422E+02  0.16279359632E+03  0.77222478767E+02  0.19962741479E+03  0.41800000000E+01 0.  1.
</event>
<event>
11    1  0.5813833E-009  0.3949696E+03  0.7561462E-02  0.9664718E-01
         22   -1    0    0    0    0  0.00000000000E+00  0.00000000000E+00  0.62619306316E+03  0.62619306316E+03  0.00000000000E+00 0. -1.
         22   -1    0    0    0    0 -0.00000000000E+00 -0.00000000000E+00 -0.11380029893E+04  0.11380029893E+04  0.00000000000E+00 0. -1.
         24    2    1    2    0    0 -0.71626107409E+02 -0.18649402039E+02 -0.66972012712E+03  0.67865443842E+03  0.81047508660E+02 0.  0.
         25    2    1    2    0    0 -0.29241926052E+03 -0.10927641077E+03 -0.32128781622E+03  0.46510523100E+03  0.12508659874E+03 0.  0.
        -24    2    1    2    0    0  0.36404536793E+03  0.12792581281E+03  0.47919801722E+03  0.62043638302E+03  0.80103197051E+02 0.  0.
        -11    1    3    3    0    0 -0.37454317999E+02 -0.26098420114E+02 -0.12963234507E+03  0.13743543341E+03  0.00000000000E+00 0.  1.
         12    1    3    3    0    0 -0.34171789410E+02  0.74490180750E+01 -0.54008778204E+03  0.54121900500E+03  0.00000000000E+00 0. -1.
         13    1    5    5    0    0  0.16324136578E+03  0.16610967154E+02  0.18575071047E+03  0.24784469769E+03  0.00000000000E+00 0. -1.
        -14    1    5    5    0    0  0.20080400214E+03  0.11131484566E+03  0.29344730675E+03  0.37259168533E+03  0.00000000000E+00 0.  1.
          5    1    4    4  501    0 -0.29916172999E+03 -0.85411706354E+02 -0.29802448885E+03  0.43084680413E+03  0.41800000000E+01 0. -1.
         -5    1    4    4    0  501  0.67424694776E+01 -0.23864704417E+02 -0.23263327369E+02  0.34258426873E+02  0.41800000000E+01 0. -1.
</event>
<event>
11    1  0.5813833E-009  0.1501280E+03  0.7561462E-02  0.1096748E+00
         22   -1    0    0    0    0  0.00000000000E+00  0.00000000000E+00  0.12463946489E+04  0.12463946489E+04  0.00000000000E+00 0.  1.
         22   -1    0    0    0    0 -0.00000000000E+00 -0.00000000000E+00 -0.35946983463E+03  0.35946983463E+03  0.00000000000E+00 0.  1.
         24    2    1    2    0    0 -0.32691674764E+02 -0.11578333718E+02 -0.26696069401E+03  0.28105526551E+03  0.80754236508E+02 0.  0.
         25    2    1    2    0    0  0.52890294688E+02  0.91352128911E+02 -0.14259749549E+01  0.16371513973E+03  0.12513200567E+03 0.  0.
        -24    2    1    2    0    0 -0.20198619924E+02 -0.79773795193E+02  0.11553114832E+04  0.11610940783E+04  0.81381771306E+02 0.  0.
        -11    1    3    3    0    0 -0.12493392665E+02 -0.45528295116E+02 -0.16780715855E+03  0.17432198077E+03  0.00000000000E+00 0.  1.
         12    1    3    3    0    0 -0.20198282099E+02  0.33949961398E+02 -0.99153535458E+02  0.10673328474E+03  0.00000000000E+00 0. -1.
         13    1    5    5    0    0 -0.49438579606E+02 -0.54711212068E+02  0.61349550057E+03  0.61791117412E+03  0.00000000000E+00 0. -1.
        -14    1    5    5    0    0  0.29239959682E+02 -0.25062583124E+02  0.54181598265E+03  0.54318290416E+03  0.00000000000E+00 0.  1.
          5    1    4    4  501    0 -0.28668950525E+02  0.70827490180E+02  0.14847702725E+02  0.77951066482E+02  0.41800000000E+01 0. -1.
         -5    1    4    4    0  501  0.81559245213E+02  0.20524638730E+02 -0.16273677680E+02  0.85764073247E+02  0.41800000000E+01 0. -1.
</event>
<event>
11    1  0.5813833E-009  0.3731250E+03  0.7561462E-02  0.9732561E-01
         22   -1    0    0    0    0  0.00000000000E+00  0.00000000000E+00  0.14647409553E+03  0.14647409553E+03  0.00000000000E+00 0.  1.
         22   -1    0    0    0    0 -0.00000000000E+00 -0.00000000000E+00 -0.76256046008E+03  0.76256046008E+03  0.00000000000E+00 0.  1.
         24    2    1    2    0    0 -0.14670507769E+03 -0.91444487225E+02 -0.47319030789E+03  0.50948286332E+03  0.76021355360E+02 0.  0.
         25    2    1    2    0    0 -0.10720110590E+02 -0.60309951316E+02 -0.42554570359E+02  0.14563691058E+03  0.12508799808E+03 0.  0.
        -24    2    1    2    0    0  0.15742518828E+03  0.15175443854E+03 -0.10034148631E+03  0.25391478171E+03  0.81192382491E+02 0.  0.
        -13    1    3    3    0    0 -0.15034737136E+03 -0.93364977056E+02 -0.41518113128E+03  0.45132773323E+03  0.00000000000E+00 0.  1.
         14    1    3    3    0    0  0.36422936660E+01  0.19204898303E+01 -0.58009176609E+02  0.58155130085E+02  0.00000000000E+00 0. -1.
         13    1    5    5    0    0 -0.60546048112E+01 -0.40665676225E+01 -0.18267246612E+01  0.75187854495E+01  0.00000000000E+00 0. -1.
        -14    1    5    5    0    0  0.16347979309E+03  0.15582100616E+03 -0.98514761647E+02  0.24639599626E+03  0.00000000000E+00 0.  1.
          5    1    4    4  501    0  0.49572946567E+02 -0.60072036410E+02 -0.15996447385E+02  0.79620884941E+02  0.41800000000E+01 0. -1.
         -5    1    4    4    0  501 -0.60293057157E+02 -0.23791490626E+00 -0.26558122973E+02  0.66016025635E+02  0.41800000000E+01 0. -1.
</event>
<event>
11    1  0.5813833E-009  0.3271569E+03  0.7561462E-02  0.9893107E-01
         22   -1    0    0    0    0  0.00000000000E+00  0.00000000000E+00  0.29813371179E+03  0.29813371179E+03  0.00000000000E+00 0.  1.
         22   -1    0    0    0    0 -0.00000000000E+00 -0.00000000000E+00 -0.10461963984E+04  0.10461963984E+04  0.00000000000E+00 0. -1.
        -24    2    1    2    0    0  0.20167093387E+03 -0.25987753457E+03 -0.53715312502E+03  0.63426137534E+03  0.74474921843E+02 0.  0.
         25    2    1    2    0    0 -0.15167594566E+03  0.22935346351E+03 -0.39993771843E+03  0.50119727526E+03  0.12505969128E+03 0.  0.
         24    2    1    2    0    0 -0.49994988217E+02  0.30524071057E+02  0.18902815686E+03  0.20887145958E+03  0.66816351154E+02 0.  0.
        -11    1    5    5    0    0 -0.49077474428E+02  0.37903652639E+02  0.19129706798E+03  0.20109662752E+03  0.00000000000E+00 0.  1.
         12    1    5    5    0    0 -0.91751378851E+00 -0.73795815817E+01 -0.22689111283E+01  0.77748320612E+01  0.00000000000E+00 0. -1.
         11    1    3    3    0    0  0.17228580701E+03 -0.20845161370E+03 -0.38073564745E+03  0.46700546870E+03  0.00000000000E+00 0. -1.
        -12    1    3    3    0    0  0.29385126865E+02 -0.51425920870E+02 -0.15641747756E+03  0.16725590664E+03  0.00000000000E+00 0.  1.
          5    1    4    4  501    0 -0.77354237719E+02  0.58358586725E+02 -0.22703005237E+03  0.24687956541E+03  0.41800000000E+01 0.  1.
         -5    1    4    4    0  501 -0.74321707937E+02  0.17099487679E+03 -0.17290766606E+03  0.25431770985E+03  0.41800000000E+01 0.  1.
</event>
<event>
11    1  0.5813833E-009  0.1801753E+03  0.7561462E-02  0.1069501E+00
         22   -1    0    0    0    0  0.00000000000E+00  0.00000000000E+00  0.77817956268E+02  0.77817956268E+02  0.00000000000E+00 0.  1.
         22   -1    0    0    0    0 -0.00000000000E+00 -0.00000000000E+00 -0.20028376242E+04  0.20028376242E+04  0.00000000000E+00 0.  1.
         24    2    1    2    0    0 -0.10383490850E+03 -0.80424932438E+02 -0.16684380746E+04  0.16756307997E+04  0.82480969968E+02 0.  0.
         25    2    1    2    0    0  0.12582505147E+03  0.25561491010E+02 -0.24815080801E+03  0.30611263149E+03  0.12506312901E+03 0.  0.
        -24    2    1    2    0    0 -0.21990142973E+02  0.54863441428E+02 -0.84307853706E+01  0.98912149256E+02  0.78860456092E+02 0.  0.
        -11    1    3    3    0    0 -0.81703552014E+02 -0.91434531211E+02 -0.11316510033E+04  0.11382748953E+04  0.00000000000E+00 0.  1.
         12    1    3    3    0    0 -0.22131356485E+02  0.11009598773E+02 -0.53678707124E+03  0.53735590445E+03  0.00000000000E+00 0. -1.
         13    1    5    5    0    0 -0.24229390675E+02  0.17543913478E+02 -0.40021632216E+02  0.49965821497E+02  0.00000000000E+00 0. -1.
        -14    1    5    5    0    0  0.22392477018E+01  0.37319527950E+02  0.31590846846E+02  0.48946327759E+02  0.00000000000E+00 0.  1.
          5    1    4    4  501    0 -0.31137653709E+01 -0.15559391225E+02  0.65418050895E+01  0.17665157908E+02  0.41800000000E+01 0.  1.
         -5    1    4    4    0  501  0.12893881684E+03  0.41120882235E+02 -0.25469261310E+03  0.28844747358E+03  0.41800000000E+01 0.  1.
</event>
<event>
11    1  0.5813833E-009  0.1333983E+03  0.7561462E-02  0.1115163E+00
         22   -1    0    0    0    0  0.00000000000E+00  0.00000000000E+00  0.62796506149E+02  0.62796506149E+02  0.00000000000E+00 0.  1.
         22   -1    0    0    0    0 -0.00000000000E+00 -0.00000000000E+00 -0.27964841801E+04  0.27964841801E+04  0.00000000000E+00 0. -1.
        -24    2    1    2    0    0 -0.63118610323E+01  0.31458812906E+02 -0.19979730070E+04  0.19998588627E+04  0.80683562449E+02 0.  0.
         25    2    1    2    0    0 -0.14562355455E+02  0.11563903720E+02 -0.75423954492E+03  0.76476853733E+03  0.12509132063E+03 0.  0.
         24    2    1    2    0    0  0.20874216487E+02 -0.43022716626E+02  0.18524877962E+02  0.94653286299E+02  0.79557441159E+02 0.  0.
        -13    1    5    5    0    0  0.19794587612E+01 -0.58122069377E+02  0.32599421985E+02  0.66669449670E+02  0.00000000000E+00 0.  1.
         14    1    5    5    0    0  0.18894757726E+02  0.15099352751E+02 -0.14074544023E+02  0.27983836629E+02  0.00000000000E+00 0. -1.
         11    1    3    3    0    0  0.25111329272E+02  0.43823601490E+02 -0.14220797995E+04  0.14229764731E+04  0.00000000000E+00 0. -1.
        -12    1    3    3    0    0 -0.31423190304E+02 -0.12364788584E+02 -0.57589320753E+03  0.57688238954E+03  0.00000000000E+00 0.  1.
          5    1    4    4  501    0 -0.61920183832E+02  0.12736569362E+02 -0.60072601231E+03  0.60405756649E+03  0.41800000000E+01 0. -1.
         -5    1    4    4    0  501  0.47357828377E+02 -0.11726656427E+01 -0.15351353261E+03  0.16071097084E+03  0.41800000000E+01 0. -1.
</event>
<event>
11    1  0.5813833E-009  0.1801250E+03  0.7561462E-02  0.1069542E+00
         22   -1    0    0    0    0  0.00000000000E+00  0.00000000000E+00  0.84817195994E+03  0.84817195994E+03  0.00000000000E+00 0. -1.
         22   -1    0    0    0    0 -0.00000000000E+00 -0.00000000000E+00 -0.32078668058E+03  0.32078668058E+03  0.00000000000E+00 0.  1.
         24    2    1    2    0    0  0.10580033752E+00 -0.12695891119E+03 -0.26211959180E+03  0.30181619667E+03  0.79169184918E+02 0.  0.
         25    2    1    2    0    0  0.34557035724E+02  0.18596270728E+03  0.39393492086E+03  0.45454244861E+03  0.12509116075E+03 0.  0.
        -24    2    1    2    0    0 -0.34662836062E+02 -0.59003796083E+02  0.39556995030E+03  0.41259999524E+03  0.95290137652E+02 0.  0.
        -13    1    3    3    0    0  0.77760616576E+01 -0.12571810029E+03 -0.26509370090E+03  0.29349647039E+03  0.00000000000E+00 0.  1.
         14    1    3    3    0    0 -0.76702613200E+01 -0.12408109025E+01  0.29741090978E+01  0.83197262779E+01  0.00000000000E+00 0. -1.
         11    1    5    5    0    0 -0.64864380487E+02 -0.57976684789E+02  0.30085651870E+03  0.31318258042E+03  0.00000000000E+00 0. -1.
        -12    1    5    5    0    0  0.30201544426E+02 -0.10271112939E+01  0.94713431608E+02  0.99417414824E+02  0.00000000000E+00 0.  1.
          5    1    4    4  501    0  0.49720758054E+02  0.27800989409E+02  0.17436805507E+03  0.18348498528E+03  0.41800000000E+01 0.  1.
         -5    1    4    4    0  501 -0.15163722330E+02  0.15816171787E+03  0.21956686579E+03  0.27105746333E+03  0.41800000000E+01 0.  1.
</event>
<event>
11    1  0.5813833E-009  0.1856839E+03  0.7561462E-02  0.1065136E+00
         22   -1    0    0    0    0  0.00000000000E+00  0.00000000000E+00  0.49354740352E+03  0.49354740352E+03  0.00000000000E+00 0.  1.
         22   -1    0    0    0    0 -0.00000000000E+00 -0.00000000000E+00 -0.56908426792E+03  0.56908426792E+03  0.00000000000E+00 0.  1.
         24    2    1    2    0    0 -0.11953579858E+03 -0.52738060716E+02 -0.37026963169E+03  0.40263673840E+03  0.89143887994E+02 0.  0.
         25    2    1    2    0    0  0.16727843048E+03  0.18725756838E+02 -0.11442441294E+03  0.23889875870E+03  0.12508774264E+03 0.  0.
        -24    2    1    2    0    0 -0.47742631898E+02  0.34012303878E+02  0.40915718022E+03  0.42109617435E+03  0.80474804796E+02 0.  0.
        -11    1    3    3    0    0 -0.74311710368E+02 -0.70458445069E+02 -0.30170962258E+03  0.31861468757E+03  0.00000000000E+00 0.  1.
         12    1    3    3    0    0 -0.45224088210E+02  0.17720384353E+02 -0.68560009114E+02  0.84022050830E+02  0.00000000000E+00 0. -1.
         11    1    5    5    0    0  0.13756829725E+02 -0.71645025169E+00  0.19721926166E+03  0.19769977449E+03  0.00000000000E+00 0. -1.
        -12    1    5    5    0    0 -0.61499461623E+02  0.34728754130E+02  0.21193791856E+03  0.22339639986E+03  0.00000000000E+00 0.  1.
          5    1    4    4  501    0  0.13252270803E+03 -0.16186115818E+02 -0.23815622072E+02  0.13567945587E+03  0.41800000000E+01 0. -1.
         -5    1    4    4    0  501  0.34755722444E+02  0.34911872656E+02 -0.90608790863E+02  0.10321930283E+03  0.41800000000E+01 0. -1.
</event>
<event>
11    1  0.5813833E-009  0.1439375E+03  0.7561462E-02  0.1103240E+00
         22   -1    0    0    0    0  0.00000000000E+00  0.00000000000E+00  0.32583668903E+03  0.32583668903E+03  0.00000000000E+00 0. -1.
         22   -1    0    0    0    0 -0.00000000000E+00 -0.00000000000E+00 -0.96266918824E+03  0.96266918824E+03  0.00000000000E+00 0.  1.
         24    2    1    2    0    0 -0.72434542303E+01  0.69953255784E+02 -0.87281889817E+03  0.87936055513E+03  0.80723176909E+02 0.  0.
         25    2    1    2    0    0 -0.82228921765E+01 -0.93567545401E+02 -0.18955498019E+01  0.15643459837E+03  0.12508272842E+03 0.  0.
        -24    2    1    2    0    0  0.15466346407E+02  0.23614289618E+02  0.23788194877E+03  0.25271072377E+03  0.80486308250E+02 0.  0.
        -13    1    3    3    0    0 -0.61475651891E+01  0.82713538534E+02 -0.84071318000E+03  0.84479463364E+03  0.00000000000E+00 0.  1.
         14    1    3    3    0    0 -0.10958890412E+01 -0.12760282750E+02 -0.32105718178E+02  0.34565921489E+02  0.00000000000E+00 0. -1.
         13    1    5    5    0    0  0.19981986793E+02  0.46943348793E+02  0.20984839425E+03  0.21596135386E+03  0.00000000000E+00 0. -1.
        -14    1    5    5    0    0 -0.45156403860E+01 -0.23329059176E+02  0.28033554516E+02  0.36749369912E+02  0.00000000000E+00 0.  1.
          5    1    4    4  501    0  0.32424328001E+02 -0.78764493947E+02 -0.43966932151E+02  0.95946579282E+02  0.41800000000E+01 0. -1.
         -5    1    4    4    0  501 -0.40647220178E+02 -0.14803051454E+02  0.42071382349E+02  0.60488019089E+02  0.41800000000E+01 0. -1.
</event>
<event>
11    1  0.5813833E-009  0.1436267E+03  0.7561462E-02  0.1103575E+00
         22   -1    0    0    0    0  0.00000000000E+00  0.00000000000E+00  0.19273450920E+03  0.19273450920E+03  0.00000000000E+00 0.  1.
         22   -1    0    0    0    0 -0.00000000000E+00 -0.00000000000E+00 -0.18043287151E+04  0.18043287151E+04  0.00000000000E+00 0. -1.
        -24    2    1    2    0    0 -0.36044836848E+02  0.29502148861E+00 -0.17105455665E+04  0.17123525511E+04  0.69898547716E+02 0.  0.
         25    2    1    2    0    0 -0.36530386094E+02 -0.32745242741E+02  0.32456921118E-01  0.13438124774E+03  0.12510634940E+03 0.  0.
         24    2    1    2    0    0  0.72575222942E+02  0.32450221253E+02  0.98918903654E+02  0.15032942546E+03  0.80584159817E+02 0.  0.
        -11    1    5    5    0    0  0.41718550734E+02  0.58757004244E+02  0.70512356023E+02  0.10082070906E+03  0.00000000000E+00 0.  1.
         12    1    5    5    0    0  0.30856672208E+02 -0.26306782991E+02  0.28406547631E+02  0.49508716398E+02  0.00000000000E+00 0. -1.
         11    1    3    3    0    0 -0.37725782078E+02 -0.90005401422E+01 -0.16783927855E+04  0.16788408462E+04  0.00000000000E+00 0. -1.
        -12    1    3    3    0    0  0.16809452299E+01  0.92955616308E+01 -0.32152781005E+02  0.33511704959E+02  0.00000000000E+00 0.  1.
          5    1    4    4  501    0 -0.48969556906E+02 -0.63279260024E+02 -0.33795451200E+02  0.86959112085E+02  0.41800000000E+01 0.  1.
         -5    1    4    4    0  501  0.12439170812E+02  0.30534017283E+02  0.33827908121E+02  0.47422135652E+02  0.41800000000E+01 0.  1.
</event>
<event>
11    1  0.5813833E-009  0.1416665E+03  0.7561462E-02  0.1105712E+00
         22   -1    0    0    0    0  0.00000000000E+00  0.00000000000E+00  0.92710511154E+03  0.92710511154E+03  0.00000000000E+00 0.  1.
         22   -1    0    0    0    0 -0.00000000000E+00 -0.00000000000E+00 -0.55840502485E+03  0.55840502485E+03  0.00000000000E+00 0. -1.
         24    2    1    2    0    0  0.24382640400E+02 -0.60007670069E+02 -0.25368446506E+03  0.27426219511E+03  0.81660946801E+02 0.  0.
         25    2    1    2    0    0  0.18476617393E+02  0.76486256926E+02 -0.27336326009E+03  0.31075256013E+03  0.12509256082E+03 0.  0.
        -24    2    1    2    0    0 -0.42859257793E+02 -0.16478586857E+02  0.89574781184E+03  0.90049538116E+03  0.80120716936E+02 0.  0.
        -13    1    3    3    0    0  0.11827111304E+02  0.96080492318E+01 -0.55109172696E+01  0.16203869321E+02  0.00000000000E+00 0.  1.
         14    1    3    3    0    0  0.12555529096E+02 -0.69615719301E+02 -0.24817354779E+03  0.25805832579E+03  0.00000000000E+00 0. -1.
         11    1    5    5    0    0  0.35646848666E+01  0.98766336393E+01  0.16051858799E+02  0.19181163706E+02  0.00000000000E+00 0. -1.
        -12    1    5    5    0    0 -0.46423942660E+02 -0.26355220496E+02  0.87969595304E+03  0.88131421746E+03  0.00000000000E+00 0.  1.
          5    1    4    4  501    0 -0.44398438454E+02  0.53226381101E+00 -0.12356261389E+03  0.13136474639E+03  0.41800000000E+01 0. -1.
         -5    1    4    4    0  501  0.62875055847E+02  0.75953993115E+02 -0.14980064619E+03  0.17938781374E+03  0.41800000000E+01 0. -1.
</event>
<event>
11    1  0.5813833E-009  0.1309587E+03  0.7561462E-02  0.1118097E+00
         22   -1    0    0    0    0  0.00000000000E+00  0.00000000000E+00  0.13078934343E+04  0.13078934343E+04  0.00000000000E+00 0.  1.
         22   -1    0    0    0    0 -0.00000000000E+00 -0.00000000000E+00 -0.22101747303E+03  0.22101747303E+03  0.00000000000E+00 0.  1.
         24    2    1    2    0    0  0.41607110715E+02  0.25488672927E+02 -0.17840743781E+03  0.20174874714E+03  0.80576168903E+02 0.  0.
         25    2    1    2    0    0 -0.73584457332E+02 -0.40609747642E+02  0.16850449825E+03  0.22606525466E+03  0.12509160431E+03 0.  0.
        -24    2    1    2    0    0  0.31977346617E+02  0.15121074716E+02  0.10967789008E+04  0.11010969055E+04  0.90770261991E+02 0.  0.
        -13    1    3    3    0    0  0.52077290316E+02  0.43778294345E+02 -0.15962661286E+03  0.17352013933E+03  0.00000000000E+00 0.  1.
         14    1    3    3    0    0 -0.10470179601E+02 -0.18289621418E+02 -0.18780824957E+02  0.28228607804E+02  0.00000000000E+00 0. -1.
         13    1    5    5    0    0  0.57259401927E+02 -0.96950097792E+01  0.82108644038E+03  0.82313764031E+03  0.00000000000E+00 0. -1.
        -14    1    5    5    0    0 -0.25282055310E+02  0.24816084495E+02  0.27569246041E+03  0.27795926517E+03  0.00000000000E+00 0.  1.
          5    1    4    4  501    0 -0.87383574044E+02  0.26085159844E+01  0.15591056670E+03  0.17879672977E+03  0.41800000000E+01 0.  1.
         -5    1    4    4    0  501  0.13799116711E+02 -0.43218263627E+02  0.12593931548E+02  0.47268524885E+02  0.41800000000E+01 0.  1.
</event>
<event>
11    1  0.5813833E-009  0.1720697E+03  0.7561462E-02  0.1076244E+00
         22   -1    0    0    0    0  0.00000000000E+00  0.00000000000E+00  0.20274267487E+04  0.20274267487E+04  0.00000000000E+00 0. -1.
         22   -1    0    0    0    0 -0.00000000000E+00 -0.00000000000E+00 -0.51306100159E+03  0.51306100159E+03  0.00000000000E+00 0. -1.
         24    2    1    2    0    0 -0.11391766107E+03  0.28154565298E+02 -0.46725994283E+03  0.48853272629E+03  0.81008996000E+02 0.  0.
         25    2    1    2    0    0  0.13346466941E+03 -0.33732616877E+02  0.22041922123E+03  0.28841187583E+03  0.12508425004E+03 0.  0.
        -24    2    1    2    0    0 -0.19547008341E+02  0.55780515789E+01  0.17612064687E+04  0.17635431482E+04  0.88447780396E+02 0.  0.
        -11    1    3    3    0    0 -0.38357404810E+02 -0.26223964600E+02 -0.11149645057E+03  0.12079091569E+03  0.00000000000E+00 0.  1.
         12    1    3    3    0    0 -0.75560256257E+02  0.54378529899E+02 -0.35576349227E+03  0.36774181061E+03  0.00000000000E+00 0. -1.
         13    1    5    5    0    0  0.16663780421E+02 -0.11729320904E+02  0.13941690219E+04  0.13943179408E+04  0.00000000000E+00 0. -1.
        -14    1    5    5    0    0 -0.36210788761E+02  0.17307372483E+02  0.36703744684E+03  0.36922520735E+03  0.00000000000E+00 0.  1.
          5    1    4    4  501    0 -0.75585704841E+01 -0.94783971090E+01  0.10150000398E+03  0.10230686784E+03  0.41800000000E+01 0.  1.
         -5    1    4    4    0  501  0.14102323989E+03 -0.24254219768E+02  0.11891921726E+03  0.18610500799E+03  0.41800000000E+01 0.  1.
</event>
<event>
11    1  0.5813833E-009  0.1558676E+03  0.7561462E-02  0.1091030E+00
         22   -1    0    0    0    0  0.00000000000E+00  0.00000000000E+00  0.21829784980E+04  0.21829784980E+04  0.00000000000E+00 0.  1.
         22   -1    0    0    0    0 -0.00000000000E+00 -0.00000000000E+00 -0.80532503632E+02  0.80532503632E+02  0.00000000000E+00 0.  1.
         24    2    1    2    0    0  0.20889951858E+02 -0.34689963714E+02 -0.33853356247E+02  0.97543846896E+02  0.82030291154E+02 0.  0.
         25    2    1    2    0    0 -0.99342638681E+02  0.70904171850E+02  0.62620386165E+03  0.65013463456E+03  0.12508958895E+03 0.  0.
        -24    2    1    2    0    0  0.78452686822E+02 -0.36214208136E+02  0.15100954890E+04  0.15158325202E+04  0.99466328405E+02 0.  0.
        -13    1    3    3    0    0  0.42171853813E+02 -0.21179333825E+00 -0.38061645691E+02  0.56808441125E+02  0.00000000000E+00 0.  1.
         14    1    3    3    0    0 -0.21281901954E+02 -0.34478170376E+02  0.42082894432E+01  0.40735405770E+02  0.00000000000E+00 0. -1.
         11    1    5    5    0    0 -0.81216931402E+01  0.19984625535E+01  0.11331782853E+02  0.14084212959E+02  0.00000000000E+00 0. -1.
        -12    1    5    5    0    0  0.86574379963E+02 -0.38212670689E+02  0.14987637062E+04  0.15017483073E+04  0.00000000000E+00 0.  1.
          5    1    4    4  501    0 -0.19416924361E+01  0.76249181287E+02  0.30490429229E+03  0.31432754839E+03  0.41800000000E+01 0.  1.
         -5    1    4    4    0  501 -0.97400946245E+02 -0.53450094376E+01  0.32129956936E+03  0.33580708618E+03  0.41800000000E+01 0.  1.
</event>
<event>
11    1  0.5813833E-009  0.1514272E+03  0.7561462E-02  0.1095429E+00
         22   -1    0    0    0    0  0.00000000000E+00  0.00000000000E+00  0.18368724794E+03  0.18368724794E+03  0.00000000000E+00 0. -1.
         22   -1    0    0    0    0 -0.00000000000E+00 -0.00000000000E+00 -0.86286323801E+03  0.86286323801E+03  0.00000000000E+00 0. -1.
        -24    2    1    2    0    0  0.68938213608E+02  0.54511385587E+02 -0.65446541466E+03  0.66523514332E+03  0.80553388942E+02 0.  0.
         25    2    1    2    0    0 -0.70600410723E+02 -0.26409211981E+02 -0.16330163469E+03  0.21907425565E+03  0.12507694081E+03 0.  0.
         24    2    1    2    0    0  0.16621971143E+01 -0.28102173606E+02  0.13859105929E+03  0.16224108698E+03  0.79512222511E+02 0.  0.
        -13    1    5    5    0    0 -0.41690817481E+01 -0.38354039590E+02  0.20740108321E+02  0.43801434778E+02  0.00000000000E+00 0.  1.
         14    1    5    5    0    0  0.58312788625E+01  0.10251865984E+02  0.11785095097E+03  0.11843965220E+03  0.00000000000E+00 0. -1.
         13    1    3    3    0    0  0.44688865439E+01  0.11510613357E+02 -0.37558747357E+03  0.37579038767E+03  0.00000000000E+00 0. -1.
        -14    1    3    3    0    0  0.64469327065E+02  0.43000772230E+02 -0.27887794110E+03  0.28944475565E+03  0.00000000000E+00 0.  1.
          5    1    4    4  501    0 -0.96372271818E+02 -0.32996786975E+02 -0.16286614763E+03  0.19214384500E+03  0.41800000000E+01 0.  1.
         -5    1    4    4    0  501  0.25771861096E+02  0.65875749937E+01 -0.43548705993E+00  0.26930410647E+02  0.41800000000E+01 0.  1.
</event>
<event>
11    1  0.5813833E-009  0.1765247E+03  0.7561462E-02  0.1072489E+00
         22   -1    0    0    0    0  0.00000000000E+00  0.00000000000E+00  0.21107255086E+04  0.21107255086E+04  0.00000000000E+00 0. -1.
         22   -1    0    0    0    0 -0.00000000000E+00 -0.00000000000E+00 -0.24645773264E+03  0.24645773264E+03  0.00000000000E+00 0.  1.
        -24    2    1    2    0    0 -0.88283199837E+01  0.25869213272E+02 -0.22238009272E+03  0.23816233238E+03  0.80754167069E+02 0.  0.
         25    2    1    2    0    0  0.72951357007E+02  0.85669357497E+02  0.55750722664E+03  0.58234294574E+03  0.12509140415E+03 0.  0.
         24    2    1    2    0    0 -0.64123037024E+02 -0.11153857077E+03  0.15291406420E+04  0.15366779631E+04  0.80965687607E+02 0.  0.
        -11    1    5    5    0    0  0.81513642379E+01 -0.61737560525E+02  0.51646693205E+03  0.52020771142E+03  0.00000000000E+00 0.  1.
         12    1    5    5    0    0 -0.72274401261E+02 -0.49801010244E+02  0.10126737099E+04  0.10164702517E+04  0.00000000000E+00 0. -1.
         13    1    3    3    0    0 -0.18123588599E+02 -0.14293101182E+02 -0.16949628062E+02  0.28636464457E+02  0.00000000000E+00 0. -1.
        -14    1    3    3    0    0  0.92952686156E+01  0.40162314454E+02 -0.20543046466E+03  0.20952586793E+03  0.00000000000E+00 0.  1.
          5    1    4    4  501    0 -0.15560117820E+02 -0.22970556222E+02  0.92239577506E+02  0.96412529156E+02  0.41800000000E+01 0.  1.
         -5    1    4    4    0  501  0.88511474828E+02  0.10863991372E+03  0.46526764914E+03  0.48593041659E+03  0.41800000000E+01 0.  1.
</event>
<event>
11    1  0.5813833E-009  0.1262111E+03  0.7561462E-02  0.1124014E+00
         22   -1    0    0    0    0  0.00000000000E+00  0.00000000000E+00  0.13795409586E+04  0.13795409586E+04  0.00000000000E+00 0.  1.
         22   -1    0    0    0    0 -0.00000000000E+00 -0.00000000000E+00 -0.25227796286E+03  0.25227796286E+03  0.00000000000E+00 0. -1.
        -24    2    1    2    0    0 -0.58316614167E+01 -0.15602924088E+02 -0.23719070506E+03  0.25124517157E+03  0.81161851596E+02 0.  0.
         25    2    1    2    0    0  0.21177981150E+01  0.28989202041E+02  0.78790424763E+03  0.79830222542E+03  0.12509388787E+03 0.  0.
         24    2    1    2    0    0  0.37138633017E+01 -0.13386277954E+02  0.57654945318E+03  0.58227152448E+03  0.80236344914E+02 0.  0.
        -13    1    5    5    0    0  0.24827924383E+02  0.25104858350E+02  0.32582024303E+03  0.32772779941E+03  0.00000000000E+00 0.  1.
         14    1    5    5    0    0 -0.21114061081E+02 -0.38491136304E+02  0.25072921015E+03  0.25454372507E+03  0.00000000000E+00 0. -1.
         13    1    3    3    0    0 -0.25188897097E+02 -0.20321757959E+02 -0.22617455136E+03  0.22847840613E+03  0.00000000000E+00 0. -1.
        -14    1    3    3    0    0  0.19357235680E+02  0.47188338711E+01 -0.11016153699E+02  0.22766765440E+02  0.00000000000E+00 0.  1.
          5    1    4    4  501    0  0.38917918082E+02 -0.35967766700E+02  0.29339848258E+03  0.29817516088E+03  0.41800000000E+01 0. -1.
         -5    1    4    4    0  501 -0.36800119967E+02  0.64956968741E+02  0.49450576505E+03  0.50012706454E+03  0.41800000000E+01 0. -1.
</event>
<event>
11    1  0.5813833E-009  0.1936414E+03  0.7561462E-02  0.1059113E+00
         22   -1    0    0    0    0  0.00000000000E+00  0.00000000000E+00  0.11227380277E+04  0.11227380277E+04  0.00000000000E+00 0.  1.
         22   -1    0    0    0    0 -0.00000000000E+00 -0.00000000000E+00 -0.53170241614E+03  0.53170241614E+03  0.00000000000E+00 0. -1.
        -24    2    1    2    0    0  0.15340401358E+02  0.17757453949E+01 -0.49349083309E+03  0.50003260075E+03  0.79125964706E+02 0.  0.
         25    2    1    2    0    0  0.10411675559E+03  0.91316095664E+02  0.31909034690E+03  0.36965490574E+03  0.12508865548E+03 0.  0.
         24    2    1    2    0    0 -0.11945715695E+03 -0.93091841059E+02  0.76543609770E+03  0.78475293730E+03  0.83717678612E+02 0.  0.
        -13    1    5    5    0    0 -0.59062340428E+02 -0.41255176626E+02  0.55697108782E+03  0.56161120210E+03  0.00000000000E+00 0.  1.
         14    1    5    5    0    0 -0.60394816519E+02 -0.51836664433E+02  0.20846500988E+03  0.22314173520E+03  0.00000000000E+00 0. -1.
         13    1    3    3    0    0 -0.13833778572E+02 -0.31166759108E+02 -0.27887997781E+03  0.28095690475E+03  0.00000000000E+00 0. -1.
        -14    1    3    3    0    0  0.29174179929E+02  0.32942504503E+02 -0.21461085528E+03  0.21907569600E+03  0.00000000000E+00 0.  1.
          5    1    4    4  501    0  0.11758369190E+03  0.34019346453E+02  0.17182820481E+03  0.21101100659E+03  0.41800000000E+01 0.  1.
         -5    1    4    4    0  501 -0.13466936312E+02  0.57296749211E+02  0.14726214209E+03  0.15864389915E+03  0.41800000000E+01 0.  1.
</event>
<event>
11    1  0.5813833E-009  0.1443903E+03  0.7561462E-02  0.1102753E+00
         22   -1    0    0    0    0  0.00000000000E+00  0.00000000000E+00  0.21995974459E+04  0.21995974459E+04  0.00000000000E+00 0.  1.
         22   -1    0    0    0    0 -0.00000000000E+00 -0.00000000000E+00 -0.31964189476E+03  0.31964189476E+03  0.00000000000E+00 0.  1.
        -24    2    1    2    0    0 -0.31948621866E+01  0.71585880629E+02 -0.29697302730E+03  0.31727523115E+03  0.85649564556E+02 0.  0.
         25    2    1    2    0    0 -0.26600422671E+01 -0.97293537459E+02  0.53664884671E+03  0.55956450790E+03  0.12508935036E+03 0.  0.
         24    2    1    2    0    0  0.58549044537E+01  0.25707656829E+02  0.16402797317E+04  0.16423996016E+04  0.79143473944E+02 0.  0.
        -11    1    5    5    0    0 -0.28688583483E+02  0.36510255828E+02  0.80771888123E+03  0.80905242395E+03  0.00000000000E+00 0.  1.
         12    1    5    5    0    0  0.34543487937E+02 -0.10802598999E+02  0.83256085049E+03  0.83334717763E+03  0.00000000000E+00 0. -1.
         13    1    3    3    0    0  0.19674031765E+02  0.30337704042E+02 -0.32462234406E+02  0.48592596916E+02  0.00000000000E+00 0. -1.
        -14    1    3    3    0    0 -0.22868893951E+02  0.41248176587E+02 -0.26451079290E+03  0.26868263424E+03  0.00000000000E+00 0.  1.
          5    1    4    4  501    0  0.17757687276E+02 -0.34964603259E+02  0.44523323639E+03  0.44697647155E+03  0.41800000000E+01 0.  1.
         -5    1    4    4    0  501 -0.20417729543E+02 -0.62328934199E+02  0.91415610319E+02  0.11258803635E+03  0.41800000000E+01 0.  1.
</event>
<event>
11    1  0.5813833E-009  0.1804369E+03  0.7561462E-02  0.1069290E+00
         22   -1    0    0    0    0  0.00000000000E+00  0.00000000000E+00  0.18768778917E+04  0.18768778917E+04  0.00000000000E+00 0.  1.
         22   -1    0    0    0    0 -0.00000000000E+00 -0.00000000000E+00 -0.93261458453E+03  0.93261458453E+03  0.00000000000E+00 0. -1.
         24    2    1    2    0    0  0.36422720045E+02  0.71807167066E+02 -0.75981860319E+03  0.76843376636E+03  0.81751206373E+02 0.  0.
         25    2    1    2    0    0 -0.14416939554E+03 -0.14221482263E+03 -0.79590044341E+02  0.25098123404E+03  0.12508850586E+03 0.  0.
        -24    2    1    2    0    0  0.10774667549E+03  0.70407655564E+02  0.17836719547E+04  0.17900774758E+04  0.79530770500E+02 0.  0.
        -11    1    3    3    0    0  0.48760769326E+02  0.21560930981E+02 -0.53920486140E+03  0.54183426334E+03  0.00000000000E+00 0.  1.
         12    1    3    3    0    0 -0.12338049281E+02  0.50246236085E+02 -0.22061374179E+03  0.22659950301E+03  0.00000000000E+00 0. -1.
         11    1    5    5    0    0 -0.11773970222E+02  0.14121520021E+02  0.16429827920E+03  0.16532382845E+03  0.00000000000E+00 0. -1.
        -12    1    5    5    0    0  0.11952064571E+03  0.56286135542E+02  0.16193736755E+04  0.16247536473E+04  0.00000000000E+00 0.  1.
          5    1    4    4  501    0 -0.72092858068E+02 -0.14877580769E+03 -0.51123214233E+02  0.17309730377E+03  0.41800000000E+01 0. -1.
         -5    1    4    4    0  501 -0.72076537468E+02  0.65609850620E+01 -0.28466830108E+02  0.77883930273E+02  0.41800000000E+01 0. -1.
</event>
<event>
11    1  0.5813833E-009  0.1975768E+03  0.7561462E-02  0.1056251E+00
         22   -1    0    0    0    0  0.00000000000E+00  0.00000000000E+00  0.40254248117E+03  0.40254248117E+03  0.00000000000E+00 0.  1.
         22   -1    0    0    0    0 -0.00000000000E+00 -0.00000000000E+00 -0.10371067524E+04  0.10371067524E+04  0.00000000000E+00 0. -1.
         24    2    1    2    0    0  0.42451501104E+02 -0.46812478056E+02 -0.89913611439E+03  0.90457758930E+03  0.76297606869E+02 0.  0.
         25    2    1    2    0    0  0.67204107472E+02 -0.75626910792E+02 -0.52371182889E+02  0.16919423250E+03  0.12509246907E+03 0.  0.
        -24    2    1    2    0    0 -0.10965560858E+03  0.12243938885E+03  0.31694302602E+03  0.36587741179E+03  0.79985262876E+02 0.  0.
        -13    1    3    3    0    0  0.19465497341E+02  0.13422747863E+02 -0.96432433607E+02  0.99288921831E+02  0.00000000000E+00 0.  1.
         14    1    3    3    0    0  0.22986003763E+02 -0.60235225919E+02 -0.80270368079E+03  0.80528866747E+03  0.00000000000E+00 0. -1.
         11    1    5    5    0    0 -0.52799881008E+02  0.11163555157E+03  0.23621610216E+03  0.26654900249E+03  0.00000000000E+00 0. -1.
        -12    1    5    5    0    0 -0.56855727568E+02  0.10803837282E+02  0.80726923865E+02  0.99328409299E+02  0.00000000000E+00 0.  1.
          5    1    4    4  501    0  0.59626666478E+02 -0.10343671601E+03 -0.66604037978E+02  0.13677742448E+03  0.41800000000E+01 0. -1.
         -5    1    4    4    0  501  0.75774409939E+01  0.27809805215E+02  0.14232855090E+02  0.32416808019E+02  0.41800000000E+01 0. -1.
</event>
<event>
11    1  0.5813833E-009  0.1332482E+03  0.7561462E-02  0.1115341E+00
         22   -1    0    0    0    0  0.00000000000E+00  0.00000000000E+00  0.15681611854E+04  0.15681611854E+04  0.00000000000E+00 0. -1.
         22   -1    0    0    0    0 -0.00000000000E+00 -0.00000000000E+00 -0.66348787412E+03  0.66348787412E+03  0.00000000000E+00 0.  1.
        -24    2    1    2    0    0 -0.42121111149E+02  0.15901758063E+02 -0.63302142924E+03  0.64335716701E+03  0.10566579653E+03 0.  0.
         25    2    1    2    0    0  0.66393012097E+02 -0.62929881523E+02  0.23243173457E+03  0.27937354271E+03  0.12512738743E+03 0.  0.
         24    2    1    2    0    0 -0.24271900948E+02  0.47028123460E+02  0.13052630059E+04  0.13089183498E+04  0.82188576788E+02 0.  0.
        -11    1    5    5    0    0  0.26002393056E+02 -0.30537803250E+01  0.29065081801E+03  0.29182759984E+03  0.00000000000E+00 0.  1.
         12    1    5    5    0    0 -0.50274294004E+02  0.50081903785E+02  0.10146121879E+04  0.10170907499E+04  0.00000000000E+00 0. -1.
         13    1    3    3    0    0  0.35143178099E+02  0.54207957210E+00 -0.23513783391E+03  0.23775015826E+03  0.00000000000E+00 0. -1.
        -14    1    3    3    0    0 -0.77264289248E+02  0.15359678491E+02 -0.39788359533E+03  0.40560700876E+03  0.00000000000E+00 0.  1.
          5    1    4    4  501    0  0.83499892046E+02 -0.30628067166E+02  0.71222113814E+02  0.11401917543E+03  0.41800000000E+01 0.  1.
         -5    1    4    4    0  501 -0.17106879949E+02 -0.32301814357E+02  0.16120962076E+03  0.16535436728E+03  0.41800000000E+01 0.  1.
</event>
<event>
11    1  0.5813833E-009  0.1384324E+03  0.7561462E-02  0.1109322E+00
         22   -1    0    0    0    0  0.00000000000E+00  0.00000000000E+00  0.41965595362E+03  0.41965595362E+03  0.00000000000E+00 0. -1.
         22   -1    0    0    0    0 -0.00000000000E+00 -0.00000000000E+00 -0.64889282583E+03  0.64889282583E+03  0.00000000000E+00 0. -1.
         24    2    1    2    0    0  0.14745034663E+02  0.21615446909E+02 -0.45739906683E+03  0.46513580785E+03  0.80329134334E+02 0.  0.
         25    2    1    2    0    0  0.44989435922E+02 -0.17586311604E+02 -0.15607106479E+03  0.20576426231E+03  0.12508967456E+03 0.  0.
        -24    2    1    2    0    0 -0.59734470584E+02 -0.40291353044E+01  0.38423325941E+03  0.39764870928E+03  0.83095471888E+02 0.  0.
        -11    1    3    3    0    0 -0.14433691556E+02  0.37102054808E+02 -0.12710033039E+03  0.13318929352E+03  0.00000000000E+00 0.  1.
         12    1    3    3    0    0  0.29178726219E+02 -0.15486607899E+02 -0.33029873644E+03  0.33194651434E+03  0.00000000000E+00 0. -1.
         13    1    5    5    0    0 -0.57541230395E+02 -0.13820284737E+02  0.38299374917E+03  0.38753865016E+03  0.00000000000E+00 0. -1.
        -14    1    5    5    0    0 -0.21932401889E+01  0.97911494324E+01  0.12395102388E+01  0.10110059118E+02  0.00000000000E+00 0.  1.
          5    1    4    4  501    0  0.42924807353E+02 -0.69569167574E+02 -0.92605381244E+02  0.12359464875E+03  0.41800000000E+01 0. -1.
         -5    1    4    4    0  501  0.20646285690E+01  0.51982855970E+02 -0.63465683547E+02  0.82169613569E+02  0.41800000000E+01 0. -1.
</event>
<event>
11    1  0.5813833E-009  0.1398753E+03  0.7561462E-02  0.1107698E+00
         22   -1    0    0    0    0  0.00000000000E+00  0.00000000000E+00  0.50274352519E+03  0.50274352519E+03  0.00000000000E+00 0.  1.
         22   -1    0    0    0    0 -0.00000000000E+00 -0.00000000000E+00 -0.15755999336E+04  0.15755999336E+04  0.00000000000E+00 0.  1.
        -24    2    1    2    0    0 -0.28457142154E+02 -0.14440585451E+01 -0.14851124735E+04  0.14874968650E+04  0.79221020878E+02 0.  0.
         25    2    1    2    0    0  0.47676125095E+02 -0.57604979378E+02 -0.19845348464E+02  0.14707243859E+03  0.12508044525E+03 0.  0.
         24    2    1    2    0    0 -0.19218982941E+02  0.59049037924E+02  0.43210141353E+03  0.44377415525E+03  0.79797939234E+02 0.  0.
        -13    1    5    5    0    0 -0.15627334970E+02  0.79003971485E+02  0.35820223009E+03  0.36714394826E+03  0.00000000000E+00 0.  1.
         14    1    5    5    0    0 -0.35916479710E+01 -0.19954933561E+02  0.73899183443E+02  0.76630206982E+02  0.00000000000E+00 0. -1.
         11    1    3    3    0    0 -0.26594372422E+02  0.27407894405E+02 -0.36133606020E+03  0.36334859532E+03  0.00000000000E+00 0. -1.
        -12    1    3    3    0    0 -0.18627697315E+01 -0.28851952950E+02 -0.11237764133E+04  0.11241482697E+04  0.00000000000E+00 0.  1.
          5    1    4    4  501    0  0.48404068772E+02 -0.95497829876E+02 -0.95118812400E+01  0.10756736340E+03  0.41800000000E+01 0. -1.
         -5    1    4    4    0  501 -0.72794367662E+00  0.37892850498E+02 -0.10333467224E+02  0.39505075189E+02  0.41800000000E+01 0. -1.
</event>
<event>
11    1  0.5813833E-009  0.2512070E+03  0.7561462E-02  0.1023258E+00
         22   -1    0    0    0    0  0.00000000000E+00  0.00000000000E+00  0.25168361480E+04  0.25168361480E+04  0.00000000000E+00 0.  1.
         22   -1    0    0    0    0 -0.00000000000E+00 -0.00000000000E+00 -0.42497003341E+03  0.42497003341E+03  0.00000000000E+00 0.  1.
         24    2    1    2    0    0 -0.15459886881E+03 -0.15031765128E+03 -0.36245469638E+03  0.42950871801E+03  0.81290377037E+02 0.  0.
         25    2    1    2    0    0  0.20618056943E+03  0.17774708953E+03  0.78718464722E+03  0.84226553672E+03  0.12508841065E+03 0.  0.
        -24    2    1    2    0    0 -0.51581700613E+02 -0.27429438252E+02  0.16671361638E+04  0.16700319267E+04  0.79060747301E+02 0.  0.
        -13    1    3    3    0    0 -0.15996977849E+03 -0.15499640023E+03 -0.35573616807E+03  0.41971708970E+03  0.00000000000E+00 0.  1.
         14    1    3    3    0    0  0.53709096734E+01  0.46787489469E+01 -0.67185283070E+01  0.97916283140E+01  0.00000000000E+00 0. -1.
         13    1    5    5    0    0 -0.22230257359E+02  0.93841814026E+01  0.13285389017E+03  0.13502741697E+03  0.00000000000E+00 0. -1.
        -14    1    5    5    0    0 -0.29351443255E+02 -0.36813619654E+02  0.15342822736E+04  0.15350045097E+04  0.00000000000E+00 0.  1.
          5    1    4    4  501    0 -0.16992804698E+02  0.84517564256E+01  0.51575022373E+02  0.55114815893E+02  0.41800000000E+01 0. -1.
         -5    1    4    4    0  501  0.22317337412E+03  0.16929533310E+03  0.73560962485E+03  0.78715072082E+03  0.41800000000E+01 0. -1.
</event>
<event>
11    1  0.5813833E-009  0.2440386E+03  0.7561462E-02  0.1027124E+00
         22   -1    0    0    0    0  0.00000000000E+00  0.00000000000E+00  0.14620091733E+04  0.14620091733E+04  0.00000000000E+00 0. -1.
         22   -1    0    0    0    0 -0.00000000000E+00 -0.00000000000E+00 -0.30095993293E+03  0.30095993293E+03  0.00000000000E+00 0.  1.
        -24    2    1    2    0    0  0.81005206498E+02  0.18043281331E+03 -0.16094878695E+03  0.26669101473E+03  0.78113646175E+02 0.  0.
         25    2    1    2    0    0 -0.24636680325E+01 -0.30585302250E+03  0.25842612631E+03  0.41950500519E+03  0.12509294777E+03 0.  0.
         24    2    1    2    0    0 -0.78541538465E+02  0.12542020920E+03  0.10635719010E+04  0.10767730863E+04  0.79725081938E+02 0.  0.
        -13    1    5    5    0    0 -0.18579475940E+02  0.94891140268E+01  0.41989531644E+02  0.46886682319E+02  0.00000000000E+00 0.  1.
         14    1    5    5    0    0 -0.59962062525E+02  0.11593109517E+03  0.10215823694E+04  0.10298864040E+04  0.00000000000E+00 0. -1.
         13    1    3    3    0    0  0.37201045776E+01  0.67562215088E+02 -0.20661029805E+02  0.70748641247E+02  0.00000000000E+00 0. -1.
        -14    1    3    3    0    0  0.77285101920E+02  0.11287059822E+03 -0.14028775714E+03  0.19594237348E+03  0.00000000000E+00 0.  1.
          5    1    4    4  501    0 -0.41459274644E+02 -0.97842134101E+02  0.14359874740E+03  0.17868975156E+03  0.41800000000E+01 0. -1.
         -5    1    4    4    0  501  0.38995606611E+02 -0.20801088840E+03  0.11482737891E+03  0.24081525362E+03  0.41800000000E+01 0. -1.
</event>
<event>
11    1  0.5813833E-009  0.1281811E+03  0.7561462E-02  0.1121524E+00
         22   -1    0    0    0    0  0.00000000000E+00  0.00000000000E+00  0.16033613390E+04  0.16033613390E+04  0.00000000000E+00 0.  1.
         22   -1    0    0    0    0 -0.00000000000E+00 -0.00000000000E+00 -0.15077448972E+03  0.15077448972E+03  0.00000000000E+00 0. -1.
        -24    2    1    2    0    0 -0.88009439510E+01 -0.33980154271E+02 -0.10577108461E+03  0.13579386113E+03  0.77590868548E+02 0.  0.
         25    2    1    2    0    0 -0.11654189719E+02  0.12720309456E+02  0.11148248999E+03  0.16844513002E+03  0.12509112615E+03 0.  0.
         24    2    1    2    0    0  0.20455133670E+02  0.21259844815E+02  0.14468754439E+04  0.14498968376E+04  0.88780042804E+02 0.  0.
        -11    1    5    5    0    0  0.45758578908E+01 -0.86581816607E+00  0.13253079838E+04  0.13253161661E+04  0.00000000000E+00 0.  1.
         12    1    5    5    0    0  0.15879275779E+02  0.22125662981E+02  0.12156746003E+03  0.12458067146E+03  0.00000000000E+00 0. -1.
         11    1    3    3    0    0  0.15366875904E+02 -0.13810880972E+02 -0.10202201167E+03  0.10409309379E+03  0.00000000000E+00 0. -1.
        -12    1    3    3    0    0 -0.24167819855E+02 -0.20169273299E+02 -0.37490729307E+01  0.31700767337E+02  0.00000000000E+00 0.  1.
          5    1    4    4  501    0  0.38243313634E+02  0.32971717901E+02  0.10160429795E+03  0.11353673846E+03  0.41800000000E+01 0. -1.
         -5    1    4    4    0  501 -0.49897503353E+02 -0.20251408445E+02  0.98781920414E+01  0.54908391552E+02  0.41800000000E+01 0. -1.
</event>
<event>
11    1  0.5813833E-009  0.1830185E+03  0.7561462E-02  0.1067227E+00
         22   -1    0    0    0    0  0.00000000000E+00  0.00000000000E+00  0.96202446220E+03  0.96202446220E+03  0.00000000000E+00 0. -1.
         22   -1    0    0    0    0 -0.00000000000E+00 -0.00000000000E+00 -0.43681211392E+03  0.43681211392E+03  0.00000000000E+00 0.  1.
         24    2    1    2    0    0 -0.13347889333E+03 -0.28010747550E+02 -0.29936518920E+03  0.33896704096E+03  0.81718549990E+02 0.  0.
         25    2    1    2    0    0  0.10359396421E+03  0.88864868013E+02 -0.39540529403E+02  0.18931745626E+03  0.12509584963E+03 0.  0.
        -24    2    1    2    0    0  0.29884929120E+02 -0.60854120463E+02  0.86411806689E+03  0.87055207890E+03  0.81021945080E+02 0.  0.
        -13    1    3    3    0    0 -0.14267784932E+03 -0.30043266087E+02 -0.25618996350E+03  0.29477595547E+03  0.00000000000E+00 0.  1.
         14    1    3    3    0    0  0.91989559945E+01  0.20325185365E+01 -0.43175225697E+02  0.44191085492E+02  0.00000000000E+00 0. -1.
         13    1    5    5    0    0  0.35693390112E+02 -0.78533250699E+02  0.66638148365E+03  0.67194179161E+03  0.00000000000E+00 0. -1.
        -14    1    5    5    0    0 -0.58084609926E+01  0.17679130236E+02  0.19773658324E+03  0.19861028728E+03  0.00000000000E+00 0.  1.
          5    1    4    4  501    0  0.26837256798E+01  0.27829528668E+02  0.38555606108E+02  0.47808913518E+02  0.41800000000E+01 0.  1.
         -5    1    4    4    0  501  0.10091023853E+03  0.61035339345E+02 -0.78096135510E+02  0.14150854275E+03  0.41800000000E+01 0.  1.
</event>
<event>
11    1  0.5813833E-009  0.1630455E+03  0.7561462E-02  0.1084247E+00
         22   -1    0    0    0    0  0.00000000000E+00  0.00000000000E+00  0.13691446102E+04  0.13691446102E+04  0.00000000000E+00 0. -1.
         22   -1    0    0    0    0 -0.00000000000E+00 -0.00000000000E+00 -0.21363423088E+03  0.21363423088E+03  0.00000000000E+00 0.  1.
        -24    2    1    2    0    0  0.19537477043E+02 -0.26308140686E+02 -0.16298679596E+03  0.18296361847E+03  0.76401300723E+02 0.  0.
         25    2    1    2    0    0  0.36085668607E+02 -0.65728843676E+02  0.10687718263E+03  0.18081081016E+03  0.12508941016E+03 0.  0.
         24    2    1    2    0    0 -0.55623145650E+02  0.92036984362E+02  0.12116199926E+04  0.12190044124E+04  0.79900000768E+02 0.  0.
        -13    1    5    5    0    0 -0.12563026633E+01  0.73197622059E+02  0.54292372067E+03  0.54783723554E+03  0.00000000000E+00 0.  1.
         14    1    5    5    0    0 -0.54366842986E+02  0.18839362303E+02  0.66869627195E+03  0.67116717687E+03  0.00000000000E+00 0. -1.
         11    1    3    3    0    0  0.93375793206E+01 -0.29256364744E+02 -0.14262228686E+02  0.33860543893E+02  0.00000000000E+00 0. -1.
        -12    1    3    3    0    0  0.10199897722E+02  0.29482240586E+01 -0.14872456727E+03  0.14910307458E+03  0.00000000000E+00 0.  1.
          5    1    4    4  501    0 -0.21457276409E+01 -0.95871403662E+02  0.80546153079E+02  0.12530397186E+03  0.41800000000E+01 0. -1.
         -5    1    4    4    0  501  0.38231396248E+02  0.30142559986E+02  0.26331029550E+02  0.55506838306E+02  0.41800000000E+01 0. -1.
</event>
<event>
11    1  0.5813833E-009  0.1456703E+03  0.7561462E-02  0.1101387E+00
         22   -1    0    0    0    0  0.00000000000E+00  0.00000000000E+00  0.29160367987E+03  0.29160367987E+03  0.00000000000E+00 0.  1.
         22   -1    0    0    0    0 -0.00000000000E+00 -0.00000000000E+00 -0.68532041721E+03  0.68532041721E+03  0.00000000000E+00 0. -1.
         24    2    1    2    0    0 -0.50136106035E+02  0.32777673753E+02 -0.55734118024E+03  0.56627090790E+03  0.80284151110E+02 0.  0.
         25    2    1    2    0    0  0.78191943179E+02  0.37449641918E+02 -0.58104427306E+02  0.16291758279E+03  0.12509819603E+03 0.  0.
        -24    2    1    2    0    0 -0.28055837145E+02 -0.70227315671E+02  0.22172887020E+03  0.24773560640E+03  0.80561981940E+02 0.  0.
        -13    1    3    3    0    0 -0.26510160401E+02  0.58872358593E+02 -0.33584927842E+03  0.34199924126E+03  0.00000000000E+00 0.  1.
         14    1    3    3    0    0 -0.23625945633E+02 -0.26094684840E+02 -0.22149190182E+03  0.22427166663E+03  0.00000000000E+00 0. -1.
         13    1    5    5    0    0  0.62093836145E+01 -0.73929553791E+02  0.12904721572E+03  0.14885334814E+03  0.00000000000E+00 0. -1.
        -14    1    5    5    0    0 -0.34265220759E+02  0.37022381196E+01  0.92681654478E+02  0.98882258254E+02  0.00000000000E+00 0.  1.
          5    1    4    4  501    0  0.29710759499E+02 -0.25651948217E+02 -0.71922705130E+02  0.82043278766E+02  0.41800000000E+01 0.  1.
         -5    1    4    4    0  501  0.48481183680E+02  0.63101590135E+02  0.13818277824E+02  0.80874304020E+02  0.41800000000E+01 0.  1.
</event>
<event>
11    1  0.5813833E-009  0.1317855E+03  0.7561462E-02  0.1117094E+00
         22   -1    0    0    0    0  0.00000000000E+00  0.00000000000E+00  0.18523992690E+04  0.18523992690E+04  0.00000000000E+00 0. -1.
         22   -1    0    0    0    0 -0.00000000000E+00 -0.00000000000E+00 -0.72512766913E+02  0.72512766913E+02  0.00000000000E+00 0.  1.
         24    2    1    2    0    0  0.21566116025E+02  0.36598025434E+02 -0.39767581213E+00  0.10357769510E+03  0.94465167920E+02 0.  0.
         25    2    1    2    0    0 -0.52164673175E+02 -0.78174906892E+01  0.22112600492E+03  0.25947218657E+03  0.12508732655E+03 0.  0.
        -24    2    1    2    0    0  0.30598557151E+02 -0.28780534745E+02  0.15591581730E+04  0.15618621543E+04  0.81698161558E+02 0.  0.
        -13    1    3    3    0    0  0.78034116137E+01 -0.95953347933E+01 -0.39575955053E+02  0.41463476711E+02  0.00000000000E+00 0.  1.
         14    1    3    3    0    0  0.13762704411E+02  0.46193360227E+02  0.39178279241E+02  0.62114218389E+02  0.00000000000E+00 0. -1.
         13    1    5    5    0    0  0.37009110754E+02  0.16384051018E+02  0.46660242196E+03  0.46835449351E+03  0.00000000000E+00 0. -1.
        -14    1    5    5    0    0 -0.64105536030E+01 -0.45164585763E+02  0.10925557511E+04  0.10935076608E+04  0.00000000000E+00 0.  1.
          5    1    4    4  501    0  0.25376536526E+02 -0.28799816193E+02  0.21375315864E+02  0.44133598846E+02  0.41800000000E+01 0.  1.
         -5    1    4    4    0  501 -0.77541209701E+02  0.20982325504E+02  0.19975068906E+03  0.21533858773E+03  0.41800000000E+01 0.  1.
</event>
<event>
11    1  0.5813833E-009  0.1806159E+03  0.7561462E-02  0.1069146E+00
         22   -1    0    0    0    0  0.00000000000E+00  0.00000000000E+00  0.27781366981E+03  0.27781366981E+03  0.00000000000E+00 0.  1.
         22   -1    0    0    0    0 -0.00000000000E+00 -0.00000000000E+00 -0.27076391632E+04  0.27076391632E+04  0.00000000000E+00 0. -1.
         24    2    1    2    0    0  0.25979471194E+01 -0.13291827808E+03 -0.25676638016E+04  0.25726805934E+04  0.90077855231E+02 0.  0.
         25    2    1    2    0    0  0.33374872139E+02  0.80897879813E+02 -0.79764555500E+02  0.17227650821E+03  0.12513377609E+03 0.  0.
        -24    2    1    2    0    0 -0.35972819259E+02  0.52020398272E+02  0.21760286362E+03  0.24049573140E+03  0.80542069778E+02 0.  0.
        -11    1    3    3    0    0  0.32837153719E+02 -0.11709300249E+03 -0.16990860135E+04  0.17034325144E+04  0.00000000000E+00 0.  1.
         12    1    3    3    0    0 -0.30239206599E+02 -0.15825275597E+02 -0.86857778805E+03  0.86924807900E+03  0.00000000000E+00 0. -1.
         13    1    5    5    0    0  0.10744872309E+02 -0.15402930556E+02  0.26005173410E+02  0.32077587109E+02  0.00000000000E+00 0. -1.
        -14    1    5    5    0    0 -0.46717691567E+02  0.67423328828E+02  0.19159769021E+03  0.20841814429E+03  0.00000000000E+00 0.  1.
          5    1    4    4  501    0 -0.34425581008E+02  0.39577723079E+02  0.86965165973E+01  0.53334965949E+02  0.41800000000E+01 0.  1.
         -5    1    4    4    0  501  0.67800453148E+02  0.41320156734E+02 -0.88461072097E+02  0.11894154226E+03  0.41800000000E+01 0.  1.
</event>
<event>
11    1  0.5813833E-009  0.1441306E+03  0.7561462E-02  0.1103032E+00
         22   -1    0    0    0    0  0.00000000000E+00  0.00000000000E+00  0.66591803220E+03  0.66591803220E+03  0.00000000000E+00 0.  1.
         22   -1    0    0    0    0 -0.00000000000E+00 -0.00000000000E+00 -0.66156263056E+03  0.66156263056E+03  0.00000000000E+00 0. -1.
         24    2    1    2    0    0 -0.10513058503E+02 -0.59346674786E+02 -0.38725029756E+03  0.39993348201E+03  0.79695952639E+02 0.  0.
         25    2    1    2    0    0  0.80420440623E+02  0.43694608514E+02 -0.24099199744E+03  0.28653205542E+03  0.12508720906E+03 0.  0.
        -24    2    1    2    0    0 -0.69907382120E+02  0.15652066272E+02  0.63259769665E+03  0.64101512532E+03  0.74756376571E+02 0.  0.
        -11    1    3    3    0    0  0.74249808998E+01 -0.32302820925E+01  0.13065571060E+00  0.80982797355E+01  0.00000000000E+00 0.  1.
         12    1    3    3    0    0 -0.17938039403E+02 -0.56116392693E+02 -0.38738095327E+03  0.39183520228E+03  0.00000000000E+00 0. -1.
         11    1    5    5    0    0 -0.26464115569E+01 -0.23818057769E+02  0.10608761038E+03  0.10876067509E+03  0.00000000000E+00 0. -1.
        -12    1    5    5    0    0 -0.67260970563E+02  0.39470124040E+02  0.52651008627E+03  0.53225445023E+03  0.00000000000E+00 0.  1.
          5    1    4    4  501    0  0.47399756984E+02 -0.38935661802E+02 -0.13311688007E+03  0.14662980216E+03  0.41800000000E+01 0.  1.
         -5    1    4    4    0  501  0.33020683639E+02  0.82630270316E+02 -0.10787511738E+03  0.13990225327E+03  0.41800000000E+01 0.  1.
</event>
<event>
11    1  0.5813833E-009  0.1977416E+03  0.7561462E-02  0.1056132E+00
         22   -1    0    0    0    0  0.00000000000E+00  0.00000000000E+00  0.17934900522E+03  0.17934900522E+03  0.00000000000E+00 0. -1.
         22   -1    0    0    0    0 -0.00000000000E+00 -0.00000000000E+00 -0.11880186611E+04  0.11880186611E+04  0.00000000000E+00 0. -1.
         24    2    1    2    0    0  0.24498148193E+02 -0.39811943081E+01 -0.96407858799E+03  0.96879017001E+03  0.92145865454E+02 0.  0.
         25    2    1    2    0    0  0.13589405375E+03 -0.10407809182E+01 -0.10081964735E+03  0.21042899127E+03  0.12508989570E+03 0.  0.
        -24    2    1    2    0    0 -0.16039220194E+03  0.50219752263E+01  0.56228579422E+02  0.18814850507E+03  0.80543951600E+02 0.  0.
        -13    1    3    3    0    0 -0.37200790934E+01  0.41613569937E+02 -0.43429157525E+03  0.43629657405E+03  0.00000000000E+00 0.  1.
         14    1    3    3    0    0  0.28218227286E+02 -0.45594764245E+02 -0.52978701274E+03  0.53249359597E+03  0.00000000000E+00 0. -1.
         11    1    5    5    0    0 -0.14016123572E+03  0.20597173124E+02  0.71198384925E+02  0.15855164949E+03  0.00000000000E+00 0. -1.
        -12    1    5    5    0    0 -0.20230966217E+02 -0.15575197898E+02 -0.14969805503E+02  0.29596855583E+02  0.00000000000E+00 0.  1.
          5    1    4    4  501    0  0.62108380787E+02  0.13935168163E+02 -0.11704312035E+03  0.13329742795E+03  0.41800000000E+01 0.  1.
         -5    1    4    4    0  501  0.73785672961E+02 -0.14975949082E+02  0.16223472996E+02  0.77131563327E+02  0.41800000000E+01 0.  1.
</event>
<event>
11    1  0.5813833E-009  0.1526282E+03  0.7561462E-02  0.1094223E+00
         22   -1    0    0    0    0  0.00000000000E+00  0.00000000000E+00  0.29731010003E+04  0.29731010003E+04  0.00000000000E+00 0. -1.
         22   -1    0    0    0    0 -0.00000000000E+00 -0.00000000000E+00 -0.79145844870E+02  0.79145844870E+02  0.00000000000E+00 0.  1.
        -24    2    1    2    0    0 -0.82009512324E+02  0.18420585184E+02 -0.12531718186E+02  0.11699421049E+03  0.80409721157E+02 0.  0.
         25    2    1    2    0    0  0.12774498462E+03 -0.57358112471E+01  0.58106668238E+03  0.60797853547E+03  0.12509088531E+03 0.  0.
         24    2    1    2    0    0 -0.45735472292E+02 -0.12684773937E+02  0.23254201913E+04  0.23272740993E+04  0.79831260630E+02 0.  0.
        -13    1    5    5    0    0 -0.39479241606E+02  0.28235122830E+02  0.95957435125E+03  0.96080110755E+03  0.00000000000E+00 0.  1.
         14    1    5    5    0    0 -0.62562306859E+01 -0.40919896767E+02  0.13658458400E+04  0.13664729917E+04  0.00000000000E+00 0. -1.
         13    1    3    3    0    0  0.64757315795E+01  0.88254932053E+00 -0.25081361331E+02  0.25918886531E+02  0.00000000000E+00 0. -1.
        -14    1    3    3    0    0 -0.88485243903E+02  0.17538035863E+02  0.12549643145E+02  0.91075323955E+02  0.00000000000E+00 0.  1.
          5    1    4    4  501    0  0.28368449689E+02 -0.47475726870E+02  0.33135983097E+03  0.33596952773E+03  0.41800000000E+01 0. -1.
         -5    1    4    4    0  501  0.99376534927E+02  0.41739915623E+02  0.24970685141E+03  0.27200900774E+03  0.41800000000E+01 0. -1.
</event>
<event>
11    1  0.5813833E-009  0.1337218E+03  0.7561462E-02  0.1114779E+00
         22   -1    0    0    0    0  0.00000000000E+00  0.00000000000E+00  0.64610606926E+03  0.64610606926E+03  0.00000000000E+00 0.  1.
         22   -1    0    0    0    0 -0.00000000000E+00 -0.00000000000E+00 -0.27755578770E+03  0.27755578770E+03  0.00000000000E+00 0. -1.
        -24    2    1    2    0    0  0.15886168691E+02 -0.43788708066E+02 -0.24304431835E+03  0.25980387170E+03  0.79105560860E+02 0.  0.
         25    2    1    2    0    0 -0.34714636425E+02  0.57676088344E+02  0.20962223344E+03  0.25322073874E+03  0.12509046578E+03 0.  0.
         24    2    1    2    0    0  0.18828467734E+02 -0.13887380278E+02  0.40197236646E+03  0.41063724652E+03  0.80584082170E+02 0.  0.
        -11    1    5    5    0    0  0.37106018983E+02 -0.10379670522E+02  0.37953491683E+03  0.38148571048E+03  0.00000000000E+00 0.  1.
         12    1    5    5    0    0 -0.18277551250E+02 -0.35077097558E+01  0.22437449629E+02  0.29151536036E+02  0.00000000000E+00 0. -1.
         13    1    3    3    0    0  0.33419557364E+02 -0.58879655535E+02 -0.19632494978E+03  0.20767081297E+03  0.00000000000E+00 0. -1.
        -14    1    3    3    0    0 -0.17533388673E+02  0.15090947469E+02 -0.46719368566E+02  0.52133058735E+02  0.00000000000E+00 0.  1.
          5    1    4    4  501    0 -0.65898578844E+02  0.30111479318E+02  0.19635541532E+03  0.20933763495E+03  0.41800000000E+01 0.  1.
         -5    1    4    4    0  501  0.31183942420E+02  0.27564609027E+02  0.13266818121E+02  0.43883103795E+02  0.41800000000E+01 0.  1.
</event>
<event>
11    1  0.5813833E-009  0.2628461E+03  0.7561462E-02  0.1017270E+00
         22   -1    0    0    0    0  0.00000000000E+00  0.00000000000E+00  0.19760972617E+04  0.19760972617E+04  0.00000000000E+00 0.  1.
         22   -1    0    0    0    0 -0.00000000000E+00 -0.00000000000E+00 -0.10983874012E+04  0.10983874012E+04  0.00000000000E+00 0.  1.
         24    2    1    2    0    0 -0.76142202143E+01  0.33968387673E+01 -0.10448981469E+04  0.10480554919E+04  0.80861992744E+02 0.  0.
         25    2    1    2    0    0  0.21875982260E+03  0.88126905441E+02  0.37841634789E+03  0.46310897753E+03  0.12509508895E+03 0.  0.
        -24    2    1    2    0    0 -0.21114560239E+03 -0.91523744208E+02  0.15441916595E+04  0.15633201935E+04  0.80517606750E+02 0.  0.
        -11    1    3    3    0    0  0.31266880448E+02  0.68608917166E+01 -0.73670513030E+03  0.73740025675E+03  0.00000000000E+00 0.  1.
         12    1    3    3    0    0 -0.38881100662E+02 -0.34640529493E+01 -0.30819301657E+03  0.31065523513E+03  0.00000000000E+00 0. -1.
         13    1    5    5    0    0 -0.90817940895E+02 -0.18858211556E+02  0.40483016352E+03  0.41532034844E+03  0.00000000000E+00 0. -1.
        -14    1    5    5    0    0 -0.12032766149E+03 -0.72665532652E+02  0.11393614960E+04  0.11479998451E+04  0.00000000000E+00 0.  1.
          5    1    4    4  501    0  0.21557724139E+03  0.47186986666E+02  0.28109244535E+03  0.35739417168E+03  0.41800000000E+01 0.  1.
         -5    1    4    4    0  501  0.31825812082E+01  0.40939918774E+02  0.97323902532E+02  0.10571480585E+03  0.41800000000E+01 0.  1.
</event>
<event>
11    1  0.5813833E-009  0.1451829E+03  0.7561462E-02  0.1101905E+00
         22   -1    0    0    0    0  0.00000000000E+00  0.00000000000E+00  0.23511021184E+03  0.23511021184E+03  0.00000000000E+00 0. -1.
         22   -1    0    0    0    0 -0.00000000000E+00 -0.00000000000E+00 -0.11305911743E+04  0.11305911743E+04  0.00000000000E+00 0.  1.
         24    2    1    2    0    0  0.46354653286E+02  0.64540893995E+02 -0.97752426862E+03  0.98402820626E+03  0.80271626956E+02 0.  0.
         25    2    1    2    0    0  0.18057030101E+02 -0.33704475112E+02 -0.10357674594E+03  0.16684531798E+03  0.12508864798E+03 0.  0.
        -24    2    1    2    0    0 -0.64411683387E+02 -0.30836418883E+02  0.18562005214E+03  0.21482786186E+03  0.81218574150E+02 0.  0.
        -13    1    3    3    0    0  0.62258582696E+02  0.19610424578E+02 -0.55723109225E+03  0.56104116608E+03  0.00000000000E+00 0.  1.
         14    1    3    3    0    0 -0.15903929410E+02  0.44930469416E+02 -0.42029317637E+03  0.42298704018E+03  0.00000000000E+00 0. -1.
         13    1    5    5    0    0 -0.64219581917E+02 -0.99603087133E+01  0.18249168730E+03  0.19371778025E+03  0.00000000000E+00 0. -1.
        -14    1    5    5    0    0 -0.19210147019E+00 -0.20876110170E+02  0.31283648378E+01  0.21110081604E+02  0.00000000000E+00 0.  1.
          5    1    4    4  501    0  0.21533920785E+02 -0.80630812032E+02 -0.66397749585E+02  0.10672942960E+03  0.41800000000E+01 0. -1.
         -5    1    4    4    0  501 -0.34768906843E+01  0.46926336920E+02 -0.37178996357E+02  0.60115888380E+02  0.41800000000E+01 0. -1.
</event>
<event>
11    1  0.5813833E-009  0.2442208E+03  0.7561462E-02  0.1027024E+00
         22   -1    0    0    0    0  0.00000000000E+00  0.00000000000E+00  0.12172596777E+04  0.12172596777E+04  0.00000000000E+00 0. -1.
         22   -1    0    0    0    0 -0.00000000000E+00 -0.00000000000E+00 -0.22997035063E+03  0.22997035063E+03  0.00000000000E+00 0. -1.
         24    2    1    2    0    0 -0.19740884237E+03  0.32049473916E+01  0.91643672114E+01  0.21239937695E+03  0.77775233641E+02 0.  0.
         25    2    1    2    0    0  0.22303049676E+03  0.41877779071E+02  0.72879183074E+01  0.25922518515E+03  0.12509289348E+03 0.  0.
        -24    2    1    2    0    0 -0.25621654382E+02 -0.45082726463E+02  0.97083704152E+03  0.97560546619E+03  0.81194476864E+02 0.  0.
        -13    1    3    3    0    0 -0.12800555125E+03 -0.16518443981E+01  0.42986705151E+02  0.13504075888E+03  0.00000000000E+00 0.  1.
         14    1    3    3    0    0 -0.69403291125E+02  0.48567917897E+01 -0.33822337940E+02  0.77358618067E+02  0.00000000000E+00 0. -1.
         11    1    5    5    0    0  0.29287448517E+02 -0.92559301030E+01  0.32620950229E+03  0.32765235581E+03  0.00000000000E+00 0. -1.
        -12    1    5    5    0    0 -0.54909102899E+02 -0.35826796360E+02  0.64462753923E+03  0.64795311039E+03  0.00000000000E+00 0.  1.
          5    1    4    4  501    0  0.88804721284E+02  0.46120774821E+02  0.57858485195E+02  0.11566538420E+03  0.41800000000E+01 0. -1.
         -5    1    4    4    0  501  0.13422577547E+03 -0.42429957495E+01 -0.50570566888E+02  0.14355980095E+03  0.41800000000E+01 0. -1.
</event>
<event>
11    1  0.5813833E-009  0.1485791E+03  0.7561462E-02  0.1098340E+00
         22   -1    0    0    0    0  0.00000000000E+00  0.00000000000E+00  0.20401699027E+04  0.20401699027E+04  0.00000000000E+00 0.  1.
         22   -1    0    0    0    0 -0.00000000000E+00 -0.00000000000E+00 -0.41215696986E+03  0.41215696986E+03  0.00000000000E+00 0.  1.
        -24    2    1    2    0    0 -0.57380069359E+02 -0.48979135976E+02 -0.37833760642E+03  0.39390952878E+03  0.79586081136E+02 0.  0.
         25    2    1    2    0    0  0.11350242689E+03  0.97218108113E+02  0.37332914243E+03  0.42113703557E+03  0.12509033812E+03 0.  0.
         24    2    1    2    0    0 -0.56122357532E+02 -0.48238972137E+02  0.16330213968E+04  0.16372803082E+04  0.91930450145E+02 0.  0.
        -13    1    5    5    0    0 -0.46439789487E+02 -0.47558780428E+02  0.16181922072E+04  0.16195568872E+04  0.00000000000E+00 0.  1.
         14    1    5    5    0    0 -0.96825680448E+01 -0.68019170927E+00  0.14829189659E+02  0.17723420964E+02  0.00000000000E+00 0. -1.
         11    1    3    3    0    0  0.12820254443E+02 -0.35133728000E+02 -0.10940187170E+03  0.11561793675E+03  0.00000000000E+00 0. -1.
        -12    1    3    3    0    0 -0.70200323802E+02 -0.13845407976E+02 -0.26893573472E+03  0.27829159203E+03  0.00000000000E+00 0.  1.
          5    1    4    4  501    0 -0.12977307679E+02 -0.25748626424E+01  0.12059692199E+03  0.12139246446E+03  0.41800000000E+01 0.  1.
         -5    1    4    4    0  501  0.12647973457E+03  0.99792970756E+02  0.25273222043E+03  0.29974457112E+03  0.41800000000E+01 0.  1.
</event>
<event>
11    1  0.5813833E-009  0.1368457E+03  0.7561462E-02  0.1111133E+00
         22   -1    0    0    0    0  0.00000000000E+00  0.00000000000E+00  0.78684426747E+03  0.78684426747E+03  0.00000000000E+00 0. -1.
         22   -1    0    0    0    0 -0.00000000000E+00 -0.00000000000E+00 -0.28879979970E+03  0.28879979970E+03  0.00000000000E+00 0. -1.
         24    2    1    2    0    0 -0.31955220554E+02 -0.42792017743E+02 -0.23572084462E+03  0.25464252491E+03  0.80163620191E+02 0.  0.
         25    2    1    2    0    0  0.24705077549E+02  0.92846920570E+02  0.11546164556E+03  0.19547163910E+03  0.12508748372E+03 0.  0.
        -24    2    1    2    0    0  0.72501430049E+01 -0.50054902827E+02  0.61830366684E+03  0.62552990316E+03  0.80188387296E+02 0.  0.
        -11    1    3    3    0    0 -0.45857856332E+02 -0.39265786228E+02 -0.90952942413E+02  0.10916584946E+03  0.00000000000E+00 0.  1.
         12    1    3    3    0    0  0.13902635778E+02 -0.35262315147E+01 -0.14476790221E+03  0.14547667545E+03  0.00000000000E+00 0. -1.
         11    1    5    5    0    0 -0.35633780263E+02 -0.26697982076E+02  0.34972903200E+03  0.35255204490E+03  0.00000000000E+00 0. -1.
        -12    1    5    5    0    0  0.42883923268E+02 -0.23356920751E+02  0.26857463484E+03  0.27297785826E+03  0.00000000000E+00 0.  1.
          5    1    4    4  501    0  0.22237714679E+02  0.12397253029E+03  0.96264879460E+02  0.15858153625E+03  0.41800000000E+01 0. -1.
         -5    1    4    4    0  501  0.24673628702E+01 -0.31125609721E+02  0.19196766096E+02  0.36890102854E+02  0.41800000000E+01 0. -1.
</event>
<event>
11    1  0.5813833E-009  0.1569180E+03  0.7561462E-02  0.1090012E+00
         22   -1    0    0    0    0  0.00000000000E+00  0.00000000000E+00  0.50451768867E+02  0.50451768867E+02  0.00000000000E+00 0. -1.
         22   -1    0    0    0    0 -0.00000000000E+00 -0.00000000000E+00 -0.11910067686E+04  0.11910067686E+04  0.00000000000E+00 0.  1.
        -24    2    1    2    0    0 -0.88333711759E+02  0.95042300733E+01 -0.43144011048E+03  0.44783737431E+03  0.80774809605E+02 0.  0.
         25    2    1    2    0    0  0.96675925267E+02  0.69487772388E+02 -0.63723466732E+03  0.66022018907E+03  0.12509153362E+03 0.  0.
         24    2    1    2    0    0 -0.83422135076E+01 -0.78992002461E+02 -0.71880221890E+02  0.13340097405E+03  0.79496695533E+02 0.  0.
        -11    1    5    5    0    0  0.15523342616E+02  0.10577273215E+02 -0.18840124270E+02  0.26604570230E+02  0.00000000000E+00 0.  1.
         12    1    5    5    0    0 -0.23865556123E+02 -0.89569275676E+02 -0.53040097620E+02  0.10679640382E+03  0.00000000000E+00 0. -1.
         11    1    3    3    0    0 -0.43988534324E+01  0.31949431258E+02 -0.14322356181E+03  0.14680975692E+03  0.00000000000E+00 0. -1.
        -12    1    3    3    0    0 -0.83934858327E+02 -0.22445201185E+02 -0.28821654867E+03  0.30102761738E+03  0.00000000000E+00 0.  1.
          5    1    4    4  501    0  0.33614642667E+02  0.30932959914E+02 -0.51693425170E+03  0.51896559153E+03  0.41800000000E+01 0.  1.
         -5    1    4    4    0  501  0.63061282600E+02  0.38554812474E+02 -0.12030041562E+03  0.14125459754E+03  0.41800000000E+01 0.  1.
</event>
<event>
11    1  0.5813833E-009  0.1561543E+03  0.7561462E-02  0.1090751E+00
         22   -1    0    0    0    0  0.00000000000E+00  0.00000000000E+00  0.32923168672E+03  0.32923168672E+03  0.00000000000E+00 0.  1.
         22   -1    0    0    0    0 -0.00000000000E+00 -0.00000000000E+00 -0.28896892964E+03  0.28896892964E+03  0.00000000000E+00 0. -1.
        -24    2    1    2    0    0 -0.17901879132E+02 -0.28857424578E+02 -0.21584855676E+03  0.23345786254E+03  0.82211592224E+02 0.  0.
         25    2    1    2    0    0  0.72200178806E+02 -0.52619840030E+02  0.10240484167E+03  0.18468876158E+03  0.12506587733E+03 0.  0.
         24    2    1    2    0    0 -0.54298299675E+02  0.81477264608E+02  0.15370647217E+03  0.20005399224E+03  0.82517090512E+02 0.  0.
        -11    1    5    5    0    0 -0.38839549404E+02  0.46597425602E+02  0.14990415248E+03  0.16171297290E+03  0.00000000000E+00 0.  1.
         12    1    5    5    0    0 -0.15458750271E+02  0.34879839006E+02  0.38023196864E+01  0.38341019340E+02  0.00000000000E+00 0. -1.
         13    1    3    3    0    0 -0.52660750085E+01 -0.17476502149E+02 -0.21568050865E+03  0.21645147605E+03  0.00000000000E+00 0. -1.
        -14    1    3    3    0    0 -0.12635804123E+02 -0.11380922429E+02 -0.16804811001E+00  0.17006386487E+02  0.00000000000E+00 0.  1.
          5    1    4    4  501    0  0.27823498703E+02  0.32188841958E+02 -0.22380288159E+01  0.42810627182E+02  0.41800000000E+01 0.  1.
         -5    1    4    4    0  501  0.44376680103E+02 -0.84808681989E+02  0.10464287049E+03  0.14187813440E+03  0.41800000000E+01 0.  1.
</event>
<event>
11    1  0.5813833E-009  0.1413175E+03  0.7561462E-02  0.1106096E+00
         22   -1    0    0    0    0  0.00000000000E+00  0.00000000000E+00  0.19857376205E+04  0.19857376205E+04  0.00000000000E+00 0. -1.
         22   -1    0    0    0    0 -0.00000000000E+00 -0.00000000000E+00 -0.64266903364E+03  0.64266903364E+03  0.00000000000E+00 0.  1.
        -24    2    1    2    0    0 -0.13012724037E+02  0.60704212790E+01 -0.57250904393E+03  0.57796498324E+03  0.77914924610E+02 0.  0.
         25    2    1    2    0    0  0.28858448368E+02 -0.69684538762E+02  0.14774292790E+02  0.14681598774E+03  0.12509160461E+03 0.  0.
         24    2    1    2    0    0 -0.15845724331E+02  0.63614117483E+02  0.19008033380E+04  0.19036256831E+04  0.80246924300E+02 0.  0.
        -13    1    5    5    0    0  0.82136350224E+01  0.58993101756E+01  0.27855180887E+02  0.29634047362E+02  0.00000000000E+00 0.  1.
         14    1    5    5    0    0 -0.24059359353E+02  0.57714807307E+02  0.18729481571E+04  0.18739916358E+04  0.00000000000E+00 0. -1.
         11    1    3    3    0    0  0.14745882951E+02  0.13080803663E+02 -0.39095329146E+02  0.43783481469E+02  0.00000000000E+00 0. -1.
        -12    1    3    3    0    0 -0.27758606987E+02 -0.70103823838E+01 -0.53341371478E+03  0.53418150178E+03  0.00000000000E+00 0.  1.
          5    1    4    4  501    0 -0.72055121050E+01  0.16829009503E+02  0.44579549556E+02  0.48372963566E+02  0.41800000000E+01 0.  1.
         -5    1    4    4    0  501  0.36063960473E+02 -0.86513548265E+02 -0.29805256766E+02  0.98443024178E+02  0.41800000000E+01 0.  1.
</event>
<event>
11    1  0.5813833E-009  0.1691141E+03  0.7561462E-02  0.1078805E+00
         22   -1    0    0    0    0  0.00000000000E+00  0.00000000000E+00  0.11712117039E+04  0.11712117039E+04  0.00000000000E+00 0. -1.
         22   -1    0    0    0    0 -0.00000000000E+00 -0.00000000000E+00 -0.93400047947E+03  0.93400047947E+03  0.00000000000E+00 0. -1.
         24    2    1    2    0    0 -0.40095021769E+02  0.13514123318E+02 -0.82546372063E+03  0.83042078991E+03  0.80112994830E+02 0.  0.
         25    2    1    2    0    0 -0.49776314638E+02 -0.84762848036E+02 -0.39909659628E+02  0.16402036678E+03  0.12508987922E+03 0.  0.
        -24    2    1    2    0    0  0.89871336407E+02  0.71248724718E+02  0.11025846047E+04  0.11107710266E+04  0.70471450371E+02 0.  0.
        -13    1    3    3    0    0  0.21694454528E+02  0.43838084161E+01 -0.37432393485E+03  0.37497769979E+03  0.00000000000E+00 0.  1.
         14    1    3    3    0    0 -0.61789476296E+02  0.91303149018E+01 -0.45113978578E+03  0.45544309012E+03  0.00000000000E+00 0. -1.
         13    1    5    5    0    0  0.67062571005E+02  0.96856598404E+01  0.48592774434E+03  0.49062916053E+03  0.00000000000E+00 0. -1.
        -14    1    5    5    0    0  0.22808765402E+02  0.61563064878E+02  0.61665686031E+03  0.62014186611E+03  0.00000000000E+00 0.  1.
          5    1    4    4  501    0 -0.29216066425E+02 -0.85803210801E+02 -0.78566394813E+02  0.12002466544E+03  0.41800000000E+01 0.  1.
         -5    1    4    4    0  501 -0.20560248213E+02  0.10403627649E+01  0.38656735184E+02  0.43995701340E+02  0.41800000000E+01 0.  1.
</event>
<event>
11    1  0.5813833E-009  0.1355974E+03  0.7561462E-02  0.1112577E+00
         22   -1    0    0    0    0  0.00000000000E+00  0.00000000000E+00  0.11516688730E+04  0.11516688730E+04  0.00000000000E+00 0.  1.
         22   -1    0    0    0    0 -0.00000000000E+00 -0.00000000000E+00 -0.86721017958E+03  0.86721017958E+03  0.00000000000E+00 0.  1.
        -24    2    1    2    0    0 -0.56247594305E+01 -0.73146803970E+01 -0.79697674920E+03  0.80122568320E+03  0.81887204051E+02 0.  0.
         25    2    1    2    0    0  0.50122403967E+02  0.34318564331E+02  0.75042437203E+01  0.13926349200E+03  0.12509191538E+03 0.  0.
         24    2    1    2    0    0 -0.44497644536E+02 -0.27003883934E+02  0.10739311989E+04  0.10783898774E+04  0.82989502591E+02 0.  0.
        -13    1    5    5    0    0 -0.38502553059E+02 -0.42974536395E+02  0.10240138074E+04  0.10256381112E+04  0.00000000000E+00 0.  1.
         14    1    5    5    0    0 -0.59950914779E+01  0.15970652461E+02  0.49917391455E+02  0.52751766146E+02  0.00000000000E+00 0. -1.
         13    1    3    3    0    0  0.37133795477E+02 -0.36966976413E+01 -0.46341099138E+03  0.46491110040E+03  0.00000000000E+00 0. -1.
        -14    1    3    3    0    0 -0.42758554907E+02 -0.36179827556E+01 -0.33356575782E+03  0.33631458280E+03  0.00000000000E+00 0.  1.
          5    1    4    4  501    0  0.59531470667E+02 -0.19870295642E+02  0.40669761800E+02  0.74902113279E+02  0.41800000000E+01 0.  1.
         -5    1    4    4    0  501 -0.94090667005E+01  0.54188859973E+02 -0.33165518080E+02  0.64361378721E+02  0.41800000000E+01 0.  1.
</event>
<event>
11    1  0.5813833E-009  0.1431823E+03  0.7561462E-02  0.1104056E+00
         22   -1    0    0    0    0  0.00000000000E+00  0.00000000000E+00  0.22208368915E+03  0.22208368915E+03  0.00000000000E+00 0. -1.
         22   -1    0    0    0    0 -0.00000000000E+00 -0.00000000000E+00 -0.17982361056E+04  0.17982361056E+04  0.00000000000E+00 0.  1.
         24    2    1    2    0    0 -0.36582479392E+02 -0.66084698808E+02 -0.15689373132E+04  0.15727640703E+04  0.79479952592E+02 0.  0.
         25    2    1    2    0    0 -0.17862376265E+01  0.15545339546E+02 -0.19581152063E+03  0.23288431190E+03  0.12509237743E+03 0.  0.
        -24    2    1    2    0    0  0.38368717019E+02  0.50539359262E+02  0.18859641740E+03  0.21467141254E+03  0.80553221079E+02 0.  0.
        -11    1    3    3    0    0 -0.52688358713E+02 -0.20067361694E+02 -0.61405167773E+03  0.61663459607E+03  0.00000000000E+00 0.  1.
         12    1    3    3    0    0  0.16105879320E+02 -0.46017337114E+02 -0.95488563550E+03  0.95612947426E+03  0.00000000000E+00 0. -1.
         13    1    5    5    0    0  0.56451791265E+02  0.58063806359E+02  0.13287996346E+03  0.15561264420E+03  0.00000000000E+00 0. -1.
        -14    1    5    5    0    0 -0.18083074246E+02 -0.75244470968E+01  0.55716453942E+02  0.59058768343E+02  0.00000000000E+00 0.  1.
          5    1    4    4  501    0 -0.17085327108E+02  0.13172155684E+02 -0.21019615916E+03  0.21134169445E+03  0.41800000000E+01 0. -1.
         -5    1    4    4    0  501  0.15299089481E+02  0.23731838623E+01  0.14384638533E+02  0.21542617444E+02  0.41800000000E+01 0. -1.
</event>
<event>
11    1  0.5813833E-009  0.1583291E+03  0.7561462E-02  0.1088659E+00
         22   -1    0    0    0    0  0.00000000000E+00  0.00000000000E+00  0.10648279032E+03  0.10648279032E+03  0.00000000000E+00 0.  1.
         22   -1    0    0    0    0 -0.00000000000E+00 -0.00000000000E+00 -0.70866057853E+03  0.70866057853E+03  0.00000000000E+00 0. -1.
         24    2    1    2    0    0 -0.87914986355E+02  0.34705863339E+02 -0.46689528420E+03  0.48311061436E+03  0.80443256588E+02 0.  0.
         25    2    1    2    0    0  0.10050636832E+03 -0.37613353893E+02 -0.17584454405E+03  0.24100655369E+03  0.12508621340E+03 0.  0.
        -24    2    1    2    0    0 -0.12591381964E+02  0.29074905537E+01  0.40562040041E+02  0.91026200795E+02  0.80458024694E+02 0.  0.
        -13    1    3    3    0    0  0.11729664232E+02 -0.14762612089E+01 -0.15841625897E+02  0.19766676028E+02  0.00000000000E+00 0.  1.
         14    1    3    3    0    0 -0.99644650587E+02  0.36182124548E+02 -0.45105365830E+03  0.46334393834E+03  0.00000000000E+00 0. -1.
         11    1    5    5    0    0 -0.40741955959E+02 -0.12642508163E+02  0.47951737318E+01  0.42927073964E+02  0.00000000000E+00 0. -1.
        -12    1    5    5    0    0  0.28150573994E+02  0.15549998717E+02  0.35766866309E+02  0.48099126831E+02  0.00000000000E+00 0.  1.
          5    1    4    4  501    0  0.55903675691E+02 -0.79035802598E+02 -0.72591973810E+02  0.12107413477E+03  0.41800000000E+01 0. -1.
         -5    1    4    4    0  501  0.44602692628E+02  0.41422448705E+02 -0.10325257024E+03  0.11993241892E+03  0.41800000000E+01 0. -1.
</event>
<event>
11    1  0.5813833E-009  0.1265260E+03  0.7561462E-02  0.1123613E+00
         22   -1    0    0    0    0  0.00000000000E+00  0.00000000000E+00  0.31246703283E+03  0.31246703283E+03  0.00000000000E+00 0.  1.
         22   -1    0    0    0    0 -0.00000000000E+00 -0.00000000000E+00 -0.23540146939E+03  0.23540146939E+03  0.00000000000E+00 0. -1.
         24    2    1    2    0    0 -0.14622118500E+02  0.18930041706E+02 -0.17051289923E+03  0.18884132779E+03  0.77551566386E+02 0.  0.
         25    2    1    2    0    0 -0.64126375778E+01 -0.17388648561E+02  0.35781667877E+02  0.13142232053E+03  0.12509201236E+03 0.  0.
        -24    2    1    2    0    0  0.21034756078E+02 -0.15413931452E+01  0.21179679479E+03  0.22760485391E+03  0.80630331666E+02 0.  0.
        -11    1    3    3    0    0  0.76292811016E+00 -0.11966933935E+02  0.26428827805E+01  0.12279022620E+02  0.00000000000E+00 0.  1.
         12    1    3    3    0    0 -0.15385046610E+02  0.30896975641E+02 -0.17315578201E+03  0.17656230517E+03  0.00000000000E+00 0. -1.
         13    1    5    5    0    0  0.67126484784E+01  0.24150964757E+02  0.16283281035E+02  0.29891035271E+02  0.00000000000E+00 0. -1.
        -14    1    5    5    0    0  0.14322107599E+02 -0.25692357902E+02  0.19551351376E+03  0.19771381864E+03  0.00000000000E+00 0.  1.
          5    1    4    4  501    0 -0.13974925635E+02 -0.60692006685E+01  0.81768637058E+02  0.83280947098E+02  0.41800000000E+01 0. -1.
         -5    1    4    4    0  501  0.75622880575E+01 -0.11319447892E+02 -0.45986969181E+02  0.48141373429E+02  0.41800000000E+01 0. -1.
</event>
<event>
11    1  0.5813833E-009  0.1790390E+03  0.7561462E-02  0.1070423E+00
         22   -1    0    0    0    0  0.00000000000E+00  0.00000000000E+00  0.24424267114E+03  0.24424267114E+03  0.00000000000E+00 0. -1.
         22   -1    0    0    0    0 -0.00000000000E+00 -0.00000000000E+00 -0.76166239230E+03  0.76166239230E+03  0.00000000000E+00 0. -1.
        -24    2    1    2    0    0  0.31711754252E+02  0.79207592796E+01 -0.49894012517E+03  0.50639142110E+03  0.80141431698E+02 0.  0.
         25    2    1    2    0    0 -0.13533672349E+03 -0.77370454048E+02 -0.18757508937E+03  0.27410483660E+03  0.12508729517E+03 0.  0.
         24    2    1    2    0    0  0.10362496923E+03  0.69449694768E+02  0.16909549338E+03  0.22540880573E+03  0.81574809037E+02 0.  0.
        -11    1    5    5    0    0  0.15065888324E+02  0.29890473674E+02  0.10231031317E+03  0.10764674444E+03  0.00000000000E+00 0.  1.
         12    1    5    5    0    0  0.88559080911E+02  0.39559221094E+02  0.66785180211E+02  0.11776206130E+03  0.00000000000E+00 0. -1.
         11    1    3    3    0    0 -0.18610937713E+01  0.46413818308E+01 -0.42599395619E+03  0.42602330547E+03  0.00000000000E+00 0. -1.
        -12    1    3    3    0    0  0.33572848023E+02  0.32793774488E+01 -0.72946168981E+02  0.80368115629E+02  0.00000000000E+00 0.  1.
          5    1    4    4  501    0 -0.13538397224E+03 -0.10533973342E+03 -0.16161579749E+03  0.23571681691E+03  0.41800000000E+01 0.  1.
         -5    1    4    4    0  501  0.47248754262E-01  0.27969279371E+02 -0.25959291877E+02  0.38388019690E+02  0.41800000000E+01 0.  1.
</event>
<event>
11    1  0.5813833E-009  0.1330350E+03  0.7561462E-02  0.1115595E+00
         22   -1    0    0    0    0  0.00000000000E+00  0.00000000000E+00  0.64234598861E+03  0.64234598861E+03  0.00000000000E+00 0. -1.
         22   -1    0    0    0    0 -0.00000000000E+00 -0.00000000000E+00 -0.19680234021E+03  0.19680234021E+03  0.00000000000E+00 0. -1.
        -24    2    1    2    0    0  0.59462447572E+02  0.28457996983E+02 -0.15909419702E+03  0.19003366218E+03  0.80350413643E+02 0.  0.
         25    2    1    2    0    0  0.14284425740E+01  0.72926057586E+01  0.27393444557E+03  0.30123432891E+03  0.12508724115E+03 0.  0.
         24    2    1    2    0    0 -0.60890890146E+02 -0.35750602741E+02  0.33070339986E+03  0.34788033773E+03  0.81671198121E+02 0.  0.
        -11    1    5    5    0    0 -0.35586512045E+02  0.19982966687E+02  0.79954428056E+02  0.89768754937E+02  0.00000000000E+00 0.  1.
         12    1    5    5    0    0 -0.25304378101E+02 -0.55733569429E+02  0.25074897180E+03  0.25811158279E+03  0.00000000000E+00 0. -1.
         13    1    3    3    0    0  0.62819925097E+02 -0.12781750196E+01 -0.14268014976E+03  0.15590253960E+03  0.00000000000E+00 0. -1.
        -14    1    3    3    0    0 -0.33574775252E+01  0.29736172002E+02 -0.16414047263E+02  0.34131122575E+02  0.00000000000E+00 0.  1.
          5    1    4    4  501    0  0.99856256177E+01  0.40928336683E+02  0.26028595839E+03  0.26370645422E+03  0.41800000000E+01 0. -1.
         -5    1    4    4    0  501 -0.85571830437E+01 -0.33635730924E+02  0.13648487180E+02  0.37527874690E+02  0.41800000000E+01 0. -1.
</event>
<event>
11    1  0.5813833E-009  0.1494077E+03  0.7561462E-02  0.1097486E+00
         22   -1    0    0    0    0  0.00000000000E+00  0.00000000000E+00  0.49667590397E+02  0.49667590397E+02  0.00000000000E+00 0.  1.
         22   -1    0    0    0    0 -0.00000000000E+00 -0.00000000000E+00 -0.12336477104E+04  0.12336477104E+04  0.00000000000E+00 0.  1.
        -24    2    1    2    0    0  0.13882209361E+02 -0.12303847440E+02 -0.76304136883E+03  0.76739437434E+03  0.79485186192E+02 0.  0.
         25    2    1    2    0    0 -0.85968485300E+02  0.41426498459E+02 -0.34530219203E+03  0.37945411167E+03  0.12508030940E+03 0.  0.
         24    2    1    2    0    0  0.72086275939E+02 -0.29122651019E+02 -0.75636559157E+02  0.13646681481E+03  0.82811487616E+02 0.  0.
        -11    1    5    5    0    0  0.81994067979E+02 -0.43119816208E+02 -0.49037947506E+02  0.10481920639E+03  0.00000000000E+00 0.  1.
         12    1    5    5    0    0 -0.99077920401E+01  0.13997165189E+02 -0.26598611651E+02  0.31647608412E+02  0.00000000000E+00 0. -1.
         11    1    3    3    0    0  0.26919440926E+02 -0.14940489305E+02 -0.11026509189E+03  0.11448259697E+03  0.00000000000E+00 0. -1.
        -12    1    3    3    0    0 -0.13037231565E+02  0.26366418651E+01 -0.65277627694E+03  0.65291177736E+03  0.00000000000E+00 0.  1.
          5    1    4    4  501    0 -0.10140918732E+03  0.29475237131E+02 -0.34351540875E+03  0.35940634569E+03  0.41800000000E+01 0. -1.
         -5    1    4    4    0  501  0.15440702015E+02  0.11951261328E+02 -0.17867832822E+01  0.20047765974E+02  0.41800000000E+01 0. -1.
</event>
<event>
11    1  0.5813833E-009  0.1555267E+03  0.7561462E-02  0.1091362E+00
         22   -1    0    0    0    0  0.00000000000E+00  0.00000000000E+00  0.30236839060E+03  0.30236839060E+03  0.00000000000E+00 0. -1.
         22   -1    0    0    0    0 -0.00000000000E+00 -0.00000000000E+00 -0.61825014600E+03  0.61825014600E+03  0.00000000000E+00 0.  1.
         24    2    1    2    0    0  0.58990028266E+02 -0.71268992623E+02 -0.54309601296E+03  0.55847726386E+03  0.91566818295E+02 0.  0.
         25    2    1    2    0    0 -0.58696734554E+01  0.11118849574E+03  0.90344439706E+02  0.19028132670E+03  0.12509009094E+03 0.  0.
        -24    2    1    2    0    0 -0.53120354811E+02 -0.39919503117E+02  0.13686981784E+03  0.17185994605E+03  0.79919679649E+02 0.  0.
        -11    1    3    3    0    0  0.68114444551E+02 -0.48550140342E+02 -0.51255042551E+03  0.51933094686E+03  0.00000000000E+00 0.  1.
         12    1    3    3    0    0 -0.91244162852E+01 -0.22718852281E+02 -0.30545587449E+02  0.39146316993E+02  0.00000000000E+00 0. -1.
         11    1    5    5    0    0 -0.30000508070E+02 -0.35214682887E+02  0.14056210255E+03  0.14797908315E+03  0.00000000000E+00 0. -1.
        -12    1    5    5    0    0 -0.23119846740E+02 -0.47048202298E+01 -0.36922847061E+01  0.23880862904E+02  0.00000000000E+00 0.  1.
          5    1    4    4  501    0 -0.52082391490E+02  0.31498222092E+02  0.75191580565E+02  0.96829539327E+02  0.41800000000E+01 0.  1.
         -5    1    4    4    0  501  0.46212718035E+02  0.79690273648E+02  0.15152859141E+02  0.93451787368E+02  0.41800000000E+01 0.  1.
</event>
<event>
11    1  0.5813833E-009  0.1467298E+03  0.7561462E-02  0.1100268E+00
         22   -1    0    0    0    0  0.00000000000E+00  0.00000000000E+00  0.14223911730E+03  0.14223911730E+03  0.00000000000E+00 0. -1.
         22   -1    0    0    0    0 -0.00000000000E+00 -0.00000000000E+00 -0.69422202855E+03  0.69422202855E+03  0.00000000000E+00 0. -1.
        -24    2    1    2    0    0  0.76383984666E+02 -0.49754600093E+02 -0.51100146139E+03  0.52522500124E+03  0.80179642324E+02 0.  0.
         25    2    1    2    0    0 -0.13497199558E+02  0.19607856836E+02 -0.12421648956E+03  0.17788662456E+03  0.12508905817E+03 0.  0.
         24    2    1    2    0    0 -0.62886785108E+02  0.30146743258E+02  0.83235039703E+02  0.13334952005E+03  0.77397989586E+02 0.  0.
        -13    1    5    5    0    0 -0.26017995047E+02 -0.24244713749E+02  0.14932605521E+02  0.38571037303E+02  0.00000000000E+00 0.  1.
         14    1    5    5    0    0 -0.36868790061E+02  0.54391457006E+02  0.68302434182E+02  0.94778482743E+02  0.00000000000E+00 0. -1.
         13    1    3    3    0    0  0.89653617042E+02 -0.27516132694E+02 -0.43291652488E+03  0.44295781529E+03  0.00000000000E+00 0. -1.
        -14    1    3    3    0    0 -0.13269632376E+02 -0.22238467399E+02 -0.78084936510E+02  0.82267185958E+02  0.00000000000E+00 0.  1.
          5    1    4    4  501    0 -0.45264194915E+02  0.57990404801E+02 -0.94110115663E+02  0.11952372426E+03  0.41800000000E+01 0.  1.
         -5    1    4    4    0  501  0.31766995357E+02 -0.38382547966E+02 -0.30106373896E+02  0.58362900300E+02  0.41800000000E+01 0.  1.
</event>
<event>
11    1  0.5813833E-009  0.1363518E+03  0.7561462E-02  0.1111702E+00
         22   -1    0    0    0    0  0.00000000000E+00  0.00000000000E+00  0.43398656735E+03  0.43398656735E+03  0.00000000000E+00 0.  1.
         22   -1    0    0    0    0 -0.00000000000E+00 -0.00000000000E+00 -0.24059645757E+04  0.24059645757E+04  0.00000000000E+00 0.  1.
         24    2    1    2    0    0 -0.35965187984E+02  0.41284662818E+02 -0.21619505822E+04  0.21640812238E+04  0.78862571309E+02 0.  0.
         25    2    1    2    0    0  0.67966793648E+02  0.21744051512E+01 -0.21603928995E+03  0.25873859120E+03  0.12509384755E+03 0.  0.
        -24    2    1    2    0    0 -0.32001605664E+02 -0.43459067969E+02  0.40601186388E+03  0.41713132798E+03  0.78994416384E+02 0.  0.
        -11    1    3    3    0    0 -0.15471304630E+02  0.51893506782E+02 -0.19706361733E+04  0.19713800306E+04  0.00000000000E+00 0.  1.
         12    1    3    3    0    0 -0.20493883354E+02 -0.10608843964E+02 -0.19131440891E+03  0.19270119325E+03  0.00000000000E+00 0. -1.
         11    1    5    5    0    0 -0.40578983536E+02  0.80846642597E+01  0.22300182534E+03  0.22680791389E+03  0.00000000000E+00 0. -1.
        -12    1    5    5    0    0  0.85773778725E+01 -0.51543732229E+02  0.18301003854E+03  0.19032341409E+03  0.00000000000E+00 0.  1.
          5    1    4    4  501    0 -0.18985279997E+02  0.34826025153E+02 -0.11359988217E+03  0.12039808351E+03  0.41800000000E+01 0. -1.
         -5    1    4    4    0  501  0.86952073644E+02 -0.32651620002E+02 -0.10243940779E+03  0.13834050769E+03  0.41800000000E+01 0. -1.
</event>
<event>
11    1  0.5813833E-009  0.1624201E+03  0.7561462E-02  0.1084823E+00
         22   -1    0    0    0    0  0.00000000000E+00  0.00000000000E+00  0.16920060710E+04  0.16920060710E+04  0.00000000000E+00 0.  1.
         22   -1    0    0    0    0 -0.00000000000E+00 -0.00000000000E+00 -0.64827470001E+03  0.64827470001E+03  0.00000000000E+00 0. -1.
        -24    2    1    2    0    0  0.55778218718E+02  0.34808276831E+02 -0.62114041570E+03  0.62956079739E+03  0.78794389277E+02 0.  0.
         25    2    1    2    0    0 -0.13535275870E+03 -0.85241609141E+02  0.50491019147E+03  0.54421430995E+03  0.12509361490E+03 0.  0.
         24    2    1    2    0    0  0.79574539983E+02  0.50433332310E+02  0.11599615952E+04  0.11665056637E+04  0.79680189341E+02 0.  0.
        -11    1    5    5    0    0  0.69675692826E+02  0.33639469048E+02  0.11126281939E+04  0.11153151186E+04  0.00000000000E+00 0.  1.
         12    1    5    5    0    0  0.98988471578E+01  0.16793863262E+02  0.47333401329E+02  0.51190545022E+02  0.00000000000E+00 0. -1.
         11    1    3    3    0    0  0.69140466215E+02  0.39514875661E+02 -0.58998905853E+03  0.59533933068E+03  0.00000000000E+00 0. -1.
        -12    1    3    3    0    0 -0.13362247497E+02 -0.47065988300E+01 -0.31151357163E+02  0.34221466711E+02  0.00000000000E+00 0.  1.
          5    1    4    4  501    0 -0.52524512348E+02  0.16192223687E+02  0.65098059041E+02  0.85300892118E+02  0.41800000000E+01 0.  1.
         -5    1    4    4    0  501 -0.82828246354E+02 -0.10143383283E+03  0.43981213243E+03  0.45891341783E+03  0.41800000000E+01 0.  1.
</event>
<event>
11    1  0.5813833E-009  0.1407415E+03  0.7561462E-02  0.1106733E+00
         22   -1    0    0    0    0  0.00000000000E+00  0.00000000000E+00  0.19683143379E+04  0.19683143379E+04  0.00000000000E+00 0. -1.
         22   -1    0    0    0    0 -0.00000000000E+00 -0.00000000000E+00 -0.60997915308E+03  0.60997915308E+03  0.00000000000E+00 0. -1.
         24    2    1    2    0    0 -0.20685510702E+02 -0.44568853954E+02 -0.56388114537E+03  0.57173306910E+03  0.80637975554E+02 0.  0.
         25    2    1    2    0    0  0.67668562156E+02 -0.39340100311E+00  0.83432388576E+02  0.16488552278E+03  0.12508830117E+03 0.  0.
        -24    2    1    2    0    0 -0.46983051454E+02  0.44962254958E+02  0.18387839416E+04  0.18416748991E+04  0.80068961279E+02 0.  0.
        -13    1    3    3    0    0 -0.29377874054E+02  0.15167298378E+02 -0.24102787550E+03  0.24328490128E+03  0.00000000000E+00 0.  1.
         14    1    3    3    0    0  0.86923633519E+01 -0.59736152332E+02 -0.32285326987E+03  0.32844816782E+03  0.00000000000E+00 0. -1.
         13    1    5    5    0    0 -0.47352675354E+02  0.39763670511E+02  0.18323587063E+04  0.18334017165E+04  0.00000000000E+00 0. -1.
        -14    1    5    5    0    0  0.36962389928E+00  0.51985844463E+01  0.64252352586E+01  0.82731825920E+01  0.00000000000E+00 0.  1.
          5    1    4    4  501    0  0.98219263376E+02  0.24910812359E+02  0.51229172186E+02  0.11361986073E+03  0.41800000000E+01 0. -1.
         -5    1    4    4    0  501 -0.30550701220E+02 -0.25304213362E+02  0.32203216390E+02  0.51265662044E+02  0.41800000000E+01 0. -1.
</event>
<event>
11    1  0.5813833E-009  0.1433605E+03  0.7561462E-02  0.1103863E+00
         22   -1    0    0    0    0  0.00000000000E+00  0.00000000000E+00  0.85155434188E+03  0.85155434188E+03  0.00000000000E+00 0.  1.
         22   -1    0    0    0    0 -0.00000000000E+00 -0.00000000000E+00 -0.65415852993E+03  0.65415852993E+03  0.00000000000E+00 0.  1.
         24    2    1    2    0    0  0.33619291851E+02  0.60154935717E+02 -0.60806230108E+03  0.61740344557E+03  0.81843628471E+02 0.  0.
         25    2    1    2    0    0 -0.70861452672E+02 -0.94149873673E+02  0.15669132321E+03  0.23256215973E+03  0.12508974052E+03 0.  0.
        -24    2    1    2    0    0  0.37242160821E+02  0.33994937956E+02  0.64876678983E+03  0.65574726651E+03  0.81015403533E+02 0.  0.
        -13    1    3    3    0    0  0.39515296012E+02  0.75953537210E+02 -0.55912554422E+03  0.56564279597E+03  0.00000000000E+00 0.  1.
         14    1    3    3    0    0 -0.58960041609E+01 -0.15798601493E+02 -0.48936756867E+02  0.51760649598E+02  0.00000000000E+00 0. -1.
         13    1    5    5    0    0  0.27728494856E+02  0.11596542495E+01  0.61334964448E+02  0.67321557385E+02  0.00000000000E+00 0. -1.
        -14    1    5    5    0    0  0.95136659653E+01  0.32835283706E+02  0.58743182538E+03  0.58842570913E+03  0.00000000000E+00 0.  1.
          5    1    4    4  501    0  0.26174099790E+02  0.94590723851E+01  0.39141830098E+02  0.48209053233E+02  0.41800000000E+01 0. -1.
         -5    1    4    4    0  501 -0.97035552461E+02 -0.10360894606E+03  0.11754949311E+03  0.18435310650E+03  0.41800000000E+01 0. -1.
</event>
<event>
11    1  0.5813833E-009  0.1378657E+03  0.7561462E-02  0.1109965E+00
         22   -1    0    0    0    0  0.00000000000E+00  0.00000000000E+00  0.64634572926E+03  0.64634572926E+03  0.00000000000E+00 0. -1.
         22   -1    0    0    0    0 -0.00000000000E+00 -0.00000000000E+00 -0.19008402820E+04  0.19008402820E+04  0.00000000000E+00 0. -1.
         24    2    1    2    0    0  0.23026745028E+02 -0.82488559883E+01 -0.17378288546E+04  0.17399273784E+04  0.81852792152E+02 0.  0.
         25    2    1    2    0    0  0.22477201731E+02 -0.28497928444E+02 -0.13140639477E+03  0.18502220408E+03  0.12509284109E+03 0.  0.
        -24    2    1    2    0    0 -0.45503946760E+02  0.36746784432E+02  0.61474069664E+03  0.62223642877E+03  0.76492573790E+02 0.  0.
        -13    1    3    3    0    0 -0.29280500496E+02 -0.14596533721E+02 -0.68463742502E+03  0.68541871163E+03  0.00000000000E+00 0.  1.
         14    1    3    3    0    0  0.52307245524E+02  0.63476777325E+01 -0.10531914296E+04  0.10545086668E+04  0.00000000000E+00 0. -1.
         11    1    5    5    0    0 -0.64240662724E+02  0.41254325413E+02  0.45869457609E+03  0.46500483465E+03  0.00000000000E+00 0. -1.
        -12    1    5    5    0    0  0.18736715965E+02 -0.45075409805E+01  0.15604612055E+03  0.15723159412E+03  0.00000000000E+00 0.  1.
          5    1    4    4  501    0  0.11420694132E+02 -0.74560535662E+02 -0.49522426616E+02  0.90330774771E+02  0.41800000000E+01 0. -1.
         -5    1    4    4    0  501  0.11056507599E+02  0.46062607218E+02 -0.81883968153E+02  0.94691429309E+02  0.41800000000E+01 0. -1.
</event>
<event>
11    1  0.5813833E-009  0.1305951E+03  0.7561462E-02  0.1118540E+00
         22   -1    0    0    0    0  0.00000000000E+00  0.00000000000E+00  0.61956110018E+02  0.61956110018E+02  0.00000000000E+00 0.  1.
         22   -1    0    0    0    0 -0.00000000000E+00 -0.00000000000E+00 -0.15616790249E+04  0.15616790249E+04  0.00000000000E+00 0. -1.
         24    2    1    2    0    0 -0.24425167130E+02 -0.12004896776E+02 -0.12779397295E+04  0.12806583204E+04  0.78835746397E+02 0.  0.
         25    2    1    2    0    0  0.15641966225E+02 -0.27072572472E+02 -0.21962716734E+03  0.25468520720E+03  0.12510342460E+03 0.  0.
        -24    2    1    2    0    0  0.87832009047E+01  0.39077469247E+02 -0.21560179726E+01  0.88291607297E+02  0.78654728305E+02 0.  0.
        -11    1    3    3    0    0  0.28961482873E+02 -0.17955307814E+01 -0.42851780310E+03  0.42949912572E+03  0.00000000000E+00 0.  1.
         12    1    3    3    0    0 -0.53386650002E+02 -0.10209365994E+02 -0.84942192644E+03  0.85115919466E+03  0.00000000000E+00 0. -1.
         11    1    5    5    0    0  0.23764523254E+02  0.47261517133E+02 -0.26017985344E+02  0.58952006994E+02  0.00000000000E+00 0. -1.
        -12    1    5    5    0    0 -0.14981322349E+02 -0.81840478863E+01  0.23861967371E+02  0.29339600303E+02  0.00000000000E+00 0.  1.
          5    1    4    4  501    0 -0.35725365789E+02  0.30772104716E+02 -0.53843268891E+02  0.71692357991E+02  0.41800000000E+01 0. -1.
         -5    1    4    4    0  501  0.51367332014E+02 -0.57844677188E+02 -0.16578389845E+03  0.18299284921E+03  0.41800000000E+01 0. -1.
</event>
<event>
11    1  0.5813833E-009  0.1286587E+03  0.7561462E-02  0.1120928E+00
         22   -1    0    0    0    0  0.00000000000E+00  0.00000000000E+00  0.39271244355E+03  0.39271244355E+03  0.00000000000E+00 0. -1.
         22   -1    0    0    0    0 -0.00000000000E+00 -0.00000000000E+00 -0.11585418790E+03  0.11585418790E+03  0.00000000000E+00 0. -1.
         24    2    1    2    0    0 -0.30305279115E+02 -0.15280461446E+02 -0.52543650441E+02  0.10527044280E+03  0.84670706164E+02 0.  0.
         25    2    1    2    0    0  0.70606425429E+01  0.10497081647E+02  0.10645540419E+03  0.16471848254E+03  0.12505752282E+03 0.  0.
        -24    2    1    2    0    0  0.23244636572E+02  0.47833797995E+01  0.22294650191E+03  0.23857770610E+03  0.81553573082E+02 0.  0.
        -11    1    3    3    0    0 -0.71011945463E+00 -0.19648699036E+02  0.19235923901E+02  0.27506297675E+02  0.00000000000E+00 0.  1.
         12    1    3    3    0    0 -0.29595159660E+02  0.43682375893E+01 -0.71779574343E+02  0.77764145130E+02  0.00000000000E+00 0. -1.
         13    1    5    5    0    0 -0.21078772913E+02 -0.21974265110E+02  0.11332990807E+03  0.11734926953E+03  0.00000000000E+00 0. -1.
        -14    1    5    5    0    0  0.44323409485E+02  0.26757644910E+02  0.10961659384E+03  0.12122843657E+03  0.00000000000E+00 0.  1.
          5    1    4    4  501    0 -0.21534825091E+02 -0.16569881216E+02  0.11981620293E+03  0.12292967314E+03  0.41800000000E+01 0.  1.
         -5    1    4    4    0  501  0.28595467634E+02  0.27066962863E+02 -0.13360798742E+02  0.41788809397E+02  0.41800000000E+01 0.  1.
</event>
<event>
11    1  0.5813833E-009  0.1857386E+03  0.7561462E-02  0.1065093E+00
         22   -1    0    0    0    0  0.00000000000E+00  0.00000000000E+00  0.27120298793E+03  0.27120298793E+03  0.00000000000E+00 0.  1.
         22   -1    0    0    0    0 -0.00000000000E+00 -0.00000000000E+00 -0.39743891838E+03  0.39743891838E+03  0.00000000000E+00 0. -1.
         24    2    1    2    0    0  0.24496813965E+02 -0.19303741115E+02 -0.22542560920E+03  0.24137532591E+03  0.80452559689E+02 0.  0.
         25    2    1    2    0    0  0.11028400805E+03 -0.28779056942E+02 -0.77487389346E+02  0.18612071360E+03  0.12508328415E+03 0.  0.
        -24    2    1    2    0    0 -0.13478082202E+03  0.48082798057E+02  0.17667706809E+03  0.24114586679E+03  0.80366144790E+02 0.  0.
        -13    1    3    3    0    0 -0.11713762685E+02  0.17983842925E+02 -0.13805380755E+03  0.13971214915E+03  0.00000000000E+00 0.  1.
         14    1    3    3    0    0  0.36210576649E+02 -0.37287584039E+02 -0.87371801651E+02  0.10166317676E+03  0.00000000000E+00 0. -1.
         13    1    5    5    0    0 -0.46303167926E+02  0.51379048187E+02  0.45159802024E+02  0.82602649300E+02  0.00000000000E+00 0. -1.
        -14    1    5    5    0    0 -0.88477654092E+02 -0.32962501302E+01  0.13151726607E+03  0.15854321749E+03  0.00000000000E+00 0.  1.
          5    1    4    4  501    0  0.89805298667E+02  0.35793831726E+01 -0.10537721262E+03  0.13856274027E+03  0.41800000000E+01 0.  1.
         -5    1    4    4    0  501  0.20478709387E+02 -0.32358440115E+02  0.27889823273E+02  0.47557973327E+02  0.41800000000E+01 0.  1.
</event>
<event>
11    1  0.5813833E-009  0.1635318E+03  0.7561462E-02  0.1083802E+00
         22   -1    0    0    0    0  0.00000000000E+00  0.00000000000E+00  0.24815654271E+04  0.24815654271E+04  0.00000000000E+00 0. -1.
         22   -1    0    0    0    0 -0.00000000000E+00 -0.00000000000E+00 -0.22401295999E+03  0.22401295999E+03  0.00000000000E+00 0. -1.
         24    2    1    2    0    0  0.99785068909E+02  0.45560945743E+02 -0.18015229245E+03  0.22475283341E+03  0.77628138558E+02 0.  0.
         25    2    1    2    0    0 -0.48849735792E+02 -0.35459199088E+02  0.21531541250E+03  0.25622640139E+03  0.12509032906E+03 0.  0.
        -24    2    1    2    0    0 -0.50935333117E+02 -0.10101746655E+02  0.22223893471E+04  0.22245991523E+04  0.84442436059E+02 0.  0.
        -11    1    3    3    0    0  0.79899360989E+01  0.37424301420E+02 -0.79830680702E+02  0.88528837093E+02  0.00000000000E+00 0.  1.
         12    1    3    3    0    0  0.91795132810E+02  0.81366443226E+01 -0.10032161175E+03  0.13622399631E+03  0.00000000000E+00 0. -1.
         13    1    5    5    0    0 -0.58492190822E+02  0.21096564352E+02  0.11044116922E+04  0.11061607421E+04  0.00000000000E+00 0. -1.
        -14    1    5    5    0    0  0.75568577050E+01 -0.31198311007E+02  0.11179776549E+04  0.11184384103E+04  0.00000000000E+00 0.  1.
          5    1    4    4  501    0 -0.38709133214E+01 -0.33140755340E+01  0.19804728658E+03  0.19815692566E+03  0.41800000000E+01 0.  1.
         -5    1    4    4    0  501 -0.44978822470E+02 -0.32145123554E+02  0.17268125924E+02  0.58069475734E+02  0.41800000000E+01 0.  1.
</event>
<event>
11    1  0.5813833E-009  0.1322995E+03  0.7561462E-02  0.1116475E+00
         22   -1    0    0    0    0  0.00000000000E+00  0.00000000000E+00  0.41168693479E+03  0.41168693479E+03  0.00000000000E+00 0. -1.
         22   -1    0    0    0    0 -0.00000000000E+00 -0.00000000000E+00 -0.87506850147E+03  0.87506850147E+03  0.00000000000E+00 0.  1.
        -24    2    1    2    0    0 -0.42810286368E+02 -0.10152672509E+01 -0.64923669637E+03  0.65566583686E+03  0.80966970576E+02 0.  0.
         25    2    1    2    0    0  0.42861429832E+02 -0.44673228381E+02 -0.19481456935E+03  0.23965222244E+03  0.12509065427E+03 0.  0.
         24    2    1    2    0    0 -0.51143463897E-01  0.45688495632E+02  0.38066969904E+03  0.39143737696E+03  0.78907281448E+02 0.  0.
        -11    1    5    5    0    0  0.14838937297E+02  0.29929782009E+02  0.50456322151E+02  0.60513026335E+02  0.00000000000E+00 0.  1.
         12    1    5    5    0    0 -0.14890080761E+02  0.15758713622E+02  0.33021337689E+03  0.33092435063E+03  0.00000000000E+00 0. -1.
         11    1    3    3    0    0 -0.10201743272E+02  0.10127105320E+01 -0.65858005840E+01  0.12184987392E+02  0.00000000000E+00 0. -1.
        -12    1    3    3    0    0 -0.32608543096E+02 -0.20279777829E+01 -0.64265089578E+03  0.64348084946E+03  0.00000000000E+00 0.  1.
          5    1    4    4  501    0  0.33150546129E+02 -0.36038343073E+02 -0.50567869983E+01  0.49404092693E+02  0.41800000000E+01 0.  1.
         -5    1    4    4    0  501  0.97108837030E+01 -0.86348853081E+01 -0.18975778236E+03  0.19024812974E+03  0.41800000000E+01 0.  1.
</event>
<event>
11    1  0.5813833E-009  0.1502124E+03  0.7561462E-02  0.1096662E+00
         22   -1    0    0    0    0  0.00000000000E+00  0.00000000000E+00  0.15063129262E+04  0.15063129262E+04  0.00000000000E+00 0. -1.
         22   -1    0    0    0    0 -0.00000000000E+00 -0.00000000000E+00 -0.16133362012E+03  0.16133362012E+03  0.00000000000E+00 0.  1.
         24    2    1    2    0    0  0.47304810387E+02  0.14667357747E+02 -0.82414472205E+02  0.12545938708E+03  0.80591786854E+02 0.  0.
         25    2    1    2    0    0 -0.11789488216E+02 -0.90160449014E+02  0.53695095904E+02  0.16370034242E+03  0.12508693051E+03 0.  0.
        -24    2    1    2    0    0 -0.35515322171E+02  0.75493091266E+02  0.13736986824E+04  0.13784868168E+04  0.78849789124E+02 0.  0.
        -11    1    3    3    0    0 -0.28473492731E+01 -0.10381480994E+02 -0.66245657971E+02  0.67114601582E+02  0.00000000000E+00 0.  1.
         12    1    3    3    0    0  0.50152159660E+02  0.25048838741E+02 -0.16168814233E+02  0.58344785496E+02  0.00000000000E+00 0. -1.
         13    1    5    5    0    0 -0.50875858980E+02  0.73195241757E+02  0.13055985607E+04  0.13086380317E+04  0.00000000000E+00 0. -1.
        -14    1    5    5    0    0  0.15360536808E+02  0.22978495088E+01  0.68100121729E+02  0.69848785122E+02  0.00000000000E+00 0.  1.
          5    1    4    4  501    0  0.14934872179E+02 -0.85910558807E+02  0.85182995393E+02  0.12197249537E+03  0.41800000000E+01 0.  1.
         -5    1    4    4    0  501 -0.26724360395E+02 -0.42498902065E+01 -0.31487899490E+02  0.41727847051E+02  0.41800000000E+01 0.  1.
</event>
<event>
11    1  0.5813833E-009  0.1823862E+03  0.7561462E-02  0.1067729E+00
         22   -1    0    0    0    0  0.00000000000E+00  0.00000000000E+00  0.44349704258E+03  0.44349704258E+03  0.00000000000E+00 0.  1.
         22   -1    0    0    0    0 -0.00000000000E+00 -0.00000000000E+00 -0.95977942714E+03  0.95977942714E+03  0.00000000000E+00 0.  1.
         24    2    1    2    0    0 -0.12548777299E+03 -0.63629632274E+02 -0.83157586814E+03  0.84738625113E+03  0.82153045344E+02 0.  0.
         25    2    1    2    0    0  0.78957324405E+02  0.27338379476E+02 -0.64846404396E+02  0.16381171988E+03  0.12509027675E+03 0.  0.
        -24    2    1    2    0    0  0.46530448586E+02  0.36291252797E+02  0.38013988797E+03  0.39207849871E+03  0.75743495111E+02 0.  0.
        -11    1    3    3    0    0 -0.13605074341E+03 -0.49294251296E+02 -0.71987708728E+03  0.73427702455E+03  0.00000000000E+00 0.  1.
         12    1    3    3    0    0  0.10562970418E+02 -0.14335380978E+02 -0.11169878086E+03  0.11310922658E+03  0.00000000000E+00 0. -1.
         11    1    5    5    0    0  0.24373896329E+02 -0.23938820880E+01  0.28302292056E+02  0.37427760143E+02  0.00000000000E+00 0. -1.
        -12    1    5    5    0    0  0.22156552257E+02  0.38685134885E+02  0.35183759591E+03  0.35465073857E+03  0.00000000000E+00 0.  1.
          5    1    4    4  501    0  0.18816816510E+02 -0.19697459578E+02 -0.81086711740E+02  0.85642219251E+02  0.41800000000E+01 0. -1.
         -5    1    4    4    0  501  0.60140507895E+02  0.47035839055E+02  0.16240307345E+02  0.78169500626E+02  0.41800000000E+01 0. -1.
</event>
<event>
11    1  0.5813833E-009  0.1514772E+03  0.7561462E-02  0.1095379E+00
         22   -1    0    0    0    0  0.00000000000E+00  0.00000000000E+00  0.47576976709E+03  0.47576976709E+03  0.00000000000E+00 0.  1.
         22   -1    0    0    0    0 -0.00000000000E+00 -0.00000000000E+00 -0.75012258330E+03  0.75012258330E+03  0.00000000000E+00 0. -1.
        -24    2    1    2    0    0 -0.12305181253E+02  0.15690160162E+02 -0.65471056968E+03  0.65980137298E+03  0.79336770372E+02 0.  0.
         25    2    1    2    0    0  0.87852807522E+02 -0.51903472642E+02 -0.70569880958E+01  0.16158382606E+03  0.12508974979E+03 0.  0.
         24    2    1    2    0    0 -0.75547626269E+02  0.36213312481E+02  0.38741474157E+03  0.40450715134E+03  0.80727973279E+02 0.  0.
        -13    1    5    5    0    0 -0.78869560882E+01 -0.12969596661E+02  0.18316172179E+03  0.18378963748E+03  0.00000000000E+00 0.  1.
         14    1    5    5    0    0 -0.67660670181E+02  0.49182909142E+02  0.20425301977E+03  0.22071751387E+03  0.00000000000E+00 0. -1.
         11    1    3    3    0    0  0.99008277852E+01  0.13616377917E+02 -0.60593350478E+03  0.60616734022E+03  0.00000000000E+00 0. -1.
        -12    1    3    3    0    0 -0.22206009039E+02  0.20737822445E+01 -0.48777064899E+02  0.53634032762E+02  0.00000000000E+00 0.  1.
          5    1    4    4  501    0 -0.19339130444E+02 -0.13199411635E+02 -0.36717441570E+02  0.43747792508E+02  0.41800000000E+01 0.  1.
         -5    1    4    4    0  501  0.10719193797E+03 -0.38704061007E+02  0.29660453475E+02  0.11783603355E+03  0.41800000000E+01 0.  1.
</event>
<event>
11    1  0.5813833E-009  0.1565520E+03  0.7561462E-02  0.1090366E+00
         22   -1    0    0    0    0  0.00000000000E+00  0.00000000000E+00  0.17159514906E+03  0.17159514906E+03  0.00000000000E+00 0. -1.
         22   -1    0    0    0    0 -0.00000000000E+00 -0.00000000000E+00 -0.22391129675E+04  0.22391129675E+04  0.00000000000E+00 0. -1.
         24    2    1    2    0    0  0.13839023580E+02 -0.19653905488E+02 -0.20698462710E+04  0.20715604075E+04  0.80753586072E+02 0.  0.
         25    2    1    2    0    0 -0.84228424573E+02  0.75752114927E+02 -0.86918705262E+02  0.18982997726E+03  0.12509096099E+03 0.  0.
        -24    2    1    2    0    0  0.70389400993E+02 -0.56098209439E+02  0.89247157777E+02  0.14931773186E+03  0.78924349876E+02 0.  0.
        -13    1    3    3    0    0 -0.71565412938E+01 -0.25496928372E+01 -0.18027317754E+02  0.19562750376E+02  0.00000000000E+00 0.  1.
         14    1    3    3    0    0  0.20995564874E+02 -0.17104212650E+02 -0.20518189532E+04  0.20519976571E+04  0.00000000000E+00 0. -1.
         13    1    5    5    0    0  0.70084788325E+02 -0.46926152793E+02  0.30240203987E+02  0.89601402376E+02  0.00000000000E+00 0. -1.
        -14    1    5    5    0    0  0.30461266759E+00 -0.91720566461E+01  0.59006953790E+02  0.59716329488E+02  0.00000000000E+00 0.  1.
          5    1    4    4  501    0 -0.90129629703E+02  0.10174802474E+03 -0.89381862086E+02  0.16273475461E+03  0.41800000000E+01 0.  1.
         -5    1    4    4    0  501  0.59012051298E+01 -0.25995909811E+02  0.24631568241E+01  0.27095222649E+02  0.41800000000E+01 0.  1.
</event>
<event>
11    1  0.5813833E-009  0.1501465E+03  0.7561462E-02  0.1096729E+00
         22   -1    0    0    0    0  0.00000000000E+00  0.00000000000E+00  0.19630789640E+03  0.19630789640E+03  0.00000000000E+00 0.  1.
         22   -1    0    0    0    0 -0.00000000000E+00 -0.00000000000E+00 -0.10473004898E+04  0.10473004898E+04  0.00000000000E+00 0.  1.
         24    2    1    2    0    0  0.30515681482E+02  0.44734059464E+02 -0.76008206401E+03  0.76568176377E+03  0.74909788722E+02 0.  0.
         25    2    1    2    0    0 -0.82695282568E+02  0.21218339220E+02 -0.24274638759E+03  0.28611618526E+03  0.12509170677E+03 0.  0.
        -24    2    1    2    0    0  0.52179601086E+02 -0.65952398685E+02  0.15183585822E+03  0.19181043715E+03  0.81637529935E+02 0.  0.
        -13    1    3    3    0    0  0.50982528186E+02  0.24283889459E+02 -0.62444519392E+03  0.62699340162E+03  0.00000000000E+00 0.  1.
         14    1    3    3    0    0 -0.20466846705E+02  0.20450170005E+02 -0.13563687009E+03  0.13868836215E+03  0.00000000000E+00 0. -1.
         13    1    5    5    0    0 -0.10026632864E+02 -0.95106032925E+01 -0.43353532320E+01  0.14483791949E+02  0.00000000000E+00 0. -1.
        -14    1    5    5    0    0  0.62206233950E+02 -0.56441795392E+02  0.15617121146E+03  0.17732664520E+03  0.00000000000E+00 0.  1.
          5    1    4    4  501    0  0.31841738146E+01 -0.83750147026E+01 -0.16831844601E+03  0.16860857482E+03  0.41800000000E+01 0. -1.
         -5    1    4    4    0  501 -0.85879456382E+02  0.29593353923E+02 -0.74427941579E+02  0.11750761045E+03  0.41800000000E+01 0. -1.
</event>
<event>
11    1  0.5813833E-009  0.1358600E+03  0.7561462E-02  0.1112272E+00
         22   -1    0    0    0    0  0.00000000000E+00  0.00000000000E+00  0.23362950004E+03  0.23362950004E+03  0.00000000000E+00 0. -1.
         22   -1    0    0    0    0 -0.00000000000E+00 -0.00000000000E+00 -0.17494984346E+03  0.17494984346E+03  0.00000000000E+00 0. -1.
        -24    2    1    2    0    0  0.15325505113E+02  0.33331067094E+02 -0.93021606865E+02  0.12944157405E+03  0.82196536476E+02 0.  0.
         25    2    1    2    0    0 -0.61732509225E+02 -0.19451042997E+02  0.98789920036E+02  0.17206381597E+03  0.12512898424E+03 0.  0.
         24    2    1    2    0    0  0.46407004112E+02 -0.13880024097E+02  0.52911343413E+02  0.10707395348E+03  0.79491862179E+02 0.  0.
        -13    1    5    5    0    0  0.86270571351E+01  0.16580950431E+02 -0.14748455568E+02  0.23809052347E+02  0.00000000000E+00 0.  1.
         14    1    5    5    0    0  0.37779946977E+02 -0.30460974527E+02  0.67659798981E+02  0.83264901134E+02  0.00000000000E+00 0. -1.
         13    1    3    3    0    0 -0.23948693544E+02 -0.14456225260E+02 -0.32857293507E+02  0.43152336064E+02  0.00000000000E+00 0. -1.
        -14    1    3    3    0    0  0.39274198657E+02  0.47787292354E+02 -0.60164313358E+02  0.86289237988E+02  0.00000000000E+00 0.  1.
          5    1    4    4  501    0 -0.36710344180E+02 -0.20671420671E+02  0.12713821588E+03  0.13400207215E+03  0.41800000000E+01 0. -1.
         -5    1    4    4    0  501 -0.25022165045E+02  0.12203776734E+01 -0.28348295847E+02  0.38061743820E+02  0.41800000000E+01 0. -1.
</event>
<event>
11    1  0.5813833E-009  0.1295523E+03  0.7561462E-02  0.1119820E+00
         22   -1    0    0    0    0  0.00000000000E+00  0.00000000000E+00  0.87299435675E+02  0.87299435675E+02  0.00000000000E+00 0. -1.
         22   -1    0    0    0    0 -0.00000000000E+00 -0.00000000000E+00 -0.12487632940E+04  0.12487632940E+04  0.00000000000E+00 0. -1.
         24    2    1    2    0    0  0.12959549489E+02  0.30660531310E+02 -0.10835818677E+04  0.10870754938E+04  0.80470162696E+02 0.  0.
         25    2    1    2    0    0 -0.21417403135E+02 -0.36073568715E+02 -0.10015468469E+03  0.16564598008E+03  0.12509045661E+03 0.  0.
        -24    2    1    2    0    0  0.84578536462E+01  0.54130374046E+01  0.22272694078E+02  0.83341255792E+02  0.79679707286E+02 0.  0.
        -13    1    3    3    0    0  0.22865783384E+02 -0.17074209656E+02 -0.18657734743E+03  0.18874713047E+03  0.00000000000E+00 0.  1.
         14    1    3    3    0    0 -0.99062338945E+01  0.47734740966E+02 -0.89700452028E+03  0.89832836333E+03  0.00000000000E+00 0. -1.
         13    1    5    5    0    0  0.59530245357E+01 -0.37115983577E+02  0.81991424868E+01  0.38474155943E+02  0.00000000000E+00 0. -1.
        -14    1    5    5    0    0  0.25048291105E+01  0.42529020981E+02  0.14073551591E+02  0.44867099849E+02  0.00000000000E+00 0.  1.
          5    1    4    4  501    0 -0.35611301377E+02 -0.61994460959E+01 -0.12098300032E+03  0.12633667989E+03  0.41800000000E+01 0.  1.
         -5    1    4    4    0  501  0.14193898241E+02 -0.29874122619E+02  0.20828315634E+02  0.39309300193E+02  0.41800000000E+01 0.  1.
</event>
<event>
11    1  0.5813833E-009  0.1339015E+03  0.7561462E-02  0.1114566E+00
         22   -1    0    0    0    0  0.00000000000E+00  0.00000000000E+00  0.10034843462E+04  0.10034843462E+04  0.00000000000E+00 0.  1.
         22   -1    0    0    0    0 -0.00000000000E+00 -0.00000000000E+00 -0.47783869163E+03  0.47783869163E+03  0.00000000000E+00 0.  1.
        -24    2    1    2    0    0  0.16144920495E+02 -0.42552169846E+02 -0.39112897664E+03  0.40178121161E+03  0.79843096222E+02 0.  0.
         25    2    1    2    0    0 -0.15570059357E+02  0.75961772537E+02 -0.11142111571E+02  0.14759621026E+03  0.12509147452E+03 0.  0.
         24    2    1    2    0    0 -0.57486113845E+00 -0.33409602691E+02  0.92791674277E+03  0.93194561595E+03  0.79853725992E+02 0.  0.
        -11    1    5    5    0    0  0.71855687896E-01 -0.58214243990E+02  0.51406334665E+03  0.51734903860E+03  0.00000000000E+00 0.  1.
         12    1    5    5    0    0 -0.64671682634E+00  0.24804641299E+02  0.41385339612E+03  0.41459657735E+03  0.00000000000E+00 0. -1.
         11    1    3    3    0    0  0.20399282321E+01 -0.86940556231E+01  0.60610458903E-02  0.89301706090E+01  0.00000000000E+00 0. -1.
        -12    1    3    3    0    0  0.14104992263E+02 -0.33858114223E+02 -0.39113503769E+03  0.39285104100E+03  0.00000000000E+00 0.  1.
          5    1    4    4  501    0  0.54955565351E+01 -0.31623562997E+02  0.13638246017E+02  0.35124422169E+02  0.41800000000E+01 0. -1.
         -5    1    4    4    0  501 -0.21065615892E+02  0.10758533553E+03 -0.24780357588E+02  0.11247178809E+03  0.41800000000E+01 0. -1.
</event>
<event>
11    1  0.5813833E-009  0.1592910E+03  0.7561462E-02  0.1087746E+00
         22   -1    0    0    0    0  0.00000000000E+00  0.00000000000E+00  0.70901854364E+03  0.70901854364E+03  0.00000000000E+00 0. -1.
         22   -1    0    0    0    0 -0.00000000000E+00 -0.00000000000E+00 -0.51387550295E+03  0.51387550295E+03  0.00000000000E+00 0.  1.
         24    2    1    2    0    0  0.29289284836E+02  0.37028716056E+01 -0.47390530066E+03  0.48145035532E+03  0.79602997298E+02 0.  0.
         25    2    1    2    0    0  0.75893227359E+02 -0.11110142567E+02  0.16688607308E+03  0.22221729367E+03  0.12508535882E+03 0.  0.
        -24    2    1    2    0    0 -0.10518251219E+03  0.74072709617E+01  0.50216226827E+03  0.51922639760E+03  0.79441045789E+02 0.  0.
        -11    1    3    3    0    0  0.79264228339E+01  0.26208164566E+02 -0.40448465296E+03  0.40541032368E+03  0.00000000000E+00 0.  1.
         12    1    3    3    0    0  0.21362862002E+02 -0.22505292960E+02 -0.69420647707E+02  0.76040031643E+02  0.00000000000E+00 0. -1.
         11    1    5    5    0    0 -0.78087113286E+02  0.89831707928E+01  0.47261025023E+03  0.47910201758E+03  0.00000000000E+00 0. -1.
        -12    1    5    5    0    0 -0.27095398909E+02 -0.15758998311E+01  0.29552018033E+02  0.40124380022E+02  0.00000000000E+00 0.  1.
          5    1    4    4  501    0  0.85369933495E+01 -0.55828065513E+02  0.32401514969E+02  0.65245564804E+02  0.41800000000E+01 0.  1.
         -5    1    4    4    0  501  0.67356234010E+02  0.44717922945E+02  0.13448455811E+03  0.15697172887E+03  0.41800000000E+01 0.  1.
</event>
<event>
11    1  0.5813833E-009  0.2845107E+03  0.7561462E-02  0.1006968E+00
         22   -1    0    0    0    0  0.00000000000E+00  0.00000000000E+00  0.26195601399E+04  0.26195601399E+04  0.00000000000E+00 0. -1.
         22   -1    0    0    0    0 -0.00000000000E+00 -0.00000000000E+00 -0.33140033256E+03  0.33140033256E+03  0.00000000000E+00 0.  1.
        -24    2    1    2    0    0  0.32467333989E+02  0.84303414770E+01 -0.29587407660E+03  0.30844609266E+03  0.80450757824E+02 0.  0.
         25    2    1    2    0    0 -0.45284848152E+02 -0.25857871004E+03  0.13226497705E+04  0.13542392225E+04  0.12509112559E+03 0.  0.
         24    2    1    2    0    0  0.12817514163E+02  0.25014836856E+03  0.12613841135E+04  0.12882751573E+04  0.76318439567E+02 0.  0.
        -11    1    5    5    0    0 -0.31288277564E+02  0.12943763233E+03  0.66465286320E+03  0.67786170090E+03  0.00000000000E+00 0.  1.
         12    1    5    5    0    0  0.44105791727E+02  0.12071073623E+03  0.59673125025E+03  0.61041345638E+03  0.00000000000E+00 0. -1.
         13    1    3    3    0    0  0.10278017631E+02  0.10114512851E+02 -0.30013905102E+01  0.14729200984E+02  0.00000000000E+00 0. -1.
        -14    1    3    3    0    0  0.22189316358E+02 -0.16841713735E+01 -0.29287268609E+03  0.29371689167E+03  0.00000000000E+00 0.  1.
          5    1    4    4  501    0 -0.59942843053E+02 -0.13920074756E+03  0.48951551011E+03  0.51245770518E+03  0.41800000000E+01 0.  1.
         -5    1    4    4    0  501  0.14657994901E+02 -0.11937796248E+03  0.83313426037E+03  0.84178151735E+03  0.41800000000E+01 0.  1.
</event>
<event>
11    1  0.5813833E-009  0.1384413E+03  0.7561462E-02  0.1109312E+00
         22   -1    0    0    0    0  0.00000000000E+00  0.00000000000E+00  0.12104921698E+04  0.12104921698E+04  0.00000000000E+00 0. -1.
         22   -1    0    0    0    0 -0.00000000000E+00 -0.00000000000E+00 -0.14562535662E+03  0.14562535662E+03  0.00000000000E+00 0. -1.
        -24    2    1    2    0    0  0.28910940127E+02 -0.51594055411E+02 -0.11033630663E+03  0.14974418374E+03  0.82167091886E+02 0.  0.
         25    2    1    2    0    0 -0.29412999815E+02  0.55156678875E+02  0.34342951959E+03  0.37080809143E+03  0.12508965570E+03 0.  0.
         24    2    1    2    0    0  0.50205968748E+00 -0.35626234646E+01  0.83177360025E+03  0.83556525128E+03  0.79429356780E+02 0.  0.
        -11    1    5    5    0    0  0.25626619079E+02  0.34354339686E+01  0.98781776659E+02  0.10210957454E+03  0.00000000000E+00 0.  1.
         12    1    5    5    0    0 -0.25124559391E+02 -0.69980574331E+01  0.73299182359E+03  0.73345567674E+03  0.00000000000E+00 0. -1.
         13    1    3    3    0    0  0.14047411369E+02 -0.63158891246E+02 -0.11350064542E+03  0.13064750981E+03  0.00000000000E+00 0. -1.
        -14    1    3    3    0    0  0.14863528758E+02  0.11564835836E+02  0.31643387865E+01  0.19096673925E+02  0.00000000000E+00 0.  1.
          5    1    4    4  501    0  0.12011911301E+02 -0.36362273392E+02  0.78543305571E+02  0.87481564854E+02  0.41800000000E+01 0.  1.
         -5    1    4    4    0  501 -0.41424911116E+02  0.91518952267E+02  0.26488621402E+03  0.28332652658E+03  0.41800000000E+01 0.  1.
</event>
<event>
11    1  0.5813833E-009  0.2691411E+03  0.7561462E-02  0.1014169E+00
         22   -1    0    0    0    0  0.00000000000E+00  0.00000000000E+00  0.17846610968E+04  0.17846610968E+04  0.00000000000E+00 0.  1.
         22   -1    0    0    0    0 -0.00000000000E+00 -0.00000000000E+00 -0.16085621022E+04  0.16085621022E+04  0.00000000000E+00 0. -1.
        -24    2    1    2    0    0 -0.98963081000E+01  0.14960538244E+02 -0.14732137276E+04  0.14755769870E+04  0.81529152960E+02 0.  0.
         25    2    1    2    0    0  0.79669879516E+02 -0.24154410593E+03  0.36573004271E+02  0.28578627109E+03  0.12508142664E+03 0.  0.
         24    2    1    2    0    0 -0.69773571416E+02  0.22658356769E+03  0.16127397179E+04  0.16318599410E+04  0.76347920430E+02 0.  0.
        -13    1    5    5    0    0 -0.35837001151E+02  0.54446517905E+02  0.65032311929E+03  0.65358157367E+03  0.00000000000E+00 0.  1.
         14    1    5    5    0    0 -0.33936570265E+02  0.17213704978E+03  0.96241659860E+03  0.97827836732E+03  0.00000000000E+00 0. -1.
         11    1    3    3    0    0 -0.11373891150E+02 -0.26578675944E+02 -0.10332022419E+04  0.10336066293E+04  0.00000000000E+00 0. -1.
        -12    1    3    3    0    0  0.14775830496E+01  0.41539214188E+02 -0.44001148567E+03  0.44197035770E+03  0.00000000000E+00 0.  1.
          5    1    4    4  501    0  0.16180413283E+02 -0.11923852796E+03 -0.41492141024E+02  0.12735266974E+03  0.41800000000E+01 0. -1.
         -5    1    4    4    0  501  0.63489466233E+02 -0.12230557797E+03  0.78065145295E+02  0.15843360135E+03  0.41800000000E+01 0. -1.
</event>
<event>
11    1  0.5813833E-009  0.1470058E+03  0.7561462E-02  0.1099978E+00
         22   -1    0    0    0    0  0.00000000000E+00  0.00000000000E+00  0.19867646914E+04  0.19867646914E+04  0.00000000000E+00 0. -1.
         22   -1    0    0    0    0 -0.00000000000E+00 -0.00000000000E+00 -0.78219024946E+02  0.78219024946E+02  0.00000000000E+00 0. -1.
        -24    2    1    2    0    0  0.19818484979E+02 -0.59989245593E+02 -0.18424734869E+02  0.10266227026E+03  0.78794599722E+02 0.  0.
         25    2    1    2    0    0 -0.16249905578E+02  0.13041011543E+03  0.50932108263E+03  0.54067243117E+03  0.12509138649E+03 0.  0.
         24    2    1    2    0    0 -0.35685794009E+01 -0.70420869838E+02  0.14176493187E+04  0.14216490149E+04  0.79903048584E+02 0.  0.
        -11    1    5    5    0    0 -0.40700659257E+02 -0.43063010743E+02  0.90034375576E+03  0.90229144133E+03  0.00000000000E+00 0.  1.
         12    1    5    5    0    0  0.37132079857E+02 -0.27357859095E+02  0.51730556295E+03  0.51935757362E+03  0.00000000000E+00 0. -1.
         11    1    3    3    0    0  0.49323487315E+02 -0.26857857109E+02 -0.15189655066E+02  0.58179691564E+02  0.00000000000E+00 0. -1.
        -12    1    3    3    0    0 -0.29505002337E+02 -0.33131388484E+02 -0.32350798029E+01  0.44482578692E+02  0.00000000000E+00 0.  1.
          5    1    4    4  501    0 -0.11234161005E+01  0.76268988439E+02  0.92089578274E+02  0.11965025486E+03  0.41800000000E+01 0. -1.
         -5    1    4    4    0  501 -0.15126489477E+02  0.54141126992E+02  0.41723150436E+03  0.42102217631E+03  0.41800000000E+01 0. -1.
</event>
<event>
11    1  0.5813833E-009  0.1634344E+03  0.7561462E-02  0.1083891E+00
         22   -1    0    0    0    0  0.00000000000E+00  0.00000000000E+00  0.22730136611E+04  0.22730136611E+04  0.00000000000E+00 0. -1.
         22   -1    0    0    0    0 -0.00000000000E+00 -0.00000000000E+00 -0.84064356308E+03  0.84064356308E+03  0.00000000000E+00 0.  1.
        -24    2    1    2    0    0  0.60946189156E+01 -0.15553509693E+02 -0.37427541009E+03  0.38296120259E+03  0.79360847076E+02 0.  0.
         25    2    1    2    0    0  0.14037811136E+02  0.11872606801E+03 -0.44381372511E+03  0.47635281988E+03  0.12509375304E+03 0.  0.
         24    2    1    2    0    0 -0.20132430051E+02 -0.10317255832E+03  0.22504592333E+04  0.22543432018E+04  0.80290841198E+02 0.  0.
        -11    1    5    5    0    0  0.24443571832E+02 -0.42933879440E+02  0.54382476753E+03  0.54606426727E+03  0.00000000000E+00 0.  1.
         12    1    5    5    0    0 -0.44576001884E+02 -0.60238678877E+02  0.17066344657E+04  0.17082789345E+04  0.00000000000E+00 0. -1.
         13    1    3    3    0    0  0.83722841546E+01 -0.47910328157E+02 -0.21969128095E+03  0.22501056333E+03  0.00000000000E+00 0. -1.
        -14    1    3    3    0    0 -0.22776652390E+01  0.32356818464E+02 -0.15458412914E+03  0.15795063926E+03  0.00000000000E+00 0.  1.
          5    1    4    4  501    0  0.11272842818E+02 -0.11077584178E+02 -0.19487953378E+03  0.19556404307E+03  0.41800000000E+01 0. -1.
         -5    1    4    4    0  501  0.27649683181E+01  0.12980365219E+03 -0.24893419133E+03  0.28078877681E+03  0.41800000000E+01 0. -1.
</event>
<event>
11    1  0.5813833E-009  0.1339236E+03  0.7561462E-02  0.1114540E+00
         22   -1    0    0    0    0  0.00000000000E+00  0.00000000000E+00  0.19226717702E+04  0.19226717702E+04  0.00000000000E+00 0.  1.
         22   -1    0    0    0    0 -0.00000000000E+00 -0.00000000000E+00 -0.49437464881E+03  0.49437464881E+03  0.00000000000E+00 0.  1.
         24    2    1    2    0    0 -0.25630912872E+02 -0.13197105525E+02 -0.47808565535E+03  0.48583572753E+03  0.81482225077E+02 0.  0.
         25    2    1    2    0    0  0.13102024845E+02  0.58476768717E+02  0.43026563854E+03  0.45207123196E+03  0.12509469824E+03 0.  0.
        -24    2    1    2    0    0  0.12528888028E+02 -0.45279663192E+02  0.14761171382E+04  0.14791394595E+04  0.82003134707E+02 0.  0.
        -13    1    3    3    0    0 -0.41477421065E+02 -0.26580955620E+02 -0.43742194426E+03  0.44018732488E+03  0.00000000000E+00 0.  1.
         14    1    3    3    0    0  0.15846508193E+02  0.13383850095E+02 -0.40663711084E+02  0.45648402649E+02  0.00000000000E+00 0. -1.
         11    1    5    5    0    0 -0.25227066997E+02  0.59727952622E-01  0.18970962510E+03  0.19137959748E+03  0.00000000000E+00 0. -1.
        -12    1    5    5    0    0  0.37755955024E+02 -0.45339391144E+02  0.12864075131E+04  0.12877598621E+04  0.00000000000E+00 0.  1.
          5    1    4    4  501    0  0.14722883035E+02  0.23955921562E+02  0.41158365135E+03  0.41256420582E+03  0.41800000000E+01 0. -1.
         -5    1    4    4    0  501 -0.16208581899E+01  0.34520847155E+02  0.18681987187E+02  0.39507026144E+02  0.41800000000E+01 0. -1.
</event>
<event>
11    1  0.5813833E-009  0.1354031E+03  0.7561462E-02  0.1112803E+00
         22   -1    0    0    0    0  0.00000000000E+00  0.00000000000E+00  0.12693576895E+04  0.12693576895E+04  0.00000000000E+00 0.  1.
         22   -1    0    0    0    0 -0.00000000000E+00 -0.00000000000E+00 -0.91539502168E+03  0.91539502168E+03  0.00000000000E+00 0. -1.
         24    2    1    2    0    0  0.56458293686E+02  0.65230772016E+01 -0.89852213042E+03  0.90389244127E+03  0.80308387214E+02 0.  0.
         25    2    1    2    0    0  0.61560664814E+01 -0.65402124634E+01  0.33143212067E+03  0.35436942971E+03  0.12509904303E+03 0.  0.
        -24    2    1    2    0    0 -0.62614360168E+02  0.17135261839E-01  0.92105267762E+03  0.92649084024E+03  0.78273135284E+02 0.  0.
        -13    1    3    3    0    0  0.66897385195E+02  0.82281120042E+01 -0.42996032408E+03  0.43521126164E+03  0.00000000000E+00 0.  1.
         14    1    3    3    0    0 -0.10439091509E+02 -0.17050348026E+01 -0.46856180634E+03  0.46868117963E+03  0.00000000000E+00 0. -1.
         13    1    5    5    0    0  0.18483806368E+02  0.30195059201E+01  0.20513903510E+03  0.20599221402E+03  0.00000000000E+00 0. -1.
        -14    1    5    5    0    0 -0.81098166535E+02 -0.30023706583E+01  0.71591364252E+03  0.72049862622E+03  0.00000000000E+00 0.  1.
          5    1    4    4  501    0  0.57428154962E+02  0.15276242106E+02  0.23941635339E+03  0.24671647538E+03  0.41800000000E+01 0. -1.
         -5    1    4    4    0  501 -0.51272088481E+02 -0.21816454569E+02  0.92015767281E+02  0.10765295433E+03  0.41800000000E+01 0. -1.
</event>
<event>
11    1  0.5813833E-009  0.1513459E+03  0.7561462E-02  0.1095511E+00
         22   -1    0    0    0    0  0.00000000000E+00  0.00000000000E+00  0.45210529285E+03  0.45210529285E+03  0.00000000000E+00 0.  1.
         22   -1    0    0    0    0 -0.00000000000E+00 -0.00000000000E+00 -0.16175242576E+03  0.16175242576E+03  0.00000000000E+00 0.  1.
        -24    2    1    2    0    0  0.10832942361E+03  0.46207127789E+02 -0.20512435634E+02  0.14456178188E+03  0.81283369063E+02 0.  0.
         25    2    1    2    0    0 -0.35624335590E+02 -0.40904017982E+02 -0.38383170885E+01  0.13639019134E+03  0.12508125216E+03 0.  0.
         24    2    1    2    0    0 -0.72705088016E+02 -0.53031098069E+01  0.31470361981E+03  0.33290574539E+03  0.80459394719E+02 0.  0.
        -13    1    5    5    0    0 -0.49452474973E+02  0.34697227777E+02  0.20817879080E+03  0.21676681903E+03  0.00000000000E+00 0.  1.
         14    1    5    5    0    0 -0.23252613043E+02 -0.40000337584E+02  0.10652482901E+03  0.11613892636E+03  0.00000000000E+00 0. -1.
         13    1    3    3    0    0  0.44219863617E+02 -0.21956805016E+02 -0.10265943984E+02  0.50427048601E+02  0.00000000000E+00 0. -1.
        -14    1    3    3    0    0  0.64109559989E+02  0.68163932805E+02 -0.10246491650E+02  0.94134733274E+02  0.00000000000E+00 0.  1.
          5    1    4    4  501    0  0.28874531927E+02  0.28909877358E+02 -0.38227772712E+01  0.41250522772E+02  0.41800000000E+01 0. -1.
         -5    1    4    4    0  501 -0.64498867517E+02 -0.69813895340E+02 -0.15539817375E-01  0.95139668567E+02  0.41800000000E+01 0. -1.
</event>
<event>
11    1  0.5813833E-009  0.3062140E+03  0.7561462E-02  0.9975951E-01
         22   -1    0    0    0    0  0.00000000000E+00  0.00000000000E+00  0.22233056495E+04  0.22233056495E+04  0.00000000000E+00 0. -1.
         22   -1    0    0    0    0 -0.00000000000E+00 -0.00000000000E+00 -0.12933004420E+04  0.12933004420E+04  0.00000000000E+00 0. -1.
         24    2    1    2    0    0  0.68722644988E+01 -0.18077559415E+02 -0.66142913370E+03  0.66653046783E+03  0.80002121650E+02 0.  0.
         25    2    1    2    0    0 -0.27666533341E+03 -0.54806015160E+02 -0.58121742199E+03  0.65803585201E+03  0.12510029936E+03 0.  0.
        -24    2    1    2    0    0  0.26979306891E+03  0.72883574575E+02  0.21726517632E+04  0.21920397716E+04  0.80761135078E+02 0.  0.
        -13    1    3    3    0    0  0.14387712592E+02  0.47705217966E+01 -0.22387507701E+02  0.27036357982E+02  0.00000000000E+00 0.  1.
         14    1    3    3    0    0 -0.75154480931E+01 -0.22848081212E+02 -0.63904162600E+03  0.63949410985E+03  0.00000000000E+00 0. -1.
         11    1    5    5    0    0  0.22848960397E+03  0.89725198145E+02  0.18937959329E+04  0.19096390093E+04  0.00000000000E+00 0. -1.
        -12    1    5    5    0    0  0.41303464939E+02 -0.16841623570E+02  0.27885583031E+03  0.28240076239E+03  0.00000000000E+00 0.  1.
          5    1    4    4  501    0 -0.25709119660E+03 -0.20753798097E+02 -0.42727854991E+03  0.49911024345E+03  0.41800000000E+01 0.  1.
         -5    1    4    4    0  501 -0.19574136805E+02 -0.34052217062E+02 -0.15393887208E+03  0.15892560856E+03  0.41800000000E+01 0.  1.
</event>
<event>
11    1  0.5813833E-009  0.1874486E+03  0.7561462E-02  0.1063772E+00
         22   -1    0    0    0    0  0.00000000000E+00  0.00000000000E+00  0.57779631530E+03  0.57779631530E+03  0.00000000000E+00 0. -1.
         22   -1    0    0    0    0 -0.00000000000E+00 -0.00000000000E+00 -0.62358135733E+03  0.62358135733E+03  0.00000000000E+00 0.  1.
         24    2    1    2    0    0 -0.12831111619E+03 -0.54347181412E+02 -0.53746074551E+03  0.56104871460E+03  0.80586900519E+02 0.  0.
         25    2    1    2    0    0  0.15198907082E+03  0.48887372493E+01  0.70983369400E+02  0.20930921735E+03  0.12508849802E+03 0.  0.
        -24    2    1    2    0    0 -0.23677954630E+02  0.49458444163E+02  0.42069233407E+03  0.43101974067E+03  0.76086750943E+02 0.  0.
        -11    1    3    3    0    0 -0.91254728513E+02 -0.67160143155E+02 -0.30626841014E+03  0.32655512453E+03  0.00000000000E+00 0.  1.
         12    1    3    3    0    0 -0.37056387673E+02  0.12812961743E+02 -0.23119233536E+03  0.23449359008E+03  0.00000000000E+00 0. -1.
         13    1    5    5    0    0 -0.71911468457E+01  0.14941400759E+02  0.35203570366E+03  0.35242601309E+03  0.00000000000E+00 0. -1.
        -14    1    5    5    0    0 -0.16486807784E+02  0.34517043404E+02  0.68656630409E+02  0.78593727583E+02  0.00000000000E+00 0.  1.
          5    1    4    4  501    0  0.37990068159E+01  0.42695694600E+02  0.23792010676E+02  0.49202509714E+02  0.41800000000E+01 0. -1.
         -5    1    4    4    0  501  0.14819006400E+03 -0.37806957351E+02  0.47191358724E+02  0.16010670764E+03  0.41800000000E+01 0. -1.
</event>
<event>
11    1  0.5813833E-009  0.1323606E+03  0.7561462E-02  0.1116402E+00
         22   -1    0    0    0    0  0.00000000000E+00  0.00000000000E+00  0.12756828766E+04  0.12756828766E+04  0.00000000000E+00 0. -1.
         22   -1    0    0    0    0 -0.00000000000E+00 -0.00000000000E+00 -0.79430976915E+03  0.79430976915E+03  0.00000000000E+00 0.  1.
        -24    2    1    2    0    0  0.34838996360E+02 -0.19636434115E+02 -0.67026623448E+03  0.67619869157E+03  0.79928093843E+02 0.  0.
         25    2    1    2    0    0 -0.58326889935E+02  0.55369801563E+02 -0.73023973714E+02  0.16567251173E+03  0.12508812650E+03 0.  0.
         24    2    1    2    0    0  0.23487893575E+02 -0.35733367447E+02  0.12246633157E+04  0.12281214424E+04  0.81568903377E+02 0.  0.
        -13    1    5    5    0    0 -0.78501745886E+01  0.11288290878E+02  0.43812044463E+02  0.45918906695E+02  0.00000000000E+00 0.  1.
         14    1    5    5    0    0  0.31338068163E+02 -0.47021658325E+02  0.11808512712E+04  0.11822025358E+04  0.00000000000E+00 0. -1.
         11    1    3    3    0    0 -0.90905422979E+01  0.39558635240E+01 -0.10102303892E+02  0.14154270007E+02  0.00000000000E+00 0. -1.
        -12    1    3    3    0    0  0.43929538658E+02 -0.23592297639E+02 -0.66016393059E+03  0.66204442157E+03  0.00000000000E+00 0.  1.
          5    1    4    4  501    0  0.42998169627E+01  0.12869150839E+02  0.32661372297E+02  0.35613776962E+02  0.41800000000E+01 0. -1.
         -5    1    4    4    0  501 -0.62626706898E+02  0.42500650724E+02 -0.10568534601E+03  0.13005873477E+03  0.41800000000E+01 0. -1.
</event>
<event>
11    1  0.5813833E-009  0.1408497E+03  0.7561462E-02  0.1106613E+00
         22   -1    0    0    0    0  0.00000000000E+00  0.00000000000E+00  0.14419779880E+04  0.14419779880E+04  0.00000000000E+00 0.  1.
         22   -1    0    0    0    0 -0.00000000000E+00 -0.00000000000E+00 -0.15428762198E+04  0.15428762198E+04  0.00000000000E+00 0.  1.
         24    2    1    2    0    0  0.51820817711E+02  0.60445473620E+00 -0.88977074120E+03  0.89514722484E+03  0.83131340225E+02 0.  0.
         25    2    1    2    0    0 -0.62779697036E+02 -0.64383946633E+02 -0.63941032295E+03  0.65770766191E+03  0.12508886638E+03 0.  0.
        -24    2    1    2    0    0  0.10958879325E+02  0.63779491896E+02  0.14282828323E+04  0.14319993210E+04  0.80263850437E+02 0.  0.
        -13    1    3    3    0    0  0.46788221921E+02 -0.24161279670E+02 -0.80421298105E+03  0.80593512396E+03  0.00000000000E+00 0.  1.
         14    1    3    3    0    0  0.50325957903E+01  0.24765734406E+02 -0.85557760151E+02  0.89212100878E+02  0.00000000000E+00 0. -1.
         13    1    5    5    0    0 -0.29767989184E+02  0.24438502173E+02  0.32675615757E+03  0.32901817591E+03  0.00000000000E+00 0. -1.
        -14    1    5    5    0    0  0.40726868509E+02  0.39340989724E+02  0.11015266747E+04  0.11029811451E+04  0.00000000000E+00 0.  1.
          5    1    4    4  501    0 -0.84510841098E+02 -0.15813215829E+02 -0.51771181235E+03  0.52481914323E+03  0.41800000000E+01 0.  1.
         -5    1    4    4    0  501  0.21731144062E+02 -0.48570730803E+02 -0.12169851061E+03  0.13288851868E+03  0.41800000000E+01 0.  1.
</event>
<event>
11    1  0.5813833E-009  0.1416313E+03  0.7561462E-02  0.1105750E+00
         22   -1    0    0    0    0  0.00000000000E+00  0.00000000000E+00  0.55095915088E+03  0.55095915088E+03  0.00000000000E+00 0.  1.
         22   -1    0    0    0    0 -0.00000000000E+00 -0.00000000000E+00 -0.14296164662E+03  0.14296164662E+03  0.00000000000E+00 0.  1.
         24    2    1    2    0    0 -0.17353568912E+02 -0.67889571833E+02 -0.89200299109E+02  0.14664456331E+03  0.92939734605E+02 0.  0.
         25    2    1    2    0    0 -0.18754650729E+02  0.29960778982E+02  0.32475836171E+03  0.34978891004E+03  0.12503960529E+03 0.  0.
        -24    2    1    2    0    0  0.36108219641E+02  0.37928792851E+02  0.17243944167E+03  0.19748732415E+03  0.80768095824E+02 0.  0.
        -11    1    3    3    0    0  0.19814843357E+02  0.86457206689E+01 -0.46864333618E+02  0.51610486033E+02  0.00000000000E+00 0.  1.
         12    1    3    3    0    0 -0.37168412269E+02 -0.76535292502E+02 -0.42335965491E+02  0.95034077272E+02  0.00000000000E+00 0. -1.
         13    1    5    5    0    0  0.50606932711E+02 -0.50459640029E+01  0.94225153322E+02  0.10707428687E+03  0.00000000000E+00 0. -1.
        -14    1    5    5    0    0 -0.14498713069E+02  0.42974756854E+02  0.78214288346E+02  0.90413037272E+02  0.00000000000E+00 0.  1.
          5    1    4    4  501    0  0.10132376990E+02 -0.41876829560E+02  0.18463719226E+03  0.18964361071E+03  0.41800000000E+01 0.  1.
         -5    1    4    4    0  501 -0.28887027719E+02  0.71837608543E+02  0.14012116945E+03  0.16014529933E+03  0.41800000000E+01 0.  1.
</event>
<event>
11    1  0.5813833E-009  0.1760495E+03  0.7561462E-02  0.1072884E+00
         22   -1    0    0    0    0  0.00000000000E+00  0.00000000000E+00  0.98926669945E+03  0.98926669945E+03  0.00000000000E+00 0.  1.
         22   -1    0    0    0    0 -0.00000000000E+00 -0.00000000000E+00 -0.51710537141E+03  0.51710537141E+03  0.00000000000E+00 0.  1.
         24    2    1    2    0    0 -0.37907054454E+02 -0.30768115812E+02 -0.46901524469E+03  0.47873782760E+03  0.82649779746E+02 0.  0.
         25    2    1    2    0    0  0.39746605799E+02  0.14919017900E+03  0.23866484310E+03  0.31055733928E+03  0.12508977364E+03 0.  0.
        -24    2    1    2    0    0 -0.18395513446E+01 -0.11842206319E+03  0.70251172964E+03  0.71707690398E+03  0.81543773171E+02 0.  0.
        -11    1    3    3    0    0 -0.29357564683E+02 -0.55194250445E+02 -0.23066046833E+03  0.23898226615E+03  0.00000000000E+00 0.  1.
         12    1    3    3    0    0 -0.85494897713E+01  0.24426134633E+02 -0.23835477636E+03  0.23975556144E+03  0.00000000000E+00 0. -1.
         13    1    5    5    0    0  0.36387102979E+02 -0.40831150741E+02  0.20871533248E+03  0.21576212399E+03  0.00000000000E+00 0. -1.
        -14    1    5    5    0    0 -0.38226654324E+02 -0.77590912444E+02  0.49379639715E+03  0.50131477999E+03  0.00000000000E+00 0.  1.
          5    1    4    4  501    0  0.26851849058E+02  0.71277074911E+02  0.21220647519E+02  0.79178478685E+02  0.41800000000E+01 0.  1.
         -5    1    4    4    0  501  0.12894756740E+02  0.77913104086E+02  0.21744419558E+03  0.23137886059E+03  0.41800000000E+01 0.  1.
</event>
<event>
11    1  0.5813833E-009  0.2927715E+03  0.7561462E-02  0.1003298E+00
         22   -1    0    0    0    0  0.00000000000E+00  0.00000000000E+00  0.29133092251E+04  0.29133092251E+04  0.00000000000E+00 0.  1.
         22   -1    0    0    0    0 -0.00000000000E+00 -0.00000000000E+00 -0.35320835478E+03  0.35320835478E+03  0.00000000000E+00 0. -1.
         24    2    1    2    0    0 -0.67011867301E+02 -0.10584713133E+02 -0.31392449806E+03  0.33112106958E+03  0.80560199392E+02 0.  0.
         25    2    1    2    0    0 -0.57882156266E+02  0.25131532071E+03  0.10042820700E+04  0.10443848247E+04  0.12508977371E+03 0.  0.
        -24    2    1    2    0    0  0.12489402357E+03 -0.24073060757E+03  0.18697432983E+04  0.18910116856E+04  0.80221261112E+02 0.  0.
        -13    1    3    3    0    0 -0.42593563469E+02 -0.27442514257E+02 -0.75926572361E+02  0.91280598312E+02  0.00000000000E+00 0.  1.
         14    1    3    3    0    0 -0.24418303832E+02  0.16857801124E+02 -0.23799792570E+03  0.23984047127E+03  0.00000000000E+00 0. -1.
         13    1    5    5    0    0  0.70892410656E+02 -0.55968471488E+02  0.59415279945E+03  0.60097899529E+03  0.00000000000E+00 0. -1.
        -14    1    5    5    0    0  0.54001612912E+02 -0.18476213609E+03  0.12755904989E+04  0.12900326903E+04  0.00000000000E+00 0.  1.
          5    1    4    4  501    0  0.35150327825E+02  0.30762818816E+02  0.18371452809E+03  0.18960589864E+03  0.41800000000E+01 0. -1.
         -5    1    4    4    0  501 -0.93032484091E+02  0.22055250189E+03  0.82056754194E+03  0.85477892608E+03  0.41800000000E+01 0. -1.
</event>
<event>
11    1  0.5813833E-009  0.1463717E+03  0.7561462E-02  0.1100645E+00
         22   -1    0    0    0    0  0.00000000000E+00  0.00000000000E+00  0.10324338105E+04  0.10324338105E+04  0.00000000000E+00 0. -1.
         22   -1    0    0    0    0 -0.00000000000E+00 -0.00000000000E+00 -0.86389263725E+03  0.86389263725E+03  0.00000000000E+00 0.  1.
        -24    2    1    2    0    0 -0.32452441380E+02  0.72079576612E+02 -0.74239825054E+03  0.75247223902E+03  0.93865232003E+02 0.  0.
         25    2    1    2    0    0 -0.29394871123E+02 -0.64513444914E+02 -0.68484637555E+02  0.15925904574E+03  0.12508898851E+03 0.  0.
         24    2    1    2    0    0  0.61847312504E+02 -0.75661316979E+01  0.97942406134E+03  0.98459516300E+03  0.79207364847E+02 0.  0.
        -11    1    5    5    0    0 -0.74399981255E+01 -0.10339399351E+02  0.29363458736E+02  0.32007334472E+02  0.00000000000E+00 0.  1.
         12    1    5    5    0    0  0.69287310629E+02  0.27732676535E+01  0.95006060261E+03  0.95258782853E+03  0.00000000000E+00 0. -1.
         13    1    3    3    0    0 -0.27768419994E+02 -0.39312929731E+01 -0.43045351692E+03  0.43136616748E+03  0.00000000000E+00 0. -1.
        -14    1    3    3    0    0 -0.46840213867E+01  0.76010869585E+02 -0.31194473362E+03  0.32110607154E+03  0.00000000000E+00 0.  1.
          5    1    4    4  501    0 -0.50821509655E+02 -0.32955887662E+02 -0.94909106830E+02  0.11266821794E+03  0.41800000000E+01 0.  1.
         -5    1    4    4    0  501  0.21426638532E+02 -0.31557557252E+02  0.26424469274E+02  0.46590827798E+02  0.41800000000E+01 0.  1.
</event>
<event>
11    1  0.5813833E-009  0.1292082E+03  0.7561462E-02  0.1120246E+00
         22   -1    0    0    0    0  0.00000000000E+00  0.00000000000E+00  0.42495049280E+03  0.42495049280E+03  0.00000000000E+00 0.  1.
         22   -1    0    0    0    0 -0.00000000000E+00 -0.00000000000E+00 -0.18585895479E+04  0.18585895479E+04  0.00000000000E+00 0.  1.
        -24    2    1    2    0    0 -0.77869592597E+01  0.11714549334E+02 -0.17597786105E+04  0.17617286505E+04  0.81665246939E+02 0.  0.
         25    2    1    2    0    0  0.32076346429E+02 -0.32098024608E+02 -0.45463196206E+02  0.14061631236E+03  0.12508744905E+03 0.  0.
         24    2    1    2    0    0 -0.24289387169E+02  0.20383475274E+02  0.37160275161E+03  0.38119507785E+03  0.78839215978E+02 0.  0.
        -13    1    5    5    0    0 -0.16339580039E+02  0.50824755157E+02  0.22356120057E+03  0.22984722755E+03  0.00000000000E+00 0.  1.
         14    1    5    5    0    0 -0.79498071300E+01 -0.30441279883E+02  0.14804155105E+03  0.15134785030E+03  0.00000000000E+00 0. -1.
         11    1    3    3    0    0 -0.30882559633E+02 -0.78921883414E+01 -0.31017897950E+03  0.31181247322E+03  0.00000000000E+00 0. -1.
        -12    1    3    3    0    0  0.23095600373E+02  0.19606737675E+02 -0.14495996310E+04  0.14499161773E+04  0.00000000000E+00 0.  1.
          5    1    4    4  501    0 -0.40523090793E+02 -0.41964788044E+02 -0.29539194283E+02  0.65522520723E+02  0.41800000000E+01 0. -1.
         -5    1    4    4    0  501  0.72599437222E+02  0.98667634362E+01 -0.15924001923E+02  0.75093791640E+02  0.41800000000E+01 0. -1.
</event>
<event>
11    1  0.5813833E-009  0.1601058E+03  0.7561462E-02  0.1086978E+00
         22   -1    0    0    0    0  0.00000000000E+00  0.00000000000E+00  0.10574378332E+04  0.10574378332E+04  0.00000000000E+00 0. -1.
         22   -1    0    0    0    0 -0.00000000000E+00 -0.00000000000E+00 -0.10273433198E+03  0.10273433198E+03  0.00000000000E+00 0. -1.
        -24    2    1    2    0    0  0.84988725278E+02  0.53180769245E+02 -0.26439906403E+02  0.13823021726E+03  0.91417977827E+02 0.  0.
         25    2    1    2    0    0 -0.72677291091E+02 -0.68027325004E+02  0.34090538115E+03  0.37652524370E+03  0.12508027288E+03 0.  0.
         24    2    1    2    0    0 -0.12311434186E+02  0.14846555759E+02  0.64023802645E+03  0.64541670419E+03  0.79284297954E+02 0.  0.
        -13    1    5    5    0    0  0.28637189257E+02  0.23985421604E+02  0.22684960331E+03  0.22990461409E+03  0.00000000000E+00 0.  1.
         14    1    5    5    0    0 -0.40948623443E+02 -0.91388658447E+01  0.41338842314E+03  0.41551209010E+03  0.00000000000E+00 0. -1.
         13    1    3    3    0    0  0.78774467810E+02  0.64998352999E+02 -0.48019346762E+02  0.11285415515E+03  0.00000000000E+00 0. -1.
        -14    1    3    3    0    0  0.62142574671E+01 -0.11817583754E+02  0.21579440360E+02  0.25376062104E+02  0.00000000000E+00 0.  1.
          5    1    4    4  501    0 -0.79080019806E+02  0.64247317499E+00  0.25062415378E+03  0.26283835557E+03  0.41800000000E+01 0. -1.
         -5    1    4    4    0  501  0.64027287144E+01 -0.68669798179E+02  0.90281227371E+02  0.11368688813E+03  0.41800000000E+01 0. -1.
</event>
<event>
11    1  0.5813833E-009  0.1722781E+03  0.7561462E-02  0.1076066E+00
         22   -1    0    0    0    0  0.00000000000E+00  0.00000000000E+00  0.12588327458E+04  0.12588327458E+04  0.00000000000E+00 0. -1.
         22   -1    0    0    0    0 -0.00000000000E+00 -0.00000000000E+00 -0.14112983218E+03  0.14112983218E+03  0.00000000000E+00 0.  1.
         24    2    1    2    0    0 -0.26340736554E+02 -0.11891556847E+03 -0.76133945427E+02  0.16427284523E+03  0.79714761531E+02 0.  0.
         25    2    1    2    0    0  0.76430365654E+02  0.73334069118E+02  0.36251489206E+03  0.39784922084E+03  0.12508984400E+03 0.  0.
        -24    2    1    2    0    0 -0.50089629100E+02  0.45581499355E+02  0.83132196703E+03  0.83784051195E+03  0.79333892964E+02 0.  0.
        -11    1    3    3    0    0 -0.47101098929E+02 -0.43401478842E+02 -0.51465185949E+02  0.82163661376E+02  0.00000000000E+00 0.  1.
         12    1    3    3    0    0  0.20760362375E+02 -0.75514089631E+02 -0.24668759477E+02  0.82109183852E+02  0.00000000000E+00 0. -1.
         13    1    5    5    0    0  0.10198593305E+02  0.35158130925E+02  0.46552963759E+03  0.46696675358E+03  0.00000000000E+00 0. -1.
        -14    1    5    5    0    0 -0.60288222405E+02  0.10423368430E+02  0.36579232944E+03  0.37087375837E+03  0.00000000000E+00 0.  1.
          5    1    4    4  501    0  0.86145567899E+02  0.61894571494E+02  0.14463084996E+03  0.17940889613E+03  0.41800000000E+01 0. -1.
         -5    1    4    4    0  501 -0.97152022449E+01  0.11439497624E+02  0.21788404210E+03  0.21844032472E+03  0.41800000000E+01 0. -1.
</event>
<event>
11    1  0.5813833E-009  0.1522704E+03  0.7561462E-02  0.1094581E+00
         22   -1    0    0    0    0  0.00000000000E+00  0.00000000000E+00  0.61332783746E+03  0.61332783746E+03  0.00000000000E+00 0.  1.
         22   -1    0    0    0    0 -0.00000000000E+00 -0.00000000000E+00 -0.84261752624E+03  0.84261752624E+03  0.00000000000E+00 0. -1.
         24    2    1    2    0    0  0.77303589040E+02 -0.45687716965E+02 -0.71326307766E+03  0.72233645621E+03  0.70445196151E+02 0.  0.
         25    2    1    2    0    0 -0.51010305284E+02  0.33068832778E+02 -0.81675970079E+02  0.16129033541E+03  0.12509200319E+03 0.  0.
        -24    2    1    2    0    0 -0.26293283756E+02  0.12618884187E+02  0.56564935896E+03  0.57231857207E+03  0.82090058067E+02 0.  0.
        -11    1    3    3    0    0  0.69781929961E+00 -0.13266707048E+02 -0.19447224612E+02  0.23551794259E+02  0.00000000000E+00 0.  1.
         12    1    3    3    0    0  0.76605769740E+02 -0.32421009916E+02 -0.69381585305E+03  0.69878466195E+03  0.00000000000E+00 0. -1.
         11    1    5    5    0    0 -0.17187252278E+02 -0.15813156988E+02  0.43988092883E+02  0.49803713619E+02  0.00000000000E+00 0. -1.
        -12    1    5    5    0    0 -0.91060314777E+01  0.28432041174E+02  0.52166126608E+03  0.52251485845E+03  0.00000000000E+00 0.  1.
          5    1    4    4  501    0 -0.64873559431E+02  0.53361449510E+02 -0.99768029689E+02  0.13048814182E+03  0.41800000000E+01 0.  1.
         -5    1    4    4    0  501  0.13863254147E+02 -0.20292616731E+02  0.18092059609E+02  0.30802193595E+02  0.41800000000E+01 0.  1.
</event>
<event>
11    1  0.5813833E-009  0.3544585E+03  0.7561462E-02  0.9794596E-01
         22   -1    0    0    0    0  0.00000000000E+00  0.00000000000E+00  0.17173282330E+04  0.17173282330E+04  0.00000000000E+00 0. -1.
         22   -1    0    0    0    0 -0.00000000000E+00 -0.00000000000E+00 -0.83122475355E+03  0.83122475355E+03  0.00000000000E+00 0. -1.
        -24    2    1    2    0    0 -0.36929712000E+03  0.10902571064E+03 -0.30391373693E+03  0.49693482902E+03  0.79458771562E+02 0.  0.
         25    2    1    2    0    0  0.17178550559E+03 -0.28506331613E+03 -0.34286686152E+03  0.49393947892E+03  0.12508864846E+03 0.  0.
         24    2    1    2    0    0  0.19751161441E+03  0.17603760549E+03  0.15328840779E+04  0.15576786786E+04  0.81419857295E+02 0.  0.
        -11    1    5    5    0    0  0.16855533656E+02  0.35220702390E+02  0.11589501994E+03  0.12229579935E+03  0.00000000000E+00 0.  1.
         12    1    5    5    0    0  0.18065608076E+03  0.14081690310E+03  0.14169890580E+04  0.14353828793E+04  0.00000000000E+00 0. -1.
         13    1    3    3    0    0 -0.30101823511E+03  0.11958363028E+03 -0.25605011841E+03  0.41288483338E+03  0.00000000000E+00 0. -1.
        -14    1    3    3    0    0 -0.68278884891E+02 -0.10557919640E+02 -0.47863618523E+02  0.84049995640E+02  0.00000000000E+00 0.  1.
          5    1    4    4  501    0  0.73900179667E+02 -0.31457137390E+02 -0.10806574487E+03  0.13470881805E+03  0.41800000000E+01 0. -1.
         -5    1    4    4    0  501  0.97885325925E+02 -0.25360617874E+03 -0.23480111665E+03  0.35923066087E+03  0.41800000000E+01 0. -1.
</event>
<event>
11    1  0.5813833E-009  0.1643997E+03  0.7561462E-02  0.1083011E+00
         22   -1    0    0    0    0  0.00000000000E+00  0.00000000000E+00  0.16613051587E+04  0.16613051587E+04  0.00000000000E+00 0. -1.
         22   -1    0    0    0    0 -0.00000000000E+00 -0.00000000000E+00 -0.96243760558E+03  0.96243760558E+03  0.00000000000E+00 0. -1.
         24    2    1    2    0    0 -0.31336427768E+02  0.10495415953E+03 -0.90951954680E+03  0.91958175185E+03  0.80046517835E+02 0.  0.
         25    2    1    2    0    0  0.46332696520E+02 -0.35907102104E+02  0.57506460985E+02  0.14963334438E+03  0.12508839254E+03 0.  0.
        -24    2    1    2    0    0 -0.14996268752E+02 -0.69047057425E+02  0.15508806389E+04  0.15545276680E+04  0.79580966667E+02 0.  0.
        -11    1    3    3    0    0 -0.35561394097E+02  0.48333487659E+02 -0.23015887562E+03  0.23785257368E+03  0.00000000000E+00 0.  1.
         12    1    3    3    0    0  0.42249663288E+01  0.56620671870E+02 -0.67936067118E+03  0.68172917817E+03  0.00000000000E+00 0. -1.
         13    1    5    5    0    0  0.90714295093E+01 -0.72887816754E+02  0.13757429773E+04  0.13777023133E+04  0.00000000000E+00 0. -1.
        -14    1    5    5    0    0 -0.24067698261E+02  0.38407593288E+01  0.17513766168E+03  0.17682535471E+03  0.00000000000E+00 0.  1.
          5    1    4    4  501    0  0.74985911697E+01 -0.30817151435E+01  0.89137812599E+02  0.89603280480E+02  0.41800000000E+01 0.  1.
         -5    1    4    4    0  501  0.38834105350E+02 -0.32825386961E+02 -0.31631351614E+02  0.60030063905E+02  0.41800000000E+01 0.  1.
</event>
<event>
11    1  0.5813833E-009  0.1589498E+03  0.7561462E-02  0.1088069E+00
         22   -1    0    0    0    0  0.00000000000E+00  0.00000000000E+00  0.15384992127E+03  0.15384992127E+03  0.00000000000E+00 0. -1.
         22   -1    0    0    0    0 -0.00000000000E+00 -0.00000000000E+00 -0.21626699819E+04  0.21626699819E+04  0.00000000000E+00 0. -1.
        -24    2    1    2    0    0 -0.96924462788E+01  0.44964984583E+01 -0.14384764543E+04  0.14415569467E+04  0.93582899118E+02 0.  0.
         25    2    1    2    0    0 -0.51125698778E+02  0.72822930773E+02 -0.68702671931E+03  0.70397505623E+03  0.12513253148E+03 0.  0.
         24    2    1    2    0    0  0.60818145057E+02 -0.77319429231E+02  0.11668311300E+03  0.17098790021E+03  0.77102349211E+02 0.  0.
        -13    1    5    5    0    0 -0.13212537675E+02 -0.25381297772E+02  0.53492519545E+02  0.60664908107E+02  0.00000000000E+00 0.  1.
         14    1    5    5    0    0  0.74030682732E+02 -0.51938131460E+02  0.63190593456E+02  0.11032299210E+03  0.00000000000E+00 0. -1.
         11    1    3    3    0    0  0.19666312209E+02 -0.45218840810E+01 -0.12784875592E+04  0.12786468044E+04  0.00000000000E+00 0. -1.
        -12    1    3    3    0    0 -0.29358758487E+02  0.90183825393E+01 -0.15998889506E+03  0.16291014231E+03  0.00000000000E+00 0.  1.
          5    1    4    4  501    0 -0.50406436554E+02  0.74496758230E+02 -0.69164692134E+03  0.69748370019E+03  0.41800000000E+01 0.  1.
         -5    1    4    4    0  501 -0.71926222409E+00 -0.16738274570E+01  0.46202020299E+01  0.64913560448E+01  0.41800000000E+01 0.  1.
</event>
<event>
11    1  0.9541762E-009  0.1623909E+03  0.7561462E-02  0.1084850E+00
         22   -1    0    0    0    0  0.00000000000E+00  0.00000000000E+00  0.58617087877E+03  0.58617087877E+03  0.00000000000E+00 0.  1.
         22   -1    0    0    0    0 -0.00000000000E+00 -0.00000000000E+00 -0.47941577676E+03  0.47941577676E+03  0.00000000000E+00 0.  1.
         24    2    1    2    0    0 -0.31462837947E+02 -0.57491379734E+02 -0.37257734294E+03  0.38653886495E+03  0.79393001761E+02 0.  0.
         25    2    1    2    0    0 -0.62718842418E+02  0.36471458620E+01 -0.37091004177E+02  0.14481254268E+03  0.12509186648E+03 0.  0.
        -24    2    1    2    0    0  0.94181680366E+02  0.53844233872E+02  0.51642344913E+03  0.53423524790E+03  0.83335051760E+02 0.  0.
        -13    1    3    3    0    0 -0.36761389001E+01 -0.21080744231E+02 -0.29970446839E+03  0.30046743608E+03  0.00000000000E+00 0.  1.
         14    1    3    3    0    0 -0.27786699047E+02 -0.36410635503E+02 -0.72872874555E+02  0.86071428870E+02  0.00000000000E+00 0. -1.
         11    1    5    5    0    0  0.63125401500E+01 -0.20344301602E+02  0.65394801193E+02  0.68776586088E+02  0.00000000000E+00 0. -1.
        -12    1    5    5    0    0  0.87869140216E+02  0.74188535474E+02  0.45102864794E+03  0.46545866181E+03  0.00000000000E+00 0.  1.
          5    1    4    4  501    0 -0.47101582627E+02  0.51453911469E+02  0.15865125216E+02  0.71660579746E+02  0.41800000000E+01 0.  1.
         -5    1    4    4    0  501 -0.15617259791E+02 -0.47806765607E+02 -0.52956129393E+02  0.73151962937E+02  0.41800000000E+01 0.  1.
</event>
<event>
11    1  0.5813833E-009  0.1535828E+03  0.7561462E-02  0.1093273E+00
         22   -1    0    0    0    0  0.00000000000E+00  0.00000000000E+00  0.85949473921E+03  0.85949473921E+03  0.00000000000E+00 0. -1.
         22   -1    0    0    0    0 -0.00000000000E+00 -0.00000000000E+00 -0.12045542186E+04  0.12045542186E+04  0.00000000000E+00 0. -1.
         24    2    1    2    0    0  0.64089012102E+02 -0.47180631384E+02 -0.89340251640E+03  0.90047842229E+03  0.79749101921E+02 0.  0.
         25    2    1    2    0    0 -0.15228722930E+03  0.43059139088E+02 -0.27000042457E+03  0.33703258317E+03  0.12508094651E+03 0.  0.
        -24    2    1    2    0    0  0.88198217199E+02  0.41214922960E+01  0.81834346159E+03  0.82653795233E+03  0.75386028470E+02 0.  0.
        -13    1    3    3    0    0  0.78905404797E+02 -0.41647389505E+02 -0.59451382935E+03  0.60117157389E+03  0.00000000000E+00 0.  1.
         14    1    3    3    0    0 -0.14816392695E+02 -0.55332418792E+01 -0.29888868705E+03  0.29930684841E+03  0.00000000000E+00 0. -1.
         11    1    5    5    0    0  0.93906899766E+02 -0.88320041055E+01  0.77968158679E+03  0.78536608464E+03  0.00000000000E+00 0. -1.
        -12    1    5    5    0    0 -0.57086825677E+01  0.12953496402E+02  0.38661874802E+02  0.41171867688E+02  0.00000000000E+00 0.  1.
          5    1    4    4  501    0 -0.62263320682E+01 -0.33297579468E+02 -0.69685588680E+02  0.77595423055E+02  0.41800000000E+01 0.  1.
         -5    1    4    4    0  501 -0.14606089723E+03  0.76356718556E+02 -0.20031483589E+03  0.25943716011E+03  0.41800000000E+01 0.  1.
</event>
<event>
11    1  0.5813833E-009  0.1788909E+03  0.7561462E-02  0.1070543E+00
         22   -1    0    0    0    0  0.00000000000E+00  0.00000000000E+00  0.96042195751E+03  0.96042195751E+03  0.00000000000E+00 0. -1.
         22   -1    0    0    0    0 -0.00000000000E+00 -0.00000000000E+00 -0.24215266808E+03  0.24215266808E+03  0.00000000000E+00 0. -1.
        -24    2    1    2    0    0  0.12662863507E+03 -0.19798608799E+01 -0.18525499905E+03  0.23856468215E+03  0.80962718768E+02 0.  0.
         25    2    1    2    0    0 -0.14362843074E+03 -0.12518160110E+02  0.30766567231E+03  0.36206534010E+03  0.12508922468E+03 0.  0.
         24    2    1    2    0    0  0.16999795670E+02  0.14498020990E+02  0.59585861617E+03  0.60194460333E+03  0.82405275062E+02 0.  0.
        -13    1    5    5    0    0  0.72345333889E+01  0.17300206504E+01  0.17799436780E+01  0.76485060177E+01  0.00000000000E+00 0.  1.
         14    1    5    5    0    0  0.97652622810E+01  0.12768000340E+02  0.59407867249E+03  0.59429609732E+03  0.00000000000E+00 0. -1.
         11    1    3    3    0    0  0.55598311346E+01  0.14883720751E+02 -0.65652770835E+02  0.67547932492E+02  0.00000000000E+00 0. -1.
        -12    1    3    3    0    0  0.12106880393E+03 -0.16863581631E+02 -0.11960222821E+03  0.17101674966E+03  0.00000000000E+00 0.  1.
          5    1    4    4  501    0 -0.65174212983E+02  0.30098858400E+02  0.23833814048E+03  0.24895011733E+03  0.41800000000E+01 0.  1.
         -5    1    4    4    0  501 -0.78454217753E+02 -0.42617018510E+02  0.69327531836E+02  0.11311522276E+03  0.41800000000E+01 0.  1.
</event>
<event>
11    1  0.5813833E-009  0.1421508E+03  0.7561462E-02  0.1105180E+00
         22   -1    0    0    0    0  0.00000000000E+00  0.00000000000E+00  0.46991978330E+03  0.46991978330E+03  0.00000000000E+00 0.  1.
         22   -1    0    0    0    0 -0.00000000000E+00 -0.00000000000E+00 -0.20844815856E+03  0.20844815856E+03  0.00000000000E+00 0. -1.
        -24    2    1    2    0    0  0.10904381496E+02  0.65825219913E+02 -0.13798539734E+03  0.17301268999E+03  0.80259304162E+02 0.  0.
         25    2    1    2    0    0 -0.15132395487E+01 -0.73118896886E+02  0.60893053605E+02  0.15717622767E+03  0.12509092530E+03 0.  0.
         24    2    1    2    0    0 -0.93911419470E+01  0.72936769724E+01  0.33856396847E+03  0.34817902420E+03  0.80384581056E+02 0.  0.
        -11    1    5    5    0    0 -0.29095654554E+02  0.30443863558E+02  0.26880434980E+03  0.27208301015E+03  0.00000000000E+00 0.  1.
         12    1    5    5    0    0  0.19704512607E+02 -0.23150186585E+02  0.69759618675E+02  0.76096014046E+02  0.00000000000E+00 0. -1.
         13    1    3    3    0    0  0.37308284119E+02  0.66745745992E+02 -0.11436963784E+03  0.13757658497E+03  0.00000000000E+00 0. -1.
        -14    1    3    3    0    0 -0.26403902623E+02 -0.92052607912E+00 -0.23615759496E+02  0.35436105014E+02  0.00000000000E+00 0.  1.
          5    1    4    4  501    0 -0.27890239721E+02  0.28267532404E+02  0.19756737173E+02  0.44550195551E+02  0.41800000000E+01 0.  1.
         -5    1    4    4    0  501  0.26377000172E+02 -0.10138642929E+03  0.41136316432E+02  0.11262603212E+03  0.41800000000E+01 0.  1.
</event>
<event>
11    1  0.5813833E-009  0.1652570E+03  0.7561462E-02  0.1082235E+00
         22   -1    0    0    0    0  0.00000000000E+00  0.00000000000E+00  0.33092863440E+04  0.33092863440E+04  0.00000000000E+00 0. -1.
         22   -1    0    0    0    0 -0.00000000000E+00 -0.00000000000E+00 -0.25774430574E+03  0.25774430574E+03  0.00000000000E+00 0. -1.
         24    2    1    2    0    0 -0.19285299045E+01  0.12783324982E+01 -0.23619198426E+03  0.24900878915E+03  0.78824934374E+02 0.  0.
         25    2    1    2    0    0 -0.60209161042E+02 -0.89615867854E+02  0.49819134014E+03  0.52487862733E+03  0.12508723029E+03 0.  0.
        -24    2    1    2    0    0  0.62137690947E+02  0.88337535356E+02  0.27895426824E+04  0.27931432333E+04  0.91848418167E+02 0.  0.
        -11    1    3    3    0    0  0.19783794362E+02 -0.31088793915E+02 -0.80845418725E+02  0.88847584972E+02  0.00000000000E+00 0.  1.
         12    1    3    3    0    0 -0.21712324266E+02  0.32367126413E+02 -0.15534656554E+03  0.16016120417E+03  0.00000000000E+00 0. -1.
         13    1    5    5    0    0  0.61434488467E+02  0.44635426257E+02  0.93269626409E+03  0.93578247402E+03  0.00000000000E+00 0. -1.
        -14    1    5    5    0    0  0.70320247913E+00  0.43702109099E+02  0.18568464183E+04  0.18573607593E+04  0.00000000000E+00 0.  1.
          5    1    4    4  501    0 -0.49219338290E+02  0.19619866823E+02  0.20500490242E+03  0.21178282473E+03  0.41800000000E+01 0. -1.
         -5    1    4    4    0  501 -0.10989822752E+02 -0.10923573468E+03  0.29318643773E+03  0.31309580259E+03  0.41800000000E+01 0. -1.
</event>
<event>
11    1  0.5813833E-009  0.1726917E+03  0.7561462E-02  0.1075713E+00
         22   -1    0    0    0    0  0.00000000000E+00  0.00000000000E+00  0.11194652433E+04  0.11194652433E+04  0.00000000000E+00 0. -1.
         22   -1    0    0    0    0 -0.00000000000E+00 -0.00000000000E+00 -0.15986662345E+03  0.15986662345E+03  0.00000000000E+00 0.  1.
        -24    2    1    2    0    0  0.28898477600E+02  0.67594006688E+02 -0.82814882533E+02  0.13688864821E+03  0.80474377861E+02 0.  0.
         25    2    1    2    0    0 -0.72649021034E+02 -0.16922907902E+03  0.23544088503E+03  0.32403128510E+03  0.12508997537E+03 0.  0.
         24    2    1    2    0    0  0.43750543434E+02  0.10163507233E+03  0.80697261735E+03  0.81841193344E+03  0.79683685070E+02 0.  0.
        -13    1    5    5    0    0  0.14829410355E+02  0.81692309886E+02  0.33506981881E+03  0.34520331456E+03  0.00000000000E+00 0.  1.
         14    1    5    5    0    0  0.28921133078E+02  0.19942762445E+02  0.47190279854E+03  0.47320861888E+03  0.00000000000E+00 0. -1.
         11    1    3    3    0    0  0.25942794949E+02 -0.90907531980E+01 -0.56583472274E+01  0.28065767348E+02  0.00000000000E+00 0. -1.
        -12    1    3    3    0    0  0.29556826508E+01  0.76684759886E+02 -0.77156535305E+02  0.10882288086E+03  0.00000000000E+00 0.  1.
          5    1    4    4  501    0  0.21027850495E+02 -0.27696570809E+02  0.16051083747E+01  0.35061650046E+02  0.41800000000E+01 0.  1.
         -5    1    4    4    0  501 -0.93676871529E+02 -0.14153250821E+03  0.23383577665E+03  0.28896963505E+03  0.41800000000E+01 0.  1.
</event>
<event>
11    1  0.6079407E-009  0.1500179E+03  0.7561462E-02  0.1096860E+00
         22   -1    0    0    0    0  0.00000000000E+00  0.00000000000E+00  0.29088128255E+03  0.29088128255E+03  0.00000000000E+00 0.  1.
         22   -1    0    0    0    0 -0.00000000000E+00 -0.00000000000E+00 -0.51135034064E+03  0.51135034064E+03  0.00000000000E+00 0. -1.
        -24    2    1    2    0    0  0.38273661785E+02 -0.48453859320E+02 -0.37954266569E+03  0.39413776839E+03  0.86482921556E+02 0.  0.
         25    2    1    2    0    0  0.43786199317E+02  0.13695437230E+02 -0.69428694846E+02  0.15024278372E+03  0.12509098345E+03 0.  0.
         24    2    1    2    0    0 -0.82059861102E+02  0.34758422090E+02  0.22850230245E+03  0.25785107108E+03  0.79573261352E+02 0.  0.
        -11    1    5    5    0    0 -0.58152771728E+02  0.16783569400E+02  0.21784739137E+03  0.22609935645E+03  0.00000000000E+00 0.  1.
         12    1    5    5    0    0 -0.23907089374E+02  0.17974852691E+02  0.10654911076E+02  0.31751714625E+02  0.00000000000E+00 0. -1.
         13    1    3    3    0    0  0.21037712977E+02 -0.57307729610E+02 -0.36458115890E+03  0.36965684447E+03  0.00000000000E+00 0. -1.
        -14    1    3    3    0    0  0.17235948807E+02  0.88538702904E+01 -0.14961506796E+02  0.24480923921E+02  0.00000000000E+00 0.  1.
          5    1    4    4  501    0  0.54000399411E+02  0.57155294128E+02 -0.70062194663E+02  0.10539902421E+03  0.41800000000E+01 0.  1.
         -5    1    4    4    0  501 -0.10214200094E+02 -0.43459856898E+02  0.63349981648E+00  0.44843759512E+02  0.41800000000E+01 0.  1.
</event>
<event>
11    1  0.5813833E-009  0.1468362E+03  0.7561462E-02  0.1100156E+00
         22   -1    0    0    0    0  0.00000000000E+00  0.00000000000E+00  0.40281596641E+03  0.40281596641E+03  0.00000000000E+00 0.  1.
         22   -1    0    0    0    0 -0.00000000000E+00 -0.00000000000E+00 -0.16469467261E+04  0.16469467261E+04  0.00000000000E+00 0. -1.
        -24    2    1    2    0    0  0.56512342574E+01  0.77905119896E+02 -0.15296606116E+04  0.15338997592E+04  0.82980363226E+02 0.  0.
         25    2    1    2    0    0 -0.27530987706E+02 -0.50265561516E+02 -0.66680876194E+02  0.15289917524E+03  0.12508891470E+03 0.  0.
         24    2    1    2    0    0  0.21879753448E+02 -0.27639558380E+02  0.35221072809E+03  0.36296375801E+03  0.80297097411E+02 0.  0.
        -11    1    5    5    0    0  0.27189230594E+02  0.18875880763E+02  0.22480022319E+03  0.22722388405E+03  0.00000000000E+00 0.  1.
         12    1    5    5    0    0 -0.53094771455E+01 -0.46515439143E+02  0.12741050489E+03  0.13573987396E+03  0.00000000000E+00 0. -1.
         13    1    3    3    0    0  0.39546596726E+02  0.15326373551E+02 -0.63292163233E+03  0.63434109413E+03  0.00000000000E+00 0. -1.
        -14    1    3    3    0    0 -0.33895362469E+02  0.62578746346E+02 -0.89673897924E+03  0.89955866511E+03  0.00000000000E+00 0.  1.
          5    1    4    4  501    0 -0.97810013910E+01 -0.48457099349E+02  0.27656220469E+02  0.56798744671E+02  0.41800000000E+01 0.  1.
         -5    1    4    4    0  501 -0.17749986315E+02 -0.18084621675E+01 -0.94337096664E+02  0.96100430574E+02  0.41800000000E+01 0.  1.
</event>
<event>
11    1  0.5813833E-009  0.2810075E+03  0.7561462E-02  0.1008566E+00
         22   -1    0    0    0    0  0.00000000000E+00  0.00000000000E+00  0.11231957146E+04  0.11231957146E+04  0.00000000000E+00 0.  1.
         22   -1    0    0    0    0 -0.00000000000E+00 -0.00000000000E+00 -0.47431546661E+03  0.47431546661E+03  0.00000000000E+00 0.  1.
         24    2    1    2    0    0 -0.20862097820E+03  0.12743005946E+03 -0.30702049297E+03  0.40060275528E+03  0.80373203495E+02 0.  0.
         25    2    1    2    0    0  0.23478530971E+03 -0.15778486801E+03  0.84396704796E+02  0.32060793912E+03  0.12508573306E+03 0.  0.
        -24    2    1    2    0    0 -0.26164331510E+02  0.30354808557E+02  0.87150403617E+03  0.87630048682E+03  0.82324185301E+02 0.  0.
        -13    1    3    3    0    0 -0.18852822280E+03  0.81361325940E+02 -0.22684012165E+03  0.30597221597E+03  0.00000000000E+00 0.  1.
         14    1    3    3    0    0 -0.20092755397E+02  0.46068733516E+02 -0.80180371311E+02  0.94630539314E+02  0.00000000000E+00 0. -1.
         13    1    5    5    0    0 -0.16254554087E+02  0.17198962608E+02  0.58165857401E+02  0.62795555659E+02  0.00000000000E+00 0. -1.
        -14    1    5    5    0    0 -0.99097774231E+01  0.13155845949E+02  0.81333817877E+03  0.81350493116E+03  0.00000000000E+00 0.  1.
          5    1    4    4  501    0  0.18823039610E+03 -0.15768286343E+03  0.27722322447E+02  0.24714483001E+03  0.41800000000E+01 0.  1.
         -5    1    4    4    0  501  0.46554913607E+02 -0.10200458409E+00  0.56674382349E+02  0.73463109113E+02  0.41800000000E+01 0.  1.
</event>
<event>
11    1  0.5813833E-009  0.1415825E+03  0.7561462E-02  0.1105804E+00
         22   -1    0    0    0    0  0.00000000000E+00  0.00000000000E+00  0.17612518787E+03  0.17612518787E+03  0.00000000000E+00 0. -1.
         22   -1    0    0    0    0 -0.00000000000E+00 -0.00000000000E+00 -0.10246198072E+04  0.10246198072E+04  0.00000000000E+00 0. -1.
        -24    2    1    2    0    0  0.51492523291E+02 -0.42252901153E+02 -0.91408060782E+03  0.91997635820E+03  0.79852078539E+02 0.  0.
         25    2    1    2    0    0 -0.57470379956E+02  0.24110943498E+02 -0.40436308227E+02  0.14551904345E+03  0.12512599575E+03 0.  0.
         24    2    1    2    0    0  0.59778566651E+01  0.18141957654E+02  0.10602229676E+03  0.13524959338E+03  0.81773221163E+02 0.  0.
        -11    1    5    5    0    0  0.77798640890E+01 -0.10945944012E+02 -0.92784424866E+01  0.16322667384E+02  0.00000000000E+00 0.  1.
         12    1    5    5    0    0 -0.18020074238E+01  0.29087901666E+02  0.11530073925E+03  0.11892692599E+03  0.00000000000E+00 0. -1.
         11    1    3    3    0    0  0.54413899237E+02 -0.45980532102E+01 -0.73121720607E+03  0.73325344662E+03  0.00000000000E+00 0. -1.
        -12    1    3    3    0    0 -0.29213759456E+01 -0.37654847943E+02 -0.18286340175E+03  0.18672291158E+03  0.00000000000E+00 0.  1.
          5    1    4    4  501    0 -0.27709625604E+02  0.46730346378E+02  0.32507076502E+02  0.63448648894E+02  0.41800000000E+01 0. -1.
         -5    1    4    4    0  501 -0.29760754352E+02 -0.22619402880E+02 -0.72943384728E+02  0.82070394552E+02  0.41800000000E+01 0. -1.
</event>
<event>
11    1  0.5813833E-009  0.1544243E+03  0.7561462E-02  0.1092442E+00
         22   -1    0    0    0    0  0.00000000000E+00  0.00000000000E+00  0.27148440089E+03  0.27148440089E+03  0.00000000000E+00 0. -1.
         22   -1    0    0    0    0 -0.00000000000E+00 -0.00000000000E+00 -0.44263593858E+03  0.44263593858E+03  0.00000000000E+00 0. -1.
         24    2    1    2    0    0  0.44134811494E+02 -0.74357538629E+02 -0.31204664934E+03  0.33345741858E+03  0.79648060269E+02 0.  0.
         25    2    1    2    0    0 -0.24370275590E+02  0.12134777875E+03 -0.35924358701E+02  0.17959935303E+03  0.12508466861E+03 0.  0.
        -24    2    1    2    0    0 -0.19764535904E+02 -0.46990240119E+02  0.17681947035E+03  0.20106356786E+03  0.81010577577E+02 0.  0.
        -11    1    3    3    0    0  0.23286225977E+02 -0.82436995928E+02 -0.17778199437E+03  0.19734372080E+03  0.00000000000E+00 0.  1.
         12    1    3    3    0    0  0.20848585517E+02  0.80794572988E+01 -0.13426465497E+03  0.13611369778E+03  0.00000000000E+00 0. -1.
         11    1    5    5    0    0 -0.32109568852E+02 -0.62285794706E+02  0.16181038364E+03  0.17633248393E+03  0.00000000000E+00 0. -1.
        -12    1    5    5    0    0  0.12345032948E+02  0.15295554588E+02  0.15009086714E+02  0.24731083935E+02  0.00000000000E+00 0.  1.
          5    1    4    4  501    0 -0.45081852748E+02  0.10405083611E+03 -0.71974219793E+02  0.13437526059E+03  0.41800000000E+01 0. -1.
         -5    1    4    4    0  501  0.20711577158E+02  0.17296942635E+02  0.36049861091E+02  0.45224092446E+02  0.41800000000E+01 0. -1.
</event>
<event>
11    1  0.5813833E-009  0.1363656E+03  0.7561462E-02  0.1111686E+00
         22   -1    0    0    0    0  0.00000000000E+00  0.00000000000E+00  0.49514657330E+03  0.49514657330E+03  0.00000000000E+00 0.  1.
         22   -1    0    0    0    0 -0.00000000000E+00 -0.00000000000E+00 -0.14792544886E+04  0.14792544886E+04  0.00000000000E+00 0. -1.
        -24    2    1    2    0    0 -0.60825175737E+02  0.17220562784E+02 -0.89363598148E+03  0.89943867824E+03  0.80052599758E+02 0.  0.
         25    2    1    2    0    0  0.36105343873E+02  0.23676201090E+02 -0.57082091123E+03  0.58595925293E+03  0.12509026758E+03 0.  0.
         24    2    1    2    0    0  0.24719831863E+02 -0.40896763875E+02  0.48034897744E+03  0.48900313070E+03  0.78136459619E+02 0.  0.
        -11    1    5    5    0    0  0.11371440463E+02 -0.45526940706E+02  0.12733205150E+03  0.13570358627E+03  0.00000000000E+00 0.  1.
         12    1    5    5    0    0  0.13348391400E+02  0.46301768311E+01  0.35301692594E+03  0.35329954442E+03  0.00000000000E+00 0. -1.
         11    1    3    3    0    0 -0.74284026652E+02  0.15265830859E+02 -0.85718611732E+03  0.86053425379E+03  0.00000000000E+00 0. -1.
        -12    1    3    3    0    0  0.13458850916E+02  0.19547319253E+01 -0.36449864161E+02  0.38904424456E+02  0.00000000000E+00 0.  1.
          5    1    4    4  501    0 -0.59453199354E+01  0.17035502284E+02 -0.51643196228E+03  0.51676396859E+03  0.41800000000E+01 0. -1.
         -5    1    4    4    0  501  0.42050663809E+02  0.66406988067E+01 -0.54388948954E+02  0.69195284346E+02  0.41800000000E+01 0. -1.
</event>
<event>
11    1  0.5813833E-009  0.1281631E+03  0.7561462E-02  0.1121547E+00
         22   -1    0    0    0    0  0.00000000000E+00  0.00000000000E+00  0.63224422688E+03  0.63224422688E+03  0.00000000000E+00 0.  1.
         22   -1    0    0    0    0 -0.00000000000E+00 -0.00000000000E+00 -0.40909449163E+03  0.40909449163E+03  0.00000000000E+00 0.  1.
        -24    2    1    2    0    0  0.24360721981E+02 -0.13223988722E+02 -0.37974065425E+03  0.38938221103E+03  0.81530504213E+02 0.  0.
         25    2    1    2    0    0 -0.17833801476E+02  0.42768632790E+02  0.20118305359E+03  0.24138969984E+03  0.12508863142E+03 0.  0.
         24    2    1    2    0    0 -0.65269205051E+01 -0.29544644068E+02  0.40170733592E+03  0.41056680764E+03  0.79251707404E+02 0.  0.
        -13    1    5    5    0    0  0.21331399415E+02 -0.45698590491E+02  0.28821980791E+03  0.29259878237E+03  0.00000000000E+00 0.  1.
         14    1    5    5    0    0 -0.27858319921E+02  0.16153946423E+02  0.11348752801E+03  0.11796802527E+03  0.00000000000E+00 0. -1.
         11    1    3    3    0    0  0.12268401001E+02 -0.29437993656E+02 -0.51882768935E+02  0.60900992159E+02  0.00000000000E+00 0. -1.
        -12    1    3    3    0    0  0.12092320980E+02  0.16214004934E+02 -0.32785788532E+03  0.32848121887E+03  0.00000000000E+00 0.  1.
          5    1    4    4  501    0 -0.11400112200E+02 -0.22189578159E+02 -0.43799669413E+01  0.25670926112E+02  0.41800000000E+01 0.  1.
         -5    1    4    4    0  501 -0.64336892756E+01  0.64958210949E+02  0.20556302053E+03  0.21571877372E+03  0.41800000000E+01 0.  1.
</event>
<event>
11    1  0.5813833E-009  0.1681087E+03  0.7561462E-02  0.1079689E+00
         22   -1    0    0    0    0  0.00000000000E+00  0.00000000000E+00  0.10866765578E+04  0.10866765578E+04  0.00000000000E+00 0. -1.
         22   -1    0    0    0    0 -0.00000000000E+00 -0.00000000000E+00 -0.43611254561E+02  0.43611254561E+02  0.00000000000E+00 0.  1.
         24    2    1    2    0    0  0.68223090246E+02  0.87890712448E+02  0.21621132336E+03  0.25721544380E+03  0.83864657637E+02 0.  0.
         25    2    1    2    0    0 -0.59922791620E+02 -0.97362963897E+02  0.34599378069E+03  0.38526561886E+03  0.12509041972E+03 0.  0.
        -24    2    1    2    0    0 -0.83002986265E+01  0.94722514496E+01  0.48086019914E+03  0.48780674965E+03  0.81057235255E+02 0.  0.
        -11    1    3    3    0    0  0.58270287577E+02  0.49492272751E+02  0.20044446045E+03  0.21452946931E+03  0.00000000000E+00 0.  1.
         12    1    3    3    0    0  0.99528026697E+01  0.38398439697E+02  0.15766862914E+02  0.42685974491E+02  0.00000000000E+00 0. -1.
         13    1    5    5    0    0 -0.23875216162E+02  0.16745170287E+02  0.45933732185E+03  0.46026210132E+03  0.00000000000E+00 0. -1.
        -14    1    5    5    0    0  0.15574917535E+02 -0.72729188372E+01  0.21522877292E+02  0.27544648329E+02  0.00000000000E+00 0.  1.
          5    1    4    4  501    0  0.29771960648E+02 -0.68501205000E+02  0.14102715932E+03  0.15963995989E+03  0.41800000000E+01 0. -1.
         -5    1    4    4    0  501 -0.89694752268E+02 -0.28861758897E+02  0.20496662137E+03  0.22562565897E+03  0.41800000000E+01 0. -1.
</event>
<event>
11    1  0.5813833E-009  0.2048967E+03  0.7561462E-02  0.1051114E+00
         22   -1    0    0    0    0  0.00000000000E+00  0.00000000000E+00  0.11012163782E+04  0.11012163782E+04  0.00000000000E+00 0. -1.
         22   -1    0    0    0    0 -0.00000000000E+00 -0.00000000000E+00 -0.14245833777E+03  0.14245833777E+03  0.00000000000E+00 0. -1.
         24    2    1    2    0    0  0.16084653687E+03  0.13273573510E+02 -0.38797446634E+02  0.18551274525E+03  0.82836831215E+02 0.  0.
         25    2    1    2    0    0 -0.16376538187E+03 -0.43331929273E+02  0.37856186758E+03  0.43318986739E+03  0.12509043620E+03 0.  0.
        -24    2    1    2    0    0  0.29188450009E+01  0.30058355763E+02  0.61899361944E+03  0.62497210330E+03  0.80777500472E+02 0.  0.
        -11    1    3    3    0    0  0.22496667934E+01  0.77927876230E+01  0.15743546862E+02  0.17710104670E+02  0.00000000000E+00 0.  1.
         12    1    3    3    0    0  0.15859687008E+03  0.54807858869E+01 -0.54540993496E+02  0.16780264058E+03  0.00000000000E+00 0. -1.
         13    1    5    5    0    0 -0.21395971296E+02  0.40751214972E+02  0.53265586949E+03  0.53464074332E+03  0.00000000000E+00 0. -1.
        -14    1    5    5    0    0  0.24314816296E+02 -0.10692859209E+02  0.86337749949E+02  0.90331359980E+02  0.00000000000E+00 0.  1.
          5    1    4    4  501    0 -0.82585651072E+02  0.14806990133E+02  0.71635440153E+02  0.11040265126E+03  0.41800000000E+01 0.  1.
         -5    1    4    4    0  501 -0.81179730801E+02 -0.58138919405E+02  0.30692642743E+03  0.32278721613E+03  0.41800000000E+01 0.  1.
</event>
<event>
11    1  0.5813833E-009  0.1340971E+03  0.7561462E-02  0.1114335E+00
         22   -1    0    0    0    0  0.00000000000E+00  0.00000000000E+00  0.49683169060E+03  0.49683169060E+03  0.00000000000E+00 0.  1.
         22   -1    0    0    0    0 -0.00000000000E+00 -0.00000000000E+00 -0.22511721746E+03  0.22511721746E+03  0.00000000000E+00 0.  1.
        -24    2    1    2    0    0  0.16234227888E+02 -0.37544842657E+02 -0.14090548625E+03  0.16717247359E+03  0.80119376600E+02 0.  0.
         25    2    1    2    0    0 -0.53621095196E+02  0.63499150425E+02  0.20816220057E+02  0.15161799907E+03  0.12508932276E+03 0.  0.
         24    2    1    2    0    0  0.37386867307E+02 -0.25954307769E+02  0.39180373933E+03  0.40315843540E+03  0.83397541578E+02 0.  0.
        -13    1    5    5    0    0  0.60684442688E+02 -0.26686901704E+01  0.28452078964E+03  0.29093264380E+03  0.00000000000E+00 0.  1.
         14    1    5    5    0    0 -0.23297575381E+02 -0.23285617598E+02  0.10728294969E+03  0.11222579160E+03  0.00000000000E+00 0. -1.
         13    1    3    3    0    0 -0.56614832841E+01 -0.31173076798E+02 -0.84804712932E+01  0.32798346046E+02  0.00000000000E+00 0. -1.
        -14    1    3    3    0    0  0.21895711172E+02 -0.63717658590E+01 -0.13242501495E+03  0.13437412755E+03  0.00000000000E+00 0.  1.
          5    1    4    4  501    0 -0.50123120267E+02  0.10069967534E+03  0.14467137649E+02  0.11348798294E+03  0.41800000000E+01 0. -1.
         -5    1    4    4    0  501 -0.34979749285E+01 -0.37200524916E+02  0.63490824081E+01  0.38130016130E+02  0.41800000000E+01 0. -1.
</event>
<event>
11    1  0.5813833E-009  0.3183361E+03  0.7561462E-02  0.9927164E-01
         22   -1    0    0    0    0  0.00000000000E+00  0.00000000000E+00  0.11431769865E+04  0.11431769865E+04  0.00000000000E+00 0.  1.
         22   -1    0    0    0    0 -0.00000000000E+00 -0.00000000000E+00 -0.82795785149E+03  0.82795785149E+03  0.00000000000E+00 0.  1.
         24    2    1    2    0    0  0.29806705719E+03  0.46005769425E+02 -0.66953335832E+03  0.73890002946E+03  0.82084311710E+02 0.  0.
         25    2    1    2    0    0 -0.25633109580E+03  0.56525074458E+02  0.59161962699E+02  0.29673110206E+03  0.12509394224E+03 0.  0.
        -24    2    1    2    0    0 -0.41735961391E+02 -0.10253084388E+03  0.92559053061E+03  0.93550370644E+03  0.78707623367E+02 0.  0.
        -13    1    3    3    0    0  0.16191784242E+03 -0.12631131144E+02 -0.39067640723E+03  0.42308981120E+03  0.00000000000E+00 0.  1.
         14    1    3    3    0    0  0.13614921477E+03  0.58636900570E+02 -0.27885695109E+03  0.31581021826E+03  0.00000000000E+00 0. -1.
         13    1    5    5    0    0 -0.18149691346E+02 -0.32268122388E+02  0.10069495885E+03  0.10728521686E+03  0.00000000000E+00 0. -1.
        -14    1    5    5    0    0 -0.23586270044E+02 -0.70262721496E+02  0.82489557176E+03  0.82821848958E+03  0.00000000000E+00 0.  1.
          5    1    4    4  501    0 -0.23508037259E+03  0.24077893107E+02  0.83600510309E+02  0.25069711654E+03  0.41800000000E+01 0. -1.
         -5    1    4    4    0  501 -0.21250723205E+02  0.32447181351E+02 -0.24438547610E+02  0.46033985529E+02  0.41800000000E+01 0. -1.
</event>
<event>
11    1  0.5813833E-009  0.1427378E+03  0.7561462E-02  0.1104539E+00
         22   -1    0    0    0    0  0.00000000000E+00  0.00000000000E+00  0.41863054476E+03  0.41863054476E+03  0.00000000000E+00 0. -1.
         22   -1    0    0    0    0 -0.00000000000E+00 -0.00000000000E+00 -0.14597901069E+04  0.14597901069E+04  0.00000000000E+00 0. -1.
         24    2    1    2    0    0  0.22292286803E+02 -0.19741206083E+02 -0.12528592387E+04  0.12565402064E+04  0.91380288179E+02 0.  0.
         25    2    1    2    0    0 -0.47078460882E+02  0.82819763641E+02 -0.16648428770E+03  0.22900524371E+03  0.12510351260E+03 0.  0.
        -24    2    1    2    0    0  0.24786174079E+02 -0.63078557558E+02  0.37818396434E+03  0.39287520147E+03  0.82064329655E+02 0.  0.
        -13    1    3    3    0    0  0.11079036882E+02 -0.24485340283E+02 -0.98042309658E+02  0.10165909418E+03  0.00000000000E+00 0.  1.
         14    1    3    3    0    0  0.11213249921E+02  0.47441341998E+01 -0.11548169291E+04  0.11548811123E+04  0.00000000000E+00 0. -1.
         13    1    5    5    0    0 -0.11014877625E+02 -0.65780807113E+02  0.19182507208E+03  0.20308939015E+03  0.00000000000E+00 0. -1.
        -14    1    5    5    0    0  0.35801051704E+02  0.27022495551E+01  0.18635889225E+03  0.18978581132E+03  0.00000000000E+00 0.  1.
          5    1    4    4  501    0 -0.55486784700E+02  0.85930183438E+02 -0.53351889404E+02  0.11544122403E+03  0.41800000000E+01 0.  1.
         -5    1    4    4    0  501  0.84083238179E+01 -0.31104197966E+01 -0.11313239830E+03  0.11356401968E+03  0.41800000000E+01 0.  1.
</event>
<event>
11    1  0.5813833E-009  0.2807706E+03  0.7561462E-02  0.1008675E+00
         22   -1    0    0    0    0  0.00000000000E+00  0.00000000000E+00  0.30549510807E+03  0.30549510807E+03  0.00000000000E+00 0. -1.
         22   -1    0    0    0    0 -0.00000000000E+00 -0.00000000000E+00 -0.74357098502E+03  0.74357098502E+03  0.00000000000E+00 0.  1.
         24    2    1    2    0    0  0.15064526317E+03  0.20018759774E+03 -0.49411559437E+03  0.55979846597E+03  0.80343215680E+02 0.  0.
         25    2    1    2    0    0 -0.14945687820E+03 -0.20515847570E+03 -0.11074413628E+03  0.30387295535E+03  0.12508857135E+03 0.  0.
        -24    2    1    2    0    0 -0.11883849641E+01  0.49708779615E+01  0.16678385370E+03  0.18539467176E+03  0.80797330263E+02 0.  0.
        -13    1    3    3    0    0  0.14761921036E+03  0.14461120442E+03 -0.40623736857E+03  0.45577695349E+03  0.00000000000E+00 0.  1.
         14    1    3    3    0    0  0.30260528116E+01  0.55576393321E+02 -0.87878225799E+02  0.10402151249E+03  0.00000000000E+00 0. -1.
         11    1    5    5    0    0  0.36392987827E+02 -0.27752191566E+01  0.11686756311E+03  0.12243438534E+03  0.00000000000E+00 0. -1.
        -12    1    5    5    0    0 -0.37581372791E+02  0.77460971181E+01  0.49916290583E+02  0.62960286427E+02  0.00000000000E+00 0.  1.
          5    1    4    4  501    0 -0.27059388427E+02 -0.12610257052E+03 -0.16021718016E+02  0.13003167554E+03  0.41800000000E+01 0. -1.
         -5    1    4    4    0  501 -0.12239748978E+03 -0.79055905174E+02 -0.94722418262E+02  0.17384127982E+03  0.41800000000E+01 0. -1.
</event>
<event>
11    1  0.5813833E-009  0.2686224E+03  0.7561462E-02  0.1014421E+00
         22   -1    0    0    0    0  0.00000000000E+00  0.00000000000E+00  0.14015682946E+04  0.14015682946E+04  0.00000000000E+00 0. -1.
         22   -1    0    0    0    0 -0.00000000000E+00 -0.00000000000E+00 -0.23335417112E+03  0.23335417112E+03  0.00000000000E+00 0. -1.
        -24    2    1    2    0    0  0.23431151222E+03  0.58080209725E+02 -0.13425226584E+03  0.28810027737E+03  0.81871261237E+02 0.  0.
         25    2    1    2    0    0 -0.19434803924E+03 -0.55136292060E+02  0.72841410728E+03  0.76618983534E+03  0.12509428857E+03 0.  0.
         24    2    1    2    0    0 -0.39963472982E+02 -0.29439176649E+01  0.57405228204E+03  0.58063235301E+03  0.77409049963E+02 0.  0.
        -11    1    5    5    0    0 -0.56808841797E+02  0.13759272922E+02  0.30601513415E+03  0.31154746737E+03  0.00000000000E+00 0.  1.
         12    1    5    5    0    0  0.16845368815E+02 -0.16703190587E+02  0.26803714790E+03  0.26908488564E+03  0.00000000000E+00 0. -1.
         11    1    3    3    0    0  0.17417942417E+03  0.95258158847E+01 -0.11336275872E+03  0.20803924638E+03  0.00000000000E+00 0. -1.
        -12    1    3    3    0    0  0.60132088054E+02  0.48554393840E+02 -0.20889507122E+02  0.80061030987E+02  0.00000000000E+00 0.  1.
          5    1    4    4  501    0 -0.22586377553E+02 -0.13240684819E+02  0.32044439607E+03  0.32153933439E+03  0.41800000000E+01 0.  1.
         -5    1    4    4    0  501 -0.17176166168E+03 -0.41895607241E+02  0.40796971121E+03  0.44465050095E+03  0.41800000000E+01 0.  1.
</event>
<event>
11    1  0.5813833E-009  0.1545633E+03  0.7561462E-02  0.1092305E+00
         22   -1    0    0    0    0  0.00000000000E+00  0.00000000000E+00  0.27915084611E+02  0.27915084611E+02  0.00000000000E+00 0. -1.
         22   -1    0    0    0    0 -0.00000000000E+00 -0.00000000000E+00 -0.24412160097E+04  0.24412160097E+04  0.00000000000E+00 0.  1.
        -24    2    1    2    0    0  0.59974805688E+02  0.71105578858E+02 -0.15941291972E+04  0.15988618822E+04  0.80364422460E+02 0.  0.
         25    2    1    2    0    0 -0.63859816196E+02 -0.55323278921E+02 -0.75557952430E+03  0.77051197257E+03  0.12509812558E+03 0.  0.
         24    2    1    2    0    0  0.38850105075E+01 -0.15782299938E+02 -0.63592203596E+02  0.99757239520E+02  0.75122328109E+02 0.  0.
        -13    1    5    5    0    0 -0.15849863903E+02 -0.40333947284E+02 -0.47799544879E+02  0.64520089739E+02  0.00000000000E+00 0.  1.
         14    1    5    5    0    0  0.19734874410E+02  0.24551647346E+02 -0.15792658717E+02  0.35237149782E+02  0.00000000000E+00 0. -1.
         13    1    3    3    0    0  0.12191720777E+01  0.68540831445E+00  0.58254081600E+00  0.15150969985E+01  0.00000000000E+00 0. -1.
        -14    1    3    3    0    0  0.58755633611E+02  0.70420170544E+02 -0.15947117380E+04  0.15973467852E+04  0.00000000000E+00 0.  1.
          5    1    4    4  501    0 -0.89640229551E+02 -0.64454556742E+02 -0.69729487605E+03  0.70599389318E+03  0.41800000000E+01 0. -1.
         -5    1    4    4    0  501  0.25780413355E+02  0.91312778215E+01 -0.58284648248E+02  0.64518079395E+02  0.41800000000E+01 0. -1.
</event>
<event>
11    1  0.5813833E-009  0.1649367E+03  0.7561462E-02  0.1082524E+00
         22   -1    0    0    0    0  0.00000000000E+00  0.00000000000E+00  0.38837066449E+03  0.38837066449E+03  0.00000000000E+00 0. -1.
         22   -1    0    0    0    0 -0.00000000000E+00 -0.00000000000E+00 -0.25207582036E+04  0.25207582036E+04  0.00000000000E+00 0.  1.
        -24    2    1    2    0    0 -0.61739271151E+02  0.44398356583E+01 -0.22976393251E+04  0.22998716909E+04  0.80198981290E+02 0.  0.
         25    2    1    2    0    0  0.48661136662E+02  0.10288952700E+03 -0.17500315830E+03  0.24337052201E+03  0.12509574166E+03 0.  0.
         24    2    1    2    0    0  0.13078134490E+02 -0.10732936266E+03  0.34025494427E+03  0.36588665520E+03  0.80056153179E+02 0.  0.
        -13    1    5    5    0    0 -0.10356359479E+02 -0.28984901013E+02  0.23440884709E+02  0.38689194155E+02  0.00000000000E+00 0.  1.
         14    1    5    5    0    0  0.23434493969E+02 -0.78344461647E+02  0.31681405956E+03  0.32719746104E+03  0.00000000000E+00 0. -1.
         13    1    3    3    0    0  0.11419887215E+02 -0.20941878432E+02 -0.52298716582E+03  0.52353085077E+03  0.00000000000E+00 0. -1.
        -14    1    3    3    0    0 -0.73159158366E+02  0.25381714090E+02 -0.17746521592E+04  0.17763408401E+04  0.00000000000E+00 0.  1.
          5    1    4    4  501    0 -0.17884967030E+02 -0.95510653895E+00 -0.93931037947E+02  0.95714662220E+02  0.41800000000E+01 0.  1.
         -5    1    4    4    0  501  0.66546103691E+02  0.10384463354E+03 -0.81072120353E+02  0.14765585979E+03  0.41800000000E+01 0.  1.
</event>
<event>
11    1  0.5813833E-009  0.1424703E+03  0.7561462E-02  0.1104831E+00
         22   -1    0    0    0    0  0.00000000000E+00  0.00000000000E+00  0.45754390949E+03  0.45754390949E+03  0.00000000000E+00 0. -1.
         22   -1    0    0    0    0 -0.00000000000E+00 -0.00000000000E+00 -0.21780710523E+03  0.21780710523E+03  0.00000000000E+00 0. -1.
        -24    2    1    2    0    0 -0.56588060288E+02 -0.47190926303E+02 -0.13338945250E+03  0.17305382479E+03  0.82010292922E+02 0.  0.
         25    2    1    2    0    0  0.32064882279E+02  0.35276565019E+02  0.15760680788E+02  0.13479784555E+03  0.12509783128E+03 0.  0.
         24    2    1    2    0    0  0.24523178009E+02  0.11914361284E+02  0.35736557597E+03  0.36749934437E+03  0.81254384252E+02 0.  0.
        -11    1    5    5    0    0  0.13131399359E+02 -0.15016825412E+02  0.17977383084E+02  0.26853770631E+02  0.00000000000E+00 0.  1.
         12    1    5    5    0    0  0.11391778650E+02  0.26931186696E+02  0.33938819288E+03  0.34064557374E+03  0.00000000000E+00 0. -1.
         11    1    3    3    0    0 -0.68583372276E+02 -0.16170361171E+02 -0.11547718296E+03  0.13527800752E+03  0.00000000000E+00 0. -1.
        -12    1    3    3    0    0  0.11995311988E+02 -0.31020565132E+02 -0.17912269534E+02  0.37775817273E+02  0.00000000000E+00 0.  1.
          5    1    4    4  501    0  0.65917481200E+02  0.16355349775E+02  0.48754999373E+02  0.83708626544E+02  0.41800000000E+01 0.  1.
         -5    1    4    4    0  501 -0.33852598921E+02  0.18921215245E+02 -0.32994318586E+02  0.51089219009E+02  0.41800000000E+01 0.  1.
</event>
<event>
11    1  0.5813833E-009  0.1400050E+03  0.7561462E-02  0.1107553E+00
         22   -1    0    0    0    0  0.00000000000E+00  0.00000000000E+00  0.28772195947E+04  0.28772195947E+04  0.00000000000E+00 0. -1.
         22   -1    0    0    0    0 -0.00000000000E+00 -0.00000000000E+00 -0.37088096865E+02  0.37088096865E+02  0.00000000000E+00 0.  1.
        -24    2    1    2    0    0 -0.52606487823E+02 -0.35055427433E+02  0.50905149140E+02  0.11327125446E+03  0.79010868391E+02 0.  0.
         25    2    1    2    0    0  0.67865092019E+02  0.27693647388E+01  0.10659273957E+04  0.10753883229E+04  0.12508194176E+03 0.  0.
         24    2    1    2    0    0 -0.15258604197E+02  0.32286062694E+02  0.17232989530E+04  0.17256481142E+04  0.82625163412E+02 0.  0.
        -13    1    5    5    0    0  0.29672787403E+02  0.11632309494E+02  0.34687182671E+03  0.34833295725E+03  0.00000000000E+00 0.  1.
         14    1    5    5    0    0 -0.44931391600E+02  0.20653753200E+02  0.13764271263E+04  0.13773151569E+04  0.00000000000E+00 0. -1.
         11    1    3    3    0    0  0.11564974399E+02 -0.14526099702E+02  0.41212860186E+02  0.45202389872E+02  0.00000000000E+00 0. -1.
        -12    1    3    3    0    0 -0.64171462222E+02 -0.20529327731E+02  0.96922889542E+01  0.68068864586E+02  0.00000000000E+00 0.  1.
          5    1    4    4  501    0 -0.18273819281E+02 -0.14117918465E+02  0.45606975305E+02  0.51290512665E+02  0.41800000000E+01 0.  1.
         -5    1    4    4    0  501  0.86138911300E+02  0.16887283204E+02  0.10203204204E+04  0.10240978103E+04  0.41800000000E+01 0.  1.
</event>
<event>
11    1  0.5813833E-009  0.1480446E+03  0.7561462E-02  0.1098894E+00
         22   -1    0    0    0    0  0.00000000000E+00  0.00000000000E+00  0.11700260700E+04  0.11700260700E+04  0.00000000000E+00 0.  1.
         22   -1    0    0    0    0 -0.00000000000E+00 -0.00000000000E+00 -0.19007768504E+03  0.19007768504E+03  0.00000000000E+00 0.  1.
        -24    2    1    2    0    0 -0.52071973165E+02 -0.19834325873E+02 -0.16100465504E+03  0.18786153045E+03  0.79149003831E+02 0.  0.
         25    2    1    2    0    0  0.63418633790E+02  0.89333415031E+02  0.59817816590E+03  0.62085269664E+03  0.12505427068E+03 0.  0.
         24    2    1    2    0    0 -0.11346660624E+02 -0.69499089159E+02  0.54277487412E+03  0.55138952797E+03  0.66835450692E+02 0.  0.
        -11    1    5    5    0    0 -0.32060888004E+02 -0.56586891025E+02  0.47337987993E+03  0.47782683840E+03  0.00000000000E+00 0.  1.
         12    1    5    5    0    0  0.20714227380E+02 -0.12912198133E+02  0.69394994193E+02  0.73562689562E+02  0.00000000000E+00 0. -1.
         13    1    3    3    0    0  0.83114887448E+01 -0.29080633133E+02 -0.26809937613E+02  0.40417036301E+02  0.00000000000E+00 0. -1.
        -14    1    3    3    0    0 -0.60383461910E+02  0.92463072606E+01 -0.13419471743E+03  0.14744449415E+03  0.00000000000E+00 0.  1.
          5    1    4    4  501    0  0.62310943454E+02  0.18270062350E+02  0.11232327769E+03  0.12980924453E+03  0.41800000000E+01 0.  1.
         -5    1    4    4    0  501  0.11076903356E+01  0.71063352681E+02  0.48585488821E+03  0.49104345212E+03  0.41800000000E+01 0.  1.
</event>
<event>
11    1  0.5813833E-009  0.1319703E+03  0.7561462E-02  0.1116872E+00
         22   -1    0    0    0    0  0.00000000000E+00  0.00000000000E+00  0.50421970215E+03  0.50421970215E+03  0.00000000000E+00 0. -1.
         22   -1    0    0    0    0 -0.00000000000E+00 -0.00000000000E+00 -0.35661725570E+03  0.35661725570E+03  0.00000000000E+00 0.  1.
         24    2    1    2    0    0 -0.40267405026E+02 -0.14248711594E+02 -0.28531538133E+03  0.29812348924E+03  0.75154895518E+02 0.  0.
         25    2    1    2    0    0  0.23648211258E+02  0.35504993732E+02  0.11246678249E+02  0.13263867824E+03  0.12508672479E+03 0.  0.
        -24    2    1    2    0    0  0.16619193768E+02 -0.21256282138E+02  0.42167114953E+03  0.43007479037E+03  0.80185658521E+02 0.  0.
        -11    1    3    3    0    0 -0.50689693239E+02  0.17827036387E+01 -0.10303224708E+03  0.11484018013E+03  0.00000000000E+00 0.  1.
         12    1    3    3    0    0  0.10422288213E+02 -0.16031415233E+02 -0.18228313425E+03  0.18328330911E+03  0.00000000000E+00 0. -1.
         11    1    5    5    0    0  0.36731510535E+02 -0.37135478832E+02  0.19198265456E+03  0.19896127087E+03  0.00000000000E+00 0. -1.
        -12    1    5    5    0    0 -0.20112316767E+02  0.15879196694E+02  0.22968849496E+03  0.23111351949E+03  0.00000000000E+00 0.  1.
          5    1    4    4  501    0 -0.15730148800E+02 -0.41360302676E+02  0.12470550348E+02  0.46163830481E+02  0.41800000000E+01 0.  1.
         -5    1    4    4    0  501  0.39378360058E+02  0.76865296409E+02 -0.12238720987E+01  0.86474847763E+02  0.41800000000E+01 0.  1.
</event>
<event>
11    1  0.5813833E-009  0.1376422E+03  0.7561462E-02  0.1110220E+00
         22   -1    0    0    0    0  0.00000000000E+00  0.00000000000E+00  0.14458938500E+03  0.14458938500E+03  0.00000000000E+00 0. -1.
         22   -1    0    0    0    0 -0.00000000000E+00 -0.00000000000E+00 -0.68046790893E+03  0.68046790893E+03  0.00000000000E+00 0. -1.
         24    2    1    2    0    0  0.28296559743E+02 -0.49694090866E+02 -0.38803623526E+03  0.39992366300E+03  0.78080845262E+02 0.  0.
         25    2    1    2    0    0 -0.68455275167E+02  0.71652364296E+01 -0.24674126611E+03  0.28507221003E+03  0.12508975665E+03 0.  0.
        -24    2    1    2    0    0  0.40158715424E+02  0.42528854436E+02  0.98898977442E+02  0.14006142089E+03  0.80092246809E+02 0.  0.
        -11    1    3    3    0    0 -0.16192512877E+02  0.87767247151E+01 -0.14085787845E+03  0.14205692623E+03  0.00000000000E+00 0.  1.
         12    1    3    3    0    0  0.44489072620E+02 -0.58470815581E+02 -0.24717835681E+03  0.25786673677E+03  0.00000000000E+00 0. -1.
         11    1    5    5    0    0  0.30841091167E+02  0.20663579202E+02  0.10831211555E+03  0.11449747065E+03  0.00000000000E+00 0. -1.
        -12    1    5    5    0    0  0.93176242571E+01  0.21865275235E+02 -0.94131381101E+01  0.25563950242E+02  0.00000000000E+00 0.  1.
          5    1    4    4  501    0 -0.94318320397E+02  0.29274479636E+02 -0.12944649142E+03  0.16287052300E+03  0.41800000000E+01 0. -1.
         -5    1    4    4    0  501  0.25863045230E+02 -0.22109243206E+02 -0.11729477469E+03  0.12220168703E+03  0.41800000000E+01 0. -1.
</event>
<event>
11    1  0.5813833E-009  0.1437173E+03  0.7561462E-02  0.1103477E+00
         22   -1    0    0    0    0  0.00000000000E+00  0.00000000000E+00  0.15089342554E+03  0.15089342554E+03  0.00000000000E+00 0. -1.
         22   -1    0    0    0    0 -0.00000000000E+00 -0.00000000000E+00 -0.60822777933E+03  0.60822777933E+03  0.00000000000E+00 0.  1.
         24    2    1    2    0    0  0.57118706350E+01 -0.66801239075E+02 -0.30005499120E+03  0.31785474621E+03  0.80644968437E+02 0.  0.
         25    2    1    2    0    0  0.29690692379E+02  0.79116105688E+02 -0.26300343397E+03  0.30324687896E+03  0.12508784086E+03 0.  0.
        -24    2    1    2    0    0 -0.35402563014E+02 -0.12314866612E+02  0.10572407138E+03  0.13801957970E+03  0.80416588489E+02 0.  0.
        -11    1    3    3    0    0 -0.22791228264E+02 -0.71151333706E+02 -0.23750617015E+03  0.24898018643E+03  0.00000000000E+00 0.  1.
         12    1    3    3    0    0  0.28503098899E+02  0.43500946306E+01 -0.62548821050E+02  0.68874559780E+02  0.00000000000E+00 0. -1.
         13    1    5    5    0    0 -0.56094453745E+02 -0.78832671998E+01  0.10179837407E+03  0.11649739313E+03  0.00000000000E+00 0. -1.
        -14    1    5    5    0    0  0.20691890731E+02 -0.44315994127E+01  0.39256973072E+01  0.21522186570E+02  0.00000000000E+00 0.  1.
          5    1    4    4  501    0 -0.12960932062E+02  0.45960912102E+02 -0.23938800798E+03  0.24414029157E+03  0.41800000000E+01 0.  1.
         -5    1    4    4    0  501  0.42651624440E+02  0.33155193586E+02 -0.23615425982E+02  0.59106587395E+02  0.41800000000E+01 0.  1.
</event>
<event>
11    1  0.5813833E-009  0.1850336E+03  0.7561462E-02  0.1065642E+00
         22   -1    0    0    0    0  0.00000000000E+00  0.00000000000E+00  0.49501879667E+03  0.49501879667E+03  0.00000000000E+00 0.  1.
         22   -1    0    0    0    0 -0.00000000000E+00 -0.00000000000E+00 -0.54690105147E+03  0.54690105147E+03  0.00000000000E+00 0.  1.
         24    2    1    2    0    0  0.11605468936E+03 -0.15356111749E+02 -0.23119609814E+03  0.27298490864E+03  0.85817384358E+02 0.  0.
         25    2    1    2    0    0 -0.17333160059E+03  0.37337150918E+01 -0.24983400076E+03  0.32881955910E+03  0.12508992812E+03 0.  0.
        -24    2    1    2    0    0  0.57276911233E+02  0.11622396658E+02  0.42914784410E+03  0.44011538040E+03  0.78217333739E+02 0.  0.
        -11    1    3    3    0    0  0.21624294052E+02  0.24907665068E+02 -0.10637957553E+03  0.11137601161E+03  0.00000000000E+00 0.  1.
         12    1    3    3    0    0  0.94430395309E+02 -0.40263776817E+02 -0.12481652261E+03  0.16160889703E+03  0.00000000000E+00 0. -1.
         13    1    5    5    0    0  0.56993031095E+02 -0.23871537734E+02  0.29020697847E+03  0.29671222803E+03  0.00000000000E+00 0. -1.
        -14    1    5    5    0    0  0.28388013804E+00  0.35493934392E+02  0.13894086563E+03  0.14340315237E+03  0.00000000000E+00 0.  1.
          5    1    4    4  501    0 -0.64789495904E+02 -0.32759691718E+02 -0.18120091156E+03  0.19524886409E+03  0.41800000000E+01 0.  1.
         -5    1    4    4    0  501 -0.10854210469E+03  0.36493406810E+02 -0.68633089207E+02  0.13357069501E+03  0.41800000000E+01 0.  1.
</event>
<event>
11    1  0.5813833E-009  0.1674382E+03  0.7561462E-02  0.1080283E+00
         22   -1    0    0    0    0  0.00000000000E+00  0.00000000000E+00  0.11422741647E+04  0.11422741647E+04  0.00000000000E+00 0.  1.
         22   -1    0    0    0    0 -0.00000000000E+00 -0.00000000000E+00 -0.91271927060E+03  0.91271927060E+03  0.00000000000E+00 0.  1.
         24    2    1    2    0    0 -0.11829674522E+02 -0.66976290938E+02 -0.86059381110E+03  0.86703759222E+03  0.80664204342E+02 0.  0.
         25    2    1    2    0    0 -0.80466851041E+02  0.12411997469E+03  0.16960423067E+03  0.25747692090E+03  0.12509231590E+03 0.  0.
        -24    2    1    2    0    0  0.92296525563E+02 -0.57143683755E+02  0.92054447452E+03  0.93047892217E+03  0.81270202410E+02 0.  0.
        -11    1    3    3    0    0 -0.83314551709E+01 -0.40776069197E+02 -0.79808952222E+03  0.79917394004E+03  0.00000000000E+00 0.  1.
         12    1    3    3    0    0 -0.34982193516E+01 -0.26200221740E+02 -0.62504288887E+02  0.67863652180E+02  0.00000000000E+00 0. -1.
         11    1    5    5    0    0  0.15874739363E+02  0.13077526028E+02  0.34776757921E+03  0.34837525484E+03  0.00000000000E+00 0. -1.
        -12    1    5    5    0    0  0.76421786201E+02 -0.70221209784E+02  0.57277689531E+03  0.58210366733E+03  0.00000000000E+00 0.  1.
          5    1    4    4  501    0 -0.68513928577E+02  0.13892186093E+03  0.98170454747E+02  0.18343487247E+03  0.41800000000E+01 0. -1.
         -5    1    4    4    0  501 -0.11952922464E+02 -0.14801886238E+02  0.71433775927E+02  0.74042048424E+02  0.41800000000E+01 0. -1.
</event>
<event>
11    1  0.5813833E-009  0.1780481E+03  0.7561462E-02  0.1071233E+00
         22   -1    0    0    0    0  0.00000000000E+00  0.00000000000E+00  0.92531990958E+02  0.92531990958E+02  0.00000000000E+00 0.  1.
         22   -1    0    0    0    0 -0.00000000000E+00 -0.00000000000E+00 -0.26825408825E+04  0.26825408825E+04  0.00000000000E+00 0.  1.
         24    2    1    2    0    0  0.65414993322E+02 -0.10580691203E+03 -0.22325812164E+04  0.22375762745E+04  0.82791741194E+02 0.  0.
         25    2    1    2    0    0 -0.93016201905E+02  0.17647296867E+03 -0.10026093254E+03  0.25591223253E+03  0.12507635139E+03 0.  0.
        -24    2    1    2    0    0  0.27601208583E+02 -0.70666056646E+02 -0.25716674254E+03  0.28158436636E+03  0.86020367544E+02 0.  0.
        -11    1    3    3    0    0  0.16185631134E+02 -0.91763305359E+02 -0.16962458313E+04  0.16988032255E+04  0.00000000000E+00 0.  1.
         12    1    3    3    0    0  0.49229362188E+02 -0.14043606668E+02 -0.53633538514E+03  0.53877304901E+03  0.00000000000E+00 0. -1.
         11    1    5    5    0    0  0.48612161320E+02 -0.65614119176E+02 -0.24138982777E+03  0.25482818489E+03  0.00000000000E+00 0. -1.
        -12    1    5    5    0    0 -0.21010952736E+02 -0.50519374707E+01 -0.15776914765E+02  0.26756181465E+02  0.00000000000E+00 0.  1.
          5    1    4    4  501    0 -0.54830329248E+02  0.37947000481E+02  0.18634113863E+02  0.69361678544E+02  0.41800000000E+01 0. -1.
         -5    1    4    4    0  501 -0.38185872656E+02  0.13852596819E+03 -0.11889504640E+03  0.18655055399E+03  0.41800000000E+01 0. -1.
</event>
<event>
11    1  0.5813833E-009  0.1491517E+03  0.7561462E-02  0.1097749E+00
         22   -1    0    0    0    0  0.00000000000E+00  0.00000000000E+00  0.74148353090E+02  0.74148353090E+02  0.00000000000E+00 0.  1.
         22   -1    0    0    0    0 -0.00000000000E+00 -0.00000000000E+00 -0.14369616861E+04  0.14369616861E+04  0.00000000000E+00 0. -1.
        -24    2    1    2    0    0 -0.59306933896E+02 -0.44198566961E+02 -0.83616205391E+03  0.84286418679E+03  0.76040984017E+02 0.  0.
         25    2    1    2    0    0  0.59014428015E+02  0.99842194551E+02 -0.54365329575E+03  0.56978916071E+03  0.12509842190E+03 0.  0.
         24    2    1    2    0    0  0.29250588147E+00 -0.55643627590E+02  0.17002016686E+02  0.98456691645E+02  0.79425139013E+02 0.  0.
        -13    1    5    5    0    0 -0.34066238320E+02 -0.16349439371E+02  0.25481104632E+02  0.45575206574E+02  0.00000000000E+00 0.  1.
         14    1    5    5    0    0  0.34358744201E+02 -0.39294188219E+02 -0.84790879466E+01  0.52881485071E+02  0.00000000000E+00 0. -1.
         11    1    3    3    0    0 -0.31344953763E+02 -0.23411686923E+02 -0.73169159747E+03  0.73273679246E+03  0.00000000000E+00 0. -1.
        -12    1    3    3    0    0 -0.27961980133E+02 -0.20786880038E+02 -0.10447045644E+03  0.11012739433E+03  0.00000000000E+00 0.  1.
          5    1    4    4  501    0  0.63843393227E+02  0.53079138921E+02 -0.13587510900E+03  0.15928870485E+03  0.41800000000E+01 0. -1.
         -5    1    4    4    0  501 -0.48289652124E+01  0.46763055630E+02 -0.40777818674E+03  0.41050045586E+03  0.41800000000E+01 0. -1.
</event>
<event>
11    1  0.5813833E-009  0.1501830E+03  0.7561462E-02  0.1096692E+00
         22   -1    0    0    0    0  0.00000000000E+00  0.00000000000E+00  0.68915994991E+03  0.68915994991E+03  0.00000000000E+00 0.  1.
         22   -1    0    0    0    0 -0.00000000000E+00 -0.00000000000E+00 -0.36140677726E+03  0.36140677726E+03  0.00000000000E+00 0. -1.
         24    2    1    2    0    0 -0.54548217738E+02 -0.34289298091E+02 -0.29597721392E+03  0.31353528561E+03  0.80935777885E+02 0.  0.
         25    2    1    2    0    0  0.23444780858E+02  0.10979583682E+03  0.89009639913E+02  0.19019868256E+03  0.12509212332E+03 0.  0.
        -24    2    1    2    0    0  0.31103436880E+02 -0.75506538726E+02  0.53472074665E+03  0.54683275901E+03  0.80194315560E+02 0.  0.
        -13    1    3    3    0    0 -0.72663005016E+02 -0.13338345313E+02 -0.18625675182E+03  0.20037315527E+03  0.00000000000E+00 0.  1.
         14    1    3    3    0    0  0.18114787278E+02 -0.20950952778E+02 -0.10972046209E+03  0.11316213034E+03  0.00000000000E+00 0. -1.
         11    1    5    5    0    0  0.27372007524E+02 -0.41526033853E+02  0.10979956874E+03  0.12053872232E+03  0.00000000000E+00 0. -1.
        -12    1    5    5    0    0  0.37314293559E+01 -0.33980504873E+02  0.42492117791E+03  0.42629403668E+03  0.00000000000E+00 0.  1.
          5    1    4    4  501    0 -0.18442800082E+02  0.47919448994E+02 -0.22246571747E+02  0.56114105367E+02  0.41800000000E+01 0.  1.
         -5    1    4    4    0  501  0.41887580939E+02  0.61876387823E+02  0.11125621166E+03  0.13408457719E+03  0.41800000000E+01 0.  1.
</event>
<event>
11    1  0.5813833E-009  0.1342960E+03  0.7561462E-02  0.1114100E+00
         22   -1    0    0    0    0  0.00000000000E+00  0.00000000000E+00  0.10314233605E+04  0.10314233605E+04  0.00000000000E+00 0. -1.
         22   -1    0    0    0    0 -0.00000000000E+00 -0.00000000000E+00 -0.70881836986E+03  0.70881836986E+03  0.00000000000E+00 0. -1.
        -24    2    1    2    0    0 -0.39818952114E+02 -0.28447409470E+02 -0.69100127688E+03  0.69750819143E+03  0.81486860367E+02 0.  0.
         25    2    1    2    0    0  0.59540428610E+02 -0.59266352484E+01  0.39389934991E+03  0.41758887445E+03  0.12507430817E+03 0.  0.
         24    2    1    2    0    0 -0.19721476495E+02  0.34374044718E+02  0.61970691760E+03  0.62514466448E+03  0.72101846141E+02 0.  0.
        -13    1    5    5    0    0 -0.20660880511E+02  0.67541733172E+01  0.47129245110E+02  0.51900448797E+02  0.00000000000E+00 0.  1.
         14    1    5    5    0    0  0.93940401552E+00  0.27619871401E+02  0.57257767249E+03  0.57324421568E+03  0.00000000000E+00 0. -1.
         11    1    3    3    0    0  0.14898228141E+00 -0.16013049070E+02 -0.55455029391E+03  0.55478146005E+03  0.00000000000E+00 0. -1.
        -12    1    3    3    0    0 -0.39967934396E+02 -0.12434360400E+02 -0.13645098296E+03  0.14272673138E+03  0.00000000000E+00 0.  1.
          5    1    4    4  501    0  0.22791224422E+02 -0.64286019349E+02  0.16821533311E+03  0.18156542316E+03  0.41800000000E+01 0. -1.
         -5    1    4    4    0  501  0.36749204187E+02  0.58359384101E+02  0.22568401680E+03  0.23602345129E+03  0.41800000000E+01 0. -1.
</event>
<event>
11    1  0.5813833E-009  0.3294670E+03  0.7561462E-02  0.9884378E-01
         22   -1    0    0    0    0  0.00000000000E+00  0.00000000000E+00  0.57534722641E+03  0.57534722641E+03  0.00000000000E+00 0.  1.
         22   -1    0    0    0    0 -0.00000000000E+00 -0.00000000000E+00 -0.14875412519E+04  0.14875412519E+04  0.00000000000E+00 0.  1.
         24    2    1    2    0    0  0.79615356528E+02 -0.40404298609E+02 -0.95693191725E+03  0.96450040775E+03  0.81063123331E+02 0.  0.
         25    2    1    2    0    0 -0.16937611543E+03  0.32556740248E+03 -0.39942266762E+03  0.55665848460E+03  0.12509116290E+03 0.  0.
        -24    2    1    2    0    0  0.89760758899E+02 -0.28516310387E+03  0.44416055934E+03  0.54172958600E+03  0.82567258769E+02 0.  0.
        -11    1    3    3    0    0  0.83332028804E+02 -0.34069445761E+02 -0.95045090774E+03  0.95470512840E+03  0.00000000000E+00 0.  1.
         12    1    3    3    0    0 -0.37166722760E+01 -0.63348528484E+01 -0.64810095041E+01  0.97952793533E+01  0.00000000000E+00 0. -1.
         11    1    5    5    0    0  0.83616155178E+01 -0.65595722458E+02  0.16250183115E+03  0.17544104578E+03  0.00000000000E+00 0. -1.
        -12    1    5    5    0    0  0.81399143381E+02 -0.21956738142E+03  0.28165872820E+03  0.36628854022E+03  0.00000000000E+00 0.  1.
          5    1    4    4  501    0 -0.11462376430E+03  0.90222659948E+02 -0.14353491163E+03  0.20469117951E+03  0.41800000000E+01 0. -1.
         -5    1    4    4    0  501 -0.54752351128E+02  0.23534474253E+03 -0.25588775599E+03  0.35196730510E+03  0.41800000000E+01 0. -1.
</event>
<event>
11    1  0.5813833E-009  0.1284690E+03  0.7561462E-02  0.1121165E+00
         22   -1    0    0    0    0  0.00000000000E+00  0.00000000000E+00  0.18539384713E+03  0.18539384713E+03  0.00000000000E+00 0.  1.
         22   -1    0    0    0    0 -0.00000000000E+00 -0.00000000000E+00 -0.35879195779E+03  0.35879195779E+03  0.00000000000E+00 0.  1.
         24    2    1    2    0    0 -0.18439156856E+02  0.20535386523E+02 -0.24930661006E+03  0.26378768693E+03  0.81660598504E+02 0.  0.
         25    2    1    2    0    0  0.16000228629E+02  0.11638222618E+02 -0.42399154570E+02  0.13354586400E+03  0.12508138927E+03 0.  0.
        -24    2    1    2    0    0  0.24389282271E+01 -0.32173609141E+02  0.11830765397E+03  0.14685225400E+03  0.80794764803E+02 0.  0.
        -11    1    3    3    0    0 -0.86451483224E+01  0.38599282129E+02 -0.23603444927E+03  0.23932593761E+03  0.00000000000E+00 0.  1.
         12    1    3    3    0    0 -0.97940085333E+01 -0.18063895605E+02 -0.13272160794E+02  0.24461749319E+02  0.00000000000E+00 0. -1.
         13    1    5    5    0    0 -0.15812058151E+02  0.20683876500E+02  0.16873215524E+02  0.31024979164E+02  0.00000000000E+00 0. -1.
        -14    1    5    5    0    0  0.18250986378E+02 -0.52857485641E+02  0.10143443845E+03  0.11582727483E+03  0.00000000000E+00 0.  1.
          5    1    4    4  501    0 -0.21194185469E+02  0.16911668502E+02  0.36734396729E+02  0.45848515050E+02  0.41800000000E+01 0.  1.
         -5    1    4    4    0  501  0.37194414098E+02 -0.52734458840E+01 -0.79133551299E+02  0.87697348949E+02  0.41800000000E+01 0.  1.
</event>
<event>
11    1  0.5813833E-009  0.1594035E+03  0.7561462E-02  0.1087640E+00
         22   -1    0    0    0    0  0.00000000000E+00  0.00000000000E+00  0.78494234970E+03  0.78494234970E+03  0.00000000000E+00 0.  1.
         22   -1    0    0    0    0 -0.00000000000E+00 -0.00000000000E+00 -0.89934027115E+02  0.89934027115E+02  0.00000000000E+00 0. -1.
        -24    2    1    2    0    0  0.82033109452E+02  0.56630472088E+02 -0.10971508377E+02  0.12844162274E+03  0.80252321093E+02 0.  0.
         25    2    1    2    0    0 -0.71495915269E+02 -0.59485206264E+02  0.38920673972E+03  0.41926301722E+03  0.12509770461E+03 0.  0.
         24    2    1    2    0    0 -0.10537194182E+02  0.28547341762E+01  0.31677309124E+03  0.32717173686E+03  0.81098533247E+02 0.  0.
        -11    1    5    5    0    0  0.14091723272E+02  0.37078139228E+02  0.15329105633E+03  0.15833986555E+03  0.00000000000E+00 0.  1.
         12    1    5    5    0    0 -0.24628917455E+02 -0.34223405052E+02  0.16348203491E+03  0.16883187130E+03  0.00000000000E+00 0. -1.
         13    1    3    3    0    0  0.46805356124E+02  0.67838803210E+02 -0.28922116919E+02  0.87346055606E+02  0.00000000000E+00 0. -1.
        -14    1    3    3    0    0  0.35227753327E+02 -0.11208331122E+02  0.17950608542E+02  0.41095567134E+02  0.00000000000E+00 0.  1.
          5    1    4    4  501    0 -0.18152638858E+02 -0.49537776224E+02  0.34531132737E+03  0.34934351974E+03  0.41800000000E+01 0. -1.
         -5    1    4    4    0  501 -0.53343276411E+02 -0.99474300402E+01  0.43895412346E+02  0.69919497478E+02  0.41800000000E+01 0. -1.
</event>
<event>
11    1  0.5813833E-009  0.1464108E+03  0.7561462E-02  0.1100604E+00
         22   -1    0    0    0    0  0.00000000000E+00  0.00000000000E+00  0.13694102284E+03  0.13694102284E+03  0.00000000000E+00 0. -1.
         22   -1    0    0    0    0 -0.00000000000E+00 -0.00000000000E+00 -0.60278044839E+03  0.60278044839E+03  0.00000000000E+00 0. -1.
         24    2    1    2    0    0 -0.68081639121E+02 -0.13326812462E+02 -0.38693328878E+03  0.40107717106E+03  0.79578977521E+02 0.  0.
         25    2    1    2    0    0  0.11616638671E+03 -0.45841761126E+01 -0.14348086556E+03  0.22304632852E+03  0.12508901556E+03 0.  0.
        -24    2    1    2    0    0 -0.48084747593E+02  0.17910988575E+02  0.64574728792E+02  0.11559797164E+03  0.80994129335E+02 0.  0.
        -13    1    3    3    0    0  0.27877854172E+01  0.24874754427E+02 -0.87625043697E+02  0.91129981007E+02  0.00000000000E+00 0.  1.
         14    1    3    3    0    0 -0.70869424538E+02 -0.38201566889E+02 -0.29930824509E+03  0.30994719006E+03  0.00000000000E+00 0. -1.
         11    1    5    5    0    0 -0.48431027345E+02  0.34290520791E+02  0.75407884503E+02  0.95957038674E+02  0.00000000000E+00 0. -1.
        -12    1    5    5    0    0  0.34627975237E+00 -0.16379532216E+02 -0.10833155711E+02  0.19640932970E+02  0.00000000000E+00 0.  1.
          5    1    4    4  501    0  0.34780565553E+02 -0.35189759003E+02 -0.12437976485E+03  0.13392462500E+03  0.41800000000E+01 0.  1.
         -5    1    4    4    0  501  0.81385821162E+02  0.30605582891E+02 -0.19101100713E+02  0.89121703522E+02  0.41800000000E+01 0.  1.
</event>
<event>
11    1  0.5813833E-009  0.3631875E+03  0.7561462E-02  0.9765090E-01
         22   -1    0    0    0    0  0.00000000000E+00  0.00000000000E+00  0.23615569237E+03  0.23615569237E+03  0.00000000000E+00 0. -1.
         22   -1    0    0    0    0 -0.00000000000E+00 -0.00000000000E+00 -0.13225240004E+04  0.13225240004E+04  0.00000000000E+00 0.  1.
        -24    2    1    2    0    0 -0.48222155391E+02 -0.20067839992E+02 -0.75504010021E+03  0.76119002728E+03  0.81219518818E+02 0.  0.
         25    2    1    2    0    0  0.24380906596E+03 -0.25254168736E+03 -0.22986419398E+03  0.43783715006E+03  0.12507460894E+03 0.  0.
         24    2    1    2    0    0 -0.19558691057E+03  0.27260952735E+03 -0.10146401383E+03  0.35965251541E+03  0.80528204700E+02 0.  0.
        -13    1    5    5    0    0 -0.39750835105E+02  0.26841279852E+02 -0.39460110711E+02  0.62110253042E+02  0.00000000000E+00 0.  1.
         14    1    5    5    0    0 -0.15583607546E+03  0.24576824750E+03 -0.62003903117E+02  0.29754226237E+03  0.00000000000E+00 0. -1.
         13    1    3    3    0    0 -0.14434737383E+02  0.10150482113E+02 -0.30527311372E+02  0.35260610744E+02  0.00000000000E+00 0. -1.
        -14    1    3    3    0    0 -0.33787418008E+02 -0.30218322104E+02 -0.72451278884E+03  0.72592941654E+03  0.00000000000E+00 0.  1.
          5    1    4    4  501    0 -0.22948258844E+01 -0.38375109409E+02  0.97110867638E-01  0.38670364344E+02  0.41800000000E+01 0.  1.
         -5    1    4    4    0  501  0.24610389184E+03 -0.21416657795E+03 -0.22996130485E+03  0.39916678572E+03  0.41800000000E+01 0.  1.
</event>
<event>
11    1  0.5813833E-009  0.1705095E+03  0.7561462E-02  0.1077589E+00
         22   -1    0    0    0    0  0.00000000000E+00  0.00000000000E+00  0.37160450084E+03  0.37160450084E+03  0.00000000000E+00 0. -1.
         22   -1    0    0    0    0 -0.00000000000E+00 -0.00000000000E+00 -0.49611996076E+03  0.49611996076E+03  0.00000000000E+00 0.  1.
         24    2    1    2    0    0 -0.33786599694E+02  0.60364212187E+02 -0.41005418325E+03  0.42483309777E+03  0.86910041599E+02 0.  0.
         25    2    1    2    0    0  0.34404125454E+02 -0.15847134068E+03  0.13070270773E+03  0.24295770739E+03  0.12509372529E+03 0.  0.
        -24    2    1    2    0    0 -0.61752576020E+00  0.98107128495E+02  0.15483601560E+03  0.19993365643E+03  0.79836615970E+02 0.  0.
        -13    1    3    3    0    0 -0.28315373282E+02  0.83008582282E+02 -0.31731088542E+03  0.32920872270E+03  0.00000000000E+00 0.  1.
         14    1    3    3    0    0 -0.54712264121E+01 -0.22644370095E+02 -0.92743297826E+02  0.95624375068E+02  0.00000000000E+00 0. -1.
         13    1    5    5    0    0 -0.27536417150E+02  0.92983397753E+02  0.10410093482E+03  0.14227146994E+03  0.00000000000E+00 0. -1.
        -14    1    5    5    0    0  0.26918891390E+02  0.51237307420E+01  0.50735080776E+02  0.57662186498E+02  0.00000000000E+00 0.  1.
          5    1    4    4  501    0 -0.42927814370E+02 -0.56840953306E+02  0.20539622428E+02  0.74249846524E+02  0.41800000000E+01 0.  1.
         -5    1    4    4    0  501  0.77331939824E+02 -0.10163038738E+03  0.11016308530E+03  0.16870786087E+03  0.41800000000E+01 0.  1.
</event>
<event>
11    1  0.5813833E-009  0.1545490E+03  0.7561462E-02  0.1092319E+00
         22   -1    0    0    0    0  0.00000000000E+00  0.00000000000E+00  0.12710984353E+04  0.12710984353E+04  0.00000000000E+00 0. -1.
         22   -1    0    0    0    0 -0.00000000000E+00 -0.00000000000E+00 -0.79151026910E+03  0.79151026910E+03  0.00000000000E+00 0. -1.
        -24    2    1    2    0    0 -0.18720136860E+02  0.88953874497E+02 -0.76749881403E+03  0.77691774161E+03  0.79268609057E+02 0.  0.
         25    2    1    2    0    0  0.53384034580E+02 -0.73014624265E+02  0.33366524453E+03  0.36763536317E+03  0.12506907827E+03 0.  0.
         24    2    1    2    0    0 -0.34663897720E+02 -0.15939250233E+02  0.91342173566E+03  0.91805559959E+03  0.83852079620E+02 0.  0.
        -11    1    5    5    0    0 -0.28698645325E+02 -0.81662150509E+01  0.95008327701E+02  0.99583541032E+02  0.00000000000E+00 0.  1.
         12    1    5    5    0    0 -0.59652523947E+01 -0.77730351819E+01  0.81841340796E+03  0.81847205856E+03  0.00000000000E+00 0. -1.
         11    1    3    3    0    0 -0.47086439887E+02  0.33964486268E+02 -0.41276275492E+03  0.41682587611E+03  0.00000000000E+00 0. -1.
        -12    1    3    3    0    0  0.28366303027E+02  0.54989388229E+02 -0.35473605911E+03  0.36009186550E+03  0.00000000000E+00 0.  1.
          5    1    4    4  501    0  0.23337522518E+02 -0.61777936172E+02  0.52106303919E+02  0.84224062256E+02  0.41800000000E+01 0.  1.
         -5    1    4    4    0  501  0.30046512062E+02 -0.11236688093E+02  0.28155894061E+03  0.28341130091E+03  0.41800000000E+01 0.  1.
</event>
<event>
11    1  0.5813833E-009  0.2064085E+03  0.7561462E-02  0.1050082E+00
         22   -1    0    0    0    0  0.00000000000E+00  0.00000000000E+00  0.48047368083E+03  0.48047368083E+03  0.00000000000E+00 0.  1.
         22   -1    0    0    0    0 -0.00000000000E+00 -0.00000000000E+00 -0.21446078455E+04  0.21446078455E+04  0.00000000000E+00 0.  1.
        -24    2    1    2    0    0 -0.10065910810E+03  0.25671522699E+02 -0.17422346743E+04  0.17474388510E+04  0.85846341783E+02 0.  0.
         25    2    1    2    0    0  0.25197233191E+03  0.26651451724E+02 -0.32868352741E+03  0.43345268681E+03  0.12509202447E+03 0.  0.
         24    2    1    2    0    0 -0.15131322381E+03 -0.52322974424E+02  0.40678403707E+03  0.44418998854E+03  0.78728062052E+02 0.  0.
        -13    1    5    5    0    0 -0.99705085800E+02 -0.19969382619E+02  0.33475887174E+03  0.34986194789E+03  0.00000000000E+00 0.  1.
         14    1    5    5    0    0 -0.51608138012E+02 -0.32353591805E+02  0.72025165330E+02  0.94328040648E+02  0.00000000000E+00 0. -1.
         11    1    3    3    0    0  0.10531189085E+02  0.86265503384E+00 -0.39236960397E+02  0.40634827161E+02  0.00000000000E+00 0. -1.
        -12    1    3    3    0    0 -0.11119029718E+03  0.24808867666E+02 -0.17029977139E+04  0.17068040238E+04  0.00000000000E+00 0.  1.
          5    1    4    4  501    0  0.93396730594E+02  0.52143943216E+02 -0.20289417159E+03  0.22940239181E+03  0.41800000000E+01 0. -1.
         -5    1    4    4    0  501  0.15857560131E+03 -0.25492491491E+02 -0.12578935582E+03  0.20405029501E+03  0.41800000000E+01 0. -1.
</event>
<event>
11    1  0.5813833E-009  0.1432650E+03  0.7561462E-02  0.1103966E+00
         22   -1    0    0    0    0  0.00000000000E+00  0.00000000000E+00  0.13094588527E+03  0.13094588527E+03  0.00000000000E+00 0.  1.
         22   -1    0    0    0    0 -0.00000000000E+00 -0.00000000000E+00 -0.87950796272E+03  0.87950796272E+03  0.00000000000E+00 0. -1.
        -24    2    1    2    0    0 -0.54707273864E+02 -0.44869120560E+02 -0.75774665931E+03  0.76503063256E+03  0.78011186773E+02 0.  0.
         25    2    1    2    0    0  0.23612601486E+02  0.59547504780E+02 -0.37345740010E+02  0.14540928610E+03  0.12508275626E+03 0.  0.
         24    2    1    2    0    0  0.31094672378E+02 -0.14678384220E+02  0.46530321876E+02  0.10001392933E+03  0.81580522146E+02 0.  0.
        -13    1    5    5    0    0  0.11248480615E+02 -0.44098651304E+02  0.45729242538E+02  0.64516532657E+02  0.00000000000E+00 0.  1.
         14    1    5    5    0    0  0.19846191763E+02  0.29420267084E+02  0.80107933758E+00  0.35497396678E+02  0.00000000000E+00 0. -1.
         13    1    3    3    0    0 -0.67269465499E+02 -0.56331644294E+02 -0.60247537737E+03  0.60883085950E+03  0.00000000000E+00 0. -1.
        -14    1    3    3    0    0  0.12562191635E+02  0.11462523734E+02 -0.15527128194E+03  0.15619977306E+03  0.00000000000E+00 0.  1.
          5    1    4    4  501    0  0.11342414889E+02  0.89862213573E+02  0.60922910373E+01  0.90876048626E+02  0.41800000000E+01 0. -1.
         -5    1    4    4    0  501  0.12270186597E+02 -0.30314708793E+02 -0.43438031047E+02  0.54533237476E+02  0.41800000000E+01 0. -1.
</event>
<event>
11    1  0.5813833E-009  0.1308736E+03  0.7561462E-02  0.1118200E+00
         22   -1    0    0    0    0  0.00000000000E+00  0.00000000000E+00  0.11059638553E+04  0.11059638553E+04  0.00000000000E+00 0. -1.
         22   -1    0    0    0    0 -0.00000000000E+00 -0.00000000000E+00 -0.11861523783E+03  0.11861523783E+03  0.00000000000E+00 0. -1.
         24    2    1    2    0    0 -0.85717404146E+01  0.18454482294E+02 -0.57833417046E+02  0.10110960440E+03  0.80401525634E+02 0.  0.
         25    2    1    2    0    0  0.34410279347E+02  0.10638216983E+02  0.77534184879E+02  0.15151278866E+03  0.12508931336E+03 0.  0.
        -24    2    1    2    0    0 -0.25838538932E+02 -0.29092699277E+02  0.96764784966E+03  0.97195670010E+03  0.82725151389E+02 0.  0.
        -11    1    3    3    0    0 -0.35773763060E+02  0.24770576904E+02 -0.83739883265E+01  0.44311028922E+02  0.00000000000E+00 0.  1.
         12    1    3    3    0    0  0.27202022645E+02 -0.63160946098E+01 -0.49459428720E+02  0.56798575479E+02  0.00000000000E+00 0. -1.
         11    1    5    5    0    0 -0.51146468376E+02 -0.31617730783E+02  0.81401455141E+03  0.81623240075E+03  0.00000000000E+00 0. -1.
        -12    1    5    5    0    0  0.25307929444E+02  0.25250315058E+01  0.15363329825E+03  0.15572429935E+03  0.00000000000E+00 0.  1.
          5    1    4    4  501    0  0.68184045595E+01 -0.17738531540E+01 -0.34464253192E+02  0.35424487912E+02  0.41800000000E+01 0.  1.
         -5    1    4    4    0  501  0.27591874787E+02  0.12412070137E+02  0.11199843807E+03  0.11608830074E+03  0.41800000000E+01 0.  1.
</event>
<event>
11    1  0.5813833E-009  0.1347187E+03  0.7561462E-02  0.1113603E+00
         22   -1    0    0    0    0  0.00000000000E+00  0.00000000000E+00  0.17998675796E+03  0.17998675796E+03  0.00000000000E+00 0.  1.
         22   -1    0    0    0    0 -0.00000000000E+00 -0.00000000000E+00 -0.13575318929E+04  0.13575318929E+04  0.00000000000E+00 0. -1.
         24    2    1    2    0    0  0.31335980385E+02  0.39820572913E+02 -0.11688495787E+04  0.11725841165E+04  0.78591035455E+02 0.  0.
         25    2    1    2    0    0 -0.59082549497E+02 -0.30675937538E+01 -0.14459664135E+03  0.20014065560E+03  0.12509170854E+03 0.  0.
        -24    2    1    2    0    0  0.27746569112E+02 -0.36752979159E+02  0.13590108514E+03  0.16479387878E+03  0.81038657230E+02 0.  0.
        -13    1    3    3    0    0 -0.25537306665E+02  0.18724048599E+02 -0.31708715522E+03  0.31866441288E+03  0.00000000000E+00 0.  1.
         14    1    3    3    0    0  0.56873287051E+02  0.21096524314E+02 -0.85176242350E+03  0.85391970360E+03  0.00000000000E+00 0. -1.
         13    1    5    5    0    0  0.51216686763E+02 -0.39477977048E+01  0.90501822957E+02  0.10406399026E+03  0.00000000000E+00 0. -1.
        -14    1    5    5    0    0 -0.23470117651E+02 -0.32805181454E+02  0.45399262181E+02  0.60729888518E+02  0.00000000000E+00 0.  1.
          5    1    4    4  501    0 -0.83495101427E+02  0.10952381991E+02 -0.43025658664E+02  0.94657626936E+02  0.41800000000E+01 0. -1.
         -5    1    4    4    0  501  0.24412551930E+02 -0.14019975745E+02 -0.10157098269E+03  0.10548302866E+03  0.41800000000E+01 0. -1.
</event>
<event>
11    1  0.5813833E-009  0.1348083E+03  0.7561462E-02  0.1113498E+00
         22   -1    0    0    0    0  0.00000000000E+00  0.00000000000E+00  0.50873914781E+03  0.50873914781E+03  0.00000000000E+00 0. -1.
         22   -1    0    0    0    0 -0.00000000000E+00 -0.00000000000E+00 -0.23883679222E+03  0.23883679222E+03  0.00000000000E+00 0. -1.
         24    2    1    2    0    0 -0.34092303796E+02  0.42952218720E+02 -0.18538537677E+03  0.21145838948E+03  0.85672249237E+02 0.  0.
         25    2    1    2    0    0 -0.51060722342E+00 -0.12577951242E+02  0.81490705508E+02  0.14982278081E+03  0.12509062710E+03 0.  0.
        -24    2    1    2    0    0  0.34602911020E+02 -0.30374267478E+02  0.37379702685E+03  0.38629476974E+03  0.85903866422E+02 0.  0.
        -11    1    3    3    0    0 -0.25522966369E+02 -0.18805105398E+02 -0.28469869823E+02  0.42609708859E+02  0.00000000000E+00 0.  1.
         12    1    3    3    0    0 -0.85693374276E+01  0.61757324118E+02 -0.15691550695E+03  0.16884868062E+03  0.00000000000E+00 0. -1.
         11    1    5    5    0    0  0.51734324002E+02 -0.26340120968E+02  0.35790133867E+03  0.36257910927E+03  0.00000000000E+00 0. -1.
        -12    1    5    5    0    0 -0.17131412982E+02 -0.40341465100E+01  0.15895688179E+02  0.23715660470E+02  0.00000000000E+00 0.  1.
          5    1    4    4  501    0  0.64732096615E+01  0.55317871740E+02  0.48168735464E+02  0.73754110756E+02  0.41800000000E+01 0.  1.
         -5    1    4    4    0  501 -0.69838168849E+01 -0.67895822981E+02  0.33321970043E+02  0.76068670057E+02  0.41800000000E+01 0.  1.
</event>
<event>
11    1  0.5813833E-009  0.2216106E+03  0.7561462E-02  0.1040213E+00
         22   -1    0    0    0    0  0.00000000000E+00  0.00000000000E+00  0.47019601685E+03  0.47019601685E+03  0.00000000000E+00 0.  1.
         22   -1    0    0    0    0 -0.00000000000E+00 -0.00000000000E+00 -0.64109328645E+03  0.64109328645E+03  0.00000000000E+00 0. -1.
        -24    2    1    2    0    0 -0.45152809274E+02  0.17235535572E+03 -0.40384849544E+03  0.44869562022E+03  0.80554376086E+02 0.  0.
         25    2    1    2    0    0  0.27137751631E+02 -0.19591732495E+03 -0.14480248078E+03  0.27519828912E+03  0.12508510749E+03 0.  0.
         24    2    1    2    0    0  0.18015057643E+02  0.23561969235E+02  0.37775370662E+03  0.38739539396E+03  0.80607814144E+02 0.  0.
        -11    1    5    5    0    0 -0.95137097653E+01  0.47806620749E+02  0.23517196139E+03  0.24017042925E+03  0.00000000000E+00 0.  1.
         12    1    5    5    0    0  0.27528767408E+02 -0.24244651514E+02  0.14258174522E+03  0.14722496471E+03  0.00000000000E+00 0. -1.
         13    1    3    3    0    0 -0.44328371163E+02  0.15027057696E+03 -0.26304378859E+03  0.30616708756E+03  0.00000000000E+00 0. -1.
        -14    1    3    3    0    0 -0.82443811056E+00  0.22084778757E+02 -0.14080470685E+03  0.14252853266E+03  0.00000000000E+00 0.  1.
          5    1    4    4  501    0  0.42924016030E+02 -0.11641771933E+02 -0.50936494348E+02  0.67749545108E+02  0.41800000000E+01 0.  1.
         -5    1    4    4    0  501 -0.15786264399E+02 -0.18427555302E+03 -0.93865986431E+02  0.20744874401E+03  0.41800000000E+01 0.  1.
</event>
<event>
11    1  0.5813833E-009  0.1527287E+03  0.7561462E-02  0.1094123E+00
         22   -1    0    0    0    0  0.00000000000E+00  0.00000000000E+00  0.11158443087E+04  0.11158443087E+04  0.00000000000E+00 0. -1.
         22   -1    0    0    0    0 -0.00000000000E+00 -0.00000000000E+00 -0.71431503092E+03  0.71431503092E+03  0.00000000000E+00 0. -1.
         24    2    1    2    0    0  0.53419681583E+02 -0.68440253675E+02 -0.67438316856E+03  0.68464046834E+03  0.80013637199E+02 0.  0.
         25    2    1    2    0    0 -0.10144839115E+03  0.83249381026E+02  0.22425196672E+03  0.28837145998E+03  0.12508764464E+03 0.  0.
        -24    2    1    2    0    0  0.48028709571E+02 -0.14809127351E+02  0.85166047966E+03  0.85714741135E+03  0.82764998443E+02 0.  0.
        -11    1    3    3    0    0  0.41696750518E+02 -0.11227174268E+02 -0.12678775366E+03  0.13393954951E+03  0.00000000000E+00 0.  1.
         12    1    3    3    0    0  0.11722931065E+02 -0.57213079407E+02 -0.54759541491E+03  0.55070091883E+03  0.00000000000E+00 0. -1.
         13    1    5    5    0    0  0.46753988358E+01 -0.43355786762E+02  0.45996392127E+03  0.46202639802E+03  0.00000000000E+00 0. -1.
        -14    1    5    5    0    0  0.43353310735E+02  0.28546659411E+02  0.39169655839E+03  0.39512101332E+03  0.00000000000E+00 0.  1.
          5    1    4    4  501    0  0.39596585694E+01  0.48266623987E+02  0.14053704317E+02  0.50599653083E+02  0.41800000000E+01 0. -1.
         -5    1    4    4    0  501 -0.10540804972E+03  0.34982757040E+02  0.21019826241E+03  0.23777180690E+03  0.41800000000E+01 0. -1.
</event>
<event>
11    1  0.5813833E-009  0.1877558E+03  0.7561462E-02  0.1063536E+00
         22   -1    0    0    0    0  0.00000000000E+00  0.00000000000E+00  0.10936773767E+04  0.10936773767E+04  0.00000000000E+00 0. -1.
         22   -1    0    0    0    0 -0.00000000000E+00 -0.00000000000E+00 -0.12300093399E+04  0.12300093399E+04  0.00000000000E+00 0.  1.
        -24    2    1    2    0    0 -0.38967050871E+02  0.13366909228E+03 -0.10842151337E+04  0.10961274850E+04  0.81161258890E+02 0.  0.
         25    2    1    2    0    0  0.13043593439E+03 -0.11724778246E+03 -0.50684414315E+02  0.22131512536E+03  0.12510355465E+03 0.  0.
         24    2    1    2    0    0 -0.91468883522E+02 -0.16421309816E+02  0.99856758480E+03  0.10062441063E+04  0.82181287172E+02 0.  0.
        -11    1    5    5    0    0  0.11915547687E+02 -0.10909862254E+02  0.66058257764E+02  0.68005137967E+02  0.00000000000E+00 0.  1.
         12    1    5    5    0    0 -0.10338443121E+03 -0.55114475610E+01  0.93250932704E+03  0.93823896833E+03  0.00000000000E+00 0. -1.
         13    1    3    3    0    0  0.20726468768E+01 -0.10752039447E+02 -0.82402670533E+02  0.83127025258E+02  0.00000000000E+00 0. -1.
        -14    1    3    3    0    0 -0.41039697747E+02  0.14442113173E+03 -0.10018124631E+04  0.10130004597E+04  0.00000000000E+00 0.  1.
          5    1    4    4  501    0  0.15508874510E+03 -0.99639852520E+02 -0.48485386449E+02  0.19065393824E+03  0.41800000000E+01 0.  1.
         -5    1    4    4    0  501 -0.24652810705E+02 -0.17607929943E+02 -0.21990278656E+01  0.30661187128E+02  0.41800000000E+01 0.  1.
</event>
<event>
11    1  0.5813833E-009  0.1810178E+03  0.7561462E-02  0.1068822E+00
         22   -1    0    0    0    0  0.00000000000E+00  0.00000000000E+00  0.73304727361E+03  0.73304727361E+03  0.00000000000E+00 0. -1.
         22   -1    0    0    0    0 -0.00000000000E+00 -0.00000000000E+00 -0.50626393292E+03  0.50626393292E+03  0.00000000000E+00 0.  1.
         24    2    1    2    0    0 -0.12353070921E+03  0.57329783934E+02 -0.42469212592E+03  0.45323846087E+03  0.80716543233E+02 0.  0.
         25    2    1    2    0    0  0.93992140427E+02 -0.20806173066E+02  0.34235030011E+02  0.16151291621E+03  0.12508783123E+03 0.  0.
        -24    2    1    2    0    0  0.29538568779E+02 -0.36523610868E+02  0.61724043660E+03  0.62455982945E+03  0.82962176915E+02 0.  0.
        -13    1    3    3    0    0 -0.59474969160E+02  0.69549793474E+02 -0.27882384993E+03  0.29345729676E+03  0.00000000000E+00 0.  1.
         14    1    3    3    0    0 -0.64055740045E+02 -0.12220009540E+02 -0.14586827598E+03  0.15978116411E+03  0.00000000000E+00 0. -1.
         13    1    5    5    0    0  0.75096090452E+00 -0.58872789598E+02  0.38664626362E+03  0.39110344215E+03  0.00000000000E+00 0. -1.
        -14    1    5    5    0    0  0.28787607874E+02  0.22349178730E+02  0.23059417298E+03  0.23345638730E+03  0.00000000000E+00 0.  1.
          5    1    4    4  501    0 -0.25235345020E+02 -0.27512069639E+02  0.13896473126E+01  0.37591756194E+02  0.41800000000E+01 0. -1.
         -5    1    4    4    0  501  0.11922748545E+03  0.67058965727E+01  0.32845382698E+02  0.12392116001E+03  0.41800000000E+01 0. -1.
</event>
<event>
11    1  0.5813833E-009  0.4873439E+03  0.7561462E-02  0.9422255E-01
         22   -1    0    0    0    0  0.00000000000E+00  0.00000000000E+00  0.12339407356E+04  0.12339407356E+04  0.00000000000E+00 0.  1.
         22   -1    0    0    0    0 -0.00000000000E+00 -0.00000000000E+00 -0.15391305303E+04  0.15391305303E+04  0.00000000000E+00 0. -1.
         24    2    1    2    0    0 -0.34276069780E+03  0.41216805753E+01 -0.75172421084E+03  0.83038982821E+03  0.83403197969E+02 0.  0.
         25    2    1    2    0    0 -0.46482299082E+02 -0.30180972619E+03 -0.65548859089E+03  0.73386838241E+03  0.12509114663E+03 0.  0.
        -24    2    1    2    0    0  0.38924299689E+03  0.29768804561E+03  0.11020230070E+04  0.12088130552E+04  0.81523072063E+02 0.  0.
        -13    1    3    3    0    0 -0.24926842713E+03 -0.14071626206E+02 -0.45827533418E+03  0.52187071325E+03  0.00000000000E+00 0.  1.
         14    1    3    3    0    0 -0.93492270671E+02  0.18193306781E+02 -0.29344887666E+03  0.30851911496E+03  0.00000000000E+00 0. -1.
         13    1    5    5    0    0  0.19419913388E+03  0.99208635786E+02  0.50888888923E+03  0.55364569771E+03  0.00000000000E+00 0. -1.
        -14    1    5    5    0    0  0.19504386301E+03  0.19847940983E+03  0.59313411780E+03  0.65516735749E+03  0.00000000000E+00 0.  1.
          5    1    4    4  501    0 -0.67968391472E+02 -0.28188891107E+03 -0.63436097795E+03  0.69750439653E+03  0.41800000000E+01 0. -1.
         -5    1    4    4    0  501  0.21486092390E+02 -0.19920815115E+02 -0.21127612943E+02  0.36363985889E+02  0.41800000000E+01 0. -1.
</event>
<event>
11    1  0.5813833E-009  0.1409217E+03  0.7561462E-02  0.1106533E+00
         22   -1    0    0    0    0  0.00000000000E+00  0.00000000000E+00  0.12589514324E+04  0.12589514324E+04  0.00000000000E+00 0. -1.
         22   -1    0    0    0    0 -0.00000000000E+00 -0.00000000000E+00 -0.50488772741E+03  0.50488772741E+03  0.00000000000E+00 0.  1.
         24    2    1    2    0    0  0.17214772305E+02 -0.43093178262E+02 -0.48119004628E+03  0.48993950652E+03  0.79646023181E+02 0.  0.
         25    2    1    2    0    0 -0.78516338112E+02  0.47782943839E+02  0.35138557124E+03  0.38414283115E+03  0.12508345205E+03 0.  0.
        -24    2    1    2    0    0  0.61301565807E+02 -0.46897655778E+01  0.88386818003E+03  0.88975682214E+03  0.81635574326E+02 0.  0.
        -13    1    3    3    0    0  0.44536686748E+02 -0.73682688873E+01 -0.29253666093E+03  0.29599916527E+03  0.00000000000E+00 0.  1.
         14    1    3    3    0    0 -0.27321914443E+02 -0.35724909374E+02 -0.18865338536E+03  0.19394034125E+03  0.00000000000E+00 0. -1.
         13    1    5    5    0    0 -0.91166430327E+01  0.58623141545E+01  0.44641316498E+03  0.44654472763E+03  0.00000000000E+00 0. -1.
        -14    1    5    5    0    0  0.70418208840E+02 -0.10552079732E+02  0.43745501506E+03  0.44321209451E+03  0.00000000000E+00 0.  1.
          5    1    4    4  501    0 -0.66832717040E+02 -0.24576239666E+02  0.10413341075E+03  0.12622140570E+03  0.41800000000E+01 0.  1.
         -5    1    4    4    0  501 -0.11683621072E+02  0.72359183505E+02  0.24725216049E+03  0.25792142545E+03  0.41800000000E+01 0.  1.
</event>
<event>
11    1  0.5813833E-009  0.1674556E+03  0.7561462E-02  0.1080267E+00
         22   -1    0    0    0    0  0.00000000000E+00  0.00000000000E+00  0.98516937031E+03  0.98516937031E+03  0.00000000000E+00 0. -1.
         22   -1    0    0    0    0 -0.00000000000E+00 -0.00000000000E+00 -0.29777283204E+03  0.29777283204E+03  0.00000000000E+00 0.  1.
         24    2    1    2    0    0 -0.95140703320E+02 -0.55956312784E+02 -0.22406857362E+03  0.26220146239E+03  0.79749726184E+02 0.  0.
         25    2    1    2    0    0  0.14893107670E+03 -0.21866265890E+02  0.14214083785E+03  0.24188898896E+03  0.12509063116E+03 0.  0.
        -24    2    1    2    0    0 -0.53790373377E+02  0.77822578674E+02  0.76932427404E+03  0.77885175099E+03  0.76160707569E+02 0.  0.
        -11    1    3    3    0    0 -0.97494665297E+02 -0.33937229424E+02 -0.21455802736E+03  0.23810101304E+03  0.00000000000E+00 0.  1.
         12    1    3    3    0    0  0.23539619767E+01 -0.22019083360E+02 -0.95105462583E+01  0.24100449356E+02  0.00000000000E+00 0. -1.
         11    1    5    5    0    0 -0.48050917729E+02  0.83407743741E+02  0.76181857485E+03  0.76787582550E+03  0.00000000000E+00 0. -1.
        -12    1    5    5    0    0 -0.57394556480E+01 -0.55851650669E+01  0.75056991918E+01  0.10975925488E+02  0.00000000000E+00 0.  1.
          5    1    4    4  501    0  0.11287036645E+03  0.40640088380E+02  0.10987588778E+03  0.16273143373E+03  0.41800000000E+01 0. -1.
         -5    1    4    4    0  501  0.36060710243E+02 -0.62506354270E+02  0.32264950070E+02  0.79157555232E+02  0.41800000000E+01 0. -1.
</event>
<event>
11    1  0.5813833E-009  0.1336672E+03  0.7561462E-02  0.1114844E+00
         22   -1    0    0    0    0  0.00000000000E+00  0.00000000000E+00  0.41513475062E+03  0.41513475062E+03  0.00000000000E+00 0.  1.
         22   -1    0    0    0    0 -0.00000000000E+00 -0.00000000000E+00 -0.10402552060E+03  0.10402552060E+03  0.00000000000E+00 0.  1.
        -24    2    1    2    0    0 -0.88569947255E+01 -0.19931094289E+02 -0.35385257718E+02  0.90482802579E+02  0.80369933580E+02 0.  0.
         25    2    1    2    0    0 -0.27663110355E+02  0.47699806435E+02  0.11063434598E+03  0.17586192307E+03  0.12508772228E+03 0.  0.
         24    2    1    2    0    0  0.36520105080E+02 -0.27768712146E+02  0.23586014175E+03  0.25281554558E+03  0.78618535784E+02 0.  0.
        -11    1    5    5    0    0 -0.56704224156E+01 -0.46801423201E+01  0.17542361694E+03  0.17557762614E+03  0.00000000000E+00 0.  1.
         12    1    5    5    0    0  0.42190527496E+02 -0.23088569826E+02  0.60436524819E+02  0.77237919438E+02  0.00000000000E+00 0. -1.
         13    1    3    3    0    0 -0.13965484559E+02  0.23438100218E+02  0.84956873164E+01  0.28575444069E+02  0.00000000000E+00 0. -1.
        -14    1    3    3    0    0  0.51084898330E+01 -0.43369194507E+02 -0.43880945035E+02  0.61907358510E+02  0.00000000000E+00 0.  1.
          5    1    4    4  501    0  0.59419981401E+00  0.85514981890E+02  0.89855502418E+02  0.12411546606E+03  0.41800000000E+01 0.  1.
         -5    1    4    4    0  501 -0.28257310169E+02 -0.37815175454E+02  0.20778843564E+02  0.51746457004E+02  0.41800000000E+01 0.  1.
</event>
<event>
11    1  0.5813833E-009  0.1287636E+03  0.7561462E-02  0.1120798E+00
         22   -1    0    0    0    0  0.00000000000E+00  0.00000000000E+00  0.17146925039E+04  0.17146925039E+04  0.00000000000E+00 0. -1.
         22   -1    0    0    0    0 -0.00000000000E+00 -0.00000000000E+00 -0.18805303382E+03  0.18805303382E+03  0.00000000000E+00 0.  1.
         24    2    1    2    0    0 -0.28550757574E+02 -0.32864303362E+01 -0.13939581583E+03  0.16372860027E+03  0.80931543249E+02 0.  0.
         25    2    1    2    0    0  0.51339923484E+02 -0.14290927972E+02  0.95401136495E+02  0.16609804185E+03  0.12508862577E+03 0.  0.
        -24    2    1    2    0    0 -0.22789165909E+02  0.17577358308E+02  0.15706341494E+04  0.15729188956E+04  0.79711424592E+02 0.  0.
        -11    1    3    3    0    0 -0.50182303521E+02  0.45261431890E+01 -0.12899636844E+03  0.13848759017E+03  0.00000000000E+00 0.  1.
         12    1    3    3    0    0  0.21631545946E+02 -0.78125735252E+01 -0.10399447391E+02  0.25241010106E+02  0.00000000000E+00 0. -1.
         11    1    5    5    0    0 -0.30350626417E+02 -0.47631785963E+01  0.14293130874E+04  0.14296432248E+04  0.00000000000E+00 0. -1.
        -12    1    5    5    0    0  0.75614605081E+01  0.22340536904E+02  0.14132106198E+03  0.14327567077E+03  0.00000000000E+00 0.  1.
          5    1    4    4  501    0 -0.12235812625E+02 -0.48854471193E+02  0.75638680949E+02  0.90967889510E+02  0.41800000000E+01 0.  1.
         -5    1    4    4    0  501  0.63575736109E+02  0.34563543221E+02  0.19762455546E+02  0.75130152342E+02  0.41800000000E+01 0.  1.
</event>
<event>
11    1  0.5813833E-009  0.1823931E+03  0.7561462E-02  0.1067723E+00
         22   -1    0    0    0    0  0.00000000000E+00  0.00000000000E+00  0.97721143862E+03  0.97721143862E+03  0.00000000000E+00 0.  1.
         22   -1    0    0    0    0 -0.00000000000E+00 -0.00000000000E+00 -0.10595894713E+04  0.10595894713E+04  0.00000000000E+00 0. -1.
        -24    2    1    2    0    0 -0.41147493226E+02  0.31704874417E+02 -0.87446176304E+03  0.87993857202E+03  0.83127614239E+02 0.  0.
         25    2    1    2    0    0  0.30640949140E+02 -0.16300583415E+03 -0.11445778912E+03  0.23718142610E+03  0.12507866991E+03 0.  0.
         24    2    1    2    0    0  0.10506544086E+02  0.13130095974E+03  0.90654151950E+03  0.91968091176E+03  0.81517626187E+02 0.  0.
        -13    1    5    5    0    0 -0.78562510941E+01  0.12672110440E+03  0.64023092838E+03  0.65269870586E+03  0.00000000000E+00 0.  1.
         14    1    5    5    0    0  0.18362795180E+02  0.45798553363E+01  0.26631059113E+03  0.26698220590E+03  0.00000000000E+00 0. -1.
         11    1    3    3    0    0 -0.19422057482E+02  0.30400591832E+02 -0.82630269036E+03  0.82708980673E+03  0.00000000000E+00 0. -1.
        -12    1    3    3    0    0 -0.21725435744E+02  0.13042825849E+01 -0.48159072686E+02  0.52848765296E+02  0.00000000000E+00 0.  1.
          5    1    4    4  501    0  0.10224979514E+02  0.86681465397E+01 -0.51119869153E+02  0.53013209605E+02  0.41800000000E+01 0.  1.
         -5    1    4    4    0  501  0.20415969626E+02 -0.17167398069E+03 -0.63337919963E+02  0.18416821650E+03  0.41800000000E+01 0.  1.
</event>
<event>
11    1  0.5813833E-009  0.1347213E+03  0.7561462E-02  0.1113600E+00
         22   -1    0    0    0    0  0.00000000000E+00  0.00000000000E+00  0.67893491389E+03  0.67893491389E+03  0.00000000000E+00 0.  1.
         22   -1    0    0    0    0 -0.00000000000E+00 -0.00000000000E+00 -0.12388135611E+04  0.12388135611E+04  0.00000000000E+00 0. -1.
         24    2    1    2    0    0 -0.22821342353E+02 -0.98644596779E+01 -0.11580591734E+04  0.11612056118E+04  0.81727000924E+02 0.  0.
         25    2    1    2    0    0  0.36121195797E+02  0.57331736261E+02 -0.86186858575E+01  0.14252761619E+03  0.12509264912E+03 0.  0.
        -24    2    1    2    0    0 -0.13299853443E+02 -0.47467276583E+02  0.60679921206E+03  0.61401524692E+03  0.79871216616E+02 0.  0.
        -11    1    3    3    0    0  0.87055299400E+01  0.17739405451E+01 -0.13548797674E+02  0.16201945408E+02  0.00000000000E+00 0.  1.
         12    1    3    3    0    0 -0.31526872293E+02 -0.11638400223E+02 -0.11445103757E+04  0.11450036664E+04  0.00000000000E+00 0. -1.
         11    1    5    5    0    0 -0.30742689747E+02 -0.16345780805E+02  0.98630976820E+02  0.10459620983E+03  0.00000000000E+00 0. -1.
        -12    1    5    5    0    0  0.17442836304E+02 -0.31121495778E+02  0.50816823524E+03  0.50941903709E+03  0.00000000000E+00 0.  1.
          5    1    4    4  501    0  0.68575217876E+02  0.65205203691E+02  0.21762581685E+02  0.97187249456E+02  0.41800000000E+01 0. -1.
         -5    1    4    4    0  501 -0.32454022080E+02 -0.78734674300E+01 -0.30381267542E+02  0.45340366739E+02  0.41800000000E+01 0. -1.
</event>
<event>
11    1  0.5813833E-009  0.2109844E+03  0.7561462E-02  0.1047017E+00
         22   -1    0    0    0    0  0.00000000000E+00  0.00000000000E+00  0.71196537590E+02  0.71196537590E+02  0.00000000000E+00 0.  1.
         22   -1    0    0    0    0 -0.00000000000E+00 -0.00000000000E+00 -0.16994388610E+04  0.16994388610E+04  0.00000000000E+00 0. -1.
        -24    2    1    2    0    0  0.18991859423E+03 -0.51035431893E+01 -0.12719604089E+04  0.12887485463E+04  0.83032614645E+02 0.  0.
         25    2    1    2    0    0 -0.11885830570E+03  0.51613795327E+01 -0.32863333002E+03  0.37121615644E+03  0.12509049738E+03 0.  0.
         24    2    1    2    0    0 -0.71060288533E+02 -0.57836343447E-01 -0.27648584453E+02  0.11067069585E+03  0.80212160834E+02 0.  0.
        -11    1    5    5    0    0 -0.20889406194E+02  0.37416985292E+02 -0.17036275228E+01  0.42887065955E+02  0.00000000000E+00 0.  1.
         12    1    5    5    0    0 -0.50170882339E+02 -0.37474821635E+02 -0.25944956931E+02  0.67783629893E+02  0.00000000000E+00 0. -1.
         13    1    3    3    0    0  0.11612772992E+03 -0.43679583127E+02 -0.75800653177E+03  0.76809339135E+03  0.00000000000E+00 0. -1.
        -14    1    3    3    0    0  0.73790864312E+02  0.38576039938E+02 -0.51395387716E+03  0.52065515493E+03  0.00000000000E+00 0.  1.
          5    1    4    4  501    0 -0.78867698235E+02 -0.41827914449E+02 -0.98872695803E+02  0.13327779495E+03  0.41800000000E+01 0.  1.
         -5    1    4    4    0  501 -0.39990607461E+02  0.46989293982E+02 -0.22976063421E+03  0.23793836149E+03  0.41800000000E+01 0.  1.
</event>
<event>
11    1  0.5813833E-009  0.1332628E+03  0.7561462E-02  0.1115324E+00
         22   -1    0    0    0    0  0.00000000000E+00  0.00000000000E+00  0.17822742928E+04  0.17822742928E+04  0.00000000000E+00 0.  1.
         22   -1    0    0    0    0 -0.00000000000E+00 -0.00000000000E+00 -0.16472687918E+04  0.16472687918E+04  0.00000000000E+00 0. -1.
        -24    2    1    2    0    0 -0.84365216301E+01  0.29932428259E+02 -0.16336535071E+04  0.16361813665E+04  0.85431595967E+02 0.  0.
         25    2    1    2    0    0 -0.26347012119E+02  0.50183143089E+01  0.36780673872E+03  0.38942076920E+03  0.12508952759E+03 0.  0.
         24    2    1    2    0    0  0.34783533749E+02 -0.34950742568E+02  0.14008522694E+04  0.14039409489E+04  0.78940855277E+02 0.  0.
        -13    1    5    5    0    0 -0.18144495119E+02 -0.35615433530E+02  0.64538360322E+03  0.64662019541E+03  0.00000000000E+00 0.  1.
         14    1    5    5    0    0  0.52928028868E+02  0.66469096211E+00  0.75546866619E+03  0.75732075348E+03  0.00000000000E+00 0. -1.
         13    1    3    3    0    0 -0.36024846083E+02 -0.91301959262E+01 -0.10159084638E+04  0.10165879976E+04  0.00000000000E+00 0. -1.
        -14    1    3    3    0    0  0.27588324453E+02  0.39062624185E+02 -0.61774504338E+03  0.61959336897E+03  0.00000000000E+00 0.  1.
          5    1    4    4  501    0 -0.48739455450E+02  0.80976159120E+01  0.48743598360E+02  0.69530688779E+02  0.41800000000E+01 0.  1.
         -5    1    4    4    0  501  0.22392443331E+02 -0.30793016031E+01  0.31906314036E+03  0.31989008043E+03  0.41800000000E+01 0.  1.
</event>
<event>
11    1  0.5813833E-009  0.2013150E+03  0.7561462E-02  0.1053598E+00
         22   -1    0    0    0    0  0.00000000000E+00  0.00000000000E+00  0.20962494862E+03  0.20962494862E+03  0.00000000000E+00 0.  1.
         22   -1    0    0    0    0 -0.00000000000E+00 -0.00000000000E+00 -0.24406796494E+04  0.24406796494E+04  0.00000000000E+00 0. -1.
         24    2    1    2    0    0  0.16335327042E+03  0.12186824448E+02 -0.19600344194E+04  0.19685171757E+04  0.80573792148E+02 0.  0.
         25    2    1    2    0    0 -0.12645950247E+03 -0.53085840143E+02 -0.44574173050E+03  0.48284878389E+03  0.12508855104E+03 0.  0.
        -24    2    1    2    0    0 -0.36893767947E+02  0.40899015695E+02  0.17472144908E+03  0.19893863851E+03  0.77557188725E+02 0.  0.
        -13    1    3    3    0    0  0.85602077113E+02 -0.58997360392E+01 -0.59553398892E+03  0.60168368305E+03  0.00000000000E+00 0.  1.
         14    1    3    3    0    0  0.77751193306E+02  0.18086560487E+02 -0.13645004305E+04  0.13668334926E+04  0.00000000000E+00 0. -1.
         13    1    5    5    0    0 -0.44683450191E+02  0.29420756848E+02  0.49295034922E+02  0.72747454405E+02  0.00000000000E+00 0. -1.
        -14    1    5    5    0    0  0.77896822437E+01  0.11478258847E+02  0.12542641416E+03  0.12619118410E+03  0.00000000000E+00 0.  1.
          5    1    4    4  501    0 -0.75020326346E+02 -0.12096704131E+02 -0.38747955820E+03  0.39488259019E+03  0.41800000000E+01 0. -1.
         -5    1    4    4    0  501 -0.51439176126E+02 -0.40989136012E+02 -0.58262172302E+02  0.87966193693E+02  0.41800000000E+01 0. -1.
</event>
<event>
11    1  0.5813833E-009  0.2180275E+03  0.7561462E-02  0.1042460E+00
         22   -1    0    0    0    0  0.00000000000E+00  0.00000000000E+00  0.21489132453E+03  0.21489132453E+03  0.00000000000E+00 0.  1.
         22   -1    0    0    0    0 -0.00000000000E+00 -0.00000000000E+00 -0.70033983657E+03  0.70033983657E+03  0.00000000000E+00 0.  1.
        -24    2    1    2    0    0 -0.85972928741E+02  0.17871276098E+03 -0.36967217063E+03  0.42748342430E+03  0.82188617857E+02 0.  0.
         25    2    1    2    0    0  0.82321007069E+02 -0.13190117563E+03 -0.25283535914E+03  0.32209935941E+03  0.12509040796E+03 0.  0.
         24    2    1    2    0    0  0.36519216716E+01 -0.46811585345E+02  0.13705901773E+03  0.16564837739E+03  0.80309087506E+02 0.  0.
        -13    1    5    5    0    0  0.21589404752E+02 -0.52849566740E+02  0.47958896952E+02  0.74560276951E+02  0.00000000000E+00 0.  1.
         14    1    5    5    0    0 -0.17937483081E+02  0.60379813956E+01  0.89100120780E+02  0.91088100439E+02  0.00000000000E+00 0. -1.
         11    1    3    3    0    0 -0.66964729758E+02  0.56040788252E+02 -0.18993013771E+03  0.20904138870E+03  0.00000000000E+00 0. -1.
        -12    1    3    3    0    0 -0.19008198983E+02  0.12267197272E+03 -0.17974203292E+03  0.21844203560E+03  0.00000000000E+00 0.  1.
          5    1    4    4  501    0 -0.51294172041E+01 -0.53041798330E+02 -0.13194929634E+02  0.55057441450E+02  0.41800000000E+01 0. -1.
         -5    1    4    4    0  501  0.87450424273E+02 -0.78859377301E+02 -0.23964042950E+03  0.26704191796E+03  0.41800000000E+01 0. -1.
</event>
<event>
11    1  0.5813833E-009  0.1499933E+03  0.7561462E-02  0.1096886E+00
         22   -1    0    0    0    0  0.00000000000E+00  0.00000000000E+00  0.36584928857E+03  0.36584928857E+03  0.00000000000E+00 0.  1.
         22   -1    0    0    0    0 -0.00000000000E+00 -0.00000000000E+00 -0.79488413829E+03  0.79488413829E+03  0.00000000000E+00 0.  1.
        -24    2    1    2    0    0  0.84157149413E+02  0.12517768468E+02 -0.71305455858E+03  0.72246284100E+03  0.79162066561E+02 0.  0.
         25    2    1    2    0    0 -0.49976207821E+02 -0.10181568603E+02 -0.58247338258E+01  0.13521325673E+03  0.12508961421E+03 0.  0.
         24    2    1    2    0    0 -0.34180941591E+02 -0.23361998651E+01  0.28984444269E+03  0.30305732913E+03  0.81609737078E+02 0.  0.
        -13    1    5    5    0    0 -0.15304390012E+02 -0.15708456533E+02  0.27432587763E+03  0.27520113935E+03  0.00000000000E+00 0.  1.
         14    1    5    5    0    0 -0.18876551579E+02  0.13372256668E+02  0.15518565057E+02  0.27856189785E+02  0.00000000000E+00 0. -1.
         11    1    3    3    0    0 -0.40312322907E+01 -0.15810493724E+02 -0.42210269701E+02  0.45254054115E+02  0.00000000000E+00 0. -1.
        -12    1    3    3    0    0  0.88188381704E+02  0.28328262192E+02 -0.67084428888E+03  0.67720878688E+03  0.00000000000E+00 0.  1.
          5    1    4    4  501    0 -0.97299460746E+01 -0.32130681467E+02 -0.57060572492E+02  0.66335766184E+02  0.41800000000E+01 0.  1.
         -5    1    4    4    0  501 -0.40246261747E+02  0.21949112865E+02  0.51235838666E+02  0.68877490546E+02  0.41800000000E+01 0.  1.
</event>
<event>
11    1  0.5813833E-009  0.1483603E+03  0.7561462E-02  0.1098566E+00
         22   -1    0    0    0    0  0.00000000000E+00  0.00000000000E+00  0.63340241074E+03  0.63340241074E+03  0.00000000000E+00 0. -1.
         22   -1    0    0    0    0 -0.00000000000E+00 -0.00000000000E+00 -0.92065428510E+03  0.92065428510E+03  0.00000000000E+00 0.  1.
        -24    2    1    2    0    0 -0.94286078436E+01 -0.97014247699E+01 -0.80323852841E+03  0.80991361031E+03  0.10288297410E+03 0.  0.
         25    2    1    2    0    0 -0.96602892076E+00 -0.69918742013E+02 -0.61259488502E+02  0.15585088738E+03  0.12508881032E+03 0.  0.
         24    2    1    2    0    0  0.10394636764E+02  0.79620166783E+02  0.57724614255E+03  0.58829219815E+03  0.80169706733E+02 0.  0.
        -11    1    5    5    0    0 -0.76115373348E+01  0.71981664743E+02  0.24494788057E+03  0.25541879288E+03  0.00000000000E+00 0.  1.
         12    1    5    5    0    0  0.18006174099E+02  0.76385020404E+01  0.33229826198E+03  0.33287340527E+03  0.00000000000E+00 0. -1.
         13    1    3    3    0    0  0.31721085101E+02 -0.30192146136E+02 -0.59747024658E+03  0.59907302432E+03  0.00000000000E+00 0. -1.
        -14    1    3    3    0    0 -0.41149692944E+02  0.20490721366E+02 -0.20576828183E+03  0.21084058599E+03  0.00000000000E+00 0.  1.
          5    1    4    4  501    0 -0.12856583030E+02  0.33004885635E+02 -0.50303992758E+00  0.35669870369E+02  0.41800000000E+01 0. -1.
         -5    1    4    4    0  501  0.11890554109E+02 -0.10292362765E+03 -0.60756448574E+02  0.12018101701E+03  0.41800000000E+01 0. -1.
</event>
<event>
11    1  0.5813833E-009  0.1586347E+03  0.7561462E-02  0.1088369E+00
         22   -1    0    0    0    0  0.00000000000E+00  0.00000000000E+00  0.23735911986E+03  0.23735911986E+03  0.00000000000E+00 0. -1.
         22   -1    0    0    0    0 -0.00000000000E+00 -0.00000000000E+00 -0.55446170647E+03  0.55446170647E+03  0.00000000000E+00 0.  1.
         24    2    1    2    0    0  0.15010078961E+02 -0.32222369568E+02 -0.21183169248E+03  0.22930934766E+03  0.80290269736E+02 0.  0.
         25    2    1    2    0    0 -0.51837478008E+02 -0.59609444156E+02 -0.29731748026E+03  0.33209346648E+03  0.12509187204E+03 0.  0.
        -24    2    1    2    0    0  0.36827399047E+02  0.91831813724E+02  0.19204658613E+03  0.23041801219E+03  0.80132576178E+02 0.  0.
        -11    1    3    3    0    0  0.18145353894E+02  0.42070792153E+01 -0.17961102150E+03  0.18057428507E+03  0.00000000000E+00 0.  1.
         12    1    3    3    0    0 -0.31352749328E+01 -0.36429448783E+02 -0.32220670982E+02  0.48735062594E+02  0.00000000000E+00 0. -1.
         11    1    5    5    0    0  0.33582582195E+02  0.97870947231E+02  0.12171507098E+03  0.15975315535E+03  0.00000000000E+00 0. -1.
        -12    1    5    5    0    0  0.32448168516E+01 -0.60391335069E+01  0.70331515143E+02  0.70664856840E+02  0.00000000000E+00 0.  1.
          5    1    4    4  501    0 -0.24109261749E+02  0.97969818028E+00 -0.24770947353E+03  0.24891699819E+03  0.41800000000E+01 0. -1.
         -5    1    4    4    0  501 -0.27728216259E+02 -0.60589142336E+02 -0.49608006737E+02  0.83176468297E+02  0.41800000000E+01 0. -1.
</event>
<event>
11    1  0.5813833E-009  0.1439264E+03  0.7561462E-02  0.1103251E+00
         22   -1    0    0    0    0  0.00000000000E+00  0.00000000000E+00  0.62053540064E+02  0.62053540064E+02  0.00000000000E+00 0. -1.
         22   -1    0    0    0    0 -0.00000000000E+00 -0.00000000000E+00 -0.13028527254E+04  0.13028527254E+04  0.00000000000E+00 0.  1.
        -24    2    1    2    0    0  0.20120103291E+01  0.75795960641E+02 -0.77705744546E+03  0.78652827494E+03  0.95180764341E+02 0.  0.
         25    2    1    2    0    0 -0.25545956380E+02 -0.59185854399E+02 -0.47194228791E+03  0.49247642359E+03  0.12509174002E+03 0.  0.
         24    2    1    2    0    0  0.23533946051E+02 -0.16610106242E+02  0.82005480625E+01  0.85901566910E+02  0.80511415110E+02 0.  0.
        -13    1    5    5    0    0  0.38959315358E+01  0.11050120507E+02 -0.31543328619E+02  0.33649145994E+02  0.00000000000E+00 0.  1.
         14    1    5    5    0    0  0.19638014515E+02 -0.27660226749E+02  0.39743876682E+02  0.52252420916E+02  0.00000000000E+00 0. -1.
         13    1    3    3    0    0 -0.29056166861E+02 -0.68373981279E+01 -0.29025063535E+03  0.29178149730E+03  0.00000000000E+00 0. -1.
        -14    1    3    3    0    0  0.31068177191E+02  0.82633358769E+02 -0.48680681011E+03  0.49474677764E+03  0.00000000000E+00 0.  1.
          5    1    4    4  501    0 -0.32811589313E+02 -0.94461894418E+02 -0.28533422313E+03  0.30237847341E+03  0.41800000000E+01 0. -1.
         -5    1    4    4    0  501  0.72656329328E+01  0.35276040019E+02 -0.18660806478E+03  0.19009795018E+03  0.41800000000E+01 0. -1.
</event>
<event>
11    1  0.5813833E-009  0.1367714E+03  0.7561462E-02  0.1111218E+00
         22   -1    0    0    0    0  0.00000000000E+00  0.00000000000E+00  0.29261564472E+04  0.29261564472E+04  0.00000000000E+00 0. -1.
         22   -1    0    0    0    0 -0.00000000000E+00 -0.00000000000E+00 -0.62054620873E+02  0.62054620873E+02  0.00000000000E+00 0.  1.
        -24    2    1    2    0    0 -0.50433732801E+02 -0.11412504085E+02  0.97281979126E+01  0.96862310106E+02  0.81325657886E+02 0.  0.
         25    2    1    2    0    0  0.67260064326E+02  0.44050850785E+02  0.29402326526E+03  0.32948656992E+03  0.12508927026E+03 0.  0.
         24    2    1    2    0    0 -0.16826331525E+02 -0.32638346700E+02  0.25603503632E+04  0.25618621881E+04  0.79971878382E+02 0.  0.
        -11    1    5    5    0    0  0.11669128406E+02  0.16383642243E+02  0.13838868700E+04  0.13840330419E+04  0.00000000000E+00 0.  1.
         12    1    5    5    0    0 -0.28495459931E+02 -0.49021988943E+02  0.11764634932E+04  0.11778291462E+04  0.00000000000E+00 0. -1.
         11    1    3    3    0    0  0.67771756152E+01  0.20105609247E+02  0.21819336602E+02  0.30434340510E+02  0.00000000000E+00 0. -1.
        -12    1    3    3    0    0 -0.57210908416E+02 -0.31518113332E+02 -0.12091138690E+02  0.66427969596E+02  0.00000000000E+00 0.  1.
          5    1    4    4  501    0  0.59922705641E+01  0.70779309393E+02  0.21182886540E+03  0.22346041833E+03  0.41800000000E+01 0.  1.
         -5    1    4    4    0  501  0.61267793762E+02 -0.26728458608E+02  0.82194399861E+02  0.10602615159E+03  0.41800000000E+01 0.  1.
</event>
<event>
11    1  0.5813833E-009  0.1697512E+03  0.7561462E-02  0.1078248E+00
         22   -1    0    0    0    0  0.00000000000E+00  0.00000000000E+00  0.73743268531E+03  0.73743268531E+03  0.00000000000E+00 0.  1.
         22   -1    0    0    0    0 -0.00000000000E+00 -0.00000000000E+00 -0.22731887136E+03  0.22731887136E+03  0.00000000000E+00 0. -1.
         24    2    1    2    0    0  0.32334908968E+01  0.33289779159E+01 -0.12672249475E+03  0.14962534960E+03  0.79420507486E+02 0.  0.
         25    2    1    2    0    0  0.72402352566E+02  0.83500983926E+02  0.38879866712E+01  0.16696048078E+03  0.12508465425E+03 0.  0.
        -24    2    1    2    0    0 -0.75635843463E+02 -0.86829961842E+02  0.63294832202E+03  0.64816572630E+03  0.78962062465E+02 0.  0.
        -11    1    3    3    0    0  0.12401058260E+02  0.65602699877E+01  0.69107032492E+01  0.15639092291E+02  0.00000000000E+00 0.  1.
         12    1    3    3    0    0 -0.91675673634E+01 -0.32312920718E+01 -0.13363319800E+03  0.13398625730E+03  0.00000000000E+00 0. -1.
         13    1    5    5    0    0 -0.16024562984E+02  0.59862499359E+01  0.22237119561E+03  0.22302818307E+03  0.00000000000E+00 0. -1.
        -14    1    5    5    0    0 -0.59611280478E+02 -0.92816211778E+02  0.41057712641E+03  0.42513754323E+03  0.00000000000E+00 0.  1.
          5    1    4    4  501    0  0.84182504702E+02  0.12202133663E+02  0.29571523812E+02  0.90152834589E+02  0.41800000000E+01 0. -1.
         -5    1    4    4    0  501 -0.11780152136E+02  0.71298850263E+02 -0.25683537141E+02  0.76807646190E+02  0.41800000000E+01 0. -1.
</event>
<event>
11    1  0.5813833E-009  0.1350030E+03  0.7561462E-02  0.1113270E+00
         22   -1    0    0    0    0  0.00000000000E+00  0.00000000000E+00  0.22800225934E+03  0.22800225934E+03  0.00000000000E+00 0. -1.
         22   -1    0    0    0    0 -0.00000000000E+00 -0.00000000000E+00 -0.21508599606E+04  0.21508599606E+04  0.00000000000E+00 0. -1.
        -24    2    1    2    0    0  0.48864666220E+02 -0.15230288450E+02 -0.20799241393E+04  0.20821018558E+04  0.80274501362E+02 0.  0.
         25    2    1    2    0    0 -0.29828858951E+02 -0.18189128041E+02  0.17252613907E+02  0.13101796158E+03  0.12508976123E+03 0.  0.
         24    2    1    2    0    0 -0.19035807269E+02  0.33419416491E+02  0.13981382415E+03  0.16574240250E+03  0.80270911329E+02 0.  0.
        -13    1    5    5    0    0 -0.30131671398E+02  0.54482865970E+02  0.80052416182E+02  0.10141345888E+03  0.00000000000E+00 0.  1.
         14    1    5    5    0    0  0.11095864130E+02 -0.21063449478E+02  0.59761407969E+02  0.64328943620E+02  0.00000000000E+00 0. -1.
         11    1    3    3    0    0 -0.90791394897E+01 -0.32502146878E+02 -0.89517261304E+03  0.89580847700E+03  0.00000000000E+00 0. -1.
        -12    1    3    3    0    0  0.57943805710E+02  0.17271858428E+02 -0.11847515263E+04  0.11862933788E+04  0.00000000000E+00 0.  1.
          5    1    4    4  501    0 -0.61838953982E+01 -0.50077966130E+02  0.55924718002E+02  0.75439311619E+02  0.41800000000E+01 0.  1.
         -5    1    4    4    0  501 -0.23644963553E+02  0.31888838088E+02 -0.38672104095E+02  0.55578649958E+02  0.41800000000E+01 0.  1.
</event>
<event>
11    1  0.5813833E-009  0.2702547E+03  0.7561462E-02  0.1013630E+00
         22   -1    0    0    0    0  0.00000000000E+00  0.00000000000E+00  0.53822763116E+03  0.53822763116E+03  0.00000000000E+00 0.  1.
         22   -1    0    0    0    0 -0.00000000000E+00 -0.00000000000E+00 -0.64650483504E+03  0.64650483504E+03  0.00000000000E+00 0.  1.
        -24    2    1    2    0    0 -0.23481323238E+03 -0.72646384803E+01 -0.49019598366E+03  0.55032787992E+03  0.85899033487E+02 0.  0.
         25    2    1    2    0    0  0.26947169327E+03 -0.39180622275E+02  0.70921268927E+02  0.30794060644E+03  0.12508987200E+03 0.  0.
         24    2    1    2    0    0 -0.34658460885E+02  0.46445260756E+02  0.31099751085E+03  0.32646397984E+03  0.80628203634E+02 0.  0.
        -11    1    5    5    0    0 -0.44316584756E+02 -0.26069705273E+01  0.19775854097E+03  0.20268003480E+03  0.00000000000E+00 0.  1.
         12    1    5    5    0    0  0.96581238708E+01  0.49052231283E+02  0.11323896988E+03  0.12378394504E+03  0.00000000000E+00 0. -1.
         11    1    3    3    0    0 -0.17954644309E+03  0.31725666182E+02 -0.34830233757E+03  0.39313860339E+03  0.00000000000E+00 0. -1.
        -12    1    3    3    0    0 -0.55266789287E+02 -0.38990304662E+02 -0.14189364609E+03  0.15718927653E+03  0.00000000000E+00 0.  1.
          5    1    4    4  501    0  0.10236732090E+03  0.43671794371E+02  0.42592400963E+02  0.11923874803E+03  0.41800000000E+01 0.  1.
         -5    1    4    4    0  501  0.16710437237E+03 -0.82852416647E+02  0.28328867964E+02  0.18870185842E+03  0.41800000000E+01 0.  1.
</event>
<event>
11    1  0.5813833E-009  0.1301430E+03  0.7561462E-02  0.1119093E+00
         22   -1    0    0    0    0  0.00000000000E+00  0.00000000000E+00  0.15228126307E+04  0.15228126307E+04  0.00000000000E+00 0. -1.
         22   -1    0    0    0    0 -0.00000000000E+00 -0.00000000000E+00 -0.10899067771E+03  0.10899067771E+03  0.00000000000E+00 0. -1.
        -24    2    1    2    0    0  0.19558899741E+02  0.61080352140E+01 -0.75531584671E+02  0.11418806333E+03  0.83150675711E+02 0.  0.
         25    2    1    2    0    0  0.52483179068E+01 -0.33378682432E+02  0.32476806175E+03  0.34966278376E+03  0.12509231445E+03 0.  0.
         24    2    1    2    0    0 -0.24807217647E+02  0.27270647218E+02  0.11645854759E+04  0.11679524613E+04  0.80588677654E+02 0.  0.
        -13    1    5    5    0    0 -0.21210520678E+02  0.28806114941E+02  0.18879702191E+03  0.19215617067E+03  0.00000000000E+00 0.  1.
         14    1    5    5    0    0 -0.35966969698E+01 -0.15354677229E+01  0.97578845402E+03  0.97579629067E+03  0.00000000000E+00 0. -1.
         11    1    3    3    0    0  0.57379460895E+01  0.56233658016E+00 -0.91887486806E+02  0.92068183860E+02  0.00000000000E+00 0. -1.
        -12    1    3    3    0    0  0.13820953651E+02  0.55456986338E+01  0.16355902135E+02  0.22119879471E+02  0.00000000000E+00 0.  1.
          5    1    4    4  501    0 -0.33729988996E+02 -0.63894179951E+02  0.13136654651E+03  0.14998273344E+03  0.41800000000E+01 0.  1.
         -5    1    4    4    0  501  0.38978306903E+02  0.30515497519E+02  0.19340151524E+03  0.19968005032E+03  0.41800000000E+01 0.  1.
</event>
<event>
11    1  0.5813833E-009  0.1581712E+03  0.7561462E-02  0.1088810E+00
         22   -1    0    0    0    0  0.00000000000E+00  0.00000000000E+00  0.23781632548E+03  0.23781632548E+03  0.00000000000E+00 0.  1.
         22   -1    0    0    0    0 -0.00000000000E+00 -0.00000000000E+00 -0.20791095403E+04  0.20791095403E+04  0.00000000000E+00 0. -1.
         24    2    1    2    0    0 -0.15159973120E+02  0.63188125012E+02 -0.13970849140E+04  0.14008380223E+04  0.79236000401E+02 0.  0.
         25    2    1    2    0    0  0.10778478308E+03 -0.88354317945E+02 -0.64924958320E+03  0.67571897260E+03  0.12508822357E+03 0.  0.
        -24    2    1    2    0    0 -0.92624809964E+02  0.25166192933E+02  0.20504128245E+03  0.24036887086E+03  0.80762453414E+02 0.  0.
        -11    1    3    3    0    0 -0.10977987479E+02  0.36858441865E+02 -0.21243347090E+03  0.21588663809E+03  0.00000000000E+00 0.  1.
         12    1    3    3    0    0 -0.41819856408E+01  0.26329683148E+02 -0.11846514431E+04  0.11849513842E+04  0.00000000000E+00 0. -1.
         13    1    5    5    0    0 -0.36705500970E+02  0.89523768996E+01  0.13414305849E+02  0.40092174486E+02  0.00000000000E+00 0. -1.
        -14    1    5    5    0    0 -0.55919308994E+02  0.16213816033E+02  0.19162697660E+03  0.20027669637E+03  0.00000000000E+00 0.  1.
          5    1    4    4  501    0  0.11001712749E+01 -0.80068374357E+02 -0.27734690194E+03  0.28870561367E+03  0.41800000000E+01 0. -1.
         -5    1    4    4    0  501  0.10668461181E+03 -0.82859435880E+01 -0.37190268126E+03  0.38701335893E+03  0.41800000000E+01 0. -1.
</event>
<event>
11    1  0.5813833E-009  0.1597295E+03  0.7561462E-02  0.1087332E+00
         22   -1    0    0    0    0  0.00000000000E+00  0.00000000000E+00  0.16244705206E+03  0.16244705206E+03  0.00000000000E+00 0.  1.
         22   -1    0    0    0    0 -0.00000000000E+00 -0.00000000000E+00 -0.20885097004E+04  0.20885097004E+04  0.00000000000E+00 0.  1.
        -24    2    1    2    0    0  0.52260812173E+02  0.44782902488E+02 -0.16331468801E+04  0.16365675475E+04  0.80298847929E+02 0.  0.
         25    2    1    2    0    0 -0.73429033292E+01 -0.13215827407E+03 -0.40558574630E+03  0.44459539130E+03  0.12508211995E+03 0.  0.
         24    2    1    2    0    0 -0.44917908844E+02  0.87375371585E+02  0.11266997799E+03  0.16979381364E+03  0.80519197185E+02 0.  0.
        -11    1    5    5    0    0 -0.69514950896E+01  0.40540593248E+01  0.66983582476E+02  0.67465242921E+02  0.00000000000E+00 0.  1.
         12    1    5    5    0    0 -0.37966413754E+02  0.83321312260E+02  0.45686395511E+02  0.10232857072E+03  0.00000000000E+00 0. -1.
         11    1    3    3    0    0  0.94041503392E+01 -0.23050708576E+02 -0.31612934071E+03  0.31710807821E+03  0.00000000000E+00 0. -1.
        -12    1    3    3    0    0  0.42856661834E+02  0.67833611065E+02 -0.13170175394E+04  0.13194594693E+04  0.00000000000E+00 0.  1.
          5    1    4    4  501    0 -0.10855275135E+02 -0.17072581437E+02  0.22656635382E+01  0.20782580842E+02  0.41800000000E+01 0. -1.
         -5    1    4    4    0  501  0.35123718053E+01 -0.11508569264E+03 -0.40785140984E+03  0.42381281046E+03  0.41800000000E+01 0. -1.
</event>
<event>
11    1  0.5813833E-009  0.1788211E+03  0.7561462E-02  0.1070600E+00
         22   -1    0    0    0    0  0.00000000000E+00  0.00000000000E+00  0.40020254974E+04  0.40020254974E+04  0.00000000000E+00 0.  1.
         22   -1    0    0    0    0 -0.00000000000E+00 -0.00000000000E+00 -0.10947452586E+03  0.10947452586E+03  0.00000000000E+00 0.  1.
        -24    2    1    2    0    0  0.12193376980E+03  0.28751217232E+02 -0.41577975914E+02  0.15598845057E+03  0.83121549065E+02 0.  0.
         25    2    1    2    0    0 -0.20837649977E+03  0.14796349219E+02  0.16335313017E+04  0.16515783090E+04  0.12508676745E+03 0.  0.
         24    2    1    2    0    0  0.86442729967E+02 -0.43547566450E+02  0.23005976457E+04  0.23039332637E+04  0.77396511504E+02 0.  0.
        -11    1    5    5    0    0  0.93003215707E+02 -0.16841009393E+02  0.15930145194E+04  0.15958159282E+04  0.00000000000E+00 0.  1.
         12    1    5    5    0    0 -0.65604857406E+01 -0.26706557058E+02  0.70758312627E+03  0.70811733544E+03  0.00000000000E+00 0. -1.
         11    1    3    3    0    0 -0.91283390699E+01 -0.11433933675E+01 -0.17003121811E+02  0.19332358208E+02  0.00000000000E+00 0. -1.
        -12    1    3    3    0    0  0.13106210887E+03  0.29894610599E+02 -0.24574854103E+02  0.13665609236E+03  0.00000000000E+00 0.  1.
          5    1    4    4  501    0 -0.67133797989E+02 -0.65605048955E+01  0.20360512906E+03  0.21452857161E+03  0.41800000000E+01 0.  1.
         -5    1    4    4    0  501 -0.14124270178E+03  0.21356854114E+02  0.14299261727E+04  0.14370497374E+04  0.41800000000E+01 0.  1.
</event>
<event>
11    1  0.5813833E-009  0.3625429E+03  0.7561462E-02  0.9767238E-01
         22   -1    0    0    0    0  0.00000000000E+00  0.00000000000E+00  0.34164409427E+03  0.34164409427E+03  0.00000000000E+00 0. -1.
         22   -1    0    0    0    0 -0.00000000000E+00 -0.00000000000E+00 -0.85505408613E+03  0.85505408613E+03  0.00000000000E+00 0. -1.
         24    2    1    2    0    0 -0.32526161158E+03 -0.52306692270E+02 -0.51159183337E+03  0.61378671322E+03  0.80478688623E+02 0.  0.
         25    2    1    2    0    0  0.35945515531E+03  0.89336607502E+02 -0.14008671325E+03  0.41528408115E+03  0.12509013835E+03 0.  0.
        -24    2    1    2    0    0 -0.34193543724E+02 -0.37029915232E+02  0.13826855476E+03  0.16762738603E+03  0.80251693173E+02 0.  0.
        -13    1    3    3    0    0 -0.57331952230E+02  0.94308559206E+01 -0.13962468674E+03  0.15123143501E+03  0.00000000000E+00 0.  1.
         14    1    3    3    0    0 -0.26792965936E+03 -0.61737548191E+02 -0.37196714664E+03  0.46255527821E+03  0.00000000000E+00 0. -1.
         13    1    5    5    0    0  0.22139155105E+02  0.24292131495E+01  0.56789752814E+02  0.61000977778E+02  0.00000000000E+00 0. -1.
        -14    1    5    5    0    0 -0.56332698829E+02 -0.39459128382E+02  0.81478801950E+02  0.10662640825E+03  0.00000000000E+00 0.  1.
          5    1    4    4  501    0 -0.68073368243E+01  0.11393736203E+02  0.32721503167E+01  0.14294629306E+02  0.41800000000E+01 0. -1.
         -5    1    4    4    0  501  0.36626249213E+03  0.77942871300E+02 -0.14335886356E+03  0.40098945185E+03  0.41800000000E+01 0. -1.
</event>
<event>
11    1  0.5813833E-009  0.1441968E+03  0.7561462E-02  0.1102960E+00
         22   -1    0    0    0    0  0.00000000000E+00  0.00000000000E+00  0.20121971694E+03  0.20121971694E+03  0.00000000000E+00 0.  1.
         22   -1    0    0    0    0 -0.00000000000E+00 -0.00000000000E+00 -0.10769645206E+04  0.10769645206E+04  0.00000000000E+00 0. -1.
        -24    2    1    2    0    0 -0.29921015418E+02 -0.35149429901E+01 -0.88478951407E+03  0.88907382930E+03  0.81805670692E+02 0.  0.
         25    2    1    2    0    0  0.95716028336E+02  0.24353939858E+02 -0.13580048404E+03  0.20938843292E+03  0.12508825648E+03 0.  0.
         24    2    1    2    0    0 -0.65795012918E+02 -0.20838996868E+02  0.14484519443E+03  0.17972197533E+03  0.80972900103E+02 0.  0.
        -13    1    5    5    0    0 -0.60624017051E+02  0.15247390504E+02  0.12090350632E+03  0.13610809014E+03  0.00000000000E+00 0.  1.
         14    1    5    5    0    0 -0.51709958668E+01 -0.36086387372E+02  0.23941688110E+02  0.43613885190E+02  0.00000000000E+00 0. -1.
         11    1    3    3    0    0 -0.32130752902E+02 -0.15752216454E+02 -0.86474677416E+03  0.86548685780E+03  0.00000000000E+00 0. -1.
        -12    1    3    3    0    0  0.22097374840E+01  0.12237273464E+02 -0.20042739907E+02  0.23586971500E+02  0.00000000000E+00 0.  1.
          5    1    4    4  501    0  0.23447792373E+02 -0.43100239193E+02 -0.84827953908E+02  0.98085084238E+02  0.41800000000E+01 0. -1.
         -5    1    4    4    0  501  0.72268235963E+02  0.67454179052E+02 -0.50972530132E+02  0.11130334869E+03  0.41800000000E+01 0. -1.
</event>
<event>
11    1  0.5813833E-009  0.1397525E+03  0.7561462E-02  0.1107835E+00
         22   -1    0    0    0    0  0.00000000000E+00  0.00000000000E+00  0.40850348610E+03  0.40850348610E+03  0.00000000000E+00 0.  1.
         22   -1    0    0    0    0 -0.00000000000E+00 -0.00000000000E+00 -0.15439858055E+04  0.15439858055E+04  0.00000000000E+00 0. -1.
        -24    2    1    2    0    0 -0.32973293795E+02  0.93810538669E+01 -0.14069944615E+04  0.14100578615E+04  0.86339538130E+02 0.  0.
         25    2    1    2    0    0  0.39359962491E+02 -0.70669791207E+02 -0.85024960375E+02  0.17152164786E+03  0.12508799208E+03 0.  0.
         24    2    1    2    0    0 -0.63866686968E+01  0.61288737340E+02  0.35653710247E+03  0.37090978223E+03  0.81598175593E+02 0.  0.
        -11    1    5    5    0    0  0.19698149872E+02  0.61601766234E+02  0.31708173244E+03  0.32361028994E+03  0.00000000000E+00 0.  1.
         12    1    5    5    0    0 -0.26084818569E+02 -0.31302889463E+00  0.39455370030E+02  0.47299492292E+02  0.00000000000E+00 0. -1.
         13    1    3    3    0    0 -0.54863178451E+02  0.13736057757E+02 -0.12698786655E+04  0.12711374720E+04  0.00000000000E+00 0. -1.
        -14    1    3    3    0    0  0.21889884657E+02 -0.43550038903E+01 -0.13711579599E+03  0.13892038950E+03  0.00000000000E+00 0.  1.
          5    1    4    4  501    0 -0.16735386308E+02  0.28551229623E+02 -0.93489677334E+01  0.34642769311E+02  0.41800000000E+01 0. -1.
         -5    1    4    4    0  501  0.56095348799E+02 -0.99221020830E+02 -0.75675992641E+02  0.13687887855E+03  0.41800000000E+01 0. -1.
</event>
<event>
11    1  0.5813833E-009  0.1513903E+03  0.7561462E-02  0.1095467E+00
         22   -1    0    0    0    0  0.00000000000E+00  0.00000000000E+00  0.10559982389E+04  0.10559982389E+04  0.00000000000E+00 0. -1.
         22   -1    0    0    0    0 -0.00000000000E+00 -0.00000000000E+00 -0.12719866802E+03  0.12719866802E+03  0.00000000000E+00 0. -1.
         24    2    1    2    0    0  0.43033389611E+02  0.73930421195E+02 -0.62017370795E+02  0.13544867744E+03  0.84750281064E+02 0.  0.
         25    2    1    2    0    0 -0.59402677648E+02 -0.61846543813E+02  0.19204760349E+03  0.24471046851E+03  0.12508900151E+03 0.  0.
        -24    2    1    2    0    0  0.16369288037E+02 -0.12083877382E+02  0.79876933816E+03  0.80303776094E+03  0.80144970093E+02 0.  0.
        -13    1    3    3    0    0 -0.23100854844E+01  0.17649530893E+02  0.19569127166E+02  0.26453604173E+02  0.00000000000E+00 0.  1.
         14    1    3    3    0    0  0.45343475095E+02  0.56280890302E+02 -0.81586497961E+02  0.10899507327E+03  0.00000000000E+00 0. -1.
         13    1    5    5    0    0  0.46177632093E+02 -0.58715610740E+00  0.59383771927E+03  0.59563072057E+03  0.00000000000E+00 0. -1.
        -14    1    5    5    0    0 -0.29808344056E+02 -0.11496721275E+02  0.20493161888E+03  0.20740704037E+03  0.00000000000E+00 0.  1.
          5    1    4    4  501    0  0.30440691872E+02  0.14225785861E+02  0.43534626208E+02  0.55152015232E+02  0.41800000000E+01 0. -1.
         -5    1    4    4    0  501 -0.89843369520E+02 -0.76072329674E+02  0.14851297728E+03  0.18955845328E+03  0.41800000000E+01 0. -1.
</event>
<event>
11    1  0.5813833E-009  0.1331939E+03  0.7561462E-02  0.1115406E+00
         22   -1    0    0    0    0  0.00000000000E+00  0.00000000000E+00  0.40472254378E+03  0.40472254378E+03  0.00000000000E+00 0. -1.
         22   -1    0    0    0    0 -0.00000000000E+00 -0.00000000000E+00 -0.13080332262E+03  0.13080332262E+03  0.00000000000E+00 0. -1.
         24    2    1    2    0    0  0.38172603524E+02 -0.33275467816E+02 -0.58584891350E+02  0.11121182311E+03  0.79821523961E+02 0.  0.
         25    2    1    2    0    0 -0.14776142028E+02  0.23005757426E+02  0.64687183587E+02  0.14345755414E+03  0.12509212154E+03 0.  0.
        -24    2    1    2    0    0 -0.23396461496E+02  0.10269710390E+02  0.26781692892E+03  0.28085648915E+03  0.80632491718E+02 0.  0.
        -13    1    3    3    0    0 -0.25088535555E+01  0.21359080691E+02 -0.30982173286E+02  0.37714715107E+02  0.00000000000E+00 0.  1.
         14    1    3    3    0    0  0.40681457080E+02 -0.54634548506E+02 -0.27602718064E+02  0.73497108005E+02  0.00000000000E+00 0. -1.
         11    1    5    5    0    0 -0.47972660142E+02 -0.10987347435E+02  0.19506723086E+03  0.20117982623E+03  0.00000000000E+00 0. -1.
        -12    1    5    5    0    0  0.24576198646E+02  0.21257057825E+02  0.72749698060E+02  0.79676662926E+02  0.00000000000E+00 0.  1.
          5    1    4    4  501    0 -0.50451218175E+02  0.35696017370E+02  0.81038893119E+02  0.10200149837E+03  0.41800000000E+01 0.  1.
         -5    1    4    4    0  501  0.35675076147E+02 -0.12690259944E+02 -0.16351709532E+02  0.41456055772E+02  0.41800000000E+01 0.  1.
</event>
<event>
11    1  0.5813833E-009  0.1518256E+03  0.7561462E-02  0.1095028E+00
         22   -1    0    0    0    0  0.00000000000E+00  0.00000000000E+00  0.47048717501E+03  0.47048717501E+03  0.00000000000E+00 0.  1.
         22   -1    0    0    0    0 -0.00000000000E+00 -0.00000000000E+00 -0.25768842499E+03  0.25768842499E+03  0.00000000000E+00 0.  1.
         24    2    1    2    0    0  0.32919995557E+02  0.85554056418E+01 -0.17042309980E+03  0.19203572952E+03  0.81711488753E+02 0.  0.
         25    2    1    2    0    0  0.56927909016E+02 -0.15386775759E+01  0.32390096258E+01  0.13748627335E+03  0.12509528298E+03 0.  0.
        -24    2    1    2    0    0 -0.89847904573E+02 -0.70167280659E+01  0.37998284019E+03  0.39865359714E+03  0.80099009004E+02 0.  0.
        -13    1    3    3    0    0  0.11421666231E+02  0.29556311922E+02 -0.15509550834E+03  0.15829923165E+03  0.00000000000E+00 0.  1.
         14    1    3    3    0    0  0.21498329325E+02 -0.21000906280E+02 -0.15327591452E+02  0.33736497863E+02  0.00000000000E+00 0. -1.
         13    1    5    5    0    0 -0.12807200131E+02 -0.27214078191E+02  0.43580377626E+02  0.52951673638E+02  0.00000000000E+00 0. -1.
        -14    1    5    5    0    0 -0.77040704441E+02  0.20197350125E+02  0.33640246256E+03  0.34570192350E+03  0.00000000000E+00 0.  1.
          5    1    4    4  501    0  0.65436077817E+02 -0.14066670779E+02  0.52890510073E+02  0.85408605905E+02  0.41800000000E+01 0. -1.
         -5    1    4    4    0  501 -0.85081688008E+01  0.12527993203E+02 -0.49651500447E+02  0.52077667446E+02  0.41800000000E+01 0. -1.
</event>
<event>
11    1  0.5813833E-009  0.1324817E+03  0.7561462E-02  0.1116257E+00
         22   -1    0    0    0    0  0.00000000000E+00  0.00000000000E+00  0.16267746791E+03  0.16267746791E+03  0.00000000000E+00 0.  1.
         22   -1    0    0    0    0 -0.00000000000E+00 -0.00000000000E+00 -0.14810387613E+04  0.14810387613E+04  0.00000000000E+00 0. -1.
        -24    2    1    2    0    0  0.13491657801E+02 -0.41649966912E+02 -0.13736237099E+04  0.13768871831E+04  0.84020676232E+02 0.  0.
         25    2    1    2    0    0 -0.34726492109E+02  0.29608679370E+02 -0.41192272568E+02  0.13938175642E+03  0.12509143677E+03 0.  0.
         24    2    1    2    0    0  0.21234834308E+02  0.12041287542E+02  0.96454689103E+02  0.12744728967E+03  0.79645425480E+02 0.  0.
        -11    1    5    5    0    0  0.38400186186E+02 -0.38624033246E+01  0.96623727811E+02  0.10404632254E+03  0.00000000000E+00 0.  1.
         12    1    5    5    0    0 -0.17165351878E+02  0.15903690867E+02 -0.16903870823E+00  0.23400967125E+02  0.00000000000E+00 0. -1.
         11    1    3    3    0    0  0.48783645336E+02 -0.18140969738E+02 -0.81006762805E+03  0.81173795085E+03  0.00000000000E+00 0. -1.
        -12    1    3    3    0    0 -0.35291987535E+02 -0.23508997174E+02 -0.56355608183E+03  0.56514923223E+03  0.00000000000E+00 0.  1.
          5    1    4    4  501    0 -0.18047822044E+01 -0.45677536876E+02 -0.33336351157E+02  0.56731643042E+02  0.41800000000E+01 0. -1.
         -5    1    4    4    0  501 -0.32921709905E+02  0.75286216245E+02 -0.78559214111E+01  0.82650113375E+02  0.41800000000E+01 0. -1.
</event>
<event>
11    1  0.5813833E-009  0.1514693E+03  0.7561462E-02  0.1095387E+00
         22   -1    0    0    0    0  0.00000000000E+00  0.00000000000E+00  0.27755631118E+04  0.27755631118E+04  0.00000000000E+00 0. -1.
         22   -1    0    0    0    0 -0.00000000000E+00 -0.00000000000E+00 -0.18974212054E+03  0.18974212054E+03  0.00000000000E+00 0. -1.
         24    2    1    2    0    0  0.84194040485E+01  0.83150254814E+01 -0.12236238180E+03  0.14623869984E+03  0.79203401688E+02 0.  0.
         25    2    1    2    0    0  0.52094865046E+02 -0.68602682243E+02  0.52411795454E+02  0.16066700502E+03  0.12508671881E+03 0.  0.
        -24    2    1    2    0    0 -0.60514269095E+02  0.60287656762E+02  0.26557715776E+04  0.26583995275E+04  0.81662702784E+02 0.  0.
        -11    1    3    3    0    0 -0.31333092308E+02  0.54291525502E+01 -0.88154400377E+02  0.93714655614E+02  0.00000000000E+00 0.  1.
         12    1    3    3    0    0  0.39752496357E+02  0.28858729311E+01 -0.34207981420E+02  0.52524044227E+02  0.00000000000E+00 0. -1.
         11    1    5    5    0    0 -0.60951132797E+02  0.73141796941E+02  0.25597976325E+04  0.25615676221E+04  0.00000000000E+00 0. -1.
        -12    1    5    5    0    0  0.43686370232E+00 -0.12854140179E+02  0.95973945048E+02  0.96831905371E+02  0.00000000000E+00 0.  1.
          5    1    4    4  501    0 -0.94824599039E+01  0.15694912870E+02 -0.24534068351E+02  0.30913431477E+02  0.41800000000E+01 0. -1.
         -5    1    4    4    0  501  0.61577324950E+02 -0.84297595113E+02  0.76945863805E+02  0.12975357354E+03  0.41800000000E+01 0. -1.
</event>
<event>
11    1  0.5813833E-009  0.1347454E+03  0.7561462E-02  0.1113572E+00
         22   -1    0    0    0    0  0.00000000000E+00  0.00000000000E+00  0.25654206350E+04  0.25654206350E+04  0.00000000000E+00 0.  1.
         22   -1    0    0    0    0 -0.00000000000E+00 -0.00000000000E+00 -0.17558488952E+04  0.17558488952E+04  0.00000000000E+00 0. -1.
        -24    2    1    2    0    0 -0.34541015053E+02 -0.18557067436E+02 -0.15625832210E+04  0.15651626980E+04  0.80811523848E+02 0.  0.
         25    2    1    2    0    0 -0.11592941009E+02  0.38383501838E+02 -0.16846898907E+03  0.21362632980E+03  0.12508684587E+03 0.  0.
         24    2    1    2    0    0  0.46133956062E+02 -0.19826434402E+02  0.25406239498E+04  0.25424805023E+04  0.83160213044E+02 0.  0.
        -11    1    5    5    0    0  0.40116487335E+02  0.14869311148E+02  0.21052895836E+04  0.21057242602E+04  0.00000000000E+00 0.  1.
         12    1    5    5    0    0  0.60174687268E+01 -0.34695745551E+02  0.43533436616E+03  0.43675624214E+03  0.00000000000E+00 0. -1.
         13    1    3    3    0    0 -0.60102640505E+02 -0.20759975705E+02 -0.11894715707E+04  0.11911699801E+04  0.00000000000E+00 0. -1.
        -14    1    3    3    0    0  0.25561625452E+02  0.22029082690E+01 -0.37311165024E+03  0.37399271791E+03  0.00000000000E+00 0.  1.
          5    1    4    4  501    0 -0.63546695954E+02  0.37682475954E+02 -0.12713070729E+03  0.14709806490E+03  0.41800000000E+01 0. -1.
         -5    1    4    4    0  501  0.51953754945E+02  0.70102588404E+00 -0.41338281783E+02  0.66528264902E+02  0.41800000000E+01 0. -1.
</event>
<event>
11    1  0.5813833E-009  0.1610255E+03  0.7561462E-02  0.1086117E+00
         22   -1    0    0    0    0  0.00000000000E+00  0.00000000000E+00  0.21296797360E+04  0.21296797360E+04  0.00000000000E+00 0.  1.
         22   -1    0    0    0    0 -0.00000000000E+00 -0.00000000000E+00 -0.10366682555E+04  0.10366682555E+04  0.00000000000E+00 0.  1.
        -24    2    1    2    0    0 -0.23663167119E+02  0.60495742019E+01 -0.99012603580E+03  0.99377728919E+03  0.81530306687E+02 0.  0.
         25    2    1    2    0    0 -0.17566925358E+02  0.87407428626E+02  0.96239466991E+02  0.18126298928E+03  0.12508229623E+03 0.  0.
         24    2    1    2    0    0  0.41230092477E+02 -0.93457002828E+02  0.19868980493E+04  0.19913077131E+04  0.84311435169E+02 0.  0.
        -13    1    5    5    0    0  0.35058772716E+02 -0.10009040647E+03  0.12903875116E+04  0.12947382504E+04  0.00000000000E+00 0.  1.
         14    1    5    5    0    0  0.61713197613E+01  0.66334036412E+01  0.69651053768E+03  0.69656946268E+03  0.00000000000E+00 0. -1.
         13    1    3    3    0    0 -0.39718995724E+02  0.26526606081E+02 -0.36524140451E+03  0.36835111377E+03  0.00000000000E+00 0. -1.
        -14    1    3    3    0    0  0.16055828605E+02 -0.20477031879E+02 -0.62488463130E+03  0.62542617542E+03  0.00000000000E+00 0.  1.
          5    1    4    4  501    0 -0.65257691205E+02  0.36562892366E+02  0.79921494424E+02  0.10954601330E+03  0.41800000000E+01 0. -1.
         -5    1    4    4    0  501  0.47690765846E+02  0.50844536260E+02  0.16317972568E+02  0.71716975977E+02  0.41800000000E+01 0. -1.
</event>
<event>
11    1  0.5813833E-009  0.1432713E+03  0.7561462E-02  0.1103959E+00
         22   -1    0    0    0    0  0.00000000000E+00  0.00000000000E+00  0.75834919004E+03  0.75834919004E+03  0.00000000000E+00 0. -1.
         22   -1    0    0    0    0 -0.00000000000E+00 -0.00000000000E+00 -0.26713282941E+03  0.26713282941E+03  0.00000000000E+00 0.  1.
         24    2    1    2    0    0 -0.11900898479E+02 -0.67563432722E+02 -0.20911922119E+03  0.24550902612E+03  0.10879974452E+03 0.  0.
         25    2    1    2    0    0 -0.65185961508E+02  0.93562709234E+02  0.17994619577E+03  0.24704538032E+03  0.12509035306E+03 0.  0.
        -24    2    1    2    0    0  0.77086859987E+02 -0.25999276512E+02  0.52038938605E+03  0.53292761302E+03  0.81168844095E+02 0.  0.
        -11    1    3    3    0    0  0.12416194983E+02 -0.59732139169E+02 -0.21124044702E+03  0.21987409307E+03  0.00000000000E+00 0.  1.
         12    1    3    3    0    0 -0.24317093463E+02 -0.78312935529E+01  0.21212258302E+01  0.25634933045E+02  0.00000000000E+00 0. -1.
         13    1    5    5    0    0  0.73316954529E+02 -0.26206508138E+02  0.23597452311E+03  0.24848769073E+03  0.00000000000E+00 0. -1.
        -14    1    5    5    0    0  0.37699054583E+01  0.20723162566E+00  0.28441486294E+03  0.28443992229E+03  0.00000000000E+00 0.  1.
          5    1    4    4  501    0 -0.76911780512E+02  0.38725056929E+02  0.37713637727E+02  0.94100174741E+02  0.41800000000E+01 0. -1.
         -5    1    4    4    0  501  0.11725819004E+02  0.54837652305E+02  0.14223255804E+03  0.15294520558E+03  0.41800000000E+01 0. -1.
</event>
<event>
11    1  0.5813833E-009  0.1900503E+03  0.7561462E-02  0.1061791E+00
         22   -1    0    0    0    0  0.00000000000E+00  0.00000000000E+00  0.37800922356E+03  0.37800922356E+03  0.00000000000E+00 0.  1.
         22   -1    0    0    0    0 -0.00000000000E+00 -0.00000000000E+00 -0.42784690623E+03  0.42784690623E+03  0.00000000000E+00 0.  1.
         24    2    1    2    0    0  0.20185338716E+02 -0.14071968460E+03 -0.28967011212E+03  0.33241842952E+03  0.79898441142E+02 0.  0.
         25    2    1    2    0    0 -0.22587377523E+02  0.14495745347E+03 -0.26338750361E+02  0.19458666952E+03  0.12508952492E+03 0.  0.
        -24    2    1    2    0    0  0.24020388063E+01 -0.42377688708E+01  0.26617117980E+03  0.27885103075E+03  0.82988384220E+02 0.  0.
        -13    1    3    3    0    0  0.35065442982E+02 -0.10963432184E+03 -0.26809066562E+03  0.29175653345E+03  0.00000000000E+00 0.  1.
         14    1    3    3    0    0 -0.14880104266E+02 -0.31085362762E+02 -0.21579446496E+02  0.40661896071E+02  0.00000000000E+00 0. -1.
         13    1    5    5    0    0 -0.98583180539E+01 -0.36303246285E+02  0.67849476970E+02  0.77580046731E+02  0.00000000000E+00 0. -1.
        -14    1    5    5    0    0  0.12260356860E+02  0.32065477414E+02  0.19832170283E+03  0.20127098402E+03  0.00000000000E+00 0.  1.
          5    1    4    4  501    0 -0.71872557096E+02  0.77097828722E+02 -0.32525626092E+02  0.11038626912E+03  0.41800000000E+01 0.  1.
         -5    1    4    4    0  501  0.49285179574E+02  0.67859624748E+02  0.61868757318E+01  0.84200400402E+02  0.41800000000E+01 0.  1.
</event>
<event>
11    1  0.5813833E-009  0.1357779E+03  0.7561462E-02  0.1112367E+00
         22   -1    0    0    0    0  0.00000000000E+00  0.00000000000E+00  0.25020655682E+03  0.25020655682E+03  0.00000000000E+00 0. -1.
         22   -1    0    0    0    0 -0.00000000000E+00 -0.00000000000E+00 -0.43231401541E+03  0.43231401541E+03  0.00000000000E+00 0. -1.
         24    2    1    2    0    0  0.13428610122E+02 -0.14223909211E+02 -0.25723967457E+03  0.26995224903E+03  0.79494147075E+02 0.  0.
         25    2    1    2    0    0 -0.65253353744E+02  0.16228465929E+02 -0.12546890852E+03  0.18950326183E+03  0.12509067095E+03 0.  0.
        -24    2    1    2    0    0  0.51824743622E+02 -0.20045567178E+01  0.20060112449E+03  0.22306506137E+03  0.82628010735E+02 0.  0.
        -11    1    3    3    0    0 -0.13320524240E+02  0.27412966126E+02 -0.71333066015E+02  0.77571343839E+02  0.00000000000E+00 0.  1.
         12    1    3    3    0    0  0.26749134362E+02 -0.41636875337E+02 -0.18590660856E+03  0.19238090519E+03  0.00000000000E+00 0. -1.
         13    1    5    5    0    0  0.46933562264E+02  0.75076852638E+01  0.20576815765E+03  0.21118631421E+03  0.00000000000E+00 0. -1.
        -14    1    5    5    0    0  0.48911813583E+01 -0.95122419816E+01 -0.51670331576E+01  0.11878747167E+02  0.00000000000E+00 0.  1.
          5    1    4    4  501    0 -0.18446558590E+02  0.20475916127E+02  0.21463254826E+02  0.35180710237E+02  0.41800000000E+01 0.  1.
         -5    1    4    4    0  501 -0.46806795155E+02 -0.42474501989E+01 -0.14693216335E+03  0.15432255160E+03  0.41800000000E+01 0.  1.
</event>
<event>
11    1  0.5813833E-009  0.1387627E+03  0.7561462E-02  0.1108948E+00
         22   -1    0    0    0    0  0.00000000000E+00  0.00000000000E+00  0.90869545640E+03  0.90869545640E+03  0.00000000000E+00 0. -1.
         22   -1    0    0    0    0 -0.00000000000E+00 -0.00000000000E+00 -0.26629730394E+03  0.26629730394E+03  0.00000000000E+00 0.  1.
         24    2    1    2    0    0 -0.21118562222E+02  0.25347026707E+02 -0.21599792268E+03  0.23263382954E+03  0.79843162582E+02 0.  0.
         25    2    1    2    0    0  0.40580508150E+02 -0.79509559854E+02  0.11444023344E+03  0.19160313188E+03  0.12508655150E+03 0.  0.
        -24    2    1    2    0    0 -0.19461945928E+02  0.54162533147E+02  0.74395584169E+03  0.75075579892E+03  0.82774560686E+02 0.  0.
        -13    1    3    3    0    0  0.22940096064E+02  0.37361789027E+01 -0.14169272198E+03  0.14358633118E+03  0.00000000000E+00 0.  1.
         14    1    3    3    0    0 -0.44058658286E+02  0.21610847805E+02 -0.74305200701E+02  0.89047498359E+02  0.00000000000E+00 0. -1.
         11    1    5    5    0    0 -0.50775025274E+00  0.34392498832E+02  0.68373271489E+03  0.68459734677E+03  0.00000000000E+00 0. -1.
        -12    1    5    5    0    0 -0.18954195675E+02  0.19770034315E+02  0.60223126796E+02  0.66158452156E+02  0.00000000000E+00 0.  1.
          5    1    4    4  501    0  0.46322883253E+02  0.22321500973E+02  0.37779488959E+02  0.63943890283E+02  0.41800000000E+01 0.  1.
         -5    1    4    4    0  501 -0.57423751031E+01 -0.10183106083E+03  0.76660744479E+02  0.12765924160E+03  0.41800000000E+01 0.  1.
</event>
<event>
11    1  0.5813833E-009  0.1449046E+03  0.7561462E-02  0.1102202E+00
         22   -1    0    0    0    0  0.00000000000E+00  0.00000000000E+00  0.47795099177E+03  0.47795099177E+03  0.00000000000E+00 0.  1.
         22   -1    0    0    0    0 -0.00000000000E+00 -0.00000000000E+00 -0.75257318504E+03  0.75257318504E+03  0.00000000000E+00 0. -1.
         24    2    1    2    0    0 -0.12848755149E+02 -0.29698862823E+02 -0.65311847339E+03  0.65864414725E+03  0.78748075931E+02 0.  0.
         25    2    1    2    0    0  0.55060927364E+02  0.86522976258E+02 -0.16347862141E+02  0.16258055885E+03  0.12508898583E+03 0.  0.
        -24    2    1    2    0    0 -0.42212172215E+02 -0.56824113435E+02  0.39484414226E+03  0.40929947071E+03  0.81322276730E+02 0.  0.
        -13    1    3    3    0    0 -0.75787498442E+01  0.21020419931E+02 -0.74388524784E+02  0.77672054968E+02  0.00000000000E+00 0.  1.
         14    1    3    3    0    0 -0.52700053046E+01 -0.50719282755E+02 -0.57872994861E+03  0.58097209228E+03  0.00000000000E+00 0. -1.
         11    1    5    5    0    0  0.14360130597E+02 -0.42424786864E+02  0.11463591187E+03  0.12307505101E+03  0.00000000000E+00 0. -1.
        -12    1    5    5    0    0 -0.56572302812E+02 -0.14399326571E+02  0.28020823040E+03  0.28622441970E+03  0.00000000000E+00 0.  1.
          5    1    4    4  501    0 -0.22146068119E+02  0.10705342752E+01  0.30705326163E+02  0.38103593420E+02  0.41800000000E+01 0.  1.
         -5    1    4    4    0  501  0.77206995483E+02  0.85452441983E+02 -0.47053188303E+02  0.12447696543E+03  0.41800000000E+01 0.  1.
</event>
<event>
11    1  0.5813833E-009  0.2102280E+03  0.7561462E-02  0.1047518E+00
         22   -1    0    0    0    0  0.00000000000E+00  0.00000000000E+00  0.19244562696E+03  0.19244562696E+03  0.00000000000E+00 0. -1.
         22   -1    0    0    0    0 -0.00000000000E+00 -0.00000000000E+00 -0.29826769982E+04  0.29826769982E+04  0.00000000000E+00 0.  1.
        -24    2    1    2    0    0  0.12975787232E+03  0.11483020201E+03 -0.27128798152E+04  0.27195497598E+04  0.78809414385E+02 0.  0.
         25    2    1    2    0    0 -0.82521280202E+02 -0.99097167030E+02 -0.21998076360E+03  0.28402350907E+03  0.12509119534E+03 0.  0.
         24    2    1    2    0    0 -0.47236592122E+02 -0.15733034977E+02  0.14262920752E+03  0.17154935629E+03  0.81285095673E+02 0.  0.
        -13    1    5    5    0    0  0.17631363156E+02 -0.17086386316E+02  0.16116061248E+02  0.29368980136E+02  0.00000000000E+00 0.  1.
         14    1    5    5    0    0 -0.64867955278E+02  0.13533513385E+01  0.12651314628E+03  0.14218037615E+03  0.00000000000E+00 0. -1.
         11    1    3    3    0    0  0.53686104102E+02  0.38969431832E+02 -0.54714395313E+03  0.55115090477E+03  0.00000000000E+00 0. -1.
        -12    1    3    3    0    0  0.76071768222E+02  0.75860770175E+02 -0.21657358620E+04  0.21683988550E+04  0.00000000000E+00 0.  1.
          5    1    4    4  501    0 -0.41711124606E+02 -0.22207199960E+01 -0.15450888044E+03  0.16011001233E+03  0.41800000000E+01 0.  1.
         -5    1    4    4    0  501 -0.40810155596E+02 -0.96876447034E+02 -0.65471883160E+02  0.12391349674E+03  0.41800000000E+01 0.  1.
</event>
<event>
11    1  0.5813833E-009  0.1535196E+03  0.7561462E-02  0.1093336E+00
         22   -1    0    0    0    0  0.00000000000E+00  0.00000000000E+00  0.10018310416E+04  0.10018310416E+04  0.00000000000E+00 0. -1.
         22   -1    0    0    0    0 -0.00000000000E+00 -0.00000000000E+00 -0.41415588133E+03  0.41415588133E+03  0.00000000000E+00 0.  1.
         24    2    1    2    0    0  0.72586911932E+02 -0.53434304222E+02 -0.38460858574E+03  0.39978974158E+03  0.61514133300E+02 0.  0.
         25    2    1    2    0    0 -0.18024076509E+02  0.59373031282E+02  0.24241688227E+03  0.27975635106E+03  0.12509055508E+03 0.  0.
        -24    2    1    2    0    0 -0.54562835423E+02 -0.59387270600E+01  0.72986686369E+03  0.73644083024E+03  0.81406917646E+02 0.  0.
        -11    1    3    3    0    0  0.51511931434E+02 -0.34574201976E+02 -0.34821848955E+03  0.35370181083E+03  0.00000000000E+00 0.  1.
         12    1    3    3    0    0  0.21074980498E+02 -0.18860102246E+02 -0.36390096191E+02  0.46087930747E+02  0.00000000000E+00 0. -1.
         13    1    5    5    0    0 -0.30203241934E+02  0.26161874351E+02  0.57601206228E+03  0.57739637631E+03  0.00000000000E+00 0. -1.
        -14    1    5    5    0    0 -0.24359593489E+02 -0.32100601411E+02  0.15385480141E+03  0.15904445392E+03  0.00000000000E+00 0.  1.
          5    1    4    4  501    0 -0.10748731809E+02 -0.17669924678E+02 -0.39681569386E+01  0.21470448135E+02  0.41800000000E+01 0.  1.
         -5    1    4    4    0  501 -0.72753447004E+01  0.77042955961E+02  0.24638503921E+03  0.25828590293E+03  0.41800000000E+01 0.  1.
</event>
<event>
11    1  0.5813833E-009  0.1712752E+03  0.7561462E-02  0.1076927E+00
         22   -1    0    0    0    0  0.00000000000E+00  0.00000000000E+00  0.10619399066E+04  0.10619399066E+04  0.00000000000E+00 0. -1.
         22   -1    0    0    0    0 -0.00000000000E+00 -0.00000000000E+00 -0.60612540294E+03  0.60612540294E+03  0.00000000000E+00 0.  1.
        -24    2    1    2    0    0 -0.69379982786E+02 -0.94212905846E+02 -0.58128112897E+03  0.59825308417E+03  0.79557200734E+02 0.  0.
         25    2    1    2    0    0  0.40309122587E+02  0.11458749171E+03  0.72629313619E+03  0.74693000744E+03  0.12509035827E+03 0.  0.
         24    2    1    2    0    0  0.29070860199E+02 -0.20374585860E+02  0.31080249645E+03  0.32288221792E+03  0.79965593778E+02 0.  0.
        -11    1    5    5    0    0 -0.24990645215E+02 -0.86529049427E+01  0.53244131609E+02  0.59450337787E+02  0.00000000000E+00 0.  1.
         12    1    5    5    0    0  0.54061505414E+02 -0.11721680918E+02  0.25755836484E+03  0.26343188013E+03  0.00000000000E+00 0. -1.
         13    1    3    3    0    0 -0.32988338998E+02 -0.59317411732E+02 -0.15775553063E+03  0.17173698870E+03  0.00000000000E+00 0. -1.
        -14    1    3    3    0    0 -0.36391643788E+02 -0.34895494114E+02 -0.42352559834E+03  0.42651609547E+03  0.00000000000E+00 0.  1.
          5    1    4    4  501    0  0.24275546535E+02  0.12378297664E+03  0.71224471645E+03  0.72334053943E+03  0.41800000000E+01 0. -1.
         -5    1    4    4    0  501  0.16033576052E+02 -0.91954849367E+01  0.14048419731E+02  0.23589468014E+02  0.41800000000E+01 0. -1.
</event>
<event>
11    1  0.5813833E-009  0.1446829E+03  0.7561462E-02  0.1102439E+00
         22   -1    0    0    0    0  0.00000000000E+00  0.00000000000E+00  0.23642351390E+04  0.23642351390E+04  0.00000000000E+00 0.  1.
         22   -1    0    0    0    0 -0.00000000000E+00 -0.00000000000E+00 -0.52838212377E+03  0.52838212377E+03  0.00000000000E+00 0.  1.
        -24    2    1    2    0    0  0.67677324585E+02 -0.23489523385E+02 -0.42182864573E+03  0.43524792187E+03  0.79808327667E+02 0.  0.
         25    2    1    2    0    0 -0.88798784983E+02 -0.82729076971E+01 -0.39468617208E+02  0.15861698441E+03  0.12509160956E+03 0.  0.
         24    2    1    2    0    0  0.21121460398E+02  0.31762431082E+02  0.22971502781E+04  0.22987523565E+04  0.76863697181E+02 0.  0.
        -13    1    5    5    0    0 -0.19738480341E+02 -0.13112368763E+02  0.84955939913E+03  0.84988982490E+03  0.00000000000E+00 0.  1.
         14    1    5    5    0    0  0.40859940740E+02  0.44874799845E+02  0.14475908790E+04  0.14488625316E+04  0.00000000000E+00 0. -1.
         11    1    3    3    0    0  0.78414320939E+01 -0.28449437354E+02 -0.45990733066E+02  0.54644359919E+02  0.00000000000E+00 0. -1.
        -12    1    3    3    0    0  0.59835892491E+02  0.49599139687E+01 -0.37583791266E+03  0.38060356195E+03  0.00000000000E+00 0.  1.
          5    1    4    4  501    0 -0.39262032280E+02 -0.25321589394E+02  0.41138723583E+02  0.62390360203E+02  0.41800000000E+01 0.  1.
         -5    1    4    4    0  501 -0.49536752704E+02  0.17048681697E+02 -0.80607340791E+02  0.96226624203E+02  0.41800000000E+01 0.  1.
</event>
<event>
11    1  0.5813833E-009  0.1288068E+03  0.7561462E-02  0.1120744E+00
         22   -1    0    0    0    0  0.00000000000E+00  0.00000000000E+00  0.18281963854E+04  0.18281963854E+04  0.00000000000E+00 0. -1.
         22   -1    0    0    0    0 -0.00000000000E+00 -0.00000000000E+00 -0.24760657317E+03  0.24760657317E+03  0.00000000000E+00 0. -1.
         24    2    1    2    0    0 -0.19001125873E+02  0.22756806052E+02 -0.21769085855E+03  0.24444236680E+03  0.10716270707E+03 0.  0.
         25    2    1    2    0    0  0.88278560307E+02 -0.57909217633E+01  0.39021300233E+03  0.41921397979E+03  0.12509010625E+03 0.  0.
        -24    2    1    2    0    0 -0.69277434434E+02 -0.16965884289E+02  0.14080676684E+04  0.14121466120E+04  0.80101751737E+02 0.  0.
        -13    1    3    3    0    0 -0.17956256987E+02  0.62633827035E+02 -0.93207040910E+02  0.11372324270E+03  0.00000000000E+00 0.  1.
         14    1    3    3    0    0 -0.10448688863E+01 -0.39877020983E+02 -0.12448381764E+03  0.13071912410E+03  0.00000000000E+00 0. -1.
         11    1    5    5    0    0 -0.46671761981E+02 -0.36952463872E+02  0.12374680920E+04  0.12388991148E+04  0.00000000000E+00 0. -1.
        -12    1    5    5    0    0 -0.22605672453E+02  0.19986579583E+02  0.17059957646E+03  0.17324749718E+03  0.00000000000E+00 0.  1.
          5    1    4    4  501    0  0.26025348019E+02  0.24146242862E+02  0.16899358212E+02  0.39540112441E+02  0.41800000000E+01 0.  1.
         -5    1    4    4    0  501  0.62253212288E+02 -0.29937164625E+02  0.37331364412E+03  0.37967386735E+03  0.41800000000E+01 0.  1.
</event>
<event>
11    1  0.5813833E-009  0.1298091E+03  0.7561462E-02  0.1119504E+00
         22   -1    0    0    0    0  0.00000000000E+00  0.00000000000E+00  0.73113928941E+03  0.73113928941E+03  0.00000000000E+00 0. -1.
         22   -1    0    0    0    0 -0.00000000000E+00 -0.00000000000E+00 -0.17480079168E+03  0.17480079168E+03  0.00000000000E+00 0. -1.
        -24    2    1    2    0    0 -0.34630956014E+02 -0.68390432291E+01 -0.14601342605E+03  0.16889165895E+03  0.77190648733E+02 0.  0.
         25    2    1    2    0    0  0.24718467538E+02 -0.13092936853E+02  0.30181993544E+03  0.32789487954E+03  0.12504939412E+03 0.  0.
         24    2    1    2    0    0  0.99124884765E+01  0.19931980082E+02  0.40053198833E+03  0.40915354259E+03  0.80530779695E+02 0.  0.
        -13    1    5    5    0    0  0.68207570047E+01 -0.29503847617E+02  0.97320732418E+02  0.10192313137E+03  0.00000000000E+00 0.  1.
         14    1    5    5    0    0  0.30917314718E+01  0.49435827698E+02  0.30321125591E+03  0.30723041122E+03  0.00000000000E+00 0. -1.
         13    1    3    3    0    0 -0.30257047768E+02  0.61656271180E+01 -0.15112686908E+03  0.15424926079E+03  0.00000000000E+00 0. -1.
        -14    1    3    3    0    0 -0.43739082464E+01 -0.13004670347E+02  0.51134430352E+01  0.14642398159E+02  0.00000000000E+00 0.  1.
          5    1    4    4  501    0  0.30542214714E+01 -0.44270302198E+02  0.28076560102E+03  0.28428152075E+03  0.41800000000E+01 0.  1.
         -5    1    4    4    0  501  0.21664246066E+02  0.31177365345E+02  0.21054334424E+02  0.43613358797E+02  0.41800000000E+01 0.  1.
</event>
<event>
11    1  0.5813833E-009  0.1310406E+03  0.7561462E-02  0.1117997E+00
         22   -1    0    0    0    0  0.00000000000E+00  0.00000000000E+00  0.87010466715E+02  0.87010466715E+02  0.00000000000E+00 0. -1.
         22   -1    0    0    0    0 -0.00000000000E+00 -0.00000000000E+00 -0.17081489043E+04  0.17081489043E+04  0.00000000000E+00 0. -1.
         24    2    1    2    0    0  0.25267589893E+02  0.11346822671E+02 -0.13964309795E+04  0.13989294832E+04  0.78848061924E+02 0.  0.
         25    2    1    2    0    0 -0.46478665656E+02  0.20990897951E+02 -0.26693320363E+03  0.29915608949E+03  0.12506057140E+03 0.  0.
        -24    2    1    2    0    0  0.21211075763E+02 -0.32337720622E+02  0.42225745616E+02  0.97073798296E+02  0.78387950686E+02 0.  0.
        -11    1    3    3    0    0 -0.62721022043E+01  0.15367698394E+02 -0.63941918415E+02  0.66061141003E+02  0.00000000000E+00 0.  1.
         12    1    3    3    0    0  0.31539692097E+02 -0.40208757234E+01 -0.13324890611E+04  0.13328683422E+04  0.00000000000E+00 0. -1.
         11    1    5    5    0    0  0.17309954123E+02 -0.54819517017E+02  0.46400768350E+02  0.73877231006E+02  0.00000000000E+00 0. -1.
        -12    1    5    5    0    0  0.39011216404E+01  0.22481796395E+02 -0.41750227339E+01  0.23196567290E+02  0.00000000000E+00 0.  1.
          5    1    4    4  501    0  0.21896660047E+02  0.63666229188E+01 -0.20299986229E+03  0.20431939237E+03  0.41800000000E+01 0. -1.
         -5    1    4    4    0  501 -0.68375325704E+02  0.14624275032E+02 -0.63933341342E+02  0.94836697119E+02  0.41800000000E+01 0. -1.
</event>
<event>
11    1  0.5813833E-009  0.1366551E+03  0.7561462E-02  0.1111352E+00
         22   -1    0    0    0    0  0.00000000000E+00  0.00000000000E+00  0.62280950851E+03  0.62280950851E+03  0.00000000000E+00 0. -1.
         22   -1    0    0    0    0 -0.00000000000E+00 -0.00000000000E+00 -0.48390570863E+03  0.48390570863E+03  0.00000000000E+00 0. -1.
         24    2    1    2    0    0 -0.25724425097E+02 -0.23196866590E+02 -0.40340310248E+03  0.40990807510E+03  0.63958785760E+02 0.  0.
         25    2    1    2    0    0  0.41100251004E+02 -0.30484580640E+02 -0.10334051247E+02  0.13554669127E+03  0.12509025785E+03 0.  0.
        -24    2    1    2    0    0 -0.15375825908E+02  0.53681447230E+02  0.55264095361E+03  0.56126045077E+03  0.80518048878E+02 0.  0.
        -13    1    3    3    0    0  0.62139935293E+01  0.30940788285E+01 -0.33249022058E+01  0.76968833990E+01  0.00000000000E+00 0.  1.
         14    1    3    3    0    0 -0.31938418626E+02 -0.26290945418E+02 -0.40007820028E+03  0.40221119170E+03  0.00000000000E+00 0. -1.
         13    1    5    5    0    0  0.24948603493E+02  0.47377943007E+02  0.38589413061E+03  0.38959130168E+03  0.00000000000E+00 0. -1.
        -14    1    5    5    0    0 -0.40324429400E+02  0.63035042230E+01  0.16674682299E+03  0.17166914909E+03  0.00000000000E+00 0.  1.
          5    1    4    4  501    0  0.59655489095E+02 -0.21917416235E+02  0.43955831887E+02  0.77386937337E+02  0.41800000000E+01 0.  1.
         -5    1    4    4    0  501 -0.18555238090E+02 -0.85671644054E+01 -0.54289883134E+02  0.58159753930E+02  0.41800000000E+01 0.  1.
</event>
<event>
11    1  0.5813833E-009  0.2481057E+03  0.7561462E-02  0.1024913E+00
         22   -1    0    0    0    0  0.00000000000E+00  0.00000000000E+00  0.39433967083E+03  0.39433967083E+03  0.00000000000E+00 0.  1.
         22   -1    0    0    0    0 -0.00000000000E+00 -0.00000000000E+00 -0.51827392509E+04  0.51827392509E+04  0.00000000000E+00 0.  1.
         24    2    1    2    0    0 -0.20524713672E+03  0.58171131345E+02 -0.49771258014E+04  0.49823580552E+04  0.81242099846E+02 0.  0.
         25    2    1    2    0    0  0.24244172014E+03 -0.60291840678E+02 -0.96792453508E+02  0.29568468523E+03  0.12509020868E+03 0.  0.
        -24    2    1    2    0    0 -0.37194583415E+02  0.21207093332E+01  0.28551867485E+03  0.29903618138E+03  0.80708051895E+02 0.  0.
        -13    1    3    3    0    0 -0.12487156585E+03  0.28756652415E+02 -0.37826504145E+04  0.37848202086E+04  0.00000000000E+00 0.  1.
         14    1    3    3    0    0 -0.80375570875E+02  0.29414478930E+02 -0.11944753869E+04  0.11975378466E+04  0.00000000000E+00 0. -1.
         13    1    5    5    0    0  0.77631118786E+01  0.93805033966E+01  0.25678513472E+01  0.12444019068E+02  0.00000000000E+00 0. -1.
        -14    1    5    5    0    0 -0.44957695294E+02 -0.72597940634E+01  0.28295082350E+03  0.28659216231E+03  0.00000000000E+00 0.  1.
          5    1    4    4  501    0  0.64272304033E+01  0.26588563587E+02 -0.63911377777E+01  0.28400352927E+02  0.41800000000E+01 0. -1.
         -5    1    4    4    0  501  0.23601448973E+03 -0.86880404265E+02 -0.90401315731E+02  0.26728433231E+03  0.41800000000E+01 0. -1.
</event>
<event>
11    1  0.5813833E-009  0.1675054E+03  0.7561462E-02  0.1080223E+00
         22   -1    0    0    0    0  0.00000000000E+00  0.00000000000E+00  0.21571558761E+03  0.21571558761E+03  0.00000000000E+00 0.  1.
         22   -1    0    0    0    0 -0.00000000000E+00 -0.00000000000E+00 -0.12360724812E+04  0.12360724812E+04  0.00000000000E+00 0.  1.
        -24    2    1    2    0    0 -0.45737227310E+02  0.25734040264E+02 -0.10703555347E+04  0.10745724024E+04  0.79314200355E+02 0.  0.
         25    2    1    2    0    0  0.14537563222E+03 -0.48037903459E+02 -0.60207677081E+02  0.20667244674E+03  0.12508725454E+03 0.  0.
         24    2    1    2    0    0 -0.99638404911E+02  0.22303863195E+02  0.11020631819E+03  0.17054321975E+03  0.80711109450E+02 0.  0.
        -11    1    5    5    0    0 -0.10362286219E+03  0.19377978673E+02  0.62443100684E+02  0.12252487278E+03  0.00000000000E+00 0.  1.
         12    1    5    5    0    0  0.39844572782E+01  0.29258845213E+01  0.47763217506E+02  0.48018346979E+02  0.00000000000E+00 0. -1.
         11    1    3    3    0    0 -0.11809267707E+02  0.49446628897E+02 -0.45627474946E+03  0.45909811033E+03  0.00000000000E+00 0. -1.
        -12    1    3    3    0    0 -0.33927959604E+02 -0.23712588633E+02 -0.61408078527E+03  0.61547429203E+03  0.00000000000E+00 0.  1.
          5    1    4    4  501    0  0.51842552682E+02 -0.30509573296E+02 -0.88694822795E+02  0.10725077306E+03  0.41800000000E+01 0.  1.
         -5    1    4    4    0  501  0.93533079539E+02 -0.17528330163E+02  0.28487145714E+02  0.99421673680E+02  0.41800000000E+01 0.  1.
</event>
<event>
11    1  0.5813833E-009  0.1342180E+03  0.7561462E-02  0.1114192E+00
         22   -1    0    0    0    0  0.00000000000E+00  0.00000000000E+00  0.12097141706E+04  0.12097141706E+04  0.00000000000E+00 0.  1.
         22   -1    0    0    0    0 -0.00000000000E+00 -0.00000000000E+00 -0.62034580158E+03  0.62034580158E+03  0.00000000000E+00 0.  1.
         24    2    1    2    0    0  0.12068730925E+02  0.43445771637E+02 -0.54136165053E+03  0.54931071758E+03  0.81465565953E+02 0.  0.
         25    2    1    2    0    0 -0.53520532929E+02 -0.17375413471E+02 -0.86647790065E+01  0.13743944600E+03  0.12509264760E+03 0.  0.
        -24    2    1    2    0    0  0.41451802003E+02 -0.26070358166E+02  0.11393947986E+04  0.11433098086E+04  0.80863440384E+02 0.  0.
        -13    1    3    3    0    0  0.36435617331E+02  0.23916692197E+01 -0.35720895982E+03  0.35907034863E+03  0.00000000000E+00 0.  1.
         14    1    3    3    0    0 -0.24366886406E+02  0.41054102417E+02 -0.18415269071E+03  0.19024036894E+03  0.00000000000E+00 0. -1.
         11    1    5    5    0    0  0.19276544455E+02 -0.33587541164E+02  0.20523915342E+03  0.20886076267E+03  0.00000000000E+00 0. -1.
        -12    1    5    5    0    0  0.22175257548E+02  0.75171829978E+01  0.93415564515E+03  0.93444904594E+03  0.00000000000E+00 0.  1.
          5    1    4    4  501    0  0.31202140129E+02 -0.69657242815E+01  0.29630449819E+02  0.43789620001E+02  0.41800000000E+01 0.  1.
         -5    1    4    4    0  501 -0.84722673057E+02 -0.10409689190E+02 -0.38295228825E+02  0.93649826000E+02  0.41800000000E+01 0.  1.
</event>
<event>
11    1  0.5813833E-009  0.1545732E+03  0.7561462E-02  0.1092295E+00
         22   -1    0    0    0    0  0.00000000000E+00  0.00000000000E+00  0.23539669753E+03  0.23539669753E+03  0.00000000000E+00 0. -1.
         22   -1    0    0    0    0 -0.00000000000E+00 -0.00000000000E+00 -0.13154758507E+04  0.13154758507E+04  0.00000000000E+00 0.  1.
        -24    2    1    2    0    0 -0.49041949424E+02  0.75284686320E+02 -0.96949721352E+03  0.97705123604E+03  0.81433248909E+02 0.  0.
         25    2    1    2    0    0  0.11388047780E+03 -0.35643674943E+02 -0.30474218712E+03  0.35036399856E+03  0.12509155084E+03 0.  0.
         24    2    1    2    0    0 -0.64838528375E+02 -0.39641011377E+02  0.19416024744E+03  0.22345731366E+03  0.80371168949E+02 0.  0.
        -13    1    5    5    0    0 -0.39867658959E+02 -0.54023214857E+02  0.74128034885E+02  0.10001451660E+03  0.00000000000E+00 0.  1.
         14    1    5    5    0    0 -0.24970869417E+02  0.14382203480E+02  0.12003221255E+03  0.12344279706E+03  0.00000000000E+00 0. -1.
         11    1    3    3    0    0  0.52204645490E+01  0.61932783475E+02 -0.39733614604E+03  0.40216779566E+03  0.00000000000E+00 0. -1.
        -12    1    3    3    0    0 -0.54262413973E+02  0.13351902845E+02 -0.57216106748E+03  0.57488344038E+03  0.00000000000E+00 0.  1.
          5    1    4    4  501    0  0.62123720503E+02 -0.81526264478E+02 -0.20003353059E+03  0.22480385719E+03  0.41800000000E+01 0. -1.
         -5    1    4    4    0  501  0.51756757296E+02  0.45882589535E+02 -0.10470865653E+03  0.12556014137E+03  0.41800000000E+01 0. -1.
</event>
<event>
11    1  0.5813833E-009  0.1511804E+03  0.7561462E-02  0.1095679E+00
         22   -1    0    0    0    0  0.00000000000E+00  0.00000000000E+00  0.23192297447E+04  0.23192297447E+04  0.00000000000E+00 0. -1.
         22   -1    0    0    0    0 -0.00000000000E+00 -0.00000000000E+00 -0.13695365583E+04  0.13695365583E+04  0.00000000000E+00 0. -1.
        -24    2    1    2    0    0 -0.11241399352E+03  0.50133286052E+01 -0.81864814102E+03  0.83028949095E+03  0.80832051738E+02 0.  0.
         25    2    1    2    0    0  0.44833637432E+02 -0.15359766018E+02 -0.53577055809E+03  0.55221490055E+03  0.12508088587E+03 0.  0.
         24    2    1    2    0    0  0.67580356092E+02  0.10346437413E+02  0.23041118856E+04  0.23062619115E+04  0.72375892730E+02 0.  0.
        -11    1    5    5    0    0 -0.20616857135E+01  0.92234373862E+01  0.40870194617E+02  0.41948720520E+02  0.00000000000E+00 0.  1.
         12    1    5    5    0    0  0.69642041806E+02  0.11230000268E+01  0.22632416909E+04  0.22643131910E+04  0.00000000000E+00 0. -1.
         13    1    3    3    0    0 -0.91830449397E+02 -0.23246626191E+02 -0.70638913704E+03  0.71271231924E+03  0.00000000000E+00 0. -1.
        -14    1    3    3    0    0 -0.20583544128E+02  0.28259954796E+02 -0.11225900398E+03  0.11757717171E+03  0.00000000000E+00 0.  1.
          5    1    4    4  501    0  0.48039599681E+02  0.47071160455E+02 -0.34171357991E+03  0.34829461721E+03  0.41800000000E+01 0. -1.
         -5    1    4    4    0  501 -0.32059622488E+01 -0.62430926473E+02 -0.19405697818E+03  0.20392028334E+03  0.41800000000E+01 0. -1.
</event>
<event>
11    1  0.5813833E-009  0.1381110E+03  0.7561462E-02  0.1109686E+00
         22   -1    0    0    0    0  0.00000000000E+00  0.00000000000E+00  0.70935813698E+03  0.70935813698E+03  0.00000000000E+00 0. -1.
         22   -1    0    0    0    0 -0.00000000000E+00 -0.00000000000E+00 -0.27886783658E+03  0.27886783658E+03  0.00000000000E+00 0.  1.
         24    2    1    2    0    0 -0.53273640450E+02  0.45547899844E+01 -0.17448199843E+03  0.19919752642E+03  0.79855243272E+02 0.  0.
         25    2    1    2    0    0  0.87077188191E+02  0.22091499319E+02 -0.21874622886E+02  0.15554918497E+03  0.12508628531E+03 0.  0.
        -24    2    1    2    0    0 -0.33803547741E+02 -0.26646289303E+02  0.62684692172E+03  0.63347926217E+03  0.80661067173E+02 0.  0.
        -13    1    3    3    0    0 -0.18396665453E+02 -0.20928144118E+02 -0.14314759833E+03  0.14583435612E+03  0.00000000000E+00 0.  1.
         14    1    3    3    0    0 -0.34876974997E+02  0.25482934102E+02 -0.31334400096E+02  0.53363170303E+02  0.00000000000E+00 0. -1.
         11    1    5    5    0    0  0.26667976760E+02 -0.89460397678E+01  0.21752272471E+03  0.21933387421E+03  0.00000000000E+00 0. -1.
        -12    1    5    5    0    0 -0.60471524501E+02 -0.17700249535E+02  0.40932419700E+03  0.41414538795E+03  0.00000000000E+00 0.  1.
          5    1    4    4  501    0  0.59121203653E+01 -0.53697415880E+01  0.45552323434E+02  0.46435695991E+02  0.41800000000E+01 0.  1.
         -5    1    4    4    0  501  0.81165067825E+02  0.27461240907E+02 -0.67426946320E+02  0.10911348898E+03  0.41800000000E+01 0.  1.
</event>
<event>
11    1  0.5813833E-009  0.1277300E+03  0.7561462E-02  0.1122090E+00
         22   -1    0    0    0    0  0.00000000000E+00  0.00000000000E+00  0.10831997321E+03  0.10831997321E+03  0.00000000000E+00 0. -1.
         22   -1    0    0    0    0 -0.00000000000E+00 -0.00000000000E+00 -0.14522920044E+04  0.14522920044E+04  0.00000000000E+00 0.  1.
         24    2    1    2    0    0  0.42010982319E+01  0.11650817820E+02 -0.11744928225E+04  0.11771444845E+04  0.77989464162E+02 0.  0.
         25    2    1    2    0    0  0.21797692417E+02 -0.82562696433E+01 -0.24070826962E+03  0.27227188398E+03  0.12509277502E+03 0.  0.
        -24    2    1    2    0    0 -0.25998790649E+02 -0.33945481769E+01  0.71229060873E+02  0.11119560917E+03  0.81261456502E+02 0.  0.
        -11    1    3    3    0    0 -0.12033796455E+02  0.12439849515E+02 -0.11232976950E+04  0.11234310276E+04  0.00000000000E+00 0.  1.
         12    1    3    3    0    0  0.16234894687E+02 -0.78903169477E+00 -0.51195127496E+02  0.53713456935E+02  0.00000000000E+00 0. -1.
         13    1    5    5    0    0  0.17937534389E+01 -0.28311152972E+02  0.68059443068E+02  0.73734840643E+02  0.00000000000E+00 0. -1.
        -14    1    5    5    0    0 -0.27792544088E+02  0.24916604795E+02  0.31696178051E+01  0.37460768525E+02  0.00000000000E+00 0.  1.
          5    1    4    4  501    0 -0.18625024929E+00  0.23441944650E+02 -0.23106690784E+03  0.23229065362E+03  0.41800000000E+01 0. -1.
         -5    1    4    4    0  501  0.21983942666E+02 -0.31698214293E+02 -0.96413617754E+01  0.39981230364E+02  0.41800000000E+01 0. -1.
</event>
<event>
11    1  0.5813833E-009  0.1598493E+03  0.7561462E-02  0.1087219E+00
         22   -1    0    0    0    0  0.00000000000E+00  0.00000000000E+00  0.11059975884E+04  0.11059975884E+04  0.00000000000E+00 0.  1.
         22   -1    0    0    0    0 -0.00000000000E+00 -0.00000000000E+00 -0.14236852231E+04  0.14236852231E+04  0.00000000000E+00 0.  1.
         24    2    1    2    0    0 -0.43546677011E+02 -0.70536783836E+02 -0.11182208807E+04  0.11241479607E+04  0.80118340577E+02 0.  0.
         25    2    1    2    0    0  0.20729117500E+02  0.16670302532E+03 -0.26230234336E+03  0.33566311178E+03  0.12509040856E+03 0.  0.
        -24    2    1    2    0    0  0.22817559511E+02 -0.96166241482E+02  0.10628355895E+04  0.10698717390E+04  0.72370303211E+02 0.  0.
        -13    1    3    3    0    0 -0.37283917939E+02 -0.86640559599E+02 -0.81595117600E+03  0.82138480551E+03  0.00000000000E+00 0.  1.
         14    1    3    3    0    0 -0.62627590725E+01  0.16103775763E+02 -0.30226970474E+03  0.30276315521E+03  0.00000000000E+00 0. -1.
         13    1    5    5    0    0 -0.19995383867E+02 -0.67424367393E+02  0.55986644917E+03  0.56426616202E+03  0.00000000000E+00 0. -1.
        -14    1    5    5    0    0  0.42812943378E+02 -0.28741874089E+02  0.50296914028E+03  0.50560557703E+03  0.00000000000E+00 0.  1.
          5    1    4    4  501    0  0.63364003470E+02  0.84701536088E+02 -0.85345462462E+02  0.13598039386E+03  0.41800000000E+01 0.  1.
         -5    1    4    4    0  501 -0.42634885970E+02  0.82001489230E+02 -0.17695688090E+03  0.19968271792E+03  0.41800000000E+01 0.  1.
</event>
<event>
11    1  0.5813833E-009  0.1250874E+03  0.7561462E-02  0.1125457E+00
         22   -1    0    0    0    0  0.00000000000E+00  0.00000000000E+00  0.12041492118E+04  0.12041492118E+04  0.00000000000E+00 0.  1.
         22   -1    0    0    0    0 -0.00000000000E+00 -0.00000000000E+00 -0.21003643680E+03  0.21003643680E+03  0.00000000000E+00 0. -1.
         24    2    1    2    0    0 -0.25919100385E+02  0.17832771153E+01 -0.19237835938E+03  0.20463364973E+03  0.64734207356E+02 0.  0.
         25    2    1    2    0    0  0.22163163447E+02 -0.10536079318E+01  0.42309631263E+03  0.44175570085E+03  0.12508114794E+03 0.  0.
        -24    2    1    2    0    0  0.37559369383E+01 -0.72966918347E+00  0.76339482179E+03  0.76779629806E+03  0.82005255349E+02 0.  0.
        -13    1    3    3    0    0  0.20216769927E+02  0.31166116509E+01 -0.90574492360E+02  0.92855639143E+02  0.00000000000E+00 0.  1.
         14    1    3    3    0    0 -0.46135870312E+02 -0.13333345356E+01 -0.10180386702E+03  0.11177801059E+03  0.00000000000E+00 0. -1.
         11    1    5    5    0    0 -0.29420764883E+02  0.16363332303E+02  0.17435563952E+03  0.17757598115E+03  0.00000000000E+00 0. -1.
        -12    1    5    5    0    0  0.33176701821E+02 -0.17093001486E+02  0.58903918227E+03  0.59022031691E+03  0.00000000000E+00 0.  1.
          5    1    4    4  501    0  0.10625293509E+02  0.20320720031E+02  0.61835862803E+01  0.24115092038E+02  0.41800000000E+01 0.  1.
         -5    1    4    4    0  501  0.11537869938E+02 -0.21374327962E+02  0.41691272634E+03  0.41764060881E+03  0.41800000000E+01 0.  1.
</event>
<event>
11    1  0.5813833E-009  0.1401826E+03  0.7561462E-02  0.1107355E+00
         22   -1    0    0    0    0  0.00000000000E+00  0.00000000000E+00  0.98767856071E+03  0.98767856071E+03  0.00000000000E+00 0.  1.
         22   -1    0    0    0    0 -0.00000000000E+00 -0.00000000000E+00 -0.34133851242E+03  0.34133851242E+03  0.00000000000E+00 0.  1.
         24    2    1    2    0    0  0.55260415972E+02 -0.37154993400E+02 -0.26862140474E+03  0.28834873642E+03  0.80952625689E+02 0.  0.
         25    2    1    2    0    0 -0.47356840987E+02 -0.27724984584E+01  0.13415316605E+02  0.13444849748E+03  0.12508425408E+03 0.  0.
        -24    2    1    2    0    0 -0.79035749850E+01  0.39927491858E+02  0.90154613642E+03  0.90621983922E+03  0.82415349228E+02 0.  0.
        -11    1    3    3    0    0  0.31009727214E+02 -0.14387434155E+01 -0.22444133517E+03  0.22657799120E+03  0.00000000000E+00 0.  1.
         12    1    3    3    0    0  0.24250688759E+02 -0.35716249984E+02 -0.44180069568E+02  0.61770745222E+02  0.00000000000E+00 0. -1.
         11    1    5    5    0    0 -0.28829521121E+02  0.15877265696E+01  0.11888875866E+03  0.12234459163E+03  0.00000000000E+00 0. -1.
        -12    1    5    5    0    0  0.20925946136E+02  0.38339765288E+02  0.78265737776E+03  0.78387524759E+03  0.00000000000E+00 0.  1.
          5    1    4    4  501    0  0.42064026796E+01  0.46297299739E+02 -0.25531734995E+02  0.53202214977E+02  0.41800000000E+01 0.  1.
         -5    1    4    4    0  501 -0.51563243667E+02 -0.49069798197E+02  0.38947051601E+02  0.81246282505E+02  0.41800000000E+01 0.  1.
</event>
<event>
11    1  0.5813833E-009  0.1714599E+03  0.7561462E-02  0.1076768E+00
         22   -1    0    0    0    0  0.00000000000E+00  0.00000000000E+00  0.38205222451E+03  0.38205222451E+03  0.00000000000E+00 0. -1.
         22   -1    0    0    0    0 -0.00000000000E+00 -0.00000000000E+00 -0.13868366055E+04  0.13868366055E+04  0.00000000000E+00 0.  1.
        -24    2    1    2    0    0 -0.16618986046E+02 -0.26622156618E+02 -0.12923945697E+04  0.12951660583E+04  0.78654083655E+02 0.  0.
         25    2    1    2    0    0  0.81044237106E+02 -0.74502650663E+02  0.20018123796E+02  0.16782984193E+03  0.12508923709E+03 0.  0.
         24    2    1    2    0    0 -0.64425251060E+02  0.10112480728E+03  0.26759206491E+03  0.30589292977E+03  0.87109882662E+02 0.  0.
        -11    1    5    5    0    0 -0.19305761475E+02  0.25740611426E+02  0.99435362668E+01  0.33677372466E+02  0.00000000000E+00 0.  1.
         12    1    5    5    0    0 -0.45119489584E+02  0.75384195855E+02  0.25764852865E+03  0.27221555731E+03  0.00000000000E+00 0. -1.
         11    1    3    3    0    0 -0.19197374525E+01  0.19424432155E+02 -0.10567683596E+03  0.10746435509E+03  0.00000000000E+00 0. -1.
        -12    1    3    3    0    0 -0.14699248593E+02 -0.46046588773E+02 -0.11867177338E+04  0.11877017032E+04  0.00000000000E+00 0.  1.
          5    1    4    4  501    0 -0.38289236803E+00  0.21153291612E+02  0.35143975857E+02  0.41233236492E+02  0.41800000000E+01 0. -1.
         -5    1    4    4    0  501  0.81427129474E+02 -0.95655942274E+02 -0.15125852061E+02  0.12659660543E+03  0.41800000000E+01 0. -1.
</event>
<event>
11    1  0.5813833E-009  0.1418822E+03  0.7561462E-02  0.1105475E+00
         22   -1    0    0    0    0  0.00000000000E+00  0.00000000000E+00  0.68536328483E+03  0.68536328483E+03  0.00000000000E+00 0.  1.
         22   -1    0    0    0    0 -0.00000000000E+00 -0.00000000000E+00 -0.47606954646E+03  0.47606954646E+03  0.00000000000E+00 0.  1.
         24    2    1    2    0    0 -0.55480176226E+02 -0.34665756982E+02 -0.42169220907E+03  0.43435298397E+03  0.80984139398E+02 0.  0.
         25    2    1    2    0    0  0.10454203013E+03  0.30316985552E+02  0.11309845661E+03  0.20071656326E+03  0.12509085578E+03 0.  0.
        -24    2    1    2    0    0 -0.49061853909E+02  0.43487714296E+01  0.51788749083E+03  0.52636328407E+03  0.80155326314E+02 0.  0.
        -13    1    3    3    0    0 -0.59924564962E+02 -0.50224217607E+02 -0.39835003592E+03  0.40595095348E+03  0.00000000000E+00 0.  1.
         14    1    3    3    0    0  0.44443887361E+01  0.15558460625E+02 -0.23342173149E+02  0.28402030483E+02  0.00000000000E+00 0. -1.
         13    1    5    5    0    0 -0.56175220838E+02  0.31224718641E+02  0.30732780999E+03  0.31397614764E+03  0.00000000000E+00 0. -1.
        -14    1    5    5    0    0  0.71133669287E+01 -0.26875947211E+02  0.21055968083E+03  0.21238713643E+03  0.00000000000E+00 0.  1.
          5    1    4    4  501    0  0.97531468745E+02  0.47089240374E+02  0.13423326450E+03  0.17252775329E+03  0.41800000000E+01 0.  1.
         -5    1    4    4    0  501  0.70105613894E+01 -0.16772254821E+02 -0.21134807895E+02  0.28188809970E+02  0.41800000000E+01 0.  1.
</event>
<event>
11    1  0.5813833E-009  0.1672949E+03  0.7561462E-02  0.1080410E+00
         22   -1    0    0    0    0  0.00000000000E+00  0.00000000000E+00  0.82812504852E+03  0.82812504852E+03  0.00000000000E+00 0.  1.
         22   -1    0    0    0    0 -0.00000000000E+00 -0.00000000000E+00 -0.19971077482E+04  0.19971077482E+04  0.00000000000E+00 0.  1.
        -24    2    1    2    0    0  0.72093123352E+02  0.11127458706E+03 -0.19597565210E+04  0.19659640249E+04  0.82398259988E+02 0.  0.
         25    2    1    2    0    0  0.62947958840E+02 -0.67643662486E+02  0.24266029292E+03  0.28821916694E+03  0.12509260504E+03 0.  0.
         24    2    1    2    0    0 -0.13504108219E+03 -0.43630924573E+02  0.54811352839E+03  0.57104960495E+03  0.74360337916E+02 0.  0.
        -13    1    5    5    0    0 -0.52640212799E+02  0.17609464104E+01  0.31988663333E+03  0.32419369383E+03  0.00000000000E+00 0.  1.
         14    1    5    5    0    0 -0.82400869393E+02 -0.45391870983E+02  0.22822689506E+03  0.24685591112E+03  0.00000000000E+00 0. -1.
         13    1    3    3    0    0  0.29614946646E+02  0.15651737477E+02 -0.17713298862E+03  0.18027234288E+03  0.00000000000E+00 0. -1.
        -14    1    3    3    0    0  0.42478176706E+02  0.95622849581E+02 -0.17826235324E+04  0.17856916820E+04  0.00000000000E+00 0.  1.
          5    1    4    4  501    0  0.21711494027E+02  0.35677624948E+02  0.46274601639E+02  0.62474739308E+02  0.41800000000E+01 0. -1.
         -5    1    4    4    0  501  0.41236464813E+02 -0.10332128743E+03  0.19638569128E+03  0.22574442763E+03  0.41800000000E+01 0. -1.
</event>
<event>
11    1  0.5813833E-009  0.1466635E+03  0.7561462E-02  0.1100338E+00
         22   -1    0    0    0    0  0.00000000000E+00  0.00000000000E+00  0.15592853643E+03  0.15592853643E+03  0.00000000000E+00 0. -1.
         22   -1    0    0    0    0 -0.00000000000E+00 -0.00000000000E+00 -0.63667391040E+03  0.63667391040E+03  0.00000000000E+00 0.  1.
         24    2    1    2    0    0  0.65652747783E+02  0.48209726336E+02 -0.38189264904E+03  0.39830540673E+03  0.78554061837E+02 0.  0.
         25    2    1    2    0    0 -0.12922597233E+02 -0.78606603277E+02 -0.20191297043E+03  0.25052425982E+03  0.12509022957E+03 0.  0.
        -24    2    1    2    0    0 -0.52730150549E+02  0.30396876941E+02  0.10306024550E+03  0.14377278028E+03  0.79653997028E+02 0.  0.
        -13    1    3    3    0    0  0.40479122466E+02  0.42437830052E+02 -0.35910543042E+03  0.36386293976E+03  0.00000000000E+00 0.  1.
         14    1    3    3    0    0  0.25173625316E+02  0.57718962838E+01 -0.22787218628E+02  0.34442466972E+02  0.00000000000E+00 0. -1.
         13    1    5    5    0    0 -0.13328415046E+02  0.50298937839E+02  0.75630013777E+02  0.91801572859E+02  0.00000000000E+00 0. -1.
        -14    1    5    5    0    0 -0.39401735503E+02 -0.19902060898E+02  0.27430231727E+02  0.51971207425E+02  0.00000000000E+00 0.  1.
          5    1    4    4  501    0  0.43143663259E+00 -0.10996439610E+03 -0.12653228708E+03  0.16769092587E+03  0.41800000000E+01 0.  1.
         -5    1    4    4    0  501 -0.13354033866E+02  0.31357792818E+02 -0.75380683350E+02  0.82833333949E+02  0.41800000000E+01 0.  1.
</event>
<event>
11    1  0.5813833E-009  0.1435152E+03  0.7561462E-02  0.1103695E+00
         22   -1    0    0    0    0  0.00000000000E+00  0.00000000000E+00  0.11393894723E+03  0.11393894723E+03  0.00000000000E+00 0. -1.
         22   -1    0    0    0    0 -0.00000000000E+00 -0.00000000000E+00 -0.74973536062E+03  0.74973536062E+03  0.00000000000E+00 0.  1.
         24    2    1    2    0    0  0.39032801284E+02 -0.26093206590E+02 -0.55971435958E+03  0.56712115418E+03  0.78369791276E+02 0.  0.
         25    2    1    2    0    0  0.39022232789E+02  0.16822082430E+02 -0.11969545234E+03  0.17827011274E+03  0.12509002629E+03 0.  0.
        -24    2    1    2    0    0 -0.78055034073E+02  0.92711241599E+01  0.43613398525E+02  0.11828304093E+03  0.76877871683E+02 0.  0.
        -13    1    3    3    0    0  0.53508254557E+02 -0.35796156958E+02 -0.51693831724E+03  0.52093159051E+03  0.00000000000E+00 0.  1.
         14    1    3    3    0    0 -0.14475453273E+02  0.97029503681E+01 -0.42776042345E+02  0.46189563670E+02  0.00000000000E+00 0. -1.
         13    1    5    5    0    0 -0.38431879348E+01  0.10830960796E+01  0.43437515858E+02  0.43620648488E+02  0.00000000000E+00 0. -1.
        -14    1    5    5    0    0 -0.74211846139E+02  0.81880280803E+01  0.17588266682E+00  0.74662392447E+02  0.00000000000E+00 0.  1.
          5    1    4    4  501    0 -0.44103489254E+02 -0.57610165454E+01 -0.52549416345E+02  0.68972607855E+02  0.41800000000E+01 0.  1.
         -5    1    4    4    0  501  0.83125722043E+02  0.22583098975E+02 -0.67146035992E+02  0.10929750488E+03  0.41800000000E+01 0.  1.
</event>
<event>
11    1  0.5813833E-009  0.1720711E+03  0.7561462E-02  0.1076243E+00
         22   -1    0    0    0    0  0.00000000000E+00  0.00000000000E+00  0.11327633941E+04  0.11327633941E+04  0.00000000000E+00 0. -1.
         22   -1    0    0    0    0 -0.00000000000E+00 -0.00000000000E+00 -0.31677611179E+03  0.31677611179E+03  0.00000000000E+00 0.  1.
         24    2    1    2    0    0  0.82038509935E+01 -0.45136356153E+02 -0.26875073723E+03  0.28563576288E+03  0.85183545711E+02 0.  0.
         25    2    1    2    0    0  0.16982562569E+01  0.15644865034E+03  0.26236813347E+03  0.33009683899E+03  0.12509125223E+03 0.  0.
        -24    2    1    2    0    0 -0.99021072504E+01 -0.11131229418E+03  0.82236988605E+03  0.83380690401E+03  0.80332092753E+02 0.  0.
        -11    1    3    3    0    0 -0.15913554835E+02  0.67164392464E+01 -0.17478295251E+03  0.17563437098E+03  0.00000000000E+00 0.  1.
         12    1    3    3    0    0  0.24117405829E+02 -0.51852795399E+02 -0.93967784718E+02  0.11000139190E+03  0.00000000000E+00 0. -1.
         11    1    5    5    0    0 -0.20886537447E+02 -0.67011175710E+02  0.69444808337E+03  0.69798630761E+03  0.00000000000E+00 0. -1.
        -12    1    5    5    0    0  0.10984430196E+02 -0.44301118474E+02  0.12792180267E+03  0.13582059639E+03  0.00000000000E+00 0.  1.
          5    1    4    4  501    0 -0.87052887017E+01  0.10633173805E+03  0.25720116573E+03  0.27848183535E+03  0.41800000000E+01 0.  1.
         -5    1    4    4    0  501  0.10403544959E+02  0.50116912289E+02  0.51669677376E+01  0.51615003640E+02  0.41800000000E+01 0.  1.
</event>
<event>
11    1  0.5813833E-009  0.1361889E+03  0.7561462E-02  0.1111890E+00
         22   -1    0    0    0    0  0.00000000000E+00  0.00000000000E+00  0.19263465923E+04  0.19263465923E+04  0.00000000000E+00 0.  1.
         22   -1    0    0    0    0 -0.00000000000E+00 -0.00000000000E+00 -0.10316942313E+03  0.10316942313E+03  0.00000000000E+00 0.  1.
        -24    2    1    2    0    0 -0.27621749402E+02  0.42438311535E+02 -0.50469957574E+02  0.10614542147E+03  0.78458030536E+02 0.  0.
         25    2    1    2    0    0  0.21459821571E+02 -0.83196349956E+02  0.22014686037E+03  0.26738122622E+03  0.12508366567E+03 0.  0.
         24    2    1    2    0    0  0.61619278308E+01  0.40758038421E+02  0.16535002663E+04  0.16559893677E+04  0.80860794649E+02 0.  0.
        -13    1    5    5    0    0 -0.24014555080E+02  0.12463654904E+02  0.12656833854E+04  0.12659725406E+04  0.00000000000E+00 0.  1.
         14    1    5    5    0    0  0.30176482911E+02  0.28294383517E+02  0.38781688094E+03  0.39001682708E+03  0.00000000000E+00 0. -1.
         13    1    3    3    0    0  0.15542677178E+02  0.18721128720E+02  0.11561717252E+02  0.26939353746E+02  0.00000000000E+00 0. -1.
        -14    1    3    3    0    0 -0.43164426580E+02  0.23717182814E+02 -0.62031674826E+02  0.79206067725E+02  0.00000000000E+00 0.  1.
          5    1    4    4  501    0 -0.42307473561E+02 -0.73743552036E+02  0.14635360063E+03  0.16930706602E+03  0.41800000000E+01 0. -1.
         -5    1    4    4    0  501  0.63767295132E+02 -0.94527979194E+01  0.73793259738E+02  0.98074160204E+02  0.41800000000E+01 0. -1.
</event>
<event>
11    1  0.5813833E-009  0.1738693E+03  0.7561462E-02  0.1074713E+00
         22   -1    0    0    0    0  0.00000000000E+00  0.00000000000E+00  0.98535369218E+03  0.98535369218E+03  0.00000000000E+00 0.  1.
         22   -1    0    0    0    0 -0.00000000000E+00 -0.00000000000E+00 -0.31771119103E+03  0.31771119103E+03  0.00000000000E+00 0.  1.
         24    2    1    2    0    0 -0.99913840407E+01  0.13041183215E+02 -0.28439665249E+03  0.29531233166E+03  0.77833264523E+02 0.  0.
         25    2    1    2    0    0 -0.11491232077E+03 -0.22101931964E+01  0.43545643941E+03  0.46741819930E+03  0.12509091095E+03 0.  0.
        -24    2    1    2    0    0  0.12490370481E+03 -0.10830990019E+02  0.51658271424E+03  0.54033435225E+03  0.96877581215E+02 0.  0.
        -11    1    3    3    0    0 -0.17832720655E+02 -0.20246682458E+02 -0.22625891635E+03  0.22786186891E+03  0.00000000000E+00 0.  1.
         12    1    3    3    0    0  0.78413366139E+01  0.33287865673E+02 -0.58137736142E+02  0.67450462746E+02  0.00000000000E+00 0. -1.
         13    1    5    5    0    0  0.22885608504E+02 -0.45120071868E+02  0.17879192751E+03  0.18581206985E+03  0.00000000000E+00 0. -1.
        -14    1    5    5    0    0  0.10201809631E+03  0.34289081850E+02  0.33779078674E+03  0.35452228239E+03  0.00000000000E+00 0.  1.
          5    1    4    4  501    0 -0.10293458002E+03 -0.44614754626E+02  0.38125555643E+03  0.39744090856E+03  0.41800000000E+01 0.  1.
         -5    1    4    4    0  501 -0.11977740755E+02  0.42404561430E+02  0.54200882980E+02  0.69977290741E+02  0.41800000000E+01 0.  1.
</event>
<event>
11    1  0.8216120E-009  0.1628058E+03  0.7561462E-02  0.1084468E+00
         22   -1    0    0    0    0  0.00000000000E+00  0.00000000000E+00  0.15282598361E+03  0.15282598361E+03  0.00000000000E+00 0. -1.
         22   -1    0    0    0    0 -0.00000000000E+00 -0.00000000000E+00 -0.13572059629E+04  0.13572059629E+04  0.00000000000E+00 0.  1.
         24    2    1    2    0    0  0.87957287879E+00  0.39197024330E+02 -0.92027997211E+03  0.92461655381E+03  0.80395050529E+02 0.  0.
         25    2    1    2    0    0 -0.91042768008E+02 -0.88401156159E+02 -0.38275185529E+03  0.42219799286E+03  0.12509441409E+03 0.  0.
        -24    2    1    2    0    0  0.90163195129E+02  0.49204131829E+02  0.98651848154E+02  0.16321739979E+03  0.79732578693E+02 0.  0.
        -13    1    3    3    0    0  0.15456714586E+02  0.43568765821E+02 -0.88484443724E+03  0.88605125444E+03  0.00000000000E+00 0.  1.
         14    1    3    3    0    0 -0.14577141707E+02 -0.43717414918E+01 -0.35435534874E+02  0.38565299375E+02  0.00000000000E+00 0. -1.
         13    1    5    5    0    0  0.44470274386E+02  0.28283446872E+02  0.99897758535E+02  0.11294742508E+03  0.00000000000E+00 0. -1.
        -14    1    5    5    0    0  0.45692920743E+02  0.20920684957E+02 -0.12459103812E+01  0.50269974714E+02  0.00000000000E+00 0.  1.
          5    1    4    4  501    0  0.89035533934E+01 -0.56403660710E+01  0.56522828004E+01  0.12669163086E+02  0.41800000000E+01 0. -1.
         -5    1    4    4    0  501 -0.99946321401E+02 -0.82760790088E+02 -0.38840413809E+03  0.40952882978E+03  0.41800000000E+01 0. -1.
</event>
<event>
11    1  0.5813833E-009  0.1408781E+03  0.7561462E-02  0.1106582E+00
         22   -1    0    0    0    0  0.00000000000E+00  0.00000000000E+00  0.19233366223E+03  0.19233366223E+03  0.00000000000E+00 0. -1.
         22   -1    0    0    0    0 -0.00000000000E+00 -0.00000000000E+00 -0.24802988071E+04  0.24802988071E+04  0.00000000000E+00 0.  1.
         24    2    1    2    0    0  0.65038642682E+01 -0.53424285902E+01 -0.23827171884E+04  0.23841051591E+04  0.80903446612E+02 0.  0.
         25    2    1    2    0    0  0.13415077297E+01  0.68651889071E+02 -0.83637500070E+01  0.14294242866E+03  0.12509078336E+03 0.  0.
        -24    2    1    2    0    0 -0.78453719979E+01 -0.63309460481E+02  0.10311579356E+03  0.14558488161E+03  0.80575760768E+02 0.  0.
        -13    1    3    3    0    0 -0.12460803807E+02 -0.54016278537E+01 -0.22498838370E+04  0.22499248275E+04  0.00000000000E+00 0.  1.
         14    1    3    3    0    0  0.18964668075E+02  0.59199263559E-01 -0.13283335145E+03  0.13418033163E+03  0.00000000000E+00 0. -1.
         11    1    5    5    0    0  0.24904995078E+02 -0.41862145252E+02  0.93260846669E+02  0.10521541477E+03  0.00000000000E+00 0. -1.
        -12    1    5    5    0    0 -0.32750367076E+02 -0.21447315229E+02  0.98549468892E+01  0.40369466832E+02  0.00000000000E+00 0.  1.
          5    1    4    4  501    0 -0.22311845067E+01  0.20526184797E+02 -0.65051964477E+02  0.68377868707E+02  0.41800000000E+01 0. -1.
         -5    1    4    4    0  501  0.35726922364E+01  0.48125704274E+02  0.56688214470E+02  0.74564559956E+02  0.41800000000E+01 0. -1.
</event>
<event>
11    1  0.5813833E-009  0.1448573E+03  0.7561462E-02  0.1102253E+00
         22   -1    0    0    0    0  0.00000000000E+00  0.00000000000E+00  0.20522923925E+04  0.20522923925E+04  0.00000000000E+00 0.  1.
         22   -1    0    0    0    0 -0.00000000000E+00 -0.00000000000E+00 -0.19494153231E+03  0.19494153231E+03  0.00000000000E+00 0.  1.
        -24    2    1    2    0    0  0.39055317177E+02  0.36769889179E+02 -0.13734115056E+03  0.16782612274E+03  0.80160297436E+02 0.  0.
         25    2    1    2    0    0 -0.89092969912E+02  0.16401400774E+02  0.10524891374E+03  0.18690338212E+03  0.12509587191E+03 0.  0.
         24    2    1    2    0    0  0.50037652736E+02 -0.53171289952E+02  0.18894430970E+04  0.18925044199E+04  0.79036763311E+02 0.  0.
        -11    1    5    5    0    0  0.62776918431E+02 -0.64533905495E+02  0.15154576859E+04  0.15181296269E+04  0.00000000000E+00 0.  1.
         12    1    5    5    0    0 -0.12739265696E+02  0.11362615542E+02  0.37398541108E+03  0.37437479299E+03  0.00000000000E+00 0. -1.
         11    1    3    3    0    0  0.47963385057E+00  0.25523767438E+02 -0.84901677519E+00  0.25542387953E+02  0.00000000000E+00 0. -1.
        -12    1    3    3    0    0  0.38575683326E+02  0.11246121741E+02 -0.13649213379E+03  0.14228373478E+03  0.00000000000E+00 0.  1.
          5    1    4    4  501    0 -0.37580830270E+02 -0.47584486041E+02  0.80777640741E+02  0.10108957295E+03  0.41800000000E+01 0. -1.
         -5    1    4    4    0  501 -0.51512139643E+02  0.63985886815E+02  0.24471272999E+02  0.85813809170E+02  0.41800000000E+01 0. -1.
</event>
<event>
11    1  0.5813833E-009  0.2034353E+03  0.7561462E-02  0.1052121E+00
         22   -1    0    0    0    0  0.00000000000E+00  0.00000000000E+00  0.43104098227E+03  0.43104098227E+03  0.00000000000E+00 0.  1.
         22   -1    0    0    0    0 -0.00000000000E+00 -0.00000000000E+00 -0.18825024700E+03  0.18825024700E+03  0.00000000000E+00 0.  1.
         24    2    1    2    0    0  0.73958491035E+02 -0.17821583925E+03 -0.15929526013E+02  0.21160448774E+03  0.85393007182E+02 0.  0.
         25    2    1    2    0    0  0.95463183239E+00  0.12455680298E+03  0.67177284409E+02  0.18887719192E+03  0.12508596083E+03 0.  0.
        -24    2    1    2    0    0 -0.74913122867E+02  0.53659036276E+02  0.19154297687E+03  0.21880954961E+03  0.51938799177E+02 0.  0.
        -11    1    3    3    0    0  0.83818480641E+02 -0.97774656631E+02  0.11107390207E+01  0.12878918789E+03  0.00000000000E+00 0.  1.
         12    1    3    3    0    0 -0.98599896063E+01 -0.80441182621E+02 -0.17040265034E+02  0.82815299848E+02  0.00000000000E+00 0. -1.
         13    1    5    5    0    0 -0.33008231264E+02  0.34955758638E+02  0.47305788341E+02  0.67448395116E+02  0.00000000000E+00 0. -1.
        -14    1    5    5    0    0 -0.41904891603E+02  0.18703277638E+02  0.14423718853E+03  0.15136115449E+03  0.00000000000E+00 0.  1.
          5    1    4    4  501    0 -0.12569924161E+02  0.93397418870E+01 -0.32210995572E+02  0.36059040582E+02  0.41800000000E+01 0. -1.
         -5    1    4    4    0  501  0.13524555994E+02  0.11521706109E+03  0.99388279981E+02  0.15281815134E+03  0.41800000000E+01 0. -1.
</event>
<event>
11    1  0.5813833E-009  0.1919224E+03  0.7561462E-02  0.1060387E+00
         22   -1    0    0    0    0  0.00000000000E+00  0.00000000000E+00  0.55053841413E+03  0.55053841413E+03  0.00000000000E+00 0. -1.
         22   -1    0    0    0    0 -0.00000000000E+00 -0.00000000000E+00 -0.37880381304E+03  0.37880381304E+03  0.00000000000E+00 0. -1.
        -24    2    1    2    0    0 -0.72095072547E+02 -0.13440645195E+03 -0.27474177382E+03  0.32418868036E+03  0.79702348641E+02 0.  0.
         25    2    1    2    0    0  0.15426915260E+03  0.22609091962E+02  0.10006442872E+03  0.22353775156E+03  0.12508434753E+03 0.  0.
         24    2    1    2    0    0 -0.82174080050E+02  0.11179735999E+03  0.34641194619E+03  0.38161579525E+03  0.79863318170E+02 0.  0.
        -13    1    5    5    0    0 -0.10227378529E+02  0.67340416890E+02  0.21327676724E+03  0.22388905838E+03  0.00000000000E+00 0.  1.
         14    1    5    5    0    0 -0.71946701522E+02  0.44456943097E+02  0.13313517895E+03  0.15772673687E+03  0.00000000000E+00 0. -1.
         11    1    3    3    0    0 -0.78644087642E+02 -0.14132618440E+03 -0.25086845383E+03  0.29848444523E+03  0.00000000000E+00 0. -1.
        -12    1    3    3    0    0  0.65490150947E+01  0.69197324554E+01 -0.23873319987E+02  0.25704235121E+02  0.00000000000E+00 0.  1.
          5    1    4    4  501    0  0.30749767074E+02  0.36215234273E+02 -0.19046114311E+02  0.51354826832E+02  0.41800000000E+01 0. -1.
         -5    1    4    4    0  501  0.12351938552E+03 -0.13606142311E+02  0.11911054303E+03  0.17218292473E+03  0.41800000000E+01 0. -1.
</event>
<event>
11    1  0.5813833E-009  0.1357409E+03  0.7561462E-02  0.1112410E+00
         22   -1    0    0    0    0  0.00000000000E+00  0.00000000000E+00  0.60656310441E+03  0.60656310441E+03  0.00000000000E+00 0.  1.
         22   -1    0    0    0    0 -0.00000000000E+00 -0.00000000000E+00 -0.21555752713E+04  0.21555752713E+04  0.00000000000E+00 0. -1.
         24    2    1    2    0    0  0.22789709735E+02 -0.47577841646E+01 -0.20533687727E+04  0.20551322656E+04  0.81873716275E+02 0.  0.
         25    2    1    2    0    0  0.29713669069E+01 -0.41899921084E+02 -0.52604642035E+02  0.14205514658E+03  0.12509190181E+03 0.  0.
        -24    2    1    2    0    0 -0.25761076642E+02  0.46657705249E+02  0.55696124783E+03  0.56495096344E+03  0.78250782593E+02 0.  0.
        -13    1    3    3    0    0  0.10733869116E+01 -0.41831409736E+02 -0.92581706224E+03  0.92676224121E+03  0.00000000000E+00 0.  1.
         14    1    3    3    0    0  0.21716322824E+02  0.37073625571E+02 -0.11275517104E+04  0.11283700244E+04  0.00000000000E+00 0. -1.
         13    1    5    5    0    0  0.27871941458E+02  0.22324027612E+02  0.22101748840E+03  0.22388375892E+03  0.00000000000E+00 0. -1.
        -14    1    5    5    0    0 -0.53633018100E+02  0.24333677636E+02  0.33594375944E+03  0.34106720453E+03  0.00000000000E+00 0.  1.
          5    1    4    4  501    0  0.15527445062E+02  0.40720888918E+02 -0.36154519669E+02  0.56779521282E+02  0.41800000000E+01 0.  1.
         -5    1    4    4    0  501 -0.12556078155E+02 -0.82620810002E+02 -0.16450122366E+02  0.85275625298E+02  0.41800000000E+01 0.  1.
</event>
<event>
11    1  0.5813833E-009  0.1417056E+03  0.7561462E-02  0.1105669E+00
         22   -1    0    0    0    0  0.00000000000E+00  0.00000000000E+00  0.41896017829E+03  0.41896017829E+03  0.00000000000E+00 0.  1.
         22   -1    0    0    0    0 -0.00000000000E+00 -0.00000000000E+00 -0.82575163194E+02  0.82575163194E+02  0.00000000000E+00 0. -1.
         24    2    1    2    0    0  0.51431690542E+02  0.24531592406E+02  0.29106319061E+02  0.10211912123E+03  0.79587180456E+02 0.  0.
         25    2    1    2    0    0 -0.43881268879E+02  0.51411289946E+02  0.18040745742E+03  0.22970265847E+03  0.12509106331E+03 0.  0.
        -24    2    1    2    0    0 -0.75504216634E+01 -0.75942882353E+02  0.12687123861E+03  0.16971356179E+03  0.82958131734E+02 0.  0.
        -13    1    3    3    0    0  0.43973705314E+02 -0.18228041676E+02  0.33915505778E+02  0.58448351513E+02  0.00000000000E+00 0.  1.
         14    1    3    3    0    0  0.74579852282E+01  0.42759634083E+02 -0.48091867174E+01  0.43670769714E+02  0.00000000000E+00 0. -1.
         11    1    5    5    0    0  0.23238360594E+02 -0.25767859769E+02  0.59241984040E+01  0.35200854065E+02  0.00000000000E+00 0. -1.
        -12    1    5    5    0    0 -0.30788782257E+02 -0.50175022583E+02  0.12094704021E+03  0.13451270772E+03  0.00000000000E+00 0.  1.
          5    1    4    4  501    0 -0.71127236482E+02  0.75640565474E+02  0.11736972787E+03  0.15676002148E+03  0.41800000000E+01 0.  1.
         -5    1    4    4    0  501  0.27245967603E+02 -0.24229275527E+02  0.63037729552E+02  0.72942636985E+02  0.41800000000E+01 0.  1.
</event>
<event>
11    1  0.5813833E-009  0.2342887E+03  0.7561462E-02  0.1032618E+00
         22   -1    0    0    0    0  0.00000000000E+00  0.00000000000E+00  0.88533224711E+03  0.88533224711E+03  0.00000000000E+00 0.  1.
         22   -1    0    0    0    0 -0.00000000000E+00 -0.00000000000E+00 -0.25219010533E+03  0.25219010533E+03  0.00000000000E+00 0.  1.
        -24    2    1    2    0    0  0.55579803310E+01 -0.16342655907E+02 -0.16194630418E+03  0.18139815055E+03  0.79879346751E+02 0.  0.
         25    2    1    2    0    0 -0.88274727972E+02 -0.16705639248E+03  0.15094508928E+03  0.27227176771E+03  0.12508888697E+03 0.  0.
         24    2    1    2    0    0  0.82716747640E+02  0.18339904839E+03  0.64414335668E+03  0.68385243419E+03  0.11070779779E+03 0.  0.
        -11    1    5    5    0    0  0.21389232913E+02  0.70460907085E+02  0.41182917841E+03  0.41836050352E+03  0.00000000000E+00 0.  1.
         12    1    5    5    0    0  0.61327514728E+02  0.11293814131E+03  0.23231417827E+03  0.26549193067E+03  0.00000000000E+00 0. -1.
         13    1    3    3    0    0  0.29916996190E+02  0.44111059267E+01 -0.20882439827E+02  0.36749977002E+02  0.00000000000E+00 0. -1.
        -14    1    3    3    0    0 -0.24359015859E+02 -0.20753761833E+02 -0.14106386435E+03  0.14464817355E+03  0.00000000000E+00 0.  1.
          5    1    4    4  501    0 -0.81592984864E+02 -0.86573940475E+02  0.23499436157E+02  0.12133490119E+03  0.41800000000E+01 0. -1.
         -5    1    4    4    0  501 -0.66817431078E+01 -0.80482452009E+02  0.12744565312E+03  0.15093686651E+03  0.41800000000E+01 0. -1.
</event>
<event>
11    1  0.5813833E-009  0.1404513E+03  0.7561462E-02  0.1107056E+00
         22   -1    0    0    0    0  0.00000000000E+00  0.00000000000E+00  0.57316293252E+03  0.57316293252E+03  0.00000000000E+00 0. -1.
         22   -1    0    0    0    0 -0.00000000000E+00 -0.00000000000E+00 -0.19314157299E+03  0.19314157299E+03  0.00000000000E+00 0. -1.
        -24    2    1    2    0    0 -0.23257352617E+02 -0.57844193868E+02 -0.76359382189E+02  0.12710083525E+03  0.80230990635E+02 0.  0.
         25    2    1    2    0    0  0.62582702843E+02  0.43294051323E+02 -0.25519998415E+02  0.14862559801E+03  0.12508928208E+03 0.  0.
         24    2    1    2    0    0 -0.39325350225E+02  0.14550142546E+02  0.48190074013E+03  0.49057807224E+03  0.81733296790E+02 0.  0.
        -11    1    5    5    0    0  0.14879321626E+02  0.18996093185E+02  0.52897303433E+02  0.58140953543E+02  0.00000000000E+00 0.  1.
         12    1    5    5    0    0 -0.54204671851E+02 -0.44459506395E+01  0.42900343670E+03  0.43243711870E+03  0.00000000000E+00 0. -1.
         13    1    3    3    0    0  0.67512161049E+01 -0.23608467321E+02 -0.77768813226E+02  0.81553215502E+02  0.00000000000E+00 0. -1.
        -14    1    3    3    0    0 -0.30008568722E+02 -0.34235726548E+02  0.14094310370E+01  0.45547619749E+02  0.00000000000E+00 0.  1.
          5    1    4    4  501    0  0.28735633846E+02 -0.32156088941E+02 -0.46142942448E+02  0.63296083973E+02  0.41800000000E+01 0.  1.
         -5    1    4    4    0  501  0.33847068996E+02  0.75450140264E+02  0.20622944033E+02  0.85329514038E+02  0.41800000000E+01 0.  1.
</event>
<event>
11    1  0.5813833E-009  0.1519924E+03  0.7561462E-02  0.1094860E+00
         22   -1    0    0    0    0  0.00000000000E+00  0.00000000000E+00  0.67623150526E+03  0.67623150526E+03  0.00000000000E+00 0.  1.
         22   -1    0    0    0    0 -0.00000000000E+00 -0.00000000000E+00 -0.12301233791E+03  0.12301233791E+03  0.00000000000E+00 0.  1.
        -24    2    1    2    0    0  0.35724335138E+02 -0.67621456040E+02 -0.60293394263E+02  0.12617776606E+03  0.80228709432E+02 0.  0.
         25    2    1    2    0    0  0.40954455510E+02  0.98771198222E+02  0.39500533037E+03  0.42791286562E+03  0.12508873859E+03 0.  0.
         24    2    1    2    0    0 -0.76678790648E+02 -0.31149742183E+02  0.21850723124E+03  0.24515321149E+03  0.74193959478E+02 0.  0.
        -11    1    5    5    0    0 -0.30673999250E+02 -0.48275871728E+02  0.15264883316E+03  0.16301263842E+03  0.00000000000E+00 0.  1.
         12    1    5    5    0    0 -0.46004791398E+02  0.17126129546E+02  0.65858398086E+02  0.82140573064E+02  0.00000000000E+00 0. -1.
         11    1    3    3    0    0  0.11275437762E+02 -0.22667264223E+02  0.19105670901E+02  0.31716983222E+02  0.00000000000E+00 0. -1.
        -12    1    3    3    0    0  0.24448897376E+02 -0.44954191817E+02 -0.79399065164E+02  0.94460782834E+02  0.00000000000E+00 0.  1.
          5    1    4    4  501    0  0.70086762830E+01  0.51017096539E+02  0.33295804730E+02  0.61465020093E+02  0.41800000000E+01 0. -1.
         -5    1    4    4    0  501  0.33945779227E+02  0.47754101684E+02  0.36170952564E+03  0.36644784553E+03  0.41800000000E+01 0. -1.
</event>
<event>
11    1  0.5813833E-009  0.1893374E+03  0.7561462E-02  0.1062331E+00
         22   -1    0    0    0    0  0.00000000000E+00  0.00000000000E+00  0.44046109579E+03  0.44046109579E+03  0.00000000000E+00 0.  1.
         22   -1    0    0    0    0 -0.00000000000E+00 -0.00000000000E+00 -0.42544148596E+03  0.42544148596E+03  0.00000000000E+00 0.  1.
         24    2    1    2    0    0 -0.41475881540E+02  0.84299998249E+02 -0.91761211905E+02  0.15693673723E+03  0.85920201517E+02 0.  0.
         25    2    1    2    0    0  0.18071686011E+03 -0.75769791757E+02 -0.23211472193E+03  0.32851935867E+03  0.12509228598E+03 0.  0.
        -24    2    1    2    0    0 -0.13924097857E+03 -0.85302064921E+01  0.33889554366E+03  0.38044648585E+03  0.10212014761E+03 0.  0.
        -13    1    3    3    0    0 -0.53677221788E+02  0.84568225712E+02 -0.47189415947E+02  0.11072429687E+03  0.00000000000E+00 0.  1.
         14    1    3    3    0    0  0.12201340247E+02 -0.26822746264E+00 -0.44571795958E+02  0.46212440368E+02  0.00000000000E+00 0. -1.
         11    1    5    5    0    0 -0.54559153518E+02 -0.53949056872E+02  0.14532662759E+03  0.16433815947E+03  0.00000000000E+00 0. -1.
        -12    1    5    5    0    0 -0.84681825050E+02  0.45418850380E+02  0.19356891607E+03  0.21610832638E+03  0.00000000000E+00 0.  1.
          5    1    4    4  501    0  0.15182645606E+01 -0.11624751372E+02  0.13104670041E+02  0.18073315928E+02  0.41800000000E+01 0.  1.
         -5    1    4    4    0  501  0.17919859555E+03 -0.64145040385E+02 -0.24521939197E+03  0.31044604274E+03  0.41800000000E+01 0.  1.
</event>
<event>
11    1  0.5813833E-009  0.1375913E+03  0.7561462E-02  0.1110278E+00
         22   -1    0    0    0    0  0.00000000000E+00  0.00000000000E+00  0.16400436918E+03  0.16400436918E+03  0.00000000000E+00 0. -1.
         22   -1    0    0    0    0 -0.00000000000E+00 -0.00000000000E+00 -0.74359952923E+03  0.74359952923E+03  0.00000000000E+00 0. -1.
         24    2    1    2    0    0  0.37053865216E+02  0.50368618285E+02 -0.43435045421E+03  0.44495373435E+03  0.73576640359E+02 0.  0.
         25    2    1    2    0    0 -0.15438281661E+02  0.67354608522E+01 -0.27097202760E+03  0.29892676112E+03  0.12509061435E+03 0.  0.
        -24    2    1    2    0    0 -0.21615583556E+02 -0.57104079137E+02  0.12572732176E+03  0.16372340295E+03  0.85263614332E+02 0.  0.
        -11    1    3    3    0    0  0.75041505719E+01  0.62814957626E+02 -0.25291187634E+03  0.26070375596E+03  0.00000000000E+00 0.  1.
         12    1    3    3    0    0  0.29549714644E+02 -0.12446339341E+02 -0.18143857787E+03  0.18424997839E+03  0.00000000000E+00 0. -1.
         11    1    5    5    0    0 -0.23447028168E+02 -0.77089222904E+02  0.11646218642E+03  0.14161903927E+03  0.00000000000E+00 0. -1.
        -12    1    5    5    0    0  0.18314446119E+01  0.19985143767E+02  0.92651353409E+01  0.22104363678E+02  0.00000000000E+00 0.  1.
          5    1    4    4  501    0 -0.25544471496E+02  0.54460734559E+02 -0.22054765984E+03  0.22864215337E+03  0.41800000000E+01 0. -1.
         -5    1    4    4    0  501  0.10106189835E+02 -0.47725273707E+02 -0.50424367754E+02  0.70284607751E+02  0.41800000000E+01 0. -1.
</event>
<event>
11    1  0.5813833E-009  0.1408065E+03  0.7561462E-02  0.1106661E+00
         22   -1    0    0    0    0  0.00000000000E+00  0.00000000000E+00  0.19155926941E+03  0.19155926941E+03  0.00000000000E+00 0.  1.
         22   -1    0    0    0    0 -0.00000000000E+00 -0.00000000000E+00 -0.89046573719E+03  0.89046573719E+03  0.00000000000E+00 0.  1.
         24    2    1    2    0    0 -0.65486926310E+02 -0.42471627638E+01 -0.76711710638E+03  0.77407010885E+03  0.80058120170E+02 0.  0.
         25    2    1    2    0    0  0.52883207855E+02 -0.40110781920E+02 -0.56833733439E+02  0.15258769041E+03  0.12508965388E+03 0.  0.
        -24    2    1    2    0    0  0.12603718455E+02  0.44357944683E+02  0.12504437205E+03  0.15536720734E+03  0.79852320950E+02 0.  0.
        -11    1    3    3    0    0 -0.55188280919E+02  0.90971323768E+01 -0.74020253862E+03  0.74231280626E+03  0.00000000000E+00 0.  1.
         12    1    3    3    0    0 -0.10298645391E+02 -0.13344295141E+02 -0.26914567764E+02  0.31757302587E+02  0.00000000000E+00 0. -1.
         11    1    5    5    0    0 -0.18362366126E+02 -0.28943817078E+01  0.48579565274E+00  0.18595427734E+02  0.00000000000E+00 0. -1.
        -12    1    5    5    0    0  0.30966084581E+02  0.47252326391E+02  0.12455857640E+03  0.13677177961E+03  0.00000000000E+00 0.  1.
          5    1    4    4  501    0  0.35015791297E+02 -0.10673964094E+02  0.37201274111E+02  0.52358822992E+02  0.41800000000E+01 0.  1.
         -5    1    4    4    0  501  0.17867416558E+02 -0.29436817826E+02 -0.94035007549E+02  0.10022886741E+03  0.41800000000E+01 0.  1.
</event>
<event>
11    1  0.5813833E-009  0.1559851E+03  0.7561462E-02  0.1090915E+00
         22   -1    0    0    0    0  0.00000000000E+00  0.00000000000E+00  0.58857443468E+03  0.58857443468E+03  0.00000000000E+00 0.  1.
         22   -1    0    0    0    0 -0.00000000000E+00 -0.00000000000E+00 -0.98687605921E+03  0.98687605921E+03  0.00000000000E+00 0.  1.
         24    2    1    2    0    0  0.17217456462E+02  0.26061108346E+01 -0.93496102136E+03  0.93939483650E+03  0.89483600566E+02 0.  0.
         25    2    1    2    0    0 -0.98886401178E+02 -0.40582434222E+02  0.12701994010E+03  0.20786137956E+03  0.12508730400E+03 0.  0.
        -24    2    1    2    0    0  0.81668944716E+02  0.37976323387E+02  0.40963945674E+03  0.42819427783E+03  0.86219704122E+02 0.  0.
        -13    1    3    3    0    0 -0.36736681403E+02 -0.14051488194E+01 -0.41595710436E+03  0.41757858048E+03  0.00000000000E+00 0.  1.
         14    1    3    3    0    0  0.53954137865E+02  0.40112596540E+01 -0.51900391700E+03  0.52181625603E+03  0.00000000000E+00 0. -1.
         11    1    5    5    0    0  0.50357263587E+02  0.31276106930E+01  0.75628538804E+02  0.90913760379E+02  0.00000000000E+00 0. -1.
        -12    1    5    5    0    0  0.31311681129E+02  0.34848712694E+02  0.33401091793E+03  0.33728051745E+03  0.00000000000E+00 0.  1.
          5    1    4    4  501    0 -0.67786200941E+02  0.36193539755E+02  0.36778603660E+02  0.85294076260E+02  0.41800000000E+01 0. -1.
         -5    1    4    4    0  501 -0.31100200237E+02 -0.76775973976E+02  0.90241336438E+02  0.12256730329E+03  0.41800000000E+01 0. -1.
</event>
<event>
11    1  0.5813833E-009  0.1428759E+03  0.7561462E-02  0.1104389E+00
         22   -1    0    0    0    0  0.00000000000E+00  0.00000000000E+00  0.76489682793E+02  0.76489682793E+02  0.00000000000E+00 0.  1.
         22   -1    0    0    0    0 -0.00000000000E+00 -0.00000000000E+00 -0.11214591224E+04  0.11214591224E+04  0.00000000000E+00 0.  1.
         24    2    1    2    0    0 -0.74553415494E+02 -0.14076950313E+02 -0.80432797633E+03  0.81154015147E+03  0.76795518415E+02 0.  0.
         25    2    1    2    0    0  0.36331661561E+02  0.19619442320E+02 -0.26341451178E+03  0.29451629433E+03  0.12509088880E+03 0.  0.
        -24    2    1    2    0    0  0.38221753933E+02 -0.55424920069E+01  0.22773048452E+02  0.91892359443E+02  0.80212045834E+02 0.  0.
        -11    1    3    3    0    0 -0.34393264234E+02 -0.30945865831E+02 -0.63555037825E+03  0.63723216062E+03  0.00000000000E+00 0.  1.
         12    1    3    3    0    0 -0.40160151260E+02  0.16868915518E+02 -0.16877759808E+03  0.17430799085E+03  0.00000000000E+00 0. -1.
         13    1    5    5    0    0  0.33568623744E+01  0.35160948037E+02  0.11295570861E+02  0.37083024593E+02  0.00000000000E+00 0. -1.
        -14    1    5    5    0    0  0.34864891559E+02 -0.40703440044E+02  0.11477477591E+02  0.54809334850E+02  0.00000000000E+00 0.  1.
          5    1    4    4  501    0  0.42668588526E+02  0.99356284621E+01 -0.27446921260E+03  0.27797508202E+03  0.41800000000E+01 0.  1.
         -5    1    4    4    0  501 -0.63369269653E+01  0.96838138578E+01  0.11054700825E+02  0.16541212305E+02  0.41800000000E+01 0.  1.
</event>
<event>
11    1  0.5813833E-009  0.1408959E+03  0.7561462E-02  0.1106562E+00
         22   -1    0    0    0    0  0.00000000000E+00  0.00000000000E+00  0.66438732276E+03  0.66438732276E+03  0.00000000000E+00 0.  1.
         22   -1    0    0    0    0 -0.00000000000E+00 -0.00000000000E+00 -0.34157987343E+03  0.34157987343E+03  0.00000000000E+00 0.  1.
        -24    2    1    2    0    0 -0.63714177893E+02 -0.22269396116E+01 -0.30123997322E+03  0.31780372625E+03  0.78671667219E+02 0.  0.
         25    2    1    2    0    0  0.95623231615E+02  0.38993805695E+02  0.22065782160E+03  0.27386458846E+03  0.12509044437E+03 0.  0.
         24    2    1    2    0    0 -0.31909053722E+02 -0.36766866084E+02  0.40338960095E+03  0.41429888148E+03  0.80934559308E+02 0.  0.
        -11    1    5    5    0    0 -0.28910191582E+01 -0.55767572648E+01  0.32516868641E+03  0.32522935420E+03  0.00000000000E+00 0.  1.
         12    1    5    5    0    0 -0.29018034564E+02 -0.31190108819E+02  0.78220914540E+02  0.89069527278E+02  0.00000000000E+00 0. -1.
         13    1    3    3    0    0 -0.65354595222E+02  0.26211857764E+02 -0.18049345087E+03  0.19374253640E+03  0.00000000000E+00 0. -1.
        -14    1    3    3    0    0  0.16404173285E+01 -0.28438797376E+02 -0.12074652235E+03  0.12406118985E+03  0.00000000000E+00 0.  1.
          5    1    4    4  501    0  0.23396594971E+02  0.67870318099E+02  0.54094432440E+02  0.89985891983E+02  0.41800000000E+01 0. -1.
         -5    1    4    4    0  501  0.72226636645E+02 -0.28876512404E+02  0.16656338916E+03  0.18387869648E+03  0.41800000000E+01 0. -1.
</event>
<event>
11    1  0.5813833E-009  0.2100398E+03  0.7561462E-02  0.1047643E+00
         22   -1    0    0    0    0  0.00000000000E+00  0.00000000000E+00  0.29242303800E+04  0.29242303800E+04  0.00000000000E+00 0.  1.
         22   -1    0    0    0    0 -0.00000000000E+00 -0.00000000000E+00 -0.55173718827E+03  0.55173718827E+03  0.00000000000E+00 0.  1.
         24    2    1    2    0    0 -0.15282429003E+03  0.83459636219E+02 -0.50461218915E+03  0.53987237392E+03  0.80671830148E+02 0.  0.
         25    2    1    2    0    0  0.11504598394E+03  0.73200997780E+02  0.30261923041E+03  0.35471134916E+03  0.12509107927E+03 0.  0.
        -24    2    1    2    0    0  0.37778306093E+02 -0.15666063400E+03  0.25744861505E+04  0.25813838452E+04  0.97948264665E+02 0.  0.
        -11    1    3    3    0    0 -0.13589175043E+03  0.42598570554E+02 -0.32388834973E+03  0.35381473844E+03  0.00000000000E+00 0.  1.
         12    1    3    3    0    0 -0.16932539608E+02  0.40861065665E+02 -0.18072383942E+03  0.18605763548E+03  0.00000000000E+00 0. -1.
         11    1    5    5    0    0 -0.12965298872E+02 -0.16340850384E+01  0.51571465756E+02  0.53201365480E+02  0.00000000000E+00 0. -1.
        -12    1    5    5    0    0  0.50743604964E+02 -0.15502654896E+03  0.25229146847E+04  0.25281824797E+04  0.00000000000E+00 0.  1.
          5    1    4    4  501    0  0.13430517012E+02  0.80990597765E+02  0.15200886384E+03  0.17281210259E+03  0.41800000000E+01 0. -1.
         -5    1    4    4    0  501  0.10161546693E+03 -0.77895999853E+01  0.15061036657E+03  0.18189924658E+03  0.41800000000E+01 0. -1.
</event>
<event>
11    1  0.5813833E-009  0.1324618E+03  0.7561462E-02  0.1116281E+00
         22   -1    0    0    0    0  0.00000000000E+00  0.00000000000E+00  0.90663298963E+03  0.90663298963E+03  0.00000000000E+00 0. -1.
         22   -1    0    0    0    0 -0.00000000000E+00 -0.00000000000E+00 -0.21273412237E+04  0.21273412237E+04  0.00000000000E+00 0. -1.
         24    2    1    2    0    0  0.43444915177E+02  0.10344499335E+02 -0.19649152291E+04  0.19670286522E+04  0.79469439146E+02 0.  0.
         25    2    1    2    0    0 -0.82976616062E+01 -0.33686711863E+02 -0.13254283740E+03  0.18552338268E+03  0.12509067125E+03 0.  0.
        -24    2    1    2    0    0 -0.35147253571E+02  0.23342212528E+02  0.87674983242E+03  0.88142217843E+03  0.80215956435E+02 0.  0.
        -11    1    3    3    0    0  0.87524141722E+01  0.41758501115E+02 -0.11270600436E+04  0.11278673322E+04  0.00000000000E+00 0.  1.
         12    1    3    3    0    0  0.34692501005E+02 -0.31414001780E+02 -0.83785518547E+03  0.83916131998E+03  0.00000000000E+00 0. -1.
         11    1    5    5    0    0 -0.20761896885E+02  0.15609091729E+02  0.84768560633E+03  0.84808347897E+03  0.00000000000E+00 0. -1.
        -12    1    5    5    0    0 -0.14385356686E+02  0.77331207992E+01  0.29064226085E+02  0.33338699467E+02  0.00000000000E+00 0.  1.
          5    1    4    4  501    0  0.11089840578E+02  0.36043894808E+02 -0.98257277347E+02  0.10532858999E+03  0.41800000000E+01 0.  1.
         -5    1    4    4    0  501 -0.19387502184E+02 -0.69730606671E+02 -0.34285560049E+02  0.80194792695E+02  0.41800000000E+01 0.  1.
</event>
<event>
11    1  0.5813833E-009  0.1315658E+03  0.7561462E-02  0.1117360E+00
         22   -1    0    0    0    0  0.00000000000E+00  0.00000000000E+00  0.39162548727E+03  0.39162548727E+03  0.00000000000E+00 0. -1.
         22   -1    0    0    0    0 -0.00000000000E+00 -0.00000000000E+00 -0.32568188224E+03  0.32568188224E+03  0.00000000000E+00 0.  1.
        -24    2    1    2    0    0  0.33856777915E+02  0.10450644861E+02 -0.13029512240E+03  0.15690075237E+03  0.79909509965E+02 0.  0.
         25    2    1    2    0    0 -0.34659246670E+01  0.18219974003E+02 -0.15363706187E+03  0.19898554648E+03  0.12508765264E+03 0.  0.
         24    2    1    2    0    0 -0.30390853248E+02 -0.28670618864E+02  0.34987578930E+03  0.36142107067E+03  0.80414638212E+02 0.  0.
        -11    1    5    5    0    0 -0.23922066539E+02  0.23528438687E+02  0.85190895197E+02  0.91560588241E+02  0.00000000000E+00 0.  1.
         12    1    5    5    0    0 -0.64687867090E+01 -0.52199057551E+02  0.26468489410E+03  0.26986048242E+03  0.00000000000E+00 0. -1.
         11    1    3    3    0    0  0.30111097052E+02 -0.23386810396E+02 -0.23444809060E+02  0.44758017584E+02  0.00000000000E+00 0. -1.
        -12    1    3    3    0    0  0.37456808638E+01  0.33837455257E+02 -0.10685031334E+03  0.11214273478E+03  0.00000000000E+00 0.  1.
          5    1    4    4  501    0 -0.41069104456E+02 -0.37575107172E+02 -0.92172410691E+02  0.10775799605E+03  0.41800000000E+01 0. -1.
         -5    1    4    4    0  501  0.37603179789E+02  0.55795081175E+02 -0.61464651175E+02  0.91227550431E+02  0.41800000000E+01 0. -1.
</event>
<event>
11    1  0.5813833E-009  0.1775929E+03  0.7561462E-02  0.1071607E+00
         22   -1    0    0    0    0  0.00000000000E+00  0.00000000000E+00  0.32168053275E+04  0.32168053275E+04  0.00000000000E+00 0. -1.
         22   -1    0    0    0    0 -0.00000000000E+00 -0.00000000000E+00 -0.16122082530E+03  0.16122082530E+03  0.00000000000E+00 0. -1.
        -24    2    1    2    0    0 -0.61235849444E+02  0.10555383673E+03 -0.95872269739E+02  0.17856969394E+03  0.88341393369E+02 0.  0.
         25    2    1    2    0    0  0.13871885070E+03 -0.12805430938E+03  0.54061417441E+03  0.58612987908E+03  0.12507487312E+03 0.  0.
         24    2    1    2    0    0 -0.77483001256E+02  0.22500472645E+02  0.26108425975E+04  0.26133265797E+04  0.80416769393E+02 0.  0.
        -13    1    5    5    0    0 -0.58081973647E+00  0.28133280696E+02  0.33556067936E+03  0.33673845692E+03  0.00000000000E+00 0.  1.
         14    1    5    5    0    0 -0.76902181519E+02 -0.56328080505E+01  0.22752819181E+04  0.22765881228E+04  0.00000000000E+00 0. -1.
         13    1    3    3    0    0 -0.28026216581E+01  0.81412834572E+02 -0.28814819038E+02  0.86407164734E+02  0.00000000000E+00 0. -1.
        -14    1    3    3    0    0 -0.58433227786E+02  0.24141002159E+02 -0.67057450701E+02  0.92162529204E+02  0.00000000000E+00 0.  1.
          5    1    4    4  501    0  0.78266803628E+02 -0.13646003068E+03  0.31156935508E+03  0.34905582355E+03  0.41800000000E+01 0.  1.
         -5    1    4    4    0  501  0.60452047072E+02  0.84057213076E+01  0.22904481932E+03  0.23707405553E+03  0.41800000000E+01 0.  1.
</event>
<event>
11    1  0.7280351E-009  0.1655085E+03  0.7561462E-02  0.1082008E+00
         22   -1    0    0    0    0  0.00000000000E+00  0.00000000000E+00  0.39738740549E+03  0.39738740549E+03  0.00000000000E+00 0.  1.
         22   -1    0    0    0    0 -0.00000000000E+00 -0.00000000000E+00 -0.87488859725E+03  0.87488859725E+03  0.00000000000E+00 0.  1.
        -24    2    1    2    0    0 -0.46911882327E+02 -0.20873547342E+02 -0.45029761473E+03  0.46071279848E+03  0.82776271753E+02 0.  0.
         25    2    1    2    0    0  0.11773440489E+03  0.10108100216E+03 -0.38268460242E+03  0.43147986168E+03  0.12509439242E+03 0.  0.
         24    2    1    2    0    0 -0.70822522559E+02 -0.80207454817E+02  0.35548102540E+03  0.38008334258E+03  0.81532339483E+02 0.  0.
        -11    1    5    5    0    0 -0.82657575058E+02 -0.48667823676E+02  0.30209166872E+03  0.31695458363E+03  0.00000000000E+00 0.  1.
         12    1    5    5    0    0  0.11835052499E+02 -0.31539631142E+02  0.53389356682E+02  0.63128758954E+02  0.00000000000E+00 0. -1.
         13    1    3    3    0    0 -0.39801571401E+02 -0.12837540726E+02 -0.80104881407E+02  0.90364592419E+02  0.00000000000E+00 0. -1.
        -14    1    3    3    0    0 -0.71103109267E+01 -0.80360066153E+01 -0.37019273333E+03  0.37034820606E+03  0.00000000000E+00 0.  1.
          5    1    4    4  501    0 -0.19078654935E+02  0.33614767118E+02 -0.13566471040E+03  0.14112524115E+03  0.41800000000E+01 0.  1.
         -5    1    4    4    0  501  0.13681305982E+03  0.67466235041E+02 -0.24701989202E+03  0.29035462053E+03  0.41800000000E+01 0.  1.
</event>
<event>
11    1  0.5813833E-009  0.1999087E+03  0.7561462E-02  0.1054588E+00
         22   -1    0    0    0    0  0.00000000000E+00  0.00000000000E+00  0.80070548576E+03  0.80070548576E+03  0.00000000000E+00 0. -1.
         22   -1    0    0    0    0 -0.00000000000E+00 -0.00000000000E+00 -0.93730773493E+02  0.93730773493E+02  0.00000000000E+00 0.  1.
         24    2    1    2    0    0  0.28180181346E+02  0.40261235307E+02  0.58677843722E+02  0.11083400943E+03  0.80162326647E+02 0.  0.
         25    2    1    2    0    0  0.62258000970E+02  0.10058358023E+03  0.90927871196E+02  0.19469974086E+03  0.12508795319E+03 0.  0.
        -24    2    1    2    0    0 -0.90438182316E+02 -0.14084481554E+03  0.55736899735E+03  0.58890250896E+03  0.90164510620E+02 0.  0.
        -13    1    3    3    0    0  0.27543224511E+02  0.28655363771E+01 -0.12535134715E+02  0.30396876772E+02  0.00000000000E+00 0.  1.
         14    1    3    3    0    0  0.63695683458E+00  0.37395698930E+02  0.71212978437E+02  0.80437132658E+02  0.00000000000E+00 0. -1.
         13    1    5    5    0    0  0.12998435708E+02 -0.50905556856E+02  0.17445252633E+03  0.18219225832E+03  0.00000000000E+00 0. -1.
        -14    1    5    5    0    0 -0.10343661802E+03 -0.89939258684E+02  0.38291647102E+03  0.40671025064E+03  0.00000000000E+00 0.  1.
          5    1    4    4  501    0  0.21209245805E+02  0.38059553030E+02  0.10915406948E+03  0.11760291224E+03  0.41800000000E+01 0.  1.
         -5    1    4    4    0  501  0.41048755165E+02  0.62524027203E+02 -0.18226198283E+02  0.77096828613E+02  0.41800000000E+01 0.  1.
</event>
<event>
11    1  0.5813833E-009  0.1381477E+03  0.7561462E-02  0.1109645E+00
         22   -1    0    0    0    0  0.00000000000E+00  0.00000000000E+00  0.48245557776E+03  0.48245557776E+03  0.00000000000E+00 0.  1.
         22   -1    0    0    0    0 -0.00000000000E+00 -0.00000000000E+00 -0.70530980248E+03  0.70530980248E+03  0.00000000000E+00 0. -1.
         24    2    1    2    0    0  0.37396467585E+02 -0.45480086505E+02 -0.63182948166E+03  0.63951382140E+03  0.79388285111E+02 0.  0.
         25    2    1    2    0    0 -0.57115164315E+02  0.22379355480E+02  0.94728778449E+01  0.13963899912E+03  0.12508531934E+03 0.  0.
        -24    2    1    2    0    0  0.19718696730E+02  0.23100731025E+02  0.39950237908E+03  0.40861255972E+03  0.80247132627E+02 0.  0.
        -11    1    3    3    0    0 -0.54727078889E+01  0.96737826505E+01 -0.14626231913E+02  0.18370064300E+02  0.00000000000E+00 0.  1.
         12    1    3    3    0    0  0.42869175474E+02 -0.55153869156E+02 -0.61720324974E+03  0.62114375710E+03  0.00000000000E+00 0. -1.
         11    1    5    5    0    0  0.40424198125E+02  0.16152708150E+02  0.11019398452E+03  0.11848096894E+03  0.00000000000E+00 0. -1.
        -12    1    5    5    0    0 -0.20705501395E+02  0.69480228754E+01  0.28930839456E+03  0.29013159079E+03  0.00000000000E+00 0.  1.
          5    1    4    4  501    0  0.20381828051E+02 -0.28234707327E+01  0.45750764967E+02  0.50338810045E+02  0.41800000000E+01 0. -1.
         -5    1    4    4    0  501 -0.77496992366E+02  0.25202826213E+02 -0.36277887122E+02  0.89300189076E+02  0.41800000000E+01 0. -1.
</event>
<event>
11    1  0.5813833E-009  0.1537447E+03  0.7561462E-02  0.1093113E+00
         22   -1    0    0    0    0  0.00000000000E+00  0.00000000000E+00  0.77661298883E+03  0.77661298883E+03  0.00000000000E+00 0. -1.
         22   -1    0    0    0    0 -0.00000000000E+00 -0.00000000000E+00 -0.84181008356E+02  0.84181008356E+02  0.00000000000E+00 0.  1.
        -24    2    1    2    0    0 -0.60089245118E+02 -0.65169419774E+02  0.14589403943E+02  0.12129647657E+03  0.81499778332E+02 0.  0.
         25    2    1    2    0    0  0.42182276857E+02  0.84762814968E+02  0.19926553203E+03  0.25361436928E+03  0.12509762895E+03 0.  0.
         24    2    1    2    0    0  0.17906968261E+02 -0.19593395194E+02  0.47857704450E+03  0.48588315134E+03  0.79635975415E+02 0.  0.
        -11    1    5    5    0    0  0.19654620481E+02  0.88052537455E+01  0.33046344007E+02  0.39444865977E+02  0.00000000000E+00 0.  1.
         12    1    5    5    0    0 -0.17476522201E+01 -0.28398648939E+02  0.44553070050E+03  0.44643828536E+03  0.00000000000E+00 0. -1.
         13    1    3    3    0    0  0.20070898953E+02 -0.82253366412E+01 -0.11306216659E+01  0.21720392561E+02  0.00000000000E+00 0. -1.
        -14    1    3    3    0    0 -0.80160144071E+02 -0.56944083133E+02  0.15720025608E+02  0.99576084008E+02  0.00000000000E+00 0.  1.
          5    1    4    4  501    0 -0.12530929431E+02  0.51451068719E+02  0.10387258529E+02  0.54125818279E+02  0.41800000000E+01 0. -1.
         -5    1    4    4    0  501  0.54713206288E+02  0.33311746249E+02  0.18887827350E+03  0.19948855100E+03  0.41800000000E+01 0. -1.
</event>
<event>
11    1  0.5813833E-009  0.1552238E+03  0.7561462E-02  0.1091657E+00
         22   -1    0    0    0    0  0.00000000000E+00  0.00000000000E+00  0.29848164542E+04  0.29848164542E+04  0.00000000000E+00 0.  1.
         22   -1    0    0    0    0 -0.00000000000E+00 -0.00000000000E+00 -0.74037656097E+03  0.74037656097E+03  0.00000000000E+00 0.  1.
         24    2    1    2    0    0  0.11773494407E+02  0.91024256177E+02 -0.72138151910E+03  0.73174091419E+03  0.81421367082E+02 0.  0.
         25    2    1    2    0    0 -0.11742153850E+02 -0.10328462024E+03  0.48981358247E+03  0.51611101932E+03  0.12509055814E+03 0.  0.
        -24    2    1    2    0    0 -0.31340556584E-01  0.12260364061E+02  0.24760078299E+04  0.24773410817E+04  0.80335196768E+02 0.  0.
        -11    1    3    3    0    0  0.76414596349E+01  0.82601227232E+02 -0.71626857950E+03  0.72105619242E+03  0.00000000000E+00 0.  1.
         12    1    3    3    0    0  0.41320347721E+01  0.84230289454E+01 -0.51129395985E+01  0.10684721770E+02  0.00000000000E+00 0. -1.
         13    1    5    5    0    0  0.18425730934E+02  0.62541497786E+01  0.15055051306E+03  0.15180276326E+03  0.00000000000E+00 0. -1.
        -14    1    5    5    0    0 -0.18457071490E+02  0.60062142825E+01  0.23254573168E+04  0.23255383184E+04  0.00000000000E+00 0.  1.
          5    1    4    4  501    0  0.19290774535E+02 -0.10742865572E+03  0.23264740130E+03  0.25701232613E+03  0.41800000000E+01 0. -1.
         -5    1    4    4    0  501 -0.31032928386E+02  0.41440354804E+01  0.25716618117E+03  0.25909869318E+03  0.41800000000E+01 0. -1.
</event>
<event>
11    1  0.5813833E-009  0.2152809E+03  0.7561462E-02  0.1044215E+00
         22   -1    0    0    0    0  0.00000000000E+00  0.00000000000E+00  0.83316777254E+03  0.83316777254E+03  0.00000000000E+00 0. -1.
         22   -1    0    0    0    0 -0.00000000000E+00 -0.00000000000E+00 -0.48345347272E+03  0.48345347272E+03  0.00000000000E+00 0. -1.
         24    2    1    2    0    0  0.73666522920E+02 -0.15070870579E+02 -0.30968117099E+03  0.32857996416E+03  0.80052966493E+02 0.  0.
         25    2    1    2    0    0 -0.17878152937E+03 -0.12170225900E+03 -0.48029456989E+02  0.25441916116E+03  0.12509198909E+03 0.  0.
        -24    2    1    2    0    0  0.10511500645E+03  0.13677312958E+03  0.70742492780E+03  0.73362211994E+03  0.89416625031E+02 0.  0.
        -11    1    3    3    0    0  0.28551169893E+01 -0.32121488470E+02 -0.55702693135E+02  0.64364056250E+02  0.00000000000E+00 0.  1.
         12    1    3    3    0    0  0.70811405930E+02  0.17050617891E+02 -0.25397847785E+03  0.26421590791E+03  0.00000000000E+00 0. -1.
         11    1    5    5    0    0  0.38115733508E+02  0.39887272836E+00  0.21274793899E+03  0.21613573000E+03  0.00000000000E+00 0. -1.
        -12    1    5    5    0    0  0.66999272944E+02  0.13637425685E+03  0.49467698882E+03  0.51748638994E+03  0.00000000000E+00 0.  1.
          5    1    4    4  501    0 -0.47540501291E+02 -0.13820150294E+02  0.39303051835E+02  0.63350596688E+02  0.41800000000E+01 0. -1.
         -5    1    4    4    0  501 -0.13124102808E+03 -0.10788210871E+03 -0.87332508824E+02  0.19106856447E+03  0.41800000000E+01 0. -1.
</event>
<event>
11    1  0.5813833E-009  0.1618167E+03  0.7561462E-02  0.1085381E+00
         22   -1    0    0    0    0  0.00000000000E+00  0.00000000000E+00  0.12302404857E+03  0.12302404857E+03  0.00000000000E+00 0. -1.
         22   -1    0    0    0    0 -0.00000000000E+00 -0.00000000000E+00 -0.16421884943E+04  0.16421884943E+04  0.00000000000E+00 0.  1.
         24    2    1    2    0    0 -0.48410877203E+02  0.42334413399E+02 -0.89125276766E+03  0.89707065018E+03  0.79173480219E+02 0.  0.
         25    2    1    2    0    0  0.26118618737E+02 -0.14083742275E+03 -0.69585705352E+03  0.72137513092E+03  0.12509068182E+03 0.  0.
        -24    2    1    2    0    0  0.22292258466E+02  0.98503009348E+02  0.67945375499E+02  0.14676676173E+03  0.82000735723E+02 0.  0.
        -13    1    3    3    0    0 -0.70564808246E+02  0.33853302184E+02 -0.67755311222E+03  0.68205839787E+03  0.00000000000E+00 0.  1.
         14    1    3    3    0    0  0.22153931043E+02  0.84811112154E+01 -0.21369965544E+03  0.21501225231E+03  0.00000000000E+00 0. -1.
         13    1    5    5    0    0  0.45827520619E+02  0.49499178017E+02  0.62795663912E+02  0.92160868467E+02  0.00000000000E+00 0. -1.
        -14    1    5    5    0    0 -0.23535262153E+02  0.49003831331E+02  0.51497115874E+01  0.54605893264E+02  0.00000000000E+00 0.  1.
          5    1    4    4  501    0  0.44801875497E+02 -0.15548184214E+03 -0.54238880390E+03  0.56602552794E+03  0.41800000000E+01 0.  1.
         -5    1    4    4    0  501 -0.18683256759E+02  0.14644419396E+02 -0.15346824963E+03  0.15534960298E+03  0.41800000000E+01 0.  1.
</event>
<event>
11    1  0.5813833E-009  0.1532950E+03  0.7561462E-02  0.1093559E+00
         22   -1    0    0    0    0  0.00000000000E+00  0.00000000000E+00  0.23319534463E+04  0.23319534463E+04  0.00000000000E+00 0. -1.
         22   -1    0    0    0    0 -0.00000000000E+00 -0.00000000000E+00 -0.10645050738E+04  0.10645050738E+04  0.00000000000E+00 0. -1.
         24    2    1    2    0    0 -0.83296080100E+01 -0.88919485475E+02 -0.10460259933E+04  0.10528300124E+04  0.79401505195E+02 0.  0.
         25    2    1    2    0    0  0.35940196152E+02  0.20420756901E+02  0.30514139018E+03  0.33236491125E+03  0.12508581540E+03 0.  0.
        -24    2    1    2    0    0 -0.27610588142E+02  0.68498728574E+02  0.20083329756E+04  0.20112635965E+04  0.79532969945E+02 0.  0.
        -13    1    3    3    0    0 -0.11584494548E+02 -0.32265311844E+02 -0.11314302998E+03  0.11822265475E+03  0.00000000000E+00 0.  1.
         14    1    3    3    0    0  0.32548865379E+01 -0.56654173630E+02 -0.93288296330E+03  0.93460735761E+03  0.00000000000E+00 0. -1.
         11    1    5    5    0    0 -0.16694024194E+02  0.57662470133E+02  0.19503942054E+04  0.19513178130E+04  0.00000000000E+00 0. -1.
        -12    1    5    5    0    0 -0.10916563948E+02  0.10836258441E+02  0.57938770185E+02  0.59945783471E+02  0.00000000000E+00 0.  1.
          5    1    4    4  501    0  0.15467634708E+02 -0.48178961399E+02  0.19043326249E+03  0.19708566642E+03  0.41800000000E+01 0.  1.
         -5    1    4    4    0  501  0.20472561444E+02  0.68599718299E+02  0.11470812769E+03  0.13527924483E+03  0.41800000000E+01 0.  1.
</event>
<event>
11    1  0.5813833E-009  0.1425910E+03  0.7561462E-02  0.1104699E+00
         22   -1    0    0    0    0  0.00000000000E+00  0.00000000000E+00  0.21330043280E+04  0.21330043280E+04  0.00000000000E+00 0. -1.
         22   -1    0    0    0    0 -0.00000000000E+00 -0.00000000000E+00 -0.10808073556E+03  0.10808073556E+03  0.00000000000E+00 0.  1.
         24    2    1    2    0    0  0.18757267848E+02 -0.29325015826E+02 -0.75667192721E+02  0.11562424625E+03  0.80197572379E+02 0.  0.
         25    2    1    2    0    0 -0.82043329332E+02  0.71632586478E+01  0.52037767375E+03  0.54149960246E+03  0.12508587435E+03 0.  0.
        -24    2    1    2    0    0  0.63286061484E+02  0.22161757178E+02  0.15802131114E+04  0.15839612149E+04  0.85810160552E+02 0.  0.
        -11    1    3    3    0    0  0.44881026312E+02  0.16634671550E+00 -0.55463762787E+02  0.71348182714E+02  0.00000000000E+00 0.  1.
         12    1    3    3    0    0 -0.26123758464E+02 -0.29491362541E+02 -0.20203429934E+02  0.44276063532E+02  0.00000000000E+00 0. -1.
         13    1    5    5    0    0  0.18162184941E+02 -0.18534102801E+02  0.10429534110E+04  0.10432761836E+04  0.00000000000E+00 0. -1.
        -14    1    5    5    0    0  0.45123876544E+02  0.40695859979E+02  0.53725970048E+03  0.54068503125E+03  0.00000000000E+00 0.  1.
          5    1    4    4  501    0 -0.61074945513E+01  0.37590439571E+02  0.44926689259E+02  0.59044241418E+02  0.41800000000E+01 0. -1.
         -5    1    4    4    0  501 -0.75935834780E+02 -0.30427180923E+02  0.47545098449E+03  0.48245536104E+03  0.41800000000E+01 0. -1.
</event>
<event>
11    1  0.5813833E-009  0.1583557E+03  0.7561462E-02  0.1088634E+00
         22   -1    0    0    0    0  0.00000000000E+00  0.00000000000E+00  0.12918891717E+03  0.12918891717E+03  0.00000000000E+00 0. -1.
         22   -1    0    0    0    0 -0.00000000000E+00 -0.00000000000E+00 -0.11486788633E+04  0.11486788633E+04  0.00000000000E+00 0.  1.
        -24    2    1    2    0    0 -0.47573558938E+02  0.79420172593E+02 -0.35862837479E+03  0.37905095964E+03  0.80588531882E+02 0.  0.
         25    2    1    2    0    0  0.11904305657E+03 -0.20146647191E+02 -0.73526825241E+03  0.75554178410E+03  0.12508736069E+03 0.  0.
         24    2    1    2    0    0 -0.71469497631E+02 -0.59273525402E+02  0.74406681082E+02  0.14327503673E+03  0.79813169679E+02 0.  0.
        -11    1    5    5    0    0 -0.59669109403E+02  0.17536379570E+01  0.29454553064E+02  0.66566121708E+02  0.00000000000E+00 0.  1.
         12    1    5    5    0    0 -0.11800388228E+02 -0.61027163359E+02  0.44952128018E+02  0.76708915018E+02  0.00000000000E+00 0. -1.
         13    1    3    3    0    0  0.83227839309E+01  0.59737478348E+02 -0.22358031670E+03  0.23157286773E+03  0.00000000000E+00 0. -1.
        -14    1    3    3    0    0 -0.55896342869E+02  0.19682694245E+02 -0.13504805809E+03  0.14747809191E+03  0.00000000000E+00 0.  1.
          5    1    4    4  501    0  0.38837198215E+02 -0.17091327335E+02 -0.57176010353E+03  0.57334765180E+03  0.41800000000E+01 0.  1.
         -5    1    4    4    0  501  0.80205858354E+02 -0.30553198563E+01 -0.16350814888E+03  0.18219413230E+03  0.41800000000E+01 0.  1.
</event>
<event>
11    1  0.5813833E-009  0.1879889E+03  0.7561462E-02  0.1063358E+00
         22   -1    0    0    0    0  0.00000000000E+00  0.00000000000E+00  0.96330674484E+03  0.96330674484E+03  0.00000000000E+00 0.  1.
         22   -1    0    0    0    0 -0.00000000000E+00 -0.00000000000E+00 -0.20984005474E+03  0.20984005474E+03  0.00000000000E+00 0. -1.
         24    2    1    2    0    0  0.65570076414E+02  0.40094557009E+02 -0.10896269059E+03  0.15584563890E+03  0.80672094317E+02 0.  0.
         25    2    1    2    0    0 -0.19855637215E+03 -0.25605975115E+02  0.13211426402E+03  0.27052112750E+03  0.12508877961E+03 0.  0.
        -24    2    1    2    0    0  0.13298629573E+03 -0.14488581894E+02  0.73031511668E+03  0.74678003317E+03  0.80155938266E+02 0.  0.
        -11    1    3    3    0    0  0.31698510788E+02  0.58380171743E+02 -0.41958297691E+02  0.78571870183E+02  0.00000000000E+00 0.  1.
         12    1    3    3    0    0  0.33871565626E+02 -0.18285614734E+02 -0.67004392902E+02  0.77273768721E+02  0.00000000000E+00 0. -1.
         11    1    5    5    0    0  0.48620323583E+02  0.27387100181E+02  0.17962640814E+03  0.18809475172E+03  0.00000000000E+00 0. -1.
        -12    1    5    5    0    0  0.84365972152E+02 -0.41875682074E+02  0.55068870854E+03  0.55868528146E+03  0.00000000000E+00 0.  1.
          5    1    4    4  501    0  0.70661182747E+01 -0.10709393725E+02  0.44455688392E+02  0.46458602775E+02  0.41800000000E+01 0.  1.
         -5    1    4    4    0  501 -0.20562249042E+03 -0.14896581390E+02  0.87658575631E+02  0.22406252473E+03  0.41800000000E+01 0.  1.
</event>
<event>
11    1  0.5813833E-009  0.1555046E+03  0.7561462E-02  0.1091383E+00
         22   -1    0    0    0    0  0.00000000000E+00  0.00000000000E+00  0.13178743582E+03  0.13178743582E+03  0.00000000000E+00 0.  1.
         22   -1    0    0    0    0 -0.00000000000E+00 -0.00000000000E+00 -0.24065979542E+04  0.24065979542E+04  0.00000000000E+00 0. -1.
        -24    2    1    2    0    0  0.88819713861E+02  0.28391929305E+02 -0.22593275544E+04  0.22626857520E+04  0.80565323057E+02 0.  0.
         25    2    1    2    0    0 -0.75809681238E+02  0.96405688235E+01 -0.76856678914E+02  0.16551328051E+03  0.12509056157E+03 0.  0.
         24    2    1    2    0    0 -0.13010032623E+02 -0.38032498129E+02  0.61373714884E+02  0.11018635750E+03  0.82210514152E+02 0.  0.
        -11    1    5    5    0    0 -0.15452864133E+01 -0.61299018659E+02  0.57312329562E+02  0.83932477138E+02  0.00000000000E+00 0.  1.
         12    1    5    5    0    0 -0.11464746209E+02  0.23266520530E+02  0.40613853214E+01  0.26253880360E+02  0.00000000000E+00 0. -1.
         11    1    3    3    0    0  0.22596864055E+02  0.43964349181E+02 -0.62894842642E+03  0.63088794993E+03  0.00000000000E+00 0. -1.
        -12    1    3    3    0    0  0.66222849806E+02 -0.15572419876E+02 -0.16303791279E+04  0.16317978021E+04  0.00000000000E+00 0.  1.
          5    1    4    4  501    0 -0.43974352177E+02 -0.41743228815E+02  0.79413351416E+01  0.61292560765E+02  0.41800000000E+01 0.  1.
         -5    1    4    4    0  501 -0.31835329061E+02  0.51383797639E+02 -0.84798014056E+02  0.10422071974E+03  0.41800000000E+01 0.  1.
</event>
<event>
11    1  0.5813833E-009  0.1837006E+03  0.7561462E-02  0.1066688E+00
         22   -1    0    0    0    0  0.00000000000E+00  0.00000000000E+00  0.13856627284E+03  0.13856627284E+03  0.00000000000E+00 0.  1.
         22   -1    0    0    0    0 -0.00000000000E+00 -0.00000000000E+00 -0.17101646383E+04  0.17101646383E+04  0.00000000000E+00 0. -1.
         24    2    1    2    0    0 -0.95674722616E+02 -0.64747013723E+02 -0.13314242145E+04  0.13386486920E+04  0.77097686391E+02 0.  0.
         25    2    1    2    0    0  0.23666057781E+02  0.17631256925E+03 -0.27611480484E+03  0.35147308722E+03  0.12509093182E+03 0.  0.
        -24    2    1    2    0    0  0.72008664835E+02 -0.11156555553E+03  0.35940653903E+02  0.15860913192E+03  0.78949383364E+02 0.  0.
        -11    1    3    3    0    0  0.61546743422E+01  0.57929854435E+01 -0.25539456919E+02  0.26901720322E+02  0.00000000000E+00 0.  1.
         12    1    3    3    0    0 -0.10182939696E+03 -0.70539999167E+02 -0.13058847576E+04  0.13117469717E+04  0.00000000000E+00 0. -1.
         11    1    5    5    0    0  0.81584100988E+02 -0.74508973584E+02  0.71559710673E+01  0.11071928739E+03  0.00000000000E+00 0. -1.
        -12    1    5    5    0    0 -0.95754361531E+01 -0.37056581944E+02  0.28784682836E+02  0.47889844527E+02  0.00000000000E+00 0.  1.
          5    1    4    4  501    0 -0.18376438767E+02  0.17075441143E+03 -0.19524854468E+03  0.26006581691E+03  0.41800000000E+01 0.  1.
         -5    1    4    4    0  501  0.42042496548E+02  0.55581578222E+01 -0.80866260158E+02  0.91407270315E+02  0.41800000000E+01 0.  1.
</event>
<event>
11    1  0.5813833E-009  0.1327248E+03  0.7561462E-02  0.1115966E+00
         22   -1    0    0    0    0  0.00000000000E+00  0.00000000000E+00  0.49151668690E+03  0.49151668690E+03  0.00000000000E+00 0.  1.
         22   -1    0    0    0    0 -0.00000000000E+00 -0.00000000000E+00 -0.20475540837E+04  0.20475540837E+04  0.00000000000E+00 0.  1.
         24    2    1    2    0    0 -0.30843848587E+02 -0.27874336478E+02 -0.13801749328E+04  0.13829923049E+04  0.77823829830E+02 0.  0.
         25    2    1    2    0    0  0.20980548880E+02  0.62484962118E+02 -0.65452567948E+03  0.66962392655E+03  0.12509110276E+03 0.  0.
        -24    2    1    2    0    0  0.98632997079E+01 -0.34610625640E+02  0.47866321546E+03  0.48645453922E+03  0.78894643660E+02 0.  0.
        -11    1    3    3    0    0 -0.18743522558E+02 -0.47071646064E+02 -0.12363885467E+04  0.12374262394E+04  0.00000000000E+00 0.  1.
         12    1    3    3    0    0 -0.12100326030E+02  0.19197309586E+02 -0.14378638611E+03  0.14556606547E+03  0.00000000000E+00 0. -1.
         11    1    5    5    0    0 -0.25736853432E+02  0.11346670827E+02  0.13359824777E+03  0.13652700968E+03  0.00000000000E+00 0. -1.
        -12    1    5    5    0    0  0.35600153140E+02 -0.45957296467E+02  0.34506496769E+03  0.34992752954E+03  0.00000000000E+00 0.  1.
          5    1    4    4  501    0  0.17593763469E+02 -0.37062597000E+02 -0.16777329008E+03  0.17276725926E+03  0.41800000000E+01 0. -1.
         -5    1    4    4    0  501  0.33867854107E+01  0.99547559118E+02 -0.48675238940E+03  0.49685666729E+03  0.41800000000E+01 0. -1.
</event>
<event>
11    1  0.5813833E-009  0.1486868E+03  0.7561462E-02  0.1098228E+00
         22   -1    0    0    0    0  0.00000000000E+00  0.00000000000E+00  0.39253792368E+03  0.39253792368E+03  0.00000000000E+00 0.  1.
         22   -1    0    0    0    0 -0.00000000000E+00 -0.00000000000E+00 -0.91822469400E+03  0.91822469400E+03  0.00000000000E+00 0. -1.
         24    2    1    2    0    0  0.36662121310E+02 -0.12856798437E+02 -0.86497721800E+03  0.86975810324E+03  0.82366025135E+02 0.  0.
         25    2    1    2    0    0 -0.17274330989E+01  0.85727710875E+02  0.12588926414E+03  0.19709898289E+03  0.12509067829E+03 0.  0.
        -24    2    1    2    0    0 -0.34934688211E+02 -0.72870912438E+02  0.21340118352E+03  0.24390553154E+03  0.86135015343E+02 0.  0.
        -13    1    3    3    0    0  0.20404782365E+02 -0.47758071730E+02 -0.44522614514E+03  0.44824492064E+03  0.00000000000E+00 0.  1.
         14    1    3    3    0    0  0.16257338945E+02  0.34901273293E+02 -0.41975107285E+03  0.42151318260E+03  0.00000000000E+00 0. -1.
         13    1    5    5    0    0  0.37229424929E+00  0.18740867319E+02  0.22906246286E+02  0.29598223423E+02  0.00000000000E+00 0. -1.
        -14    1    5    5    0    0 -0.35306982460E+02 -0.91611779756E+02  0.19049493724E+03  0.21430730812E+03  0.00000000000E+00 0.  1.
          5    1    4    4  501    0  0.28761653363E+02  0.16203643184E+02  0.11569837480E+03  0.12038844250E+03  0.41800000000E+01 0. -1.
         -5    1    4    4    0  501 -0.30489086462E+02  0.69524067691E+02  0.10190889343E+02  0.76710540392E+02  0.41800000000E+01 0. -1.
</event>
<event>
11    1  0.5813833E-009  0.1436874E+03  0.7561462E-02  0.1103509E+00
         22   -1    0    0    0    0  0.00000000000E+00  0.00000000000E+00  0.82335397389E+03  0.82335397389E+03  0.00000000000E+00 0.  1.
         22   -1    0    0    0    0 -0.00000000000E+00 -0.00000000000E+00 -0.90468985430E+03  0.90468985430E+03  0.00000000000E+00 0. -1.
         24    2    1    2    0    0 -0.55306736654E+02 -0.45404114901E+02 -0.80849523814E+03  0.81538445794E+03  0.77890277933E+02 0.  0.
         25    2    1    2    0    0  0.17133276122E+02  0.67160694959E+02 -0.33213535882E+02  0.14681657761E+03  0.12509140816E+03 0.  0.
        -24    2    1    2    0    0  0.38173460532E+02 -0.21756580058E+02  0.76037289361E+03  0.76584279265E+03  0.80110447795E+02 0.  0.
        -11    1    3    3    0    0 -0.72852547529E+02 -0.37880821941E+02 -0.53954370321E+03  0.54575622583E+03  0.00000000000E+00 0.  1.
         12    1    3    3    0    0  0.17545810875E+02 -0.75232929602E+01 -0.26895153493E+03  0.26962823212E+03  0.00000000000E+00 0. -1.
         13    1    5    5    0    0  0.13658808307E+02  0.99718239315E+01  0.30543464024E+02  0.34912798677E+02  0.00000000000E+00 0. -1.
        -14    1    5    5    0    0  0.24514652225E+02 -0.31728403989E+02  0.72982942959E+03  0.73092999397E+03  0.00000000000E+00 0.  1.
          5    1    4    4  501    0  0.65779567772E+02  0.46578074569E+02 -0.45181925162E+02  0.92495120564E+02  0.41800000000E+01 0.  1.
         -5    1    4    4    0  501 -0.48646291650E+02  0.20582620390E+02  0.11968389280E+02  0.54321457044E+02  0.41800000000E+01 0.  1.
</event>
<event>
11    1  0.5813833E-009  0.1369942E+03  0.7561462E-02  0.1110962E+00
         22   -1    0    0    0    0  0.00000000000E+00  0.00000000000E+00  0.11664245480E+03  0.11664245480E+03  0.00000000000E+00 0. -1.
         22   -1    0    0    0    0 -0.00000000000E+00 -0.00000000000E+00 -0.58710749522E+03  0.58710749522E+03  0.00000000000E+00 0. -1.
         24    2    1    2    0    0  0.53738976866E+02 -0.91291819393E+01 -0.45169938963E+03  0.46181947317E+03  0.79206487175E+02 0.  0.
         25    2    1    2    0    0 -0.79669613875E+02 -0.44837552758E+01  0.16135089420E+02  0.14924699717E+03  0.12508786359E+03 0.  0.
        -24    2    1    2    0    0  0.25930637009E+02  0.13612937215E+02 -0.34900740215E+02  0.92683479688E+02  0.80712178413E+02 0.  0.
        -11    1    3    3    0    0  0.55646057783E+01 -0.17058359568E+02 -0.18122740827E+02  0.25502670521E+02  0.00000000000E+00 0.  1.
         12    1    3    3    0    0  0.48174371088E+02  0.79291776290E+01 -0.43357664880E+03  0.43631680265E+03  0.00000000000E+00 0. -1.
         13    1    5    5    0    0 -0.17196889329E+02  0.33695019533E+02 -0.10732679673E+02  0.39322738421E+02  0.00000000000E+00 0. -1.
        -14    1    5    5    0    0  0.43127526338E+02 -0.20082082318E+02 -0.24168060542E+02  0.53360741268E+02  0.00000000000E+00 0.  1.
          5    1    4    4  501    0 -0.36660107401E+02  0.55763797899E+02 -0.15498417966E+02  0.68638458536E+02  0.41800000000E+01 0. -1.
         -5    1    4    4    0  501 -0.43009506475E+02 -0.60247553175E+02  0.31633507386E+02  0.80608538632E+02  0.41800000000E+01 0. -1.
</event>
<event>
11    1  0.5813833E-009  0.1406070E+03  0.7561462E-02  0.1106883E+00
         22   -1    0    0    0    0  0.00000000000E+00  0.00000000000E+00  0.46632227946E+03  0.46632227946E+03  0.00000000000E+00 0.  1.
         22   -1    0    0    0    0 -0.00000000000E+00 -0.00000000000E+00 -0.19699688177E+03  0.19699688177E+03  0.00000000000E+00 0. -1.
        -24    2    1    2    0    0 -0.17819753288E+02  0.21051351921E+02 -0.33154487088E+02  0.91674696585E+02  0.80897014500E+02 0.  0.
         25    2    1    2    0    0  0.57167295989E+02 -0.69994795407E+02 -0.81081629361E+02  0.17432509105E+03  0.12509050977E+03 0.  0.
         24    2    1    2    0    0 -0.39347542701E+02  0.48943443486E+02  0.38356151414E+03  0.39731937359E+03  0.82459442891E+02 0.  0.
        -11    1    5    5    0    0 -0.42141892869E+02  0.70325168203E+02  0.31059030635E+03  0.32122874531E+03  0.00000000000E+00 0.  1.
         12    1    5    5    0    0  0.27943501684E+01 -0.21381724718E+02  0.72971207794E+02  0.76090628277E+02  0.00000000000E+00 0. -1.
         13    1    3    3    0    0 -0.50164053176E+02  0.90978210888E+01 -0.19309464737E+02  0.54516584706E+02  0.00000000000E+00 0. -1.
        -14    1    3    3    0    0  0.32344299887E+02  0.11953530832E+02 -0.13845022352E+02  0.37158111880E+02  0.00000000000E+00 0.  1.
          5    1    4    4  501    0  0.86230410327E+02 -0.84457502222E+02 -0.70903206110E+02  0.14004817165E+03  0.41800000000E+01 0.  1.
         -5    1    4    4    0  501 -0.29063114338E+02  0.14462706815E+02 -0.10178423251E+02  0.34276919397E+02  0.41800000000E+01 0.  1.
</event>
<event>
11    1  0.5813833E-009  0.2166092E+03  0.7561462E-02  0.1043363E+00
         22   -1    0    0    0    0  0.00000000000E+00  0.00000000000E+00  0.50088903265E+03  0.50088903265E+03  0.00000000000E+00 0. -1.
         22   -1    0    0    0    0 -0.00000000000E+00 -0.00000000000E+00 -0.15762719155E+04  0.15762719155E+04  0.00000000000E+00 0.  1.
        -24    2    1    2    0    0  0.36564042293E+02  0.19248328047E+02 -0.74351485965E+03  0.74896728742E+03  0.80188676194E+02 0.  0.
         25    2    1    2    0    0  0.13519849294E+03  0.26648670651E+02 -0.79980063551E+03  0.82116804137E+03  0.12508841457E+03 0.  0.
         24    2    1    2    0    0 -0.17176253523E+03 -0.45896998698E+02  0.46793261228E+03  0.50702561939E+03  0.80654485830E+02 0.  0.
        -11    1    5    5    0    0 -0.10841485349E+02 -0.31753790669E+02  0.87759488752E+02  0.93955142981E+02  0.00000000000E+00 0.  1.
         12    1    5    5    0    0 -0.16092104988E+03 -0.14143208029E+02  0.38017312353E+03  0.41307047641E+03  0.00000000000E+00 0. -1.
         13    1    3    3    0    0  0.71052535574E+01  0.39197262745E+02 -0.18116148422E+03  0.18548960456E+03  0.00000000000E+00 0. -1.
        -14    1    3    3    0    0  0.29458788735E+02 -0.19948934697E+02 -0.56235337542E+03  0.56347768286E+03  0.00000000000E+00 0.  1.
          5    1    4    4  501    0 -0.14593417723E+01 -0.25614463680E+02 -0.42247062311E+02  0.49603599687E+02  0.41800000000E+01 0. -1.
         -5    1    4    4    0  501  0.13665783471E+03  0.52263134330E+02 -0.75755357320E+03  0.77156444168E+03  0.41800000000E+01 0. -1.
</event>
<event>
11    1  0.5813833E-009  0.1687180E+03  0.7561462E-02  0.1079153E+00
         22   -1    0    0    0    0  0.00000000000E+00  0.00000000000E+00  0.17498307984E+04  0.17498307984E+04  0.00000000000E+00 0. -1.
         22   -1    0    0    0    0 -0.00000000000E+00 -0.00000000000E+00 -0.73624821371E+02  0.73624821371E+02  0.00000000000E+00 0.  1.
        -24    2    1    2    0    0  0.77263563535E+02 -0.81871241333E+02  0.15286873420E+02  0.14102435626E+03  0.83556101824E+02 0.  0.
         25    2    1    2    0    0 -0.73266761037E+02  0.10137661000E+03  0.13086183599E+04  0.13205205978E+04  0.12508957686E+03 0.  0.
         24    2    1    2    0    0 -0.39968024980E+01 -0.19505368662E+02  0.35230074375E+03  0.36191066567E+03  0.80418169847E+02 0.  0.
        -11    1    5    5    0    0 -0.24656841707E+02  0.17981875727E+02  0.69718472997E+02  0.76105014123E+02  0.00000000000E+00 0.  1.
         12    1    5    5    0    0  0.20660039209E+02 -0.37487244389E+02  0.28258227076E+03  0.28580565155E+03  0.00000000000E+00 0. -1.
         13    1    3    3    0    0  0.20585318555E+02  0.13966487419E+02  0.16184620998E+02  0.29677602122E+02  0.00000000000E+00 0. -1.
        -14    1    3    3    0    0  0.56678244980E+02 -0.95837728752E+02 -0.89774757846E+00  0.11134675414E+03  0.00000000000E+00 0.  1.
          5    1    4    4  501    0  0.11573401097E+02 -0.23105772555E+02  0.18729185702E+03  0.18911248622E+03  0.41800000000E+01 0. -1.
         -5    1    4    4    0  501 -0.84840162134E+02  0.12448238255E+03  0.11213265028E+04  0.11314081116E+04  0.41800000000E+01 0. -1.
</event>
<event>
11    1  0.5813833E-009  0.1346701E+03  0.7561462E-02  0.1113660E+00
         22   -1    0    0    0    0  0.00000000000E+00  0.00000000000E+00  0.95820193975E+03  0.95820193975E+03  0.00000000000E+00 0. -1.
         22   -1    0    0    0    0 -0.00000000000E+00 -0.00000000000E+00 -0.12399264855E+04  0.12399264855E+04  0.00000000000E+00 0.  1.
         24    2    1    2    0    0  0.42991863793E+02  0.56683987288E+01 -0.11837112022E+04  0.11870708031E+04  0.78002886318E+02 0.  0.
         25    2    1    2    0    0 -0.57527685457E+02 -0.52382292166E+02  0.53027080409E+02  0.15656521068E+03  0.12508978700E+03 0.  0.
        -24    2    1    2    0    0  0.14535821664E+02  0.46713893438E+02  0.84895957608E+03  0.85449241143E+03  0.83853690497E+02 0.  0.
        -13    1    3    3    0    0  0.12573152428E+02 -0.33125040630E+02 -0.68874041081E+03  0.68965114802E+03  0.00000000000E+00 0.  1.
         14    1    3    3    0    0  0.30418711365E+02  0.38793439359E+02 -0.49497079143E+03  0.49741965512E+03  0.00000000000E+00 0. -1.
         13    1    5    5    0    0 -0.14476264176E+02 -0.36762635025E+01  0.53411224292E+03  0.53432103194E+03  0.00000000000E+00 0. -1.
        -14    1    5    5    0    0  0.29012085840E+02  0.50390156940E+02  0.31484733317E+03  0.32017137949E+03  0.00000000000E+00 0.  1.
          5    1    4    4  501    0 -0.50087425323E+02  0.11415101400E+01  0.81182279530E+02  0.95488680641E+02  0.41800000000E+01 0. -1.
         -5    1    4    4    0  501 -0.74402601344E+01 -0.53523802306E+02 -0.28155199121E+02  0.61076530040E+02  0.41800000000E+01 0. -1.
</event>
<event>
11    1  0.5813833E-009  0.1459646E+03  0.7561462E-02  0.1101075E+00
         22   -1    0    0    0    0  0.00000000000E+00  0.00000000000E+00  0.41670324664E+04  0.41670324664E+04  0.00000000000E+00 0. -1.
         22   -1    0    0    0    0 -0.00000000000E+00 -0.00000000000E+00 -0.21031611425E+03  0.21031611425E+03  0.00000000000E+00 0. -1.
        -24    2    1    2    0    0  0.82671857970E+01 -0.49073316212E+01 -0.16717561257E+03  0.18599338621E+03  0.80953233466E+02 0.  0.
         25    2    1    2    0    0  0.14513409889E+02  0.76542399391E+02  0.13173194929E+03  0.19766218144E+03  0.12509058132E+03 0.  0.
         24    2    1    2    0    0 -0.22780595686E+02 -0.71635067770E+02  0.39921600154E+04  0.39936930130E+04  0.81189622221E+02 0.  0.
        -13    1    5    5    0    0  0.26288801156E+02 -0.49700471224E+02  0.18209161458E+04  0.18217839740E+04  0.00000000000E+00 0.  1.
         14    1    5    5    0    0 -0.49069396841E+02 -0.21934596547E+02  0.21712438696E+04  0.21719090390E+04  0.00000000000E+00 0. -1.
         11    1    3    3    0    0  0.37920191434E+02  0.12878392023E+02 -0.12607252750E+03  0.13228029365E+03  0.00000000000E+00 0. -1.
        -12    1    3    3    0    0 -0.29653005637E+02 -0.17785723645E+02 -0.41103085078E+02  0.53713092554E+02  0.00000000000E+00 0.  1.
          5    1    4    4  501    0  0.27781763184E+02 -0.10710507806E+02  0.98957577941E+02  0.10342444573E+03  0.41800000000E+01 0. -1.
         -5    1    4    4    0  501 -0.13268353295E+02  0.87252907197E+02  0.32774371345E+02  0.94237735704E+02  0.41800000000E+01 0. -1.
</event>
<event>
11    1  0.5813833E-009  0.1518248E+03  0.7561462E-02  0.1095029E+00
         22   -1    0    0    0    0  0.00000000000E+00  0.00000000000E+00  0.29519786989E+03  0.29519786989E+03  0.00000000000E+00 0.  1.
         22   -1    0    0    0    0 -0.00000000000E+00 -0.00000000000E+00 -0.24588060268E+03  0.24588060268E+03  0.00000000000E+00 0.  1.
        -24    2    1    2    0    0 -0.45206435244E+01 -0.51686937118E+02 -0.16269862495E+03  0.18871465483E+03  0.80314399072E+02 0.  0.
         25    2    1    2    0    0  0.36066459642E+02 -0.44597949374E+02  0.52722151657E+02  0.14736726384E+03  0.12509084129E+03 0.  0.
         24    2    1    2    0    0 -0.31545816118E+02  0.96284886492E+02  0.15929374051E+03  0.20499655391E+03  0.79894764959E+02 0.  0.
        -11    1    5    5    0    0 -0.56996840983E+02  0.57556562977E+02  0.11667145338E+03  0.14203388982E+03  0.00000000000E+00 0.  1.
         12    1    5    5    0    0  0.25451024865E+02  0.38728323515E+02  0.42622287127E+02  0.62962664087E+02  0.00000000000E+00 0. -1.
         13    1    3    3    0    0 -0.28498719150E+02 -0.10520016263E+02 -0.15713909470E+02  0.34201969040E+02  0.00000000000E+00 0. -1.
        -14    1    3    3    0    0  0.23978075626E+02 -0.41166920854E+02 -0.14698471548E+03  0.15451268579E+03  0.00000000000E+00 0.  1.
          5    1    4    4  501    0  0.36279242883E+02  0.28800320344E+02 -0.13492486616E+02  0.48426867658E+02  0.41800000000E+01 0. -1.
         -5    1    4    4    0  501 -0.21278324103E+00 -0.73398269718E+02  0.66214638273E+02  0.98940396178E+02  0.41800000000E+01 0. -1.
</event>
<event>
11    1  0.5813833E-009  0.1465281E+03  0.7561462E-02  0.1100480E+00
         22   -1    0    0    0    0  0.00000000000E+00  0.00000000000E+00  0.16061494614E+03  0.16061494614E+03  0.00000000000E+00 0. -1.
         22   -1    0    0    0    0 -0.00000000000E+00 -0.00000000000E+00 -0.76846953935E+03  0.76846953935E+03  0.00000000000E+00 0.  1.
         24    2    1    2    0    0  0.97366777172E+01  0.27053227666E+01 -0.59887708838E+03  0.60420094376E+03  0.79390753813E+02 0.  0.
         25    2    1    2    0    0 -0.51563244759E+02 -0.65158971611E+02 -0.10173265024E+03  0.18137529341E+03  0.12507199984E+03 0.  0.
        -24    2    1    2    0    0  0.41826567042E+02  0.62453648845E+02  0.92755145409E+02  0.14350824831E+03  0.79631528742E+02 0.  0.
        -11    1    3    3    0    0  0.42464576773E+02 -0.59760592697E+01 -0.24664845662E+03  0.25034858641E+03  0.00000000000E+00 0.  1.
         12    1    3    3    0    0 -0.32727899056E+02  0.86813820363E+01 -0.35222863176E+03  0.35385235735E+03  0.00000000000E+00 0. -1.
         13    1    5    5    0    0 -0.12813656996E+02  0.43018062614E+02  0.65562728001E+02  0.79455741262E+02  0.00000000000E+00 0. -1.
        -14    1    5    5    0    0  0.54640224038E+02  0.19435586231E+02  0.27192417409E+02  0.64052507052E+02  0.00000000000E+00 0.  1.
          5    1    4    4  501    0  0.39658041580E+02 -0.35848032293E+02 -0.28637729631E+02  0.60790078464E+02  0.41800000000E+01 0. -1.
         -5    1    4    4    0  501 -0.91221286339E+02 -0.29310939318E+02 -0.73094920613E+02  0.12058521495E+03  0.41800000000E+01 0. -1.
</event>
<event>
11    1  0.5813833E-009  0.1713948E+03  0.7561462E-02  0.1076824E+00
         22   -1    0    0    0    0  0.00000000000E+00  0.00000000000E+00  0.11040718236E+03  0.11040718236E+03  0.00000000000E+00 0. -1.
         22   -1    0    0    0    0 -0.00000000000E+00 -0.00000000000E+00 -0.62607925084E+03  0.62607925084E+03  0.00000000000E+00 0. -1.
        -24    2    1    2    0    0  0.41195891211E+02 -0.63067921896E+02 -0.33726261369E+03  0.35504283056E+03  0.81453524864E+02 0.  0.
         25    2    1    2    0    0 -0.14028319071E+02 -0.92467782254E+02 -0.53876534487E+02  0.16521992283E+03  0.12509139635E+03 0.  0.
         24    2    1    2    0    0 -0.27167572140E+02  0.15553570415E+03 -0.12453292030E+03  0.21622367982E+03  0.79465711057E+02 0.  0.
        -11    1    5    5    0    0 -0.17506106453E+02  0.46788132499E+02 -0.87830711551E+02  0.10104368856E+03  0.00000000000E+00 0.  1.
         12    1    5    5    0    0 -0.96614656870E+01  0.10874757165E+03 -0.36702208747E+02  0.11517999126E+03  0.00000000000E+00 0. -1.
         13    1    3    3    0    0  0.20333646069E+02 -0.52890425175E+02 -0.87766227529E+02  0.10446896636E+03  0.00000000000E+00 0. -1.
        -14    1    3    3    0    0  0.20862245143E+02 -0.10177496721E+02 -0.24949638616E+03  0.25057386420E+03  0.00000000000E+00 0.  1.
          5    1    4    4  501    0 -0.98533600135E-01 -0.48366486949E+02  0.38412887219E+02  0.61905969608E+02  0.41800000000E+01 0.  1.
         -5    1    4    4    0  501 -0.13929785471E+02 -0.44101295305E+02 -0.92289421706E+02  0.10331395322E+03  0.41800000000E+01 0.  1.
</event>
<event>
11    1  0.5813833E-009  0.1411558E+03  0.7561462E-02  0.1106275E+00
         22   -1    0    0    0    0  0.00000000000E+00  0.00000000000E+00  0.15105990922E+04  0.15105990922E+04  0.00000000000E+00 0.  1.
         22   -1    0    0    0    0 -0.00000000000E+00 -0.00000000000E+00 -0.33733236181E+02  0.33733236181E+02  0.00000000000E+00 0. -1.
         24    2    1    2    0    0 -0.39554206479E+00 -0.68616646609E+02  0.89229400884E+02  0.13788931420E+03  0.79644060318E+02 0.  0.
         25    2    1    2    0    0  0.23964170929E+02  0.45040405670E+02  0.68585521385E+03  0.69903363505E+03  0.12509088272E+03 0.  0.
        -24    2    1    2    0    0 -0.23568628864E+02  0.23576240939E+02  0.70178124131E+03  0.70740937915E+03  0.82582078255E+02 0.  0.
        -11    1    3    3    0    0 -0.13205334115E+02  0.12130575877E+02  0.36320716741E+02  0.40505878398E+02  0.00000000000E+00 0.  1.
         12    1    3    3    0    0  0.12809792051E+02 -0.80747222486E+02  0.52908684143E+02  0.97383435806E+02  0.00000000000E+00 0. -1.
         13    1    5    5    0    0 -0.30746967303E+02  0.23558602841E+02  0.13158035784E+03  0.13716331264E+03  0.00000000000E+00 0. -1.
        -14    1    5    5    0    0  0.71783384384E+01  0.17638098514E-01  0.57020088347E+03  0.57024606651E+03  0.00000000000E+00 0.  1.
          5    1    4    4  501    0 -0.47357546148E+02  0.41806603788E+02  0.30013048363E+03  0.30673491634E+03  0.41800000000E+01 0.  1.
         -5    1    4    4    0  501  0.71321717078E+02  0.32338018822E+01  0.38572473022E+03  0.39229871871E+03  0.41800000000E+01 0.  1.
</event>
<event>
11    1  0.5813833E-009  0.1303340E+03  0.7561462E-02  0.1118859E+00
         22   -1    0    0    0    0  0.00000000000E+00  0.00000000000E+00  0.28039321095E+03  0.28039321095E+03  0.00000000000E+00 0. -1.
         22   -1    0    0    0    0 -0.00000000000E+00 -0.00000000000E+00 -0.85195286803E+03  0.85195286803E+03  0.00000000000E+00 0. -1.
         24    2    1    2    0    0  0.11290949227E+02 -0.26442729159E+02 -0.53000297328E+03  0.53676470927E+03  0.79915567752E+02 0.  0.
         25    2    1    2    0    0  0.24802545296E+02  0.18248389604E+02 -0.29721488923E+03  0.32393321306E+03  0.12509143124E+03 0.  0.
        -24    2    1    2    0    0 -0.36093494523E+02  0.81943395554E+01  0.25565820543E+03  0.27164815665E+03  0.84034013697E+02 0.  0.
        -11    1    3    3    0    0 -0.69274762882E+01  0.15705658159E+02 -0.29279865482E+02  0.33940656278E+02  0.00000000000E+00 0.  1.
         12    1    3    3    0    0  0.18218425515E+02 -0.42148387318E+02 -0.50072310780E+03  0.50282405299E+03  0.00000000000E+00 0. -1.
         13    1    5    5    0    0 -0.47473810361E+02  0.50930927551E+01  0.25542634122E+03  0.25985056870E+03  0.00000000000E+00 0. -1.
        -14    1    5    5    0    0  0.11380315838E+02  0.31012468003E+01  0.23186420616E+00  0.11797587944E+02  0.00000000000E+00 0.  1.
          5    1    4    4  501    0  0.45556780993E+02  0.53178696142E+02 -0.25779311921E+03  0.26716691174E+03  0.41800000000E+01 0.  1.
         -5    1    4    4    0  501 -0.20754235697E+02 -0.34930306538E+02 -0.39421770020E+02  0.56766301321E+02  0.41800000000E+01 0.  1.
</event>
<event>
11    1  0.5813833E-009  0.1485328E+03  0.7561462E-02  0.1098387E+00
         22   -1    0    0    0    0  0.00000000000E+00  0.00000000000E+00  0.65965876795E+02  0.65965876795E+02  0.00000000000E+00 0. -1.
         22   -1    0    0    0    0 -0.00000000000E+00 -0.00000000000E+00 -0.30678597534E+04  0.30678597534E+04  0.00000000000E+00 0. -1.
        -24    2    1    2    0    0 -0.35485899588E+01 -0.10197918345E+02 -0.26095643465E+04  0.26108076531E+04  0.79836912069E+02 0.  0.
         25    2    1    2    0    0 -0.56514320190E+02  0.62292954058E+02 -0.37811208589E+03  0.40705127589E+03  0.12509081182E+03 0.  0.
         24    2    1    2    0    0  0.60062910149E+02 -0.52095035712E+02 -0.14217444163E+02  0.11596670122E+03  0.83214747205E+02 0.  0.
        -11    1    5    5    0    0 -0.28108024153E+01 -0.13899500364E+02 -0.36452412297E+02  0.39113617614E+02  0.00000000000E+00 0.  1.
         12    1    5    5    0    0  0.62873712564E+02 -0.38195535348E+02  0.22234968134E+02  0.76853083608E+02  0.00000000000E+00 0. -1.
         13    1    3    3    0    0  0.20923630992E+02  0.18175920814E+02 -0.19384481564E+04  0.19386462848E+04  0.00000000000E+00 0. -1.
        -14    1    3    3    0    0 -0.24472220951E+02 -0.28373839159E+02 -0.67111619016E+03  0.67216136831E+03  0.00000000000E+00 0.  1.
          5    1    4    4  501    0 -0.49924411979E+02  0.78491154889E+02 -0.37776049199E+03  0.38906782187E+03  0.41800000000E+01 0.  1.
         -5    1    4    4    0  501 -0.65899082112E+01 -0.16198200831E+02 -0.35159389958E+00  0.17983454025E+02  0.41800000000E+01 0.  1.
</event>
<event>
11    1  0.5813833E-009  0.1401941E+03  0.7561462E-02  0.1107342E+00
         22   -1    0    0    0    0  0.00000000000E+00  0.00000000000E+00  0.36277003242E+03  0.36277003242E+03  0.00000000000E+00 0.  1.
         22   -1    0    0    0    0 -0.00000000000E+00 -0.00000000000E+00 -0.14403361400E+03  0.14403361400E+03  0.00000000000E+00 0.  1.
         24    2    1    2    0    0  0.42825868196E+02  0.48629695384E+02 -0.71202369663E+02  0.12570156502E+03  0.80822049854E+02 0.  0.
         25    2    1    2    0    0 -0.40932323900E+02 -0.39151622240E+02  0.85975334824E+02  0.16201179480E+03  0.12509100205E+03 0.  0.
        -24    2    1    2    0    0 -0.18935442964E+01 -0.94780731444E+01  0.20396345327E+03  0.21909028660E+03  0.79410604039E+02 0.  0.
        -13    1    3    3    0    0  0.55340969797E+02  0.63368597154E+02 -0.60236731620E+02  0.10347302006E+03  0.00000000000E+00 0.  1.
         14    1    3    3    0    0 -0.12515101600E+02 -0.14738901770E+02 -0.10965638043E+02  0.22228544962E+02  0.00000000000E+00 0. -1.
         11    1    5    5    0    0  0.21048494966E+02 -0.41555719797E+01  0.99449947650E+01  0.23647639199E+02  0.00000000000E+00 0. -1.
        -12    1    5    5    0    0 -0.22942039262E+02 -0.53225011648E+01  0.19401845850E+03  0.19544264740E+03  0.00000000000E+00 0.  1.
          5    1    4    4  501    0 -0.85021150688E+02 -0.29191861465E+02  0.69567339026E+02  0.11374466097E+03  0.41800000000E+01 0. -1.
         -5    1    4    4    0  501  0.44088826788E+02 -0.99597607753E+01  0.16407995798E+02  0.48267133832E+02  0.41800000000E+01 0. -1.
</event>
<event>
11    1  0.5813833E-009  0.1700265E+03  0.7561462E-02  0.1078009E+00
         22   -1    0    0    0    0  0.00000000000E+00  0.00000000000E+00  0.27399108980E+03  0.27399108980E+03  0.00000000000E+00 0.  1.
         22   -1    0    0    0    0 -0.00000000000E+00 -0.00000000000E+00 -0.37852283227E+03  0.37852283227E+03  0.00000000000E+00 0.  1.
        -24    2    1    2    0    0  0.51761958809E+02  0.40663633001E+02 -0.26175460064E+03  0.28061563020E+03  0.76790816677E+02 0.  0.
         25    2    1    2    0    0 -0.78524215927E+01 -0.14021641598E+03  0.41105694791E+02  0.19250781106E+03  0.12508906963E+03 0.  0.
         24    2    1    2    0    0 -0.43909537216E+02  0.99552782983E+02  0.11611716338E+03  0.17939048080E+03  0.82818747358E+02 0.  0.
        -13    1    5    5    0    0 -0.24337133762E+02  0.92294656114E+02  0.45475368270E+02  0.10572893997E+03  0.00000000000E+00 0.  1.
         14    1    5    5    0    0 -0.19572403454E+02  0.72581268685E+01  0.70641795107E+02  0.73661540838E+02  0.00000000000E+00 0. -1.
         13    1    3    3    0    0  0.45066394226E+02 -0.12806681969E+02 -0.10932265627E+03  0.11893878327E+03  0.00000000000E+00 0. -1.
        -14    1    3    3    0    0  0.66955645831E+01  0.53470314971E+02 -0.15243194437E+03  0.16167684693E+03  0.00000000000E+00 0.  1.
          5    1    4    4  501    0  0.28553043099E+02  0.38360725848E+01 -0.16067535362E+02  0.33251012251E+02  0.41800000000E+01 0.  1.
         -5    1    4    4    0  501 -0.36405464692E+02 -0.14405248857E+03  0.57173230153E+02  0.15925679881E+03  0.41800000000E+01 0.  1.
</event>
<event>
11    1  0.5813833E-009  0.1836948E+03  0.7561462E-02  0.1066693E+00
         22   -1    0    0    0    0  0.00000000000E+00  0.00000000000E+00  0.14329079518E+04  0.14329079518E+04  0.00000000000E+00 0.  1.
         22   -1    0    0    0    0 -0.00000000000E+00 -0.00000000000E+00 -0.19355546284E+03  0.19355546284E+03  0.00000000000E+00 0. -1.
        -24    2    1    2    0    0 -0.23786099717E+02  0.32557507692E+02 -0.15978647873E+03  0.18482405275E+03  0.83680594176E+02 0.  0.
         25    2    1    2    0    0  0.66763470511E+02  0.10448560952E+03  0.60307868573E+03  0.62827229830E+03  0.12509027156E+03 0.  0.
         24    2    1    2    0    0 -0.42977370793E+02 -0.13704311721E+03  0.79606028195E+03  0.81336706359E+03  0.85006689518E+02 0.  0.
        -11    1    5    5    0    0 -0.25665414464E+02 -0.99010593109E+02  0.71390670155E+03  0.72119663724E+03  0.00000000000E+00 0.  1.
         12    1    5    5    0    0 -0.17311956329E+02 -0.38032524099E+02  0.82153580392E+02  0.92170426344E+02  0.00000000000E+00 0. -1.
         11    1    3    3    0    0  0.19592382694E+02  0.43873154922E+02 -0.83946570080E+02  0.96725083668E+02  0.00000000000E+00 0. -1.
        -12    1    3    3    0    0 -0.43378482411E+02 -0.11315647230E+02 -0.75839908650E+02  0.88098969078E+02  0.00000000000E+00 0.  1.
          5    1    4    4  501    0 -0.26318332055E+02  0.21419850036E+02  0.27726775452E+03  0.27936775883E+03  0.41800000000E+01 0. -1.
         -5    1    4    4    0  501  0.93081802565E+02  0.83065759480E+02  0.32581093121E+03  0.34890453947E+03  0.41800000000E+01 0. -1.
</event>
<event>
11    1  0.5813833E-009  0.1493288E+03  0.7561462E-02  0.1097567E+00
         22   -1    0    0    0    0  0.00000000000E+00  0.00000000000E+00  0.18105952556E+03  0.18105952556E+03  0.00000000000E+00 0. -1.
         22   -1    0    0    0    0 -0.00000000000E+00 -0.00000000000E+00 -0.85547658104E+03  0.85547658104E+03  0.00000000000E+00 0. -1.
         24    2    1    2    0    0 -0.81651223717E+02  0.20336520560E+02 -0.68289230224E+03  0.69280314172E+03  0.80955545335E+02 0.  0.
         25    2    1    2    0    0  0.64705426367E+02 -0.90440092012E+01 -0.12549546202E+03  0.18885222045E+03  0.12508982323E+03 0.  0.
        -24    2    1    2    0    0  0.16945797350E+02 -0.11292511359E+02  0.13397070879E+03  0.15488074443E+03  0.75001422122E+02 0.  0.
        -11    1    3    3    0    0  0.11886233129E+02  0.96996252738E+01 -0.36523507582E+02  0.39614793632E+02  0.00000000000E+00 0.  1.
         12    1    3    3    0    0 -0.93537456846E+02  0.10636895286E+02 -0.64636879466E+03  0.65318834809E+03  0.00000000000E+00 0. -1.
         11    1    5    5    0    0  0.11170673501E+01  0.27253939638E+02  0.91098240246E+02  0.95094239789E+02  0.00000000000E+00 0. -1.
        -12    1    5    5    0    0  0.15828730000E+02 -0.38546450996E+02  0.42872468541E+02  0.59786504636E+02  0.00000000000E+00 0.  1.
          5    1    4    4  501    0 -0.25004453600E+02  0.16287728775E+02  0.27436564554E+01  0.30257443039E+02  0.41800000000E+01 0. -1.
         -5    1    4    4    0  501  0.89709879968E+02 -0.25331737976E+02 -0.12823911848E+03  0.15859477741E+03  0.41800000000E+01 0. -1.
</event>
<event>
11    1  0.5813833E-009  0.1449999E+03  0.7561462E-02  0.1102100E+00
         22   -1    0    0    0    0  0.00000000000E+00  0.00000000000E+00  0.20340118916E+04  0.20340118916E+04  0.00000000000E+00 0.  1.
         22   -1    0    0    0    0 -0.00000000000E+00 -0.00000000000E+00 -0.99000089510E+02  0.99000089510E+02  0.00000000000E+00 0.  1.
         24    2    1    2    0    0 -0.47498104518E+02 -0.52625029318E+02 -0.36689471252E+02  0.11333775468E+03  0.80460336132E+02 0.  0.
         25    2    1    2    0    0  0.71582507259E+02  0.55529112436E+02  0.23275346875E+03  0.27934491222E+03  0.12510741423E+03 0.  0.
        -24    2    1    2    0    0 -0.24084402741E+02 -0.29040831182E+01  0.17389478046E+04  0.17403293142E+04  0.64947383781E+02 0.  0.
        -13    1    3    3    0    0  0.22525168578E+01  0.96458018472E+01 -0.31997318801E+02  0.33495428582E+02  0.00000000000E+00 0.  1.
         14    1    3    3    0    0 -0.49750621376E+02 -0.62270831165E+02 -0.46921524512E+01  0.79842326093E+02  0.00000000000E+00 0. -1.
         13    1    5    5    0    0  0.71579832954E+01  0.24912394944E+02  0.49477660222E+03  0.49545509408E+03  0.00000000000E+00 0. -1.
        -14    1    5    5    0    0 -0.31242386036E+02 -0.27816478063E+02  0.12441712023E+04  0.12448742201E+04  0.00000000000E+00 0.  1.
          5    1    4    4  501    0  0.97371332738E+02  0.70162098302E+02  0.20931823192E+03  0.24132030808E+03  0.41800000000E+01 0.  1.
         -5    1    4    4    0  501 -0.25788825479E+02 -0.14632985866E+02  0.23435236829E+02  0.38024604142E+02  0.41800000000E+01 0.  1.
</event>
<event>
11    1  0.5813833E-009  0.1333314E+03  0.7561462E-02  0.1115242E+00
         22   -1    0    0    0    0  0.00000000000E+00  0.00000000000E+00  0.81413978095E+02  0.81413978095E+02  0.00000000000E+00 0.  1.
         22   -1    0    0    0    0 -0.00000000000E+00 -0.00000000000E+00 -0.22429866143E+04  0.22429866143E+04  0.00000000000E+00 0. -1.
         24    2    1    2    0    0 -0.35751693637E+02 -0.31433131000E+02 -0.20615609818E+04  0.20636145251E+04  0.78771831147E+02 0.  0.
         25    2    1    2    0    0  0.64042757819E+00  0.10097390247E+02 -0.11521686461E+03  0.17036557817E+03  0.12508851625E+03 0.  0.
        -24    2    1    2    0    0  0.35111266059E+02  0.21335740753E+02  0.15205210197E+02  0.90420489086E+02  0.79098998676E+02 0.  0.
        -13    1    3    3    0    0 -0.17069167469E+02 -0.33719210467E+01 -0.84821510587E+02  0.86587614518E+02  0.00000000000E+00 0.  1.
         14    1    3    3    0    0 -0.18682526168E+02 -0.28061209953E+02 -0.19767394712E+04  0.19770269106E+04  0.00000000000E+00 0. -1.
         13    1    5    5    0    0  0.24378531481E+02  0.36677871492E+02 -0.21655589279E+02  0.49076915157E+02  0.00000000000E+00 0. -1.
        -14    1    5    5    0    0  0.10732734578E+02 -0.15342130739E+02  0.36860799477E+02  0.41343573928E+02  0.00000000000E+00 0.  1.
          5    1    4    4  501    0  0.20377868531E+01 -0.24030256492E+02  0.19518264665E+02  0.31305604256E+02  0.41800000000E+01 0.  1.
         -5    1    4    4    0  501 -0.13973592749E+01  0.34127646738E+02 -0.13473512927E+03  0.13905997391E+03  0.41800000000E+01 0.  1.
</event>
<event>
11    1  0.5813833E-009  0.1717283E+03  0.7561462E-02  0.1076537E+00
         22   -1    0    0    0    0  0.00000000000E+00  0.00000000000E+00  0.33018137272E+04  0.33018137272E+04  0.00000000000E+00 0.  1.
         22   -1    0    0    0    0 -0.00000000000E+00 -0.00000000000E+00 -0.83952791860E+03  0.83952791860E+03  0.00000000000E+00 0. -1.
         24    2    1    2    0    0 -0.77314308877E+02  0.89265941166E+02 -0.82404400325E+03  0.83652527945E+03  0.82341443091E+02 0.  0.
         25    2    1    2    0    0  0.58692292936E+02 -0.46651167604E+02  0.61979738491E+03  0.63672407243E+03  0.12509048475E+03 0.  0.
        -24    2    1    2    0    0  0.18622015941E+02 -0.42614773562E+02  0.26665324269E+04  0.26680922939E+04  0.78476152862E+02 0.  0.
        -13    1    3    3    0    0 -0.15075245804E+02  0.12275691230E+02 -0.26534046858E+02  0.32893939774E+02  0.00000000000E+00 0.  1.
         14    1    3    3    0    0 -0.62239063073E+02  0.76990249936E+02 -0.79750995639E+03  0.80363133967E+03  0.00000000000E+00 0. -1.
         13    1    5    5    0    0  0.29913663266E+02  0.13941272303E+02  0.11151891882E+04  0.11156774228E+04  0.00000000000E+00 0. -1.
        -14    1    5    5    0    0 -0.11291647325E+02 -0.56556045865E+02  0.15513432387E+04  0.15524148711E+04  0.00000000000E+00 0.  1.
          5    1    4    4  501    0  0.25841197245E+02 -0.12319406863E+01  0.53090081147E+03  0.53154720315E+03  0.41800000000E+01 0. -1.
         -5    1    4    4    0  501  0.32851095691E+02 -0.45419226918E+02  0.88896573438E+02  0.10517686928E+03  0.41800000000E+01 0. -1.
</event>
<event>
11    1  0.5813833E-009  0.2628718E+03  0.7561462E-02  0.1017257E+00
         22   -1    0    0    0    0  0.00000000000E+00  0.00000000000E+00  0.29924260090E+03  0.29924260090E+03  0.00000000000E+00 0. -1.
         22   -1    0    0    0    0 -0.00000000000E+00 -0.00000000000E+00 -0.39258385400E+04  0.39258385400E+04  0.00000000000E+00 0. -1.
        -24    2    1    2    0    0  0.27731588088E+02  0.43867913650E+02 -0.35240873978E+04  0.35253477729E+04  0.78686068792E+02 0.  0.
         25    2    1    2    0    0  0.20229857619E+03 -0.86839336373E+02 -0.29289336063E+03  0.38716899798E+03  0.12509007966E+03 0.  0.
         24    2    1    2    0    0 -0.23003016427E+03  0.42971422723E+02  0.19038481935E+03  0.31256437003E+03  0.81790502662E+02 0.  0.
        -13    1    5    5    0    0 -0.13161204328E+03 -0.99312614556E+01  0.74389923939E+02  0.15150650374E+03  0.00000000000E+00 0.  1.
         14    1    5    5    0    0 -0.98418120993E+02  0.52902684179E+02  0.11599489542E+03  0.16105786629E+03  0.00000000000E+00 0. -1.
         13    1    3    3    0    0  0.55827686473E+01  0.31967712244E+02 -0.32366764248E+04  0.32368391033E+04  0.00000000000E+00 0. -1.
        -14    1    3    3    0    0  0.22148819441E+02  0.11900201406E+02 -0.28741097304E+03  0.28850866957E+03  0.00000000000E+00 0.  1.
          5    1    4    4  501    0  0.13915178925E+03 -0.11554154795E+02 -0.10382902815E+03  0.17405360792E+03  0.41800000000E+01 0. -1.
         -5    1    4    4    0  501  0.63146786941E+02 -0.75285181577E+02 -0.18906433248E+03  0.21311539006E+03  0.41800000000E+01 0. -1.
</event>
<event>
11    1  0.5813833E-009  0.1266268E+03  0.7561462E-02  0.1123484E+00
         22   -1    0    0    0    0  0.00000000000E+00  0.00000000000E+00  0.62006386592E+02  0.62006386592E+02  0.00000000000E+00 0.  1.
         22   -1    0    0    0    0 -0.00000000000E+00 -0.00000000000E+00 -0.57700008748E+03  0.57700008748E+03  0.00000000000E+00 0.  1.
         24    2    1    2    0    0  0.16513492166E+02  0.13606477326E+02 -0.22773512087E+03  0.23944010538E+03  0.70784511999E+02 0.  0.
         25    2    1    2    0    0 -0.19138093991E+00  0.20223265709E+01 -0.28322988916E+03  0.30962937936E+03  0.12508819297E+03 0.  0.
        -24    2    1    2    0    0 -0.16322111226E+02 -0.15628803897E+02 -0.40286908684E+01  0.89936989333E+02  0.86958385876E+02 0.  0.
        -11    1    3    3    0    0  0.17710566260E+02  0.71668923214E+01 -0.23122874107E+03  0.23201672181E+03  0.00000000000E+00 0.  1.
         12    1    3    3    0    0 -0.11970740938E+01  0.64395850045E+01  0.34936202062E+01  0.74233835656E+01  0.00000000000E+00 0. -1.
         11    1    5    5    0    0 -0.31966926225E+01 -0.51068605862E+02  0.39177230112E+01  0.51318319361E+02  0.00000000000E+00 0. -1.
        -12    1    5    5    0    0 -0.13125418604E+02  0.35439801965E+02 -0.79464138796E+01  0.38618669972E+02  0.00000000000E+00 0.  1.
          5    1    4    4  501    0  0.26827676902E+02 -0.45477968647E+02 -0.61211053984E+02  0.80945879512E+02  0.41800000000E+01 0. -1.
         -5    1    4    4    0  501 -0.27019057842E+02  0.47500295218E+02 -0.22201883517E+03  0.22868349985E+03  0.41800000000E+01 0. -1.
</event>
<event>
11    1  0.5813833E-009  0.1483973E+03  0.7561462E-02  0.1098528E+00
         22   -1    0    0    0    0  0.00000000000E+00  0.00000000000E+00  0.16756962722E+04  0.16756962722E+04  0.00000000000E+00 0. -1.
         22   -1    0    0    0    0 -0.00000000000E+00 -0.00000000000E+00 -0.26699967124E+03  0.26699967124E+03  0.00000000000E+00 0. -1.
         24    2    1    2    0    0  0.16493048109E+01  0.25937538026E+01 -0.23205637855E+03  0.24548439959E+03  0.80018621915E+02 0.  0.
         25    2    1    2    0    0 -0.81310955804E+02  0.18159235740E-01  0.18793923535E+03  0.23996236012E+03  0.12509718714E+03 0.  0.
        -24    2    1    2    0    0  0.79661650993E+02 -0.26119130383E+01  0.14528137442E+04  0.14572491837E+04  0.80960530494E+02 0.  0.
        -11    1    3    3    0    0  0.17797870074E+02  0.20618217022E+02 -0.24851326719E+02  0.36870903054E+02  0.00000000000E+00 0.  1.
         12    1    3    3    0    0 -0.16148565263E+02 -0.18024463219E+02 -0.20720505183E+03  0.20861349654E+03  0.00000000000E+00 0. -1.
         11    1    5    5    0    0  0.78330610375E+02  0.20366857723E+02  0.13181582823E+04  0.13206406591E+04  0.00000000000E+00 0. -1.
        -12    1    5    5    0    0  0.13310406182E+01 -0.22978770761E+02  0.13465546189E+03  0.13660852459E+03  0.00000000000E+00 0.  1.
          5    1    4    4  501    0 -0.75535211650E+02  0.51480777421E+02  0.86139858433E+02  0.12567174008E+03  0.41800000000E+01 0.  1.
         -5    1    4    4    0  501 -0.57757441547E+01 -0.51462618185E+02  0.10179937691E+03  0.11429062005E+03  0.41800000000E+01 0.  1.
</event>
<event>
11    1  0.5813833E-009  0.1359282E+03  0.7561462E-02  0.1112192E+00
         22   -1    0    0    0    0  0.00000000000E+00  0.00000000000E+00  0.32864925683E+03  0.32864925683E+03  0.00000000000E+00 0.  1.
         22   -1    0    0    0    0 -0.00000000000E+00 -0.00000000000E+00 -0.90268099858E+03  0.90268099858E+03  0.00000000000E+00 0. -1.
         24    2    1    2    0    0  0.10826632420E+02 -0.57508968550E+02 -0.67594846411E+03  0.68318010949E+03  0.80026485847E+02 0.  0.
         25    2    1    2    0    0 -0.30129804373E+02  0.18133116120E+02 -0.19680270827E+03  0.23582956328E+03  0.12509061485E+03 0.  0.
        -24    2    1    2    0    0  0.19303171952E+02  0.39375852429E+02  0.29871943062E+03  0.31232058264E+03  0.79923575409E+02 0.  0.
        -11    1    3    3    0    0 -0.22856558988E+02 -0.23271851588E+02 -0.98985146736E+02  0.10422121012E+03  0.00000000000E+00 0.  1.
         12    1    3    3    0    0  0.33683191408E+02 -0.34237116961E+02 -0.57696331737E+03  0.57895889936E+03  0.00000000000E+00 0. -1.
         13    1    5    5    0    0  0.73086762620E+01  0.46862768301E+02  0.78981718304E+02  0.92128430073E+02  0.00000000000E+00 0. -1.
        -14    1    5    5    0    0  0.11994495690E+02 -0.74869158722E+01  0.21973771232E+03  0.22019215256E+03  0.00000000000E+00 0.  1.
          5    1    4    4  501    0  0.15658466235E+02 -0.12774421593E+02 -0.17512728024E+03  0.17633890693E+03  0.41800000000E+01 0.  1.
         -5    1    4    4    0  501 -0.45788270608E+02  0.30907537713E+02 -0.21675428021E+02  0.59490656347E+02  0.41800000000E+01 0.  1.
</event>
<event>
11    1  0.5813833E-009  0.1339486E+03  0.7561462E-02  0.1114510E+00
         22   -1    0    0    0    0  0.00000000000E+00  0.00000000000E+00  0.73476764439E+03  0.73476764439E+03  0.00000000000E+00 0. -1.
         22   -1    0    0    0    0 -0.00000000000E+00 -0.00000000000E+00 -0.44966810719E+03  0.44966810719E+03  0.00000000000E+00 0. -1.
        -24    2    1    2    0    0 -0.38173791061E+02  0.30606832283E+02 -0.39907006257E+03  0.41002168700E+03  0.80416742420E+02 0.  0.
         25    2    1    2    0    0  0.36118625490E+02 -0.10744508117E+01  0.58364118881E+02  0.14268647992E+03  0.12508937456E+03 0.  0.
         24    2    1    2    0    0  0.20551655708E+01 -0.29532381472E+02  0.62580548089E+03  0.63172758467E+03  0.81060817041E+02 0.  0.
        -11    1    5    5    0    0  0.39846611066E+02 -0.24655732204E+02  0.28909546722E+03  0.29286830951E+03  0.00000000000E+00 0.  1.
         12    1    5    5    0    0 -0.37791445495E+02 -0.48766492679E+01  0.33671001366E+03  0.33885927516E+03  0.00000000000E+00 0. -1.
         13    1    3    3    0    0  0.21462563959E+01  0.32944198069E+02 -0.31530203842E+03  0.31702571194E+03  0.00000000000E+00 0. -1.
        -14    1    3    3    0    0 -0.40320047457E+02 -0.23373657851E+01 -0.83768024155E+02  0.92995975056E+02  0.00000000000E+00 0.  1.
          5    1    4    4  501    0  0.79478461133E+01  0.59462262418E+02  0.12086171439E+02  0.61339032025E+02  0.41800000000E+01 0.  1.
         -5    1    4    4    0  501  0.28170779377E+02 -0.60536713229E+02  0.46277947442E+02  0.81347447893E+02  0.41800000000E+01 0.  1.
</event>
<event>
11    1  0.5813833E-009  0.1364889E+03  0.7561462E-02  0.1111544E+00
         22   -1    0    0    0    0  0.00000000000E+00  0.00000000000E+00  0.92246056483E+02  0.92246056483E+02  0.00000000000E+00 0. -1.
         22   -1    0    0    0    0 -0.00000000000E+00 -0.00000000000E+00 -0.12734903794E+04  0.12734903794E+04  0.00000000000E+00 0. -1.
         24    2    1    2    0    0 -0.55952185633E+02  0.64028509466E+01 -0.99110963848E+03  0.99618109982E+03  0.83107307650E+02 0.  0.
         25    2    1    2    0    0  0.44353828580E+02  0.33870361577E+02 -0.22845446395E+03  0.26637006511E+03  0.12508839268E+03 0.  0.
        -24    2    1    2    0    0  0.11598357053E+02 -0.40273212524E+02  0.38319779506E+02  0.10318527096E+03  0.86153009861E+02 0.  0.
        -11    1    3    3    0    0  0.10191005893E+02 -0.23078670101E+02 -0.37114089696E+03  0.37199737500E+03  0.00000000000E+00 0.  1.
         12    1    3    3    0    0 -0.66143191526E+02  0.29481521048E+02 -0.61996874152E+03  0.62418372482E+03  0.00000000000E+00 0. -1.
         11    1    5    5    0    0  0.87116478582E+01 -0.11058270740E+02  0.63171828763E+02  0.64721388346E+02  0.00000000000E+00 0. -1.
        -12    1    5    5    0    0  0.28867091949E+01 -0.29214941784E+02 -0.24852049257E+02  0.38463882613E+02  0.00000000000E+00 0.  1.
          5    1    4    4  501    0 -0.23010042156E+02 -0.22180054261E+01 -0.16580974035E+03  0.16746559044E+03  0.41800000000E+01 0.  1.
         -5    1    4    4    0  501  0.67363870736E+02  0.36088367003E+02 -0.62644723608E+02  0.98904474668E+02  0.41800000000E+01 0.  1.
</event>
<event>
11    1  0.5813833E-009  0.2381109E+03  0.7561462E-02  0.1030430E+00
         22   -1    0    0    0    0  0.00000000000E+00  0.00000000000E+00  0.90328514660E+03  0.90328514660E+03  0.00000000000E+00 0.  1.
         22   -1    0    0    0    0 -0.00000000000E+00 -0.00000000000E+00 -0.26246330233E+04  0.26246330233E+04  0.00000000000E+00 0. -1.
        -24    2    1    2    0    0  0.72588465528E+02  0.80077838981E+02 -0.24722379177E+04  0.24759224814E+04  0.80933718570E+02 0.  0.
         25    2    1    2    0    0  0.13706026761E+03 -0.83450443290E+02 -0.58765992980E+02  0.21177778114E+03  0.12508754219E+03 0.  0.
         24    2    1    2    0    0 -0.20964873313E+03  0.33726043095E+01  0.80965603399E+03  0.84021790731E+03  0.80369600113E+02 0.  0.
        -13    1    5    5    0    0 -0.17773866194E+03  0.46579554135E+00  0.76424020649E+03  0.78463643946E+03  0.00000000000E+00 0.  1.
         14    1    5    5    0    0 -0.31910071193E+02  0.29068087681E+01  0.45415827506E+02  0.55581467854E+02  0.00000000000E+00 0. -1.
         11    1    3    3    0    0  0.82973942140E+02  0.81259404460E+02 -0.18751079442E+04  0.18787010322E+04  0.00000000000E+00 0. -1.
        -12    1    3    3    0    0 -0.10385476612E+02 -0.11815654788E+01 -0.59712997346E+03  0.59722144923E+03  0.00000000000E+00 0.  1.
          5    1    4    4  501    0  0.28342951392E+02 -0.20601856711E+02 -0.77109128461E+02  0.84800055929E+02  0.41800000000E+01 0.  1.
         -5    1    4    4    0  501  0.10871731621E+03 -0.62848586579E+02  0.18343135481E+02  0.12697772521E+03  0.41800000000E+01 0.  1.
</event>
<event>
11    1  0.5813833E-009  0.1488651E+03  0.7561462E-02  0.1098044E+00
         22   -1    0    0    0    0  0.00000000000E+00  0.00000000000E+00  0.13040007524E+03  0.13040007524E+03  0.00000000000E+00 0. -1.
         22   -1    0    0    0    0 -0.00000000000E+00 -0.00000000000E+00 -0.36567367434E+03  0.36567367434E+03  0.00000000000E+00 0. -1.
         24    2    1    2    0    0  0.13252707433E+02  0.35048209019E+02 -0.19445792621E+03  0.21350670122E+03  0.79794831863E+02 0.  0.
         25    2    1    2    0    0 -0.87875011079E+02 -0.44044078534E+02 -0.60515840966E+02  0.17021420263E+03  0.12509520112E+03 0.  0.
        -24    2    1    2    0    0  0.74622303646E+02  0.89958695146E+01  0.19700168075E+02  0.11235284573E+03  0.81152026784E+02 0.  0.
        -11    1    3    3    0    0  0.83838049542E+01  0.56603559412E+02 -0.89359733351E+02  0.10611038153E+03  0.00000000000E+00 0.  1.
         12    1    3    3    0    0  0.48689024786E+01 -0.21555350393E+02 -0.10509819285E+03  0.10739631969E+03  0.00000000000E+00 0. -1.
         11    1    5    5    0    0  0.88476476108E+02 -0.34526615894E+00  0.27035902007E+01  0.88518446853E+02  0.00000000000E+00 0. -1.
        -12    1    5    5    0    0 -0.13854172462E+02  0.93411356736E+01  0.16996577874E+02  0.23834398875E+02  0.00000000000E+00 0.  1.
          5    1    4    4  501    0 -0.31392675393E+02 -0.83868821003E+02 -0.29825332483E+02  0.94480167562E+02  0.41800000000E+01 0.  1.
         -5    1    4    4    0  501 -0.56482335686E+02  0.39824742469E+02 -0.30690508483E+02  0.75734035072E+02  0.41800000000E+01 0.  1.
</event>
<event>
11    1  0.5813833E-009  0.1551010E+03  0.7561462E-02  0.1091778E+00
         22   -1    0    0    0    0  0.00000000000E+00  0.00000000000E+00  0.11733441696E+04  0.11733441696E+04  0.00000000000E+00 0.  1.
         22   -1    0    0    0    0 -0.00000000000E+00 -0.00000000000E+00 -0.58296477773E+03  0.58296477773E+03  0.00000000000E+00 0. -1.
         24    2    1    2    0    0  0.50914420083E+02 -0.82091262849E+01 -0.51416754525E+03  0.52291032754E+03  0.80045475413E+02 0.  0.
         25    2    1    2    0    0  0.42202799372E+02  0.23482364266E+02  0.12882640462E+02  0.13470775360E+03  0.12509084198E+03 0.  0.
        -24    2    1    2    0    0 -0.93117219455E+02 -0.15273237981E+02  0.10916642967E+04  0.10986908662E+04  0.80539397224E+02 0.  0.
        -11    1    3    3    0    0  0.66486076163E+01  0.17790245802E+01 -0.14029897936E+00  0.68839374994E+01  0.00000000000E+00 0.  1.
         12    1    3    3    0    0  0.44265812467E+02 -0.99881508650E+01 -0.51402724627E+03  0.51602639004E+03  0.00000000000E+00 0. -1.
         13    1    5    5    0    0 -0.44154906662E+02 -0.47337535761E+02  0.51083571956E+03  0.51492099438E+03  0.00000000000E+00 0. -1.
        -14    1    5    5    0    0 -0.48962312793E+02  0.32064297779E+02  0.58082857709E+03  0.58376987181E+03  0.00000000000E+00 0.  1.
          5    1    4    4  501    0 -0.25074188981E+02  0.28007182268E+02 -0.35292841816E+02  0.51731753258E+02  0.41800000000E+01 0.  1.
         -5    1    4    4    0  501  0.67276988353E+02 -0.45248180018E+01  0.48175482278E+02  0.82976000341E+02  0.41800000000E+01 0.  1.
</event>
<event>
11    1  0.5813833E-009  0.1555402E+03  0.7561462E-02  0.1091348E+00
         22   -1    0    0    0    0  0.00000000000E+00  0.00000000000E+00  0.21231668511E+03  0.21231668511E+03  0.00000000000E+00 0.  1.
         22   -1    0    0    0    0 -0.00000000000E+00 -0.00000000000E+00 -0.32840649702E+04  0.32840649702E+04  0.00000000000E+00 0.  1.
        -24    2    1    2    0    0  0.13022421993E+02 -0.26625722251E+02 -0.31298731850E+04  0.31310898451E+04  0.82091116493E+02 0.  0.
         25    2    1    2    0    0  0.79592401593E+02  0.40553773527E+02 -0.86052909278E+02  0.17615786994E+03  0.12508770127E+03 0.  0.
         24    2    1    2    0    0 -0.92614823586E+02 -0.13928051276E+02  0.14417780911E+03  0.18913394034E+03  0.78822018430E+02 0.  0.
        -11    1    5    5    0    0 -0.97006277021E+02 -0.62422726831E+01  0.84490290037E+02  0.12879360567E+03  0.00000000000E+00 0.  1.
         12    1    5    5    0    0  0.43914534355E+01 -0.76857785931E+01  0.59687519070E+02  0.60340334674E+02  0.00000000000E+00 0. -1.
         13    1    3    3    0    0  0.16140591138E+02 -0.23043035836E+02 -0.32574844250E+03  0.32696108021E+03  0.00000000000E+00 0. -1.
        -14    1    3    3    0    0 -0.31181691450E+01 -0.35826864145E+01 -0.28041247425E+04  0.28041287649E+04  0.00000000000E+00 0.  1.
          5    1    4    4  501    0  0.80823723061E+02  0.51645973603E+02 -0.11205266477E+03  0.14755694792E+03  0.41800000000E+01 0.  1.
         -5    1    4    4    0  501 -0.12313214678E+01 -0.11092200076E+02  0.25999755488E+02  0.28600922022E+02  0.41800000000E+01 0.  1.
</event>
<event>
11    1  0.5813833E-009  0.3652067E+03  0.7561462E-02  0.9758391E-01
         22   -1    0    0    0    0  0.00000000000E+00  0.00000000000E+00  0.18201683485E+04  0.18201683485E+04  0.00000000000E+00 0.  1.
         22   -1    0    0    0    0 -0.00000000000E+00 -0.00000000000E+00 -0.50167507694E+03  0.50167507694E+03  0.00000000000E+00 0. -1.
        -24    2    1    2    0    0 -0.28855497234E+03 -0.18550906511E+03 -0.34690398786E+03  0.49460070454E+03  0.81301259757E+02 0.  0.
         25    2    1    2    0    0  0.32522110180E+03  0.12753779108E+03  0.35803724718E+03  0.51563129640E+03  0.12510120004E+03 0.  0.
         24    2    1    2    0    0 -0.36666129464E+02  0.57971274034E+02  0.13073600122E+04  0.13116114245E+04  0.80182626406E+02 0.  0.
        -13    1    5    5    0    0 -0.29483905781E+02  0.32011030653E+02  0.12044120597E+04  0.12051980817E+04  0.00000000000E+00 0.  1.
         14    1    5    5    0    0 -0.71822236826E+01  0.25960243380E+02  0.10294795258E+03  0.10641334274E+03  0.00000000000E+00 0. -1.
         13    1    3    3    0    0 -0.22815880051E+03 -0.11377955109E+03 -0.21961114171E+03  0.33649855581E+03  0.00000000000E+00 0. -1.
        -14    1    3    3    0    0 -0.60396171831E+02 -0.71729514023E+02 -0.12729284615E+03  0.15810214874E+03  0.00000000000E+00 0.  1.
          5    1    4    4  501    0  0.17831550233E+03  0.10320638493E+03  0.13133089930E+03  0.24436295499E+03  0.41800000000E+01 0. -1.
         -5    1    4    4    0  501  0.14690559947E+03  0.24331406147E+02  0.22670634788E+03  0.27126834141E+03  0.41800000000E+01 0. -1.
</event>
<event>
11    1  0.5813833E-009  0.1888381E+03  0.7561462E-02  0.1062710E+00
         22   -1    0    0    0    0  0.00000000000E+00  0.00000000000E+00  0.39258691188E+03  0.39258691188E+03  0.00000000000E+00 0. -1.
         22   -1    0    0    0    0 -0.00000000000E+00 -0.00000000000E+00 -0.85765819694E+03  0.85765819694E+03  0.00000000000E+00 0. -1.
         24    2    1    2    0    0 -0.36163748123E+02 -0.13414466035E+03 -0.61823017187E+03  0.63891152658E+03  0.81833897628E+02 0.  0.
         25    2    1    2    0    0 -0.26955256831E+02  0.16314068366E+03 -0.17094963893E+03  0.26872714751E+03  0.12509609195E+03 0.  0.
        -24    2    1    2    0    0  0.63119004954E+02 -0.28996023317E+02  0.32410852574E+03  0.34260643473E+03  0.86649030632E+02 0.  0.
        -13    1    3    3    0    0  0.23578983876E+02 -0.67479700863E+02 -0.29208251413E+03  0.30070196802E+03  0.00000000000E+00 0.  1.
         14    1    3    3    0    0 -0.59742731999E+02 -0.66664959485E+02 -0.32614765774E+03  0.33820955856E+03  0.00000000000E+00 0. -1.
         13    1    5    5    0    0  0.26725508991E+02  0.23860325162E+02  0.19683900380E+03  0.20007289013E+03  0.00000000000E+00 0. -1.
        -14    1    5    5    0    0  0.36393495963E+02 -0.52856348479E+02  0.12726952194E+03  0.14253354461E+03  0.00000000000E+00 0.  1.
          5    1    4    4  501    0 -0.64394933885E+02  0.14268337240E+03 -0.16124793253E+03  0.22477459913E+03  0.41800000000E+01 0.  1.
         -5    1    4    4    0  501  0.37439677054E+02  0.20457311269E+02 -0.97017064052E+01  0.43952548384E+02  0.41800000000E+01 0.  1.
</event>
<event>
11    1  0.5813833E-009  0.2400497E+03  0.7561462E-02  0.1029338E+00
         22   -1    0    0    0    0  0.00000000000E+00  0.00000000000E+00  0.72195908080E+03  0.72195908080E+03  0.00000000000E+00 0. -1.
         22   -1    0    0    0    0 -0.00000000000E+00 -0.00000000000E+00 -0.54065526534E+03  0.54065526534E+03  0.00000000000E+00 0.  1.
        -24    2    1    2    0    0 -0.19630264633E+03 -0.50414604997E+02 -0.44863327316E+03  0.50302705472E+03  0.10338299008E+03 0.  0.
         25    2    1    2    0    0  0.21807393303E+03  0.65296013739E+02  0.21759693611E+03  0.33884430074E+03  0.12508886386E+03 0.  0.
         24    2    1    2    0    0 -0.21771286701E+02 -0.14881408741E+02  0.41234015251E+03  0.42074299068E+03  0.79402881457E+02 0.  0.
        -11    1    5    5    0    0 -0.12768249845E+02  0.15620692870E+02  0.25118834054E+02  0.32217853344E+02  0.00000000000E+00 0.  1.
         12    1    5    5    0    0 -0.90030368554E+01 -0.30502101611E+02  0.38722131846E+03  0.38852513734E+03  0.00000000000E+00 0. -1.
         11    1    3    3    0    0 -0.84703380571E+02 -0.61641873524E+02 -0.14153304438E+03  0.17608516662E+03  0.00000000000E+00 0. -1.
        -12    1    3    3    0    0 -0.11159926576E+03  0.11227268527E+02 -0.30710022878E+03  0.32694188810E+03  0.00000000000E+00 0.  1.
          5    1    4    4  501    0  0.16025798891E+03  0.24712062817E+02  0.21327655048E+03  0.26795086946E+03  0.41800000000E+01 0.  1.
         -5    1    4    4    0  501  0.57815944121E+02  0.40583950922E+02  0.43203856276E+01  0.70893431282E+02  0.41800000000E+01 0.  1.
</event>
<event>
11    1  0.5813833E-009  0.1396881E+03  0.7561462E-02  0.1107907E+00
         22   -1    0    0    0    0  0.00000000000E+00  0.00000000000E+00  0.29717288213E+04  0.29717288213E+04  0.00000000000E+00 0. -1.
         22   -1    0    0    0    0 -0.00000000000E+00 -0.00000000000E+00 -0.84087160187E+02  0.84087160187E+02  0.00000000000E+00 0.  1.
         24    2    1    2    0    0  0.49134073551E+02 -0.22799742582E+02 -0.48347688523E+02  0.10878925407E+03  0.81016154989E+02 0.  0.
         25    2    1    2    0    0  0.26072060723E+02  0.30630660093E+02  0.11155558788E+04  0.11232680032E+04  0.12509236021E+03 0.  0.
        -24    2    1    2    0    0 -0.75206134274E+02 -0.78309175117E+01  0.18204334708E+04  0.18237587242E+04  0.80003603422E+02 0.  0.
        -11    1    3    3    0    0  0.64748585563E+02 -0.20302210519E+02 -0.58837585437E+02  0.89813253723E+02  0.00000000000E+00 0.  1.
         12    1    3    3    0    0 -0.15614512011E+02 -0.24975320626E+01  0.10489896914E+02  0.18976000343E+02  0.00000000000E+00 0. -1.
         13    1    5    5    0    0 -0.83094975778E+02 -0.56868696578E+01  0.17972004264E+04  0.17991293694E+04  0.00000000000E+00 0. -1.
        -14    1    5    5    0    0  0.78888415035E+01 -0.21440478538E+01  0.23233044453E+02  0.24629354763E+02  0.00000000000E+00 0.  1.
          5    1    4    4  501    0 -0.48367692615E+02  0.76840394186E+01  0.30117630975E+03  0.30516081024E+03  0.41800000000E+01 0.  1.
         -5    1    4    4    0  501  0.74439753338E+02  0.22946620675E+02  0.81437956905E+03  0.81810719295E+03  0.41800000000E+01 0.  1.
</event>
<event>
11    1  0.5813833E-009  0.1963581E+03  0.7561462E-02  0.1057129E+00
         22   -1    0    0    0    0  0.00000000000E+00  0.00000000000E+00  0.23118735430E+03  0.23118735430E+03  0.00000000000E+00 0. -1.
         22   -1    0    0    0    0 -0.00000000000E+00 -0.00000000000E+00 -0.88051987578E+03  0.88051987578E+03  0.00000000000E+00 0.  1.
        -24    2    1    2    0    0 -0.12472191319E+03  0.92866803379E+02 -0.76081263600E+03  0.78084162052E+03  0.81841129281E+02 0.  0.
         25    2    1    2    0    0  0.11517093661E+03 -0.40924622882E+02 -0.10352054898E+02  0.17519592291E+03  0.12508907612E+03 0.  0.
         24    2    1    2    0    0  0.95509765794E+01 -0.51942180498E+02  0.12183216941E+03  0.15566968665E+03  0.81245077203E+02 0.  0.
        -11    1    5    5    0    0  0.19897131835E+02  0.85534933097E+01  0.76124549689E+02  0.79145468401E+02  0.00000000000E+00 0.  1.
         12    1    5    5    0    0 -0.10346155256E+02 -0.60495673807E+02  0.45707619725E+02  0.76524218251E+02  0.00000000000E+00 0. -1.
         11    1    3    3    0    0 -0.15515079046E+02 -0.15242587784E+02 -0.11046249088E+03  0.11258337378E+03  0.00000000000E+00 0. -1.
        -12    1    3    3    0    0 -0.10920683415E+03  0.10810939116E+03 -0.65035014512E+03  0.66825824674E+03  0.00000000000E+00 0.  1.
          5    1    4    4  501    0 -0.18734578230E+02 -0.30572056099E+02 -0.18530877652E+02  0.40577097754E+02  0.41800000000E+01 0. -1.
         -5    1    4    4    0  501  0.13390551484E+03 -0.10352566783E+02  0.81788227536E+01  0.13461882515E+03  0.41800000000E+01 0. -1.
</event>
<event>
11    1  0.5813833E-009  0.1479944E+03  0.7561462E-02  0.1098946E+00
         22   -1    0    0    0    0  0.00000000000E+00  0.00000000000E+00  0.59107282072E+03  0.59107282072E+03  0.00000000000E+00 0.  1.
         22   -1    0    0    0    0 -0.00000000000E+00 -0.00000000000E+00 -0.38641928752E+03  0.38641928752E+03  0.00000000000E+00 0. -1.
        -24    2    1    2    0    0 -0.43707442258E+02 -0.11112400187E+02 -0.26635858050E+03  0.28094597491E+03  0.77135734018E+02 0.  0.
         25    2    1    2    0    0  0.83981724810E+02  0.77077659264E+02 -0.39335128268E+02  0.17374856444E+03  0.12508963055E+03 0.  0.
         24    2    1    2    0    0 -0.40274282552E+02 -0.65965259077E+02  0.51034724197E+03  0.52279756889E+03  0.83003357856E+02 0.  0.
        -13    1    5    5    0    0 -0.23588194387E+02 -0.79949585522E+02  0.46597560587E+03  0.47337258519E+03  0.00000000000E+00 0.  1.
         14    1    5    5    0    0 -0.16686088165E+02  0.13984326445E+02  0.44371636094E+02  0.49424983703E+02  0.00000000000E+00 0. -1.
         11    1    3    3    0    0 -0.45177537440E+02 -0.38007686654E+02 -0.21492310875E+03  0.22288458181E+03  0.00000000000E+00 0. -1.
        -12    1    3    3    0    0  0.14700951816E+01  0.26895286467E+02 -0.51435471754E+02  0.58061393098E+02  0.00000000000E+00 0.  1.
          5    1    4    4  501    0  0.51257707691E+02  0.10552288354E+03 -0.36610942901E+01  0.11744491287E+03  0.41800000000E+01 0.  1.
         -5    1    4    4    0  501  0.32724017119E+02 -0.28445224273E+02 -0.35674033978E+02  0.56303651574E+02  0.41800000000E+01 0.  1.
</event>
<event>
11    1  0.5813833E-009  0.1792157E+03  0.7561462E-02  0.1070279E+00
         22   -1    0    0    0    0  0.00000000000E+00  0.00000000000E+00  0.21869539153E+04  0.21869539153E+04  0.00000000000E+00 0.  1.
         22   -1    0    0    0    0 -0.00000000000E+00 -0.00000000000E+00 -0.14105706849E+04  0.14105706849E+04  0.00000000000E+00 0.  1.
         24    2    1    2    0    0 -0.10124967880E+03  0.88339276583E+02 -0.13126846164E+04  0.13223326321E+04  0.85833341069E+02 0.  0.
         25    2    1    2    0    0  0.55237508748E+02 -0.30102229334E+02 -0.38204057847E+02  0.14513683294E+03  0.12509126131E+03 0.  0.
        -24    2    1    2    0    0  0.46012170051E+02 -0.58237047249E+02  0.21272719046E+04  0.21300551352E+04  0.79626938665E+02 0.  0.
        -11    1    3    3    0    0 -0.82882729880E+02  0.23865773418E+02 -0.91299000693E+03  0.91705500097E+03  0.00000000000E+00 0.  1.
         12    1    3    3    0    0 -0.18366948919E+02  0.64473503165E+02 -0.39969460948E+03  0.40527763110E+03  0.00000000000E+00 0. -1.
         11    1    5    5    0    0  0.94935705841E-01 -0.40620546534E+02  0.15946948732E+04  0.15952121415E+04  0.00000000000E+00 0. -1.
        -12    1    5    5    0    0  0.45917234345E+02 -0.17616500715E+02  0.53257703146E+03  0.53484299373E+03  0.00000000000E+00 0.  1.
          5    1    4    4  501    0  0.50986282110E+02 -0.22808556773E+02  0.38428889717E+02  0.67927043144E+02  0.41800000000E+01 0. -1.
         -5    1    4    4    0  501  0.42512266382E+01 -0.72936725614E+01 -0.76632947564E+02  0.77209789792E+02  0.41800000000E+01 0. -1.
</event>
<event>
11    1  0.5813833E-009  0.1297460E+03  0.7561462E-02  0.1119581E+00
         22   -1    0    0    0    0  0.00000000000E+00  0.00000000000E+00  0.31403669264E+03  0.31403669264E+03  0.00000000000E+00 0.  1.
         22   -1    0    0    0    0 -0.00000000000E+00 -0.00000000000E+00 -0.74697996245E+03  0.74697996245E+03  0.00000000000E+00 0.  1.
        -24    2    1    2    0    0  0.13137183013E+01 -0.34516312830E+02 -0.69577186453E+03  0.70117285362E+03  0.79698064437E+02 0.  0.
         25    2    1    2    0    0  0.51610456073E+01  0.31094968758E+02  0.62300416644E+02  0.14325588624E+03  0.12508946221E+03 0.  0.
         24    2    1    2    0    0 -0.64747639086E+01  0.34213440722E+01  0.20052817807E+03  0.21658791523E+03  0.81517768967E+02 0.  0.
        -11    1    5    5    0    0 -0.33017416866E+02 -0.95001776680E+01  0.17247523437E+03  0.17586389528E+03  0.00000000000E+00 0.  1.
         12    1    5    5    0    0  0.26542652957E+02  0.12921521740E+02  0.28052943705E+02  0.40724019947E+02  0.00000000000E+00 0. -1.
         11    1    3    3    0    0 -0.15227447249E+01  0.36456129250E+01  0.38084979404E+00  0.39691676283E+01  0.00000000000E+00 0. -1.
        -12    1    3    3    0    0  0.28364630262E+01 -0.38161925755E+02 -0.69615271433E+03  0.69720368599E+03  0.00000000000E+00 0.  1.
          5    1    4    4  501    0 -0.55859592192E+02  0.36732846538E+02  0.25644383373E+02  0.71726584006E+02  0.41800000000E+01 0. -1.
         -5    1    4    4    0  501  0.61020637799E+02 -0.56378777804E+01  0.36656033271E+02  0.71529302237E+02  0.41800000000E+01 0. -1.
</event>
<event>
11    1  0.5813833E-009  0.1286170E+03  0.7561462E-02  0.1120980E+00
         22   -1    0    0    0    0  0.00000000000E+00  0.00000000000E+00  0.18966115986E+03  0.18966115986E+03  0.00000000000E+00 0. -1.
         22   -1    0    0    0    0 -0.00000000000E+00 -0.00000000000E+00 -0.52835791347E+03  0.52835791347E+03  0.00000000000E+00 0.  1.
         24    2    1    2    0    0 -0.67435567988E+01 -0.29626451290E+02 -0.43329285865E+03  0.44193182262E+03  0.81472893140E+02 0.  0.
         25    2    1    2    0    0 -0.31937948769E+01  0.25297370732E+02 -0.26733471723E+02  0.13043504094E+03  0.12509382121E+03 0.  0.
        -24    2    1    2    0    0  0.99373516757E+01  0.43290805584E+01  0.12132957676E+03  0.14565220976E+03  0.79851162265E+02 0.  0.
        -13    1    3    3    0    0  0.15679360361E+02  0.18700648797E+02 -0.24604971422E+03  0.24725698873E+03  0.00000000000E+00 0.  1.
         14    1    3    3    0    0 -0.22422917160E+02 -0.48327100087E+02 -0.18724314443E+03  0.19467483390E+03  0.00000000000E+00 0. -1.
         13    1    5    5    0    0 -0.65126135365E+01 -0.79067068351E+01  0.12448800470E+03  0.12490874053E+03  0.00000000000E+00 0. -1.
        -14    1    5    5    0    0  0.16449965212E+02  0.12235787393E+02 -0.31584279370E+01  0.20743469229E+02  0.00000000000E+00 0.  1.
          5    1    4    4  501    0  0.19998077434E+02 -0.30351371248E+02  0.30174875836E+02  0.47424934047E+02  0.41800000000E+01 0. -1.
         -5    1    4    4    0  501 -0.23191872311E+02  0.55648741980E+02 -0.56908347559E+02  0.83010106897E+02  0.41800000000E+01 0. -1.
</event>
<event>
11    1  0.5813833E-009  0.1707864E+03  0.7561462E-02  0.1077349E+00
         22   -1    0    0    0    0  0.00000000000E+00  0.00000000000E+00  0.47362609105E+03  0.47362609105E+03  0.00000000000E+00 0. -1.
         22   -1    0    0    0    0 -0.00000000000E+00 -0.00000000000E+00 -0.17883399726E+04  0.17883399726E+04  0.00000000000E+00 0. -1.
         24    2    1    2    0    0  0.21466416156E+02 -0.36184116413E+02 -0.15885689294E+04  0.15911543435E+04  0.80316897344E+02 0.  0.
         25    2    1    2    0    0  0.72752364519E+02  0.10392165770E+03 -0.14423756861E+03  0.22922172582E+03  0.12508199673E+03 0.  0.
        -24    2    1    2    0    0 -0.94218780675E+02 -0.67737541283E+02  0.41809261653E+03  0.44158999429E+03  0.82065424695E+02 0.  0.
        -11    1    3    3    0    0  0.69474277186E+01 -0.61173301857E+02 -0.10303233804E+04  0.10321611830E+04  0.00000000000E+00 0.  1.
         12    1    3    3    0    0  0.14518988438E+02  0.24989185443E+02 -0.55824554908E+03  0.55899316049E+03  0.00000000000E+00 0. -1.
         11    1    5    5    0    0 -0.96328355330E+02 -0.38282356818E+02  0.24545396263E+03  0.26644387524E+03  0.00000000000E+00 0. -1.
        -12    1    5    5    0    0  0.21095746549E+01 -0.29455184465E+02  0.17263865390E+03  0.17514611905E+03  0.00000000000E+00 0.  1.
          5    1    4    4  501    0  0.10033515529E+03  0.39993144076E+02 -0.94198120161E+02  0.14337835681E+03  0.41800000000E+01 0.  1.
         -5    1    4    4    0  501 -0.27582790774E+02  0.63928513620E+02 -0.50039448452E+02  0.85843369004E+02  0.41800000000E+01 0.  1.
</event>
<event>
11    1  0.5813833E-009  0.2062711E+03  0.7561462E-02  0.1050176E+00
         22   -1    0    0    0    0  0.00000000000E+00  0.00000000000E+00  0.58268071928E+03  0.58268071928E+03  0.00000000000E+00 0.  1.
         22   -1    0    0    0    0 -0.00000000000E+00 -0.00000000000E+00 -0.13369614382E+04  0.13369614382E+04  0.00000000000E+00 0. -1.
        -24    2    1    2    0    0 -0.10274298380E+02  0.35485020588E+02 -0.12054088176E+04  0.12084881190E+04  0.77899732586E+02 0.  0.
         25    2    1    2    0    0  0.17099607639E+03 -0.55819175038E+02 -0.62604838182E+01  0.21918527329E+03  0.12509017518E+03 0.  0.
         24    2    1    2    0    0 -0.16072177801E+03  0.20334154450E+02  0.45738858254E+03  0.49196876515E+03  0.81141744367E+02 0.  0.
        -11    1    5    5    0    0 -0.15284576489E+03  0.36588556688E+02  0.35839168436E+03  0.39133764161E+03  0.00000000000E+00 0.  1.
         12    1    5    5    0    0 -0.78760131258E+01 -0.16254402237E+02  0.98996898182E+02  0.10063112354E+03  0.00000000000E+00 0. -1.
         13    1    3    3    0    0 -0.37856258113E+02  0.42658767844E+02 -0.72902262352E+03  0.73125019819E+03  0.00000000000E+00 0. -1.
        -14    1    3    3    0    0  0.27581959732E+02 -0.71737472556E+01 -0.47638619410E+03  0.47723792083E+03  0.00000000000E+00 0.  1.
          5    1    4    4  501    0 -0.17428547949E+02 -0.14623598547E+01  0.12852718057E+02  0.22103337789E+02  0.41800000000E+01 0.  1.
         -5    1    4    4    0  501  0.18842462434E+03 -0.54356815183E+02 -0.19113201875E+02  0.19708193550E+03  0.41800000000E+01 0.  1.
</event>
<event>
11    1  0.5813833E-009  0.2147704E+03  0.7561462E-02  0.1044544E+00
         22   -1    0    0    0    0  0.00000000000E+00  0.00000000000E+00  0.34564177229E+04  0.34564177229E+04  0.00000000000E+00 0.  1.
         22   -1    0    0    0    0 -0.00000000000E+00 -0.00000000000E+00 -0.93596572827E+02  0.93596572827E+02  0.00000000000E+00 0. -1.
        -24    2    1    2    0    0 -0.53050013775E+02 -0.54757158837E+02 -0.77139489867E+01  0.11006665021E+03  0.79009569504E+02 0.  0.
         25    2    1    2    0    0  0.22286366961E+03  0.56437644158E+02  0.50912932845E+03  0.57246351910E+03  0.12509350381E+03 0.  0.
         24    2    1    2    0    0 -0.16981365584E+03 -0.16804853214E+01  0.28614057706E+04  0.28674841264E+04  0.77348105948E+02 0.  0.
        -11    1    5    5    0    0 -0.79105353311E+02  0.36019814544E+02  0.15231011361E+04  0.15255792850E+04  0.00000000000E+00 0.  1.
         12    1    5    5    0    0 -0.90708302525E+02 -0.37700299865E+02  0.13383046345E+04  0.13419048415E+04  0.00000000000E+00 0. -1.
         11    1    3    3    0    0 -0.73499977949E+02 -0.35367806113E+02 -0.71630887285E+01  0.81880634510E+02  0.00000000000E+00 0. -1.
        -12    1    3    3    0    0  0.20449964174E+02 -0.19389352724E+02 -0.55086025816E+00  0.28186015696E+02  0.00000000000E+00 0.  1.
          5    1    4    4  501    0 -0.73097016984E+01  0.23002419699E+02  0.88110752276E+02  0.91452283283E+02  0.41800000000E+01 0. -1.
         -5    1    4    4    0  501  0.23017337131E+03  0.33435224459E+02  0.42101857618E+03  0.48101123581E+03  0.41800000000E+01 0. -1.
</event>
<event>
11    1  0.5813833E-009  0.2052960E+03  0.7561462E-02  0.1050840E+00
         22   -1    0    0    0    0  0.00000000000E+00  0.00000000000E+00  0.13242777248E+04  0.13242777248E+04  0.00000000000E+00 0.  1.
         22   -1    0    0    0    0 -0.00000000000E+00 -0.00000000000E+00 -0.20749237945E+03  0.20749237945E+03  0.00000000000E+00 0.  1.
         24    2    1    2    0    0  0.12498893175E+03  0.10019534399E+03 -0.95316852842E+02  0.20776130888E+03  0.91750307978E+02 0.  0.
         25    2    1    2    0    0 -0.17635013034E+03 -0.52806282735E+02  0.17949984956E+03  0.28593323692E+03  0.12509895291E+03 0.  0.
        -24    2    1    2    0    0  0.51361198592E+02 -0.47389061252E+02  0.10326023487E+04  0.10380755585E+04  0.80309145098E+02 0.  0.
        -13    1    3    3    0    0  0.73880052091E+02  0.74296468533E+02 -0.10358339191E+02  0.10528780805E+03  0.00000000000E+00 0.  1.
         14    1    3    3    0    0  0.51108879656E+02  0.25898875455E+02 -0.84958513651E+02  0.10247350082E+03  0.00000000000E+00 0. -1.
         13    1    5    5    0    0  0.30246366928E+02 -0.69507788834E+02  0.71781391900E+03  0.72180537386E+03  0.00000000000E+00 0. -1.
        -14    1    5    5    0    0  0.21114831665E+02  0.22118727581E+02  0.31478842969E+03  0.31627018464E+03  0.00000000000E+00 0.  1.
          5    1    4    4  501    0 -0.14560839566E+03 -0.46129830455E+02  0.19729883144E+03  0.24954772576E+03  0.41800000000E+01 0. -1.
         -5    1    4    4    0  501 -0.30741734684E+02 -0.66764522809E+01 -0.17798981888E+02  0.36385511164E+02  0.41800000000E+01 0. -1.
</event>
<event>
11    1  0.5813833E-009  0.1403800E+03  0.7561462E-02  0.1107135E+00
         22   -1    0    0    0    0  0.00000000000E+00  0.00000000000E+00  0.12533291036E+04  0.12533291036E+04  0.00000000000E+00 0.  1.
         22   -1    0    0    0    0 -0.00000000000E+00 -0.00000000000E+00 -0.11604708745E+04  0.11604708745E+04  0.00000000000E+00 0.  1.
        -24    2    1    2    0    0  0.14082833449E+02  0.62324374584E+02 -0.97168256462E+03  0.97697519427E+03  0.78935859780E+02 0.  0.
         25    2    1    2    0    0  0.24145840739E+02 -0.10514430499E+02 -0.16177840584E+03  0.20618800478E+03  0.12509063053E+03 0.  0.
         24    2    1    2    0    0 -0.38228674187E+02 -0.51809944085E+02  0.12263191995E+04  0.12306367791E+04  0.80389061019E+02 0.  0.
        -13    1    5    5    0    0 -0.32349755747E+02 -0.73706766392E+01  0.95986345976E+03  0.96043672095E+03  0.00000000000E+00 0.  1.
         14    1    5    5    0    0 -0.58789184402E+01 -0.44439267446E+02  0.26645573975E+03  0.27020005814E+03  0.00000000000E+00 0. -1.
         13    1    3    3    0    0  0.17710574541E+02 -0.81278778843E+00 -0.48669143755E+02  0.51797785941E+02  0.00000000000E+00 0. -1.
        -14    1    3    3    0    0 -0.36277410920E+01  0.63137162373E+02 -0.92301342087E+03  0.92517740833E+03  0.00000000000E+00 0.  1.
          5    1    4    4  501    0 -0.30326948224E+00  0.49601175075E+02 -0.11723155619E+03  0.12736199868E+03  0.41800000000E+01 0.  1.
         -5    1    4    4    0  501  0.24449110221E+02 -0.60115605574E+02 -0.44546849651E+02  0.78826006102E+02  0.41800000000E+01 0.  1.
</event>
<event>
11    1  0.5813833E-009  0.1400455E+03  0.7561462E-02  0.1107508E+00
         22   -1    0    0    0    0  0.00000000000E+00  0.00000000000E+00  0.19957930274E+03  0.19957930274E+03  0.00000000000E+00 0.  1.
         22   -1    0    0    0    0 -0.00000000000E+00 -0.00000000000E+00 -0.47220828941E+03  0.47220828941E+03  0.00000000000E+00 0.  1.
         24    2    1    2    0    0 -0.19734475983E+02  0.63314558816E+02 -0.35754453325E+03  0.37279437649E+03  0.82093672012E+02 0.  0.
         25    2    1    2    0    0  0.35769129148E+02 -0.32171907788E+02 -0.46233710311E+02  0.14177113184E+03  0.12508811136E+03 0.  0.
        -24    2    1    2    0    0 -0.16034653165E+02 -0.31142651028E+02  0.13114925689E+03  0.15722208382E+03  0.79320118777E+02 0.  0.
        -13    1    3    3    0    0 -0.49255850822E+02  0.56743933717E+02 -0.26373391789E+03  0.27422908726E+03  0.00000000000E+00 0.  1.
         14    1    3    3    0    0  0.29521374839E+02  0.65706250992E+01 -0.93810615360E+02  0.98565289229E+02  0.00000000000E+00 0. -1.
         13    1    5    5    0    0 -0.33911358243E+02 -0.21967696927E+01  0.16779153654E+02  0.37899155826E+02  0.00000000000E+00 0. -1.
        -14    1    5    5    0    0  0.17876705079E+02 -0.28945881335E+02  0.11437010324E+03  0.11932292799E+03  0.00000000000E+00 0.  1.
          5    1    4    4  501    0 -0.28590839116E+02 -0.47810676379E+02  0.75202508793E+01  0.56367751689E+02  0.41800000000E+01 0. -1.
         -5    1    4    4    0  501  0.64359968264E+02  0.15638768591E+02 -0.53753961190E+02  0.85403380154E+02  0.41800000000E+01 0. -1.
</event>
<event>
11    1  0.5813833E-009  0.1375437E+03  0.7561462E-02  0.1110333E+00
         22   -1    0    0    0    0  0.00000000000E+00  0.00000000000E+00  0.31624771970E+03  0.31624771970E+03  0.00000000000E+00 0.  1.
         22   -1    0    0    0    0 -0.00000000000E+00 -0.00000000000E+00 -0.37070958807E+03  0.37070958807E+03  0.00000000000E+00 0.  1.
        -24    2    1    2    0    0  0.33826233011E+02 -0.29584130345E+02 -0.20622144644E+03  0.22526630980E+03  0.78728587893E+02 0.  0.
         25    2    1    2    0    0  0.25260129672E+02  0.30038758110E+02 -0.11669922867E+03  0.17551728922E+03  0.12508879927E+03 0.  0.
         24    2    1    2    0    0 -0.59086362683E+02 -0.45462776447E+00  0.26845880675E+03  0.28617370875E+03  0.79585524544E+02 0.  0.
        -13    1    5    5    0    0 -0.27525006545E+01  0.16372472006E+02  0.17482642994E+03  0.17561296850E+03  0.00000000000E+00 0.  1.
         14    1    5    5    0    0 -0.56333862029E+02 -0.16827099771E+02  0.93632376804E+02  0.11056074025E+03  0.00000000000E+00 0. -1.
         13    1    3    3    0    0 -0.68097176142E+01 -0.40696169579E+02 -0.14637245182E+03  0.15207710256E+03  0.00000000000E+00 0. -1.
        -14    1    3    3    0    0  0.40635950625E+02  0.11112039234E+02 -0.59848994626E+02  0.73189207243E+02  0.00000000000E+00 0.  1.
          5    1    4    4  501    0  0.30314778366E+02 -0.45005285565E+02 -0.61530892395E+02  0.82146117590E+02  0.41800000000E+01 0. -1.
         -5    1    4    4    0  501 -0.50546486935E+01  0.75044043674E+02 -0.55168336272E+02  0.93371171629E+02  0.41800000000E+01 0. -1.
</event>
<event>
11    1  0.5813833E-009  0.1414859E+03  0.7561462E-02  0.1105910E+00
         22   -1    0    0    0    0  0.00000000000E+00  0.00000000000E+00  0.81172455418E+02  0.81172455418E+02  0.00000000000E+00 0.  1.
         22   -1    0    0    0    0 -0.00000000000E+00 -0.00000000000E+00 -0.91926365369E+03  0.91926365369E+03  0.00000000000E+00 0. -1.
        -24    2    1    2    0    0  0.25737689903E+02 -0.75260086352E+02 -0.60403998532E+03  0.61449124960E+03  0.80054248400E+02 0.  0.
         25    2    1    2    0    0 -0.64391078731E+01  0.26831188364E+02 -0.25775473280E+03  0.28782972440E+03  0.12508826158E+03 0.  0.
         24    2    1    2    0    0 -0.19298582030E+02  0.48428897988E+02  0.23703519854E+02  0.98115135108E+02  0.79667618611E+02 0.  0.
        -13    1    5    5    0    0 -0.11082898477E+02  0.65990062337E+02  0.35166146532E+02  0.75592174382E+02  0.00000000000E+00 0.  1.
         14    1    5    5    0    0 -0.82156835526E+01 -0.17561164349E+02 -0.11462626678E+02  0.22522960726E+02  0.00000000000E+00 0. -1.
         13    1    3    3    0    0  0.48929734014E+02 -0.75128355165E+02 -0.47894586527E+03  0.48726535941E+03  0.00000000000E+00 0. -1.
        -14    1    3    3    0    0 -0.23192044111E+02 -0.13173118724E+00 -0.12509412006E+03  0.12722589019E+03  0.00000000000E+00 0.  1.
          5    1    4    4  501    0 -0.26162070692E+02  0.72877808974E+02 -0.16562504829E+03  0.18287908028E+03  0.41800000000E+01 0.  1.
         -5    1    4    4    0  501  0.19722962819E+02 -0.46046620610E+02 -0.92129684506E+02  0.10495064411E+03  0.41800000000E+01 0.  1.
</event>
<event>
11    1  0.5813833E-009  0.3075645E+03  0.7561462E-02  0.9970396E-01
         22   -1    0    0    0    0  0.00000000000E+00  0.00000000000E+00  0.11215287928E+04  0.11215287928E+04  0.00000000000E+00 0.  1.
         22   -1    0    0    0    0 -0.00000000000E+00 -0.00000000000E+00 -0.23193449182E+03  0.23193449182E+03  0.00000000000E+00 0.  1.
        -24    2    1    2    0    0  0.38155422845E+02 -0.65677104585E+02 -0.72959093372E+02  0.13364616360E+03  0.82273625061E+02 0.  0.
         25    2    1    2    0    0  0.54969245290E+02  0.32045900830E+03  0.18951044385E+03  0.39658187555E+03  0.12508949498E+03 0.  0.
         24    2    1    2    0    0 -0.93124668135E+02 -0.25478190372E+03  0.77304295052E+03  0.82323524548E+03  0.80838380614E+02 0.  0.
        -13    1    5    5    0    0 -0.91086162559E+02 -0.23988970607E+03  0.64274072004E+03  0.69206892235E+03  0.00000000000E+00 0.  1.
         14    1    5    5    0    0 -0.20385055758E+01 -0.14892197647E+02  0.13030223048E+03  0.13116632313E+03  0.00000000000E+00 0. -1.
         13    1    3    3    0    0  0.51619714829E+02 -0.18568585998E+02 -0.63201980005E+02  0.83689172666E+02  0.00000000000E+00 0. -1.
        -14    1    3    3    0    0 -0.13464291984E+02 -0.47108518588E+02 -0.97571133672E+01  0.49956990936E+02  0.00000000000E+00 0.  1.
          5    1    4    4  501    0  0.69199648983E+02  0.29589963524E+03  0.13006409139E+03  0.33057423648E+03  0.41800000000E+01 0.  1.
         -5    1    4    4    0  501 -0.14230403694E+02  0.24559373059E+02  0.59446352459E+02  0.66007639065E+02  0.41800000000E+01 0.  1.
</event>
<event>
11    1  0.5813833E-009  0.1442529E+03  0.7561462E-02  0.1102900E+00
         22   -1    0    0    0    0  0.00000000000E+00  0.00000000000E+00  0.15890828401E+03  0.15890828401E+03  0.00000000000E+00 0.  1.
         22   -1    0    0    0    0 -0.00000000000E+00 -0.00000000000E+00 -0.36387417469E+03  0.36387417469E+03  0.00000000000E+00 0. -1.
         24    2    1    2    0    0  0.60723355010E+02  0.47878302858E+02 -0.14126530710E+03  0.17980716234E+03  0.79969187257E+02 0.  0.
         25    2    1    2    0    0 -0.54923174009E+01 -0.79486356385E+02 -0.14941261763E+03  0.21052199655E+03  0.12508850597E+03 0.  0.
        -24    2    1    2    0    0 -0.55231037609E+02  0.31608053527E+02  0.85712034044E+02  0.13245329981E+03  0.78407826690E+02 0.  0.
        -13    1    3    3    0    0 -0.56741569962E+01  0.39207079571E+02 -0.29026288710E+02  0.49111267367E+02  0.00000000000E+00 0.  1.
         14    1    3    3    0    0  0.66397512006E+02  0.86712232875E+01 -0.11223901839E+03  0.13069589497E+03  0.00000000000E+00 0. -1.
         13    1    5    5    0    0 -0.47631845472E+02  0.60957040443E+00  0.88406437062E+02  0.10042341556E+03  0.00000000000E+00 0. -1.
        -14    1    5    5    0    0 -0.75991921371E+01  0.30998483122E+02 -0.26944030180E+01  0.32029884243E+02  0.00000000000E+00 0.  1.
          5    1    4    4  501    0  0.48171020344E+02 -0.39321984296E+02 -0.12387820844E+03  0.13867209011E+03  0.41800000000E+01 0.  1.
         -5    1    4    4    0  501 -0.53663337744E+02 -0.40164372090E+02 -0.25534409187E+02  0.71849906442E+02  0.41800000000E+01 0.  1.
</event>
<event>
11    1  0.5813833E-009  0.1877862E+03  0.7561462E-02  0.1063513E+00
         22   -1    0    0    0    0  0.00000000000E+00  0.00000000000E+00  0.79967900732E+03  0.79967900732E+03  0.00000000000E+00 0.  1.
         22   -1    0    0    0    0 -0.00000000000E+00 -0.00000000000E+00 -0.10746057492E+04  0.10746057492E+04  0.00000000000E+00 0. -1.
         24    2    1    2    0    0 -0.69244299407E+02 -0.60341654869E+02 -0.98652911395E+03  0.99395363830E+03  0.79172306475E+02 0.  0.
         25    2    1    2    0    0  0.16097391183E+03  0.15133735065E+03  0.14231119133E+03  0.29105604501E+03  0.12508218165E+03 0.  0.
        -24    2    1    2    0    0 -0.91729612426E+02 -0.90995695777E+02  0.56929118069E+03  0.58927507325E+03  0.80362460737E+02 0.  0.
        -11    1    3    3    0    0 -0.18452921056E+02  0.10796478981E+02 -0.68164016897E+02  0.71438137248E+02  0.00000000000E+00 0.  1.
         12    1    3    3    0    0 -0.50791378351E+02 -0.71138133851E+02 -0.91836509705E+03  0.92251550106E+03  0.00000000000E+00 0. -1.
         13    1    5    5    0    0 -0.23478931325E+01  0.72927504976E+01  0.13263394299E+03  0.13285503244E+03  0.00000000000E+00 0. -1.
        -14    1    5    5    0    0 -0.89381719294E+02 -0.98288446274E+02  0.43665723770E+03  0.45642004081E+03  0.00000000000E+00 0.  1.
          5    1    4    4  501    0  0.66763322148E+02  0.50300486865E+02  0.12686696326E+03  0.15198743017E+03  0.41800000000E+01 0. -1.
         -5    1    4    4    0  501  0.94210589685E+02  0.10103686378E+03  0.15444228068E+02  0.13906861484E+03  0.41800000000E+01 0. -1.
</event>
<event>
11    1  0.5813833E-009  0.1359871E+03  0.7561462E-02  0.1112124E+00
         22   -1    0    0    0    0  0.00000000000E+00  0.00000000000E+00  0.12302849417E+04  0.12302849417E+04  0.00000000000E+00 0.  1.
         22   -1    0    0    0    0 -0.00000000000E+00 -0.00000000000E+00 -0.23904450568E+03  0.23904450568E+03  0.00000000000E+00 0.  1.
         24    2    1    2    0    0  0.66846185749E+01 -0.54720536813E+02 -0.10374183044E+03  0.14214306945E+03  0.80020394497E+02 0.  0.
         25    2    1    2    0    0  0.33067875422E+02  0.49310650203E+02 -0.72808746246E+02  0.15644095111E+03  0.12509049942E+03 0.  0.
        -24    2    1    2    0    0 -0.39752493997E+02  0.54098866105E+01  0.11677910127E+04  0.11707454268E+04  0.72797509404E+02 0.  0.
        -13    1    3    3    0    0 -0.32313639762E+00 -0.75345506751E+02 -0.78702614950E+02  0.10895481359E+03  0.00000000000E+00 0.  1.
         14    1    3    3    0    0  0.70077549725E+01  0.20624969938E+02 -0.25039215494E+02  0.33188255863E+02  0.00000000000E+00 0. -1.
         11    1    5    5    0    0  0.18803259083E+02 -0.10460112829E+01  0.50203495179E+03  0.50238804674E+03  0.00000000000E+00 0. -1.
        -12    1    5    5    0    0 -0.58555753080E+02  0.64558978934E+01  0.66575606094E+03  0.66835738009E+03  0.00000000000E+00 0.  1.
          5    1    4    4  501    0  0.59134192958E+02  0.31439641035E+02  0.98739886051E+01  0.67825303952E+02  0.41800000000E+01 0. -1.
         -5    1    4    4    0  501 -0.26066317536E+02  0.17871009168E+02 -0.82682734851E+02  0.88615647157E+02  0.41800000000E+01 0. -1.
</event>
<event>
11    1  0.5813833E-009  0.1268251E+03  0.7561462E-02  0.1123233E+00
         22   -1    0    0    0    0  0.00000000000E+00  0.00000000000E+00  0.23236285964E+03  0.23236285964E+03  0.00000000000E+00 0.  1.
         22   -1    0    0    0    0 -0.00000000000E+00 -0.00000000000E+00 -0.49483508717E+03  0.49483508717E+03  0.00000000000E+00 0. -1.
        -24    2    1    2    0    0  0.89397442066E+01  0.14384203804E+02 -0.36067336827E+03  0.37544988142E+03  0.10291020617E+03 0.  0.
         25    2    1    2    0    0 -0.76173930072E+01 -0.42179530657E+02 -0.79650355614E+02  0.15436923695E+03  0.12509414328E+03 0.  0.
         24    2    1    2    0    0 -0.13223511994E+01  0.27795326852E+02  0.17785149637E+03  0.19737882844E+03  0.80950097896E+02 0.  0.
        -11    1    5    5    0    0 -0.16975231051E+02  0.51824370995E+02  0.13710413194E+03  0.14755157368E+03  0.00000000000E+00 0.  1.
         12    1    5    5    0    0  0.15652879852E+02 -0.24029044142E+02  0.40747364423E+02  0.49827254766E+02  0.00000000000E+00 0. -1.
         11    1    3    3    0    0  0.15395595040E+02 -0.79051964364E+01 -0.34908143178E+03  0.34951017509E+03  0.00000000000E+00 0. -1.
        -12    1    3    3    0    0 -0.64558508338E+01  0.22289400241E+02 -0.11591936495E+02  0.25939706336E+02  0.00000000000E+00 0.  1.
          5    1    4    4  501    0  0.47392668710E+02  0.14979975020E+02 -0.15412418526E+02  0.52206127455E+02  0.41800000000E+01 0.  1.
         -5    1    4    4    0  501 -0.55010061717E+02 -0.57159505676E+02 -0.64237937088E+02  0.10216310949E+03  0.41800000000E+01 0.  1.
</event>
<event>
11    1  0.5813833E-009  0.1749820E+03  0.7561462E-02  0.1073776E+00
         22   -1    0    0    0    0  0.00000000000E+00  0.00000000000E+00  0.55912695254E+03  0.55912695254E+03  0.00000000000E+00 0.  1.
         22   -1    0    0    0    0 -0.00000000000E+00 -0.00000000000E+00 -0.37070966812E+03  0.37070966812E+03  0.00000000000E+00 0.  1.
        -24    2    1    2    0    0 -0.10996260399E+03 -0.52764368565E+02 -0.30108294046E+03  0.33392184084E+03  0.77311098102E+02 0.  0.
         25    2    1    2    0    0  0.91829189840E+02  0.99512184781E+02  0.13422371707E+03  0.22803110091E+03  0.12508757625E+03 0.  0.
         24    2    1    2    0    0  0.18133414151E+02 -0.46747816216E+02  0.35527650781E+03  0.36788367891E+03  0.81257769946E+02 0.  0.
        -11    1    5    5    0    0 -0.56319168322E+01 -0.65166663243E+02  0.24531541571E+03  0.25388593043E+03  0.00000000000E+00 0.  1.
         12    1    5    5    0    0  0.23765330983E+02  0.18418847027E+02  0.10996109210E+03  0.11399774848E+03  0.00000000000E+00 0. -1.
         11    1    3    3    0    0 -0.56534533857E+02  0.13673270220E+02 -0.14161445950E+03  0.15309398086E+03  0.00000000000E+00 0. -1.
        -12    1    3    3    0    0 -0.53428070134E+02 -0.66437638785E+02 -0.15946848096E+03  0.18082785998E+03  0.00000000000E+00 0.  1.
          5    1    4    4  501    0  0.96765251617E+02  0.40765822224E+02  0.13222322080E+03  0.16889588124E+03  0.41800000000E+01 0.  1.
         -5    1    4    4    0  501 -0.49360617768E+01  0.58746362557E+02  0.20004962671E+01  0.59135219665E+02  0.41800000000E+01 0.  1.
</event>
<event>
11    1  0.5813833E-009  0.4854681E+03  0.7561462E-02  0.9426593E-01
         22   -1    0    0    0    0  0.00000000000E+00  0.00000000000E+00  0.96242420131E+03  0.96242420131E+03  0.00000000000E+00 0. -1.
         22   -1    0    0    0    0 -0.00000000000E+00 -0.00000000000E+00 -0.11923228839E+04  0.11923228839E+04  0.00000000000E+00 0. -1.
        -24    2    1    2    0    0 -0.30765264077E+02 -0.42238686166E+02 -0.94737902056E+03  0.95207504164E+03  0.78671902509E+02 0.  0.
         25    2    1    2    0    0 -0.17973757390E+03  0.44878955851E+03  0.34574916878E+03  0.60737775424E+03  0.12509030869E+03 0.  0.
         24    2    1    2    0    0  0.21050283798E+03 -0.40655087235E+03  0.37173116918E+03  0.59529428935E+03  0.81216822051E+02 0.  0.
        -13    1    5    5    0    0  0.66126886326E+01 -0.50523700120E+02  0.19493910939E+02  0.54556250682E+02  0.00000000000E+00 0.  1.
         14    1    5    5    0    0  0.20389014935E+03 -0.35602717223E+03  0.35223725824E+03  0.54073803866E+03  0.00000000000E+00 0. -1.
         11    1    3    3    0    0 -0.51582760776E+02 -0.32166418921E+02 -0.84183811762E+03  0.84403013927E+03  0.00000000000E+00 0. -1.
        -12    1    3    3    0    0  0.20817496700E+02 -0.10072267245E+02 -0.10554090294E+03  0.10804490238E+03  0.00000000000E+00 0.  1.
          5    1    4    4  501    0 -0.15410877658E+03  0.44755941587E+03  0.32745532483E+03  0.57558961762E+03  0.41800000000E+01 0. -1.
         -5    1    4    4    0  501 -0.25628797325E+02  0.12301426452E+01  0.18293843948E+02  0.31788136618E+02  0.41800000000E+01 0. -1.
</event>
<event>
11    1  0.5813833E-009  0.1584684E+03  0.7561462E-02  0.1088527E+00
         22   -1    0    0    0    0  0.00000000000E+00  0.00000000000E+00  0.37575608960E+02  0.37575608960E+02  0.00000000000E+00 0. -1.
         22   -1    0    0    0    0 -0.00000000000E+00 -0.00000000000E+00 -0.17849895553E+04  0.17849895553E+04  0.00000000000E+00 0.  1.
         24    2    1    2    0    0 -0.93531557200E+02  0.60834795075E+02 -0.10216208871E+04  0.10309641235E+04  0.82029034348E+02 0.  0.
         25    2    1    2    0    0  0.75291373627E+02 -0.14456233851E+02 -0.65815526934E+03  0.67430992665E+03  0.12509094686E+03 0.  0.
        -24    2    1    2    0    0  0.18240183573E+02 -0.46378561224E+02 -0.67637789918E+02  0.11729111413E+03  0.81845339463E+02 0.  0.
        -11    1    3    3    0    0 -0.10491631677E+03  0.63072593424E+02 -0.98425127422E+03  0.99183474247E+03  0.00000000000E+00 0.  1.
         12    1    3    3    0    0  0.11384759574E+02 -0.22377983488E+01 -0.37369612867E+02  0.39129381005E+02  0.00000000000E+00 0. -1.
         13    1    5    5    0    0 -0.37633102800E+00 -0.65158051016E+02 -0.62629260685E+02  0.90377749093E+02  0.00000000000E+00 0. -1.
        -14    1    5    5    0    0  0.18616514601E+02  0.18779489792E+02 -0.50085292327E+01  0.26913365040E+02  0.00000000000E+00 0.  1.
          5    1    4    4  501    0  0.85507515158E+00 -0.19700883494E+02 -0.11215930744E+02  0.23067844858E+02  0.41800000000E+01 0.  1.
         -5    1    4    4    0  501  0.74436298475E+02  0.52446496434E+01 -0.64693933860E+03  0.65124208180E+03  0.41800000000E+01 0.  1.
</event>
<event>
11    1  0.5813833E-009  0.1778106E+03  0.7561462E-02  0.1071428E+00
         22   -1    0    0    0    0  0.00000000000E+00  0.00000000000E+00  0.40536897213E+03  0.40536897213E+03  0.00000000000E+00 0.  1.
         22   -1    0    0    0    0 -0.00000000000E+00 -0.00000000000E+00 -0.52920480881E+03  0.52920480881E+03  0.00000000000E+00 0. -1.
         24    2    1    2    0    0  0.14869908901E+03 -0.83446731513E+01 -0.33048529590E+03  0.37129716527E+03  0.80374134468E+02 0.  0.
         25    2    1    2    0    0 -0.80829763347E+02 -0.61864582802E+02 -0.12777661411E+03  0.20575403089E+03  0.12508869200E+03 0.  0.
        -24    2    1    2    0    0 -0.67869325668E+02  0.70209255953E+02  0.33442607332E+03  0.35752258478E+03  0.80287079410E+02 0.  0.
        -11    1    3    3    0    0  0.87702853136E+02 -0.43647395854E+01 -0.10111612942E+03  0.13392278756E+03  0.00000000000E+00 0.  1.
         12    1    3    3    0    0  0.60996235878E+02 -0.39799335659E+01 -0.22936916648E+03  0.23737437771E+03  0.00000000000E+00 0. -1.
         11    1    5    5    0    0  0.51410395070E+01  0.16686459267E+02  0.88112494134E+01  0.19557768950E+02  0.00000000000E+00 0. -1.
        -12    1    5    5    0    0 -0.73010365175E+02  0.53522796686E+02  0.32561482391E+03  0.33796481583E+03  0.00000000000E+00 0.  1.
          5    1    4    4  501    0 -0.51028086438E+02  0.15594640332E+02 -0.10769693100E+03  0.12026287773E+03  0.41800000000E+01 0. -1.
         -5    1    4    4    0  501 -0.29801676908E+02 -0.77459223134E+02 -0.20079683105E+02  0.85491153160E+02  0.41800000000E+01 0. -1.
</event>
<event>
11    1  0.8883495E-009  0.1593680E+03  0.7561462E-02  0.1087673E+00
         22   -1    0    0    0    0  0.00000000000E+00  0.00000000000E+00  0.26526983243E+03  0.26526983243E+03  0.00000000000E+00 0.  1.
         22   -1    0    0    0    0 -0.00000000000E+00 -0.00000000000E+00 -0.15664710721E+04  0.15664710721E+04  0.00000000000E+00 0. -1.
        -24    2    1    2    0    0 -0.11761104502E+02  0.38668325851E+02 -0.70628754668E+03  0.71206844811E+03  0.81029705633E+02 0.  0.
         25    2    1    2    0    0  0.78414703956E+02 -0.11059141675E+03 -0.83109934412E+03  0.85132465298E+03  0.12509283640E+03 0.  0.
         24    2    1    2    0    0 -0.66653599454E+02  0.71923090899E+02  0.23618565109E+03  0.26834780348E+03  0.81309584474E+02 0.  0.
        -13    1    5    5    0    0 -0.83653303123E+02  0.43578286837E+02  0.17345974400E+03  0.19744676497E+03  0.00000000000E+00 0.  1.
         14    1    5    5    0    0  0.16999703669E+02  0.28344804062E+02  0.62725907087E+02  0.70901038512E+02  0.00000000000E+00 0. -1.
         11    1    3    3    0    0  0.78762700598E+01  0.57752233422E+02 -0.35878479152E+03  0.36348849049E+03  0.00000000000E+00 0. -1.
        -12    1    3    3    0    0 -0.19637374562E+02 -0.19083907571E+02 -0.34750275516E+03  0.34857995762E+03  0.00000000000E+00 0.  1.
          5    1    4    4  501    0  0.18577693105E+02  0.12496971436E+02 -0.36026537801E+03  0.36098465337E+03  0.41800000000E+01 0. -1.
         -5    1    4    4    0  501  0.59837010852E+02 -0.12308838819E+03 -0.47083396611E+03  0.49033999961E+03  0.41800000000E+01 0. -1.
</event>
<event>
11    1  0.5813833E-009  0.1493718E+03  0.7561462E-02  0.1097522E+00
         22   -1    0    0    0    0  0.00000000000E+00  0.00000000000E+00  0.28421982002E+03  0.28421982002E+03  0.00000000000E+00 0. -1.
         22   -1    0    0    0    0 -0.00000000000E+00 -0.00000000000E+00 -0.25178263201E+03  0.25178263201E+03  0.00000000000E+00 0. -1.
        -24    2    1    2    0    0  0.54028747216E+02 -0.59388511096E+02 -0.17780355936E+03  0.21060398373E+03  0.79333671702E+02 0.  0.
         25    2    1    2    0    0 -0.88607613356E+02  0.47646181669E+02  0.13098705316E+03  0.20718932742E+03  0.12509333127E+03 0.  0.
         24    2    1    2    0    0  0.34578866140E+02  0.11742329427E+02  0.79253694206E+02  0.11820914088E+03  0.79741285790E+02 0.  0.
        -11    1    5    5    0    0 -0.15336946966E+01 -0.23396757649E+02  0.59737813318E+02  0.64174502942E+02  0.00000000000E+00 0.  1.
         12    1    5    5    0    0  0.36112560836E+02  0.35139087076E+02  0.19515880888E+02  0.54034637942E+02  0.00000000000E+00 0. -1.
         13    1    3    3    0    0  0.19909108766E+02 -0.73095672441E+02 -0.12721288498E+03  0.14806237891E+03  0.00000000000E+00 0. -1.
        -14    1    3    3    0    0  0.34119638450E+02  0.13707161345E+02 -0.50590674378E+02  0.62541604825E+02  0.00000000000E+00 0.  1.
          5    1    4    4  501    0  0.15221398526E+02 -0.24791002055E+02  0.46223443065E+02  0.54775577083E+02  0.41800000000E+01 0. -1.
         -5    1    4    4    0  501 -0.10382901188E+03  0.72437183724E+02  0.84763610094E+02  0.15241375033E+03  0.41800000000E+01 0. -1.
</event>
<event>
11    1  0.5813833E-009  0.1330688E+03  0.7561462E-02  0.1115555E+00
         22   -1    0    0    0    0  0.00000000000E+00  0.00000000000E+00  0.15968917789E+04  0.15968917789E+04  0.00000000000E+00 0.  1.
         22   -1    0    0    0    0 -0.00000000000E+00 -0.00000000000E+00 -0.14636447044E+04  0.14636447044E+04  0.00000000000E+00 0. -1.
         24    2    1    2    0    0  0.12704261718E+02 -0.32741612971E+02 -0.14459999627E+04  0.14484672878E+04  0.76864687393E+02 0.  0.
         25    2    1    2    0    0  0.24633965569E+02  0.17466959513E+01  0.26152598891E+03  0.29095217518E+03  0.12508973644E+03 0.  0.
        -24    2    1    2    0    0 -0.37338227287E+02  0.30994917020E+02  0.13177210484E+04  0.13211170203E+04  0.81280944665E+02 0.  0.
        -11    1    3    3    0    0 -0.20836717310E+02 -0.30438284090E+02 -0.34736858642E+03  0.34932161793E+03  0.00000000000E+00 0.  1.
         12    1    3    3    0    0  0.33540979028E+02 -0.23033288808E+01 -0.10986313763E+04  0.10991456699E+04  0.00000000000E+00 0. -1.
         13    1    5    5    0    0 -0.26292778082E+02  0.11299044140E+02  0.12710458102E+03  0.13028642713E+03  0.00000000000E+00 0. -1.
        -14    1    5    5    0    0 -0.11045449206E+02  0.19695872879E+02  0.11906164674E+04  0.11908305932E+04  0.00000000000E+00 0.  1.
          5    1    4    4  501    0 -0.23898212919E+02  0.51525759901E+02  0.13504900321E+03  0.14656648383E+03  0.41800000000E+01 0.  1.
         -5    1    4    4    0  501  0.48532178489E+02 -0.49779063950E+02  0.12647698569E+03  0.14438569135E+03  0.41800000000E+01 0.  1.
</event>
<event>
11    1  0.5813833E-009  0.1406799E+03  0.7561462E-02  0.1106802E+00
         22   -1    0    0    0    0  0.00000000000E+00  0.00000000000E+00  0.74867027480E+03  0.74867027480E+03  0.00000000000E+00 0. -1.
         22   -1    0    0    0    0 -0.00000000000E+00 -0.00000000000E+00 -0.90652733600E+03  0.90652733600E+03  0.00000000000E+00 0. -1.
         24    2    1    2    0    0 -0.39792264476E+02  0.42938440128E+02 -0.70859179425E+03  0.71748792126E+03  0.96226048068E+02 0.  0.
         25    2    1    2    0    0  0.11413253309E+03 -0.55001981125E+02 -0.14742389977E+03  0.23114683150E+03  0.12507437169E+03 0.  0.
        -24    2    1    2    0    0 -0.74340268610E+02  0.12063540997E+02  0.69815863282E+03  0.70656285804E+03  0.78317247280E+02 0.  0.
        -11    1    3    3    0    0 -0.34105764055E+02 -0.12926850939E+02 -0.10241735347E+03  0.10871807995E+03  0.00000000000E+00 0.  1.
         12    1    3    3    0    0 -0.56865004216E+01  0.55865291066E+02 -0.60617444078E+03  0.60876984131E+03  0.00000000000E+00 0. -1.
         13    1    5    5    0    0 -0.86283978228E+02 -0.20773217083E+01  0.48652022570E+03  0.49411655526E+03  0.00000000000E+00 0. -1.
        -14    1    5    5    0    0  0.11943709618E+02  0.14140862706E+02  0.21163840712E+03  0.21244630278E+03  0.00000000000E+00 0.  1.
          5    1    4    4  501    0  0.73520790050E+02 -0.28764620096E+02 -0.33611341062E+01  0.79129511317E+02  0.41800000000E+01 0. -1.
         -5    1    4    4    0  501  0.40611743036E+02 -0.26237361029E+02 -0.14406276566E+03  0.15201732019E+03  0.41800000000E+01 0. -1.
</event>
<event>
11    1  0.5813833E-009  0.1358854E+03  0.7561462E-02  0.1112242E+00
         22   -1    0    0    0    0  0.00000000000E+00  0.00000000000E+00  0.11869027046E+04  0.11869027046E+04  0.00000000000E+00 0. -1.
         22   -1    0    0    0    0 -0.00000000000E+00 -0.00000000000E+00 -0.74116411028E+03  0.74116411028E+03  0.00000000000E+00 0.  1.
        -24    2    1    2    0    0  0.16102474217E+02  0.78681495702E+01 -0.70483892832E+03  0.70962831060E+03  0.80331979153E+02 0.  0.
         25    2    1    2    0    0 -0.59796298309E+02  0.21255583541E+02  0.12267999106E+03  0.18634759574E+03  0.12509056363E+03 0.  0.
         24    2    1    2    0    0  0.43693824092E+02 -0.29123733111E+02  0.10278975316E+04  0.10320909086E+04  0.76687456383E+02 0.  0.
        -11    1    5    5    0    0  0.32474291227E+02 -0.46456823917E+02  0.41584605298E+03  0.41969126255E+03  0.00000000000E+00 0.  1.
         12    1    5    5    0    0  0.11219532865E+02  0.17333090807E+02  0.61205147862E+03  0.61239964602E+03  0.00000000000E+00 0. -1.
         13    1    3    3    0    0  0.40112865706E+01  0.13666728502E+02 -0.19446392608E+02  0.24104606891E+02  0.00000000000E+00 0. -1.
        -14    1    3    3    0    0  0.12091187646E+02 -0.57985789314E+01 -0.68539253571E+03  0.68552370371E+03  0.00000000000E+00 0.  1.
          5    1    4    4  501    0 -0.75607870305E+02  0.61033522603E+02  0.84751103124E+02  0.12900334420E+03  0.41800000000E+01 0.  1.
         -5    1    4    4    0  501  0.15811571996E+02 -0.39777939062E+02  0.37928887934E+02  0.57344251542E+02  0.41800000000E+01 0.  1.
</event>
<event>
11    1  0.5813833E-009  0.1531790E+03  0.7561462E-02  0.1093674E+00
         22   -1    0    0    0    0  0.00000000000E+00  0.00000000000E+00  0.20124627925E+03  0.20124627925E+03  0.00000000000E+00 0. -1.
         22   -1    0    0    0    0 -0.00000000000E+00 -0.00000000000E+00 -0.11754654855E+04  0.11754654855E+04  0.00000000000E+00 0. -1.
         24    2    1    2    0    0 -0.83157039247E+02 -0.28459219952E+02 -0.10722538405E+04  0.10788350898E+04  0.80198704496E+02 0.  0.
         25    2    1    2    0    0  0.12006677518E+03 -0.25325678938E+02  0.43274956966E+02  0.18049243841E+03  0.12508947961E+03 0.  0.
        -24    2    1    2    0    0 -0.36909735935E+02  0.53784898890E+02  0.54759677238E+02  0.11738423656E+03  0.80779284390E+02 0.  0.
        -11    1    3    3    0    0  0.12509249594E+02 -0.12469475924E+02 -0.29909294512E+03  0.29961401665E+03  0.00000000000E+00 0.  1.
         12    1    3    3    0    0 -0.95666288841E+02 -0.15989744028E+02 -0.77316089537E+03  0.77922107317E+03  0.00000000000E+00 0. -1.
         11    1    5    5    0    0 -0.49572448557E+02  0.65452166970E+02  0.57097886412E+02  0.10000791194E+03  0.00000000000E+00 0. -1.
        -12    1    5    5    0    0  0.12662712622E+02 -0.11667268079E+02 -0.23382091739E+01  0.17376324626E+02  0.00000000000E+00 0.  1.
          5    1    4    4  501    0  0.70664776653E+02  0.38768292756E+02  0.56321143887E+02  0.98417655080E+02  0.41800000000E+01 0.  1.
         -5    1    4    4    0  501  0.49401998529E+02 -0.64093971694E+02 -0.13046186922E+02  0.82074783334E+02  0.41800000000E+01 0.  1.
</event>
<event>
11    1  0.5813833E-009  0.1639543E+03  0.7561462E-02  0.1083416E+00
         22   -1    0    0    0    0  0.00000000000E+00  0.00000000000E+00  0.38616016775E+03  0.38616016775E+03  0.00000000000E+00 0. -1.
         22   -1    0    0    0    0 -0.00000000000E+00 -0.00000000000E+00 -0.25513362408E+03  0.25513362408E+03  0.00000000000E+00 0.  1.
        -24    2    1    2    0    0  0.92506517469E+02 -0.53613433410E+02 -0.17554131714E+03  0.22097061683E+03  0.81125849547E+02 0.  0.
         25    2    1    2    0    0 -0.44257259016E+02  0.11314083366E+03  0.16148365796E+03  0.23766429192E+03  0.12509112938E+03 0.  0.
         24    2    1    2    0    0 -0.48249258453E+02 -0.59527400248E+02  0.14508420285E+03  0.18265888306E+03  0.80270413759E+02 0.  0.
        -11    1    5    5    0    0 -0.53172194726E+02 -0.34867939674E+02  0.41180074267E+02  0.75755224412E+02  0.00000000000E+00 0.  1.
         12    1    5    5    0    0  0.49229362726E+01 -0.24659460574E+02  0.10390412858E+03  0.10690365865E+03  0.00000000000E+00 0. -1.
         13    1    3    3    0    0  0.18540401658E+01 -0.40513468396E+02 -0.37057015981E+02  0.54936336061E+02  0.00000000000E+00 0. -1.
        -14    1    3    3    0    0  0.90652477303E+02 -0.13099965015E+02 -0.13848430116E+03  0.16603428077E+03  0.00000000000E+00 0.  1.
          5    1    4    4  501    0 -0.56419370278E+02  0.11025000908E+03  0.64330939313E+02  0.13962145966E+03  0.41800000000E+01 0. -1.
         -5    1    4    4    0  501  0.12162111262E+02  0.28908245744E+01  0.97152718647E+02  0.98042832260E+02  0.41800000000E+01 0. -1.
</event>
<event>
11    1  0.5813833E-009  0.1396172E+03  0.7561462E-02  0.1107987E+00
         22   -1    0    0    0    0  0.00000000000E+00  0.00000000000E+00  0.80070265231E+03  0.80070265231E+03  0.00000000000E+00 0.  1.
         22   -1    0    0    0    0 -0.00000000000E+00 -0.00000000000E+00 -0.52417700651E+03  0.52417700651E+03  0.00000000000E+00 0. -1.
        -24    2    1    2    0    0  0.14733584117E+01 -0.83113611690E+01 -0.46960486368E+03  0.47601911319E+03  0.77422339309E+02 0.  0.
         25    2    1    2    0    0  0.60620408036E+02  0.98013306638E+01  0.54312235076E+02  0.14955596169E+03  0.12508503845E+03 0.  0.
         24    2    1    2    0    0 -0.62093766448E+02 -0.14899694949E+01  0.69181827440E+03  0.69930458394E+03  0.80972343970E+02 0.  0.
        -13    1    5    5    0    0 -0.64179269446E+02  0.14868594775E+02  0.66166367918E+03  0.66493524353E+03  0.00000000000E+00 0.  1.
         14    1    5    5    0    0  0.20855029980E+01 -0.16358564270E+02  0.30154595217E+02  0.34369340413E+02  0.00000000000E+00 0. -1.
         11    1    3    3    0    0 -0.34093511669E+02  0.98620370980E+01 -0.28092931455E+03  0.28316233345E+03  0.00000000000E+00 0. -1.
        -12    1    3    3    0    0  0.35566870081E+02 -0.18173398267E+02 -0.18867554913E+03  0.19285677974E+03  0.00000000000E+00 0.  1.
          5    1    4    4  501    0 -0.14553777715E+02  0.49569407859E+02  0.34100225343E+02  0.62042214739E+02  0.41800000000E+01 0. -1.
         -5    1    4    4    0  501  0.75174185751E+02 -0.39768077196E+02  0.20212009734E+02  0.87513746946E+02  0.41800000000E+01 0. -1.
</event>
<event>
11    1  0.5813833E-009  0.1621795E+03  0.7561462E-02  0.1085045E+00
         22   -1    0    0    0    0  0.00000000000E+00  0.00000000000E+00  0.22875565313E+03  0.22875565313E+03  0.00000000000E+00 0. -1.
         22   -1    0    0    0    0 -0.00000000000E+00 -0.00000000000E+00 -0.84869937829E+03  0.84869937829E+03  0.00000000000E+00 0.  1.
        -24    2    1    2    0    0  0.71066911650E+01 -0.14105418271E+02 -0.70630230572E+03  0.71102495798E+03  0.80275001876E+02 0.  0.
         25    2    1    2    0    0 -0.70201102722E+02 -0.69149938220E+02 -0.58882701856E+02  0.16977930962E+03  0.12509169684E+03 0.  0.
         24    2    1    2    0    0  0.63094411557E+02  0.83255356491E+02  0.14524128242E+03  0.19665076382E+03  0.81634145059E+02 0.  0.
        -11    1    5    5    0    0 -0.15672505647E+02  0.24962730020E+02  0.59682552458E+02  0.66564047287E+02  0.00000000000E+00 0.  1.
         12    1    5    5    0    0  0.78766917204E+02  0.58292626471E+02  0.85558729959E+02  0.13008671654E+03  0.00000000000E+00 0. -1.
         11    1    3    3    0    0  0.29206405958E+02 -0.21123332801E+02 -0.15113855655E+03  0.15537719464E+03  0.00000000000E+00 0. -1.
        -12    1    3    3    0    0 -0.22099714793E+02  0.70179145301E+01 -0.55516374916E+03  0.55564776334E+03  0.00000000000E+00 0.  1.
          5    1    4    4  501    0 -0.40015451804E+02 -0.19100741716E+02 -0.92185448075E+02  0.10238019317E+03  0.41800000000E+01 0.  1.
         -5    1    4    4    0  501 -0.30185650918E+02 -0.50049196504E+02  0.33302746219E+02  0.67399116446E+02  0.41800000000E+01 0.  1.
</event>
<event>
11    1  0.5813833E-009  0.1713104E+03  0.7561462E-02  0.1076897E+00
         22   -1    0    0    0    0  0.00000000000E+00  0.00000000000E+00  0.77499283254E+02  0.77499283254E+02  0.00000000000E+00 0. -1.
         22   -1    0    0    0    0 -0.00000000000E+00 -0.00000000000E+00 -0.15185782053E+04  0.15185782053E+04  0.00000000000E+00 0.  1.
        -24    2    1    2    0    0 -0.51408812758E+02  0.99300850950E+02 -0.90914540459E+03  0.91949714049E+03  0.80162956896E+02 0.  0.
         25    2    1    2    0    0  0.38346746102E+02 -0.12762094326E+03 -0.55753824745E+03  0.58673935322E+03  0.12512630880E+03 0.  0.
         24    2    1    2    0    0  0.13062066657E+02  0.28320092309E+02  0.25604730018E+02  0.89840994817E+02  0.80269277664E+02 0.  0.
        -13    1    5    5    0    0 -0.41517389528E+01  0.52845887412E+02  0.45175624573E+01  0.53200875212E+02  0.00000000000E+00 0.  1.
         14    1    5    5    0    0  0.17213805610E+02 -0.24525795103E+02  0.21087167561E+02  0.36640119606E+02  0.00000000000E+00 0. -1.
         11    1    3    3    0    0 -0.53546687355E+02  0.36104661411E+02 -0.28855858659E+03  0.29569723063E+03  0.00000000000E+00 0. -1.
        -12    1    3    3    0    0  0.21378745969E+01  0.63196189539E+02 -0.62058681800E+03  0.62379990987E+03  0.00000000000E+00 0.  1.
          5    1    4    4  501    0  0.82315371367E+02 -0.66007364523E+02 -0.35950120575E+03  0.37468837968E+03  0.41800000000E+01 0.  1.
         -5    1    4    4    0  501 -0.43968625265E+02 -0.61613578737E+02 -0.19803704170E+03  0.21205097354E+03  0.41800000000E+01 0.  1.
</event>
<event>
11    1  0.5813833E-009  0.2702476E+03  0.7561462E-02  0.1013634E+00
         22   -1    0    0    0    0  0.00000000000E+00  0.00000000000E+00  0.36360816530E+04  0.36360816530E+04  0.00000000000E+00 0. -1.
         22   -1    0    0    0    0 -0.00000000000E+00 -0.00000000000E+00 -0.12160145782E+04  0.12160145782E+04  0.00000000000E+00 0.  1.
        -24    2    1    2    0    0 -0.38658459811E+02 -0.23451519819E+03 -0.11530364965E+04  0.11796894070E+04  0.75379573563E+02 0.  0.
         25    2    1    2    0    0  0.88004654681E+02  0.32173568299E+03  0.60922020437E+03  0.70573179829E+03  0.12509774077E+03 0.  0.
         24    2    1    2    0    0 -0.49346194870E+02 -0.87220484795E+02  0.29638833669E+04  0.29666750259E+04  0.80707104194E+02 0.  0.
        -13    1    5    5    0    0 -0.53976079613E+02 -0.15320533584E+02  0.14304346271E+04  0.14315346165E+04  0.00000000000E+00 0.  1.
         14    1    5    5    0    0  0.46298847431E+01 -0.71899951211E+02  0.15334487398E+04  0.15351404093E+04  0.00000000000E+00 0. -1.
         11    1    3    3    0    0  0.22863844498E+02 -0.58124287886E+02 -0.27651110132E+03  0.28347764882E+03  0.00000000000E+00 0. -1.
        -12    1    3    3    0    0 -0.61522304309E+02 -0.17639091031E+03 -0.87652539517E+03  0.89621175821E+03  0.00000000000E+00 0.  1.
          5    1    4    4  501    0  0.26548102970E+02  0.23624511709E+02  0.16481821812E+02  0.39395966482E+02  0.41800000000E+01 0. -1.
         -5    1    4    4    0  501  0.61456551711E+02  0.29811117128E+03  0.59273838256E+03  0.66633583180E+03  0.41800000000E+01 0. -1.
</event>
<event>
11    1  0.5813833E-009  0.3246499E+03  0.7561462E-02  0.9902668E-01
         22   -1    0    0    0    0  0.00000000000E+00  0.00000000000E+00  0.19086324234E+03  0.19086324234E+03  0.00000000000E+00 0. -1.
         22   -1    0    0    0    0 -0.00000000000E+00 -0.00000000000E+00 -0.16557008196E+04  0.16557008196E+04  0.00000000000E+00 0. -1.
         24    2    1    2    0    0 -0.52676291712E+02  0.18968148002E+02 -0.73815704588E+03  0.74444527023E+03  0.78666089493E+02 0.  0.
         25    2    1    2    0    0  0.14285090275E+03  0.26696347436E+03 -0.72134210510E+03  0.79224906657E+03  0.12509306071E+03 0.  0.
        -24    2    1    2    0    0 -0.90174611039E+02 -0.28593162236E+03 -0.53384262818E+01  0.30986972514E+03  0.78117825235E+02 0.  0.
        -11    1    3    3    0    0 -0.33835889198E+02 -0.24766609465E+02 -0.20997553806E+03  0.21412141165E+03  0.00000000000E+00 0.  1.
         12    1    3    3    0    0 -0.18840402514E+02  0.43734757466E+02 -0.52818150782E+03  0.53032385858E+03  0.00000000000E+00 0. -1.
         11    1    5    5    0    0 -0.10132694398E+03 -0.26330948321E+03 -0.15775683309E+02  0.28257371730E+03  0.00000000000E+00 0. -1.
        -12    1    5    5    0    0  0.11152332937E+02 -0.22622139152E+02  0.10437257027E+02  0.27296007840E+02  0.00000000000E+00 0.  1.
          5    1    4    4  501    0  0.73463430598E+02  0.21210208202E+03 -0.39749433232E+03  0.45651219640E+03  0.41800000000E+01 0. -1.
         -5    1    4    4    0  501  0.69387472153E+02  0.54861392333E+02 -0.32384777277E+03  0.33573687017E+03  0.41800000000E+01 0. -1.
</event>
<event>
11    1  0.5813833E-009  0.1703094E+03  0.7561462E-02  0.1077763E+00
         22   -1    0    0    0    0  0.00000000000E+00  0.00000000000E+00  0.43541364297E+03  0.43541364297E+03  0.00000000000E+00 0.  1.
         22   -1    0    0    0    0 -0.00000000000E+00 -0.00000000000E+00 -0.11348386563E+04  0.11348386563E+04  0.00000000000E+00 0.  1.
        -24    2    1    2    0    0  0.11155027611E+03 -0.31235861983E+02 -0.10696590688E+04  0.10798258977E+04  0.91838460059E+02 0.  0.
         25    2    1    2    0    0 -0.12187504677E+03 -0.39617625568E+02  0.11231810530E+03  0.21138704775E+03  0.12508414725E+03 0.  0.
         24    2    1    2    0    0  0.10324770669E+02  0.70853487552E+02  0.25791595017E+03  0.27903935380E+03  0.78838480636E+02 0.  0.
        -11    1    5    5    0    0  0.35924139575E+02  0.71174092848E+02  0.21155620233E+03  0.22608034422E+03  0.00000000000E+00 0.  1.
         12    1    5    5    0    0 -0.25599368906E+02 -0.32060529625E+00  0.46359747839E+02  0.52959009582E+02  0.00000000000E+00 0. -1.
         11    1    3    3    0    0  0.24822314968E+02 -0.24087579912E+02 -0.91760692755E+02  0.98063161082E+02  0.00000000000E+00 0. -1.
        -12    1    3    3    0    0  0.86727961138E+02 -0.71482820710E+01 -0.97789837601E+03  0.98176273661E+03  0.00000000000E+00 0.  1.
          5    1    4    4  501    0 -0.29617703708E+02 -0.12097391527E+01 -0.26709463960E+02  0.40119069116E+02  0.41800000000E+01 0.  1.
         -5    1    4    4    0  501 -0.92257343067E+02 -0.38407886416E+02  0.13902756926E+03  0.17126797863E+03  0.41800000000E+01 0.  1.
</event>
<event>
11    1  0.5813833E-009  0.2700170E+03  0.7561462E-02  0.1013745E+00
         22   -1    0    0    0    0  0.00000000000E+00  0.00000000000E+00  0.27031232108E+03  0.27031232108E+03  0.00000000000E+00 0.  1.
         22   -1    0    0    0    0 -0.00000000000E+00 -0.00000000000E+00 -0.16275198465E+04  0.16275198465E+04  0.00000000000E+00 0. -1.
        -24    2    1    2    0    0  0.22767773081E+03  0.10406785611E+02 -0.12572000819E+04  0.12802747981E+04  0.81277687200E+02 0.  0.
         25    2    1    2    0    0 -0.36781721884E+03 -0.87393103593E+02 -0.15933652171E+03  0.42890800022E+03  0.12508750726E+03 0.  0.
         24    2    1    2    0    0  0.14013948803E+03  0.76986317982E+02  0.59329078111E+02  0.18864936934E+03  0.80639170273E+02 0.  0.
        -13    1    5    5    0    0  0.39072262845E+02  0.60566099202E+02  0.45727561623E+02  0.85357506924E+02  0.00000000000E+00 0.  1.
         14    1    5    5    0    0  0.10106722518E+03  0.16420218780E+02  0.13601516488E+02  0.10329186242E+03  0.00000000000E+00 0. -1.
         11    1    3    3    0    0  0.11995300302E+03 -0.28346919370E+02 -0.77013759655E+03  0.77993857989E+03  0.00000000000E+00 0. -1.
        -12    1    3    3    0    0  0.10772472779E+03  0.38753704981E+02 -0.48706248531E+03  0.50033621818E+03  0.00000000000E+00 0.  1.
          5    1    4    4  501    0 -0.69964633281E+02 -0.70346135731E+02 -0.30217319802E+02  0.10379878390E+03  0.41800000000E+01 0.  1.
         -5    1    4    4    0  501 -0.29785258556E+03 -0.17046967863E+02 -0.12911920191E+03  0.32510921632E+03  0.41800000000E+01 0.  1.
</event>
<event>
11    1  0.5813833E-009  0.1609849E+03  0.7561462E-02  0.1086155E+00
         22   -1    0    0    0    0  0.00000000000E+00  0.00000000000E+00  0.88392523401E+03  0.88392523401E+03  0.00000000000E+00 0. -1.
         22   -1    0    0    0    0 -0.00000000000E+00 -0.00000000000E+00 -0.11520159034E+03  0.11520159034E+03  0.00000000000E+00 0. -1.
         24    2    1    2    0    0 -0.74283058180E+02 -0.65452803389E+02 -0.18484644136E+02  0.12883633826E+03  0.80343498697E+02 0.  0.
         25    2    1    2    0    0  0.90765847625E+02  0.61272948833E+02  0.13855053841E+03  0.21641608308E+03  0.12508739333E+03 0.  0.
        -24    2    1    2    0    0 -0.16482789445E+02  0.41798545560E+01  0.64865774940E+03  0.65387440300E+03  0.80657953844E+02 0.  0.
        -13    1    3    3    0    0 -0.88565742860E+02 -0.63393762377E+02 -0.49129273945E+01  0.10902658746E+03  0.00000000000E+00 0.  1.
         14    1    3    3    0    0  0.14282684680E+02 -0.20590410121E+01 -0.13571716742E+02  0.19809750803E+02  0.00000000000E+00 0. -1.
         11    1    5    5    0    0 -0.43519696281E+02  0.21048339947E+02  0.46126269973E+03  0.46378904120E+03  0.00000000000E+00 0. -1.
        -12    1    5    5    0    0  0.27036906836E+02 -0.16868485391E+02  0.18739504967E+03  0.19008536180E+03  0.00000000000E+00 0.  1.
          5    1    4    4  501    0  0.11531382243E+03  0.40835258466E+02  0.70816574297E+02  0.14141165289E+03  0.41800000000E+01 0.  1.
         -5    1    4    4    0  501 -0.24547974807E+02  0.20437690367E+02  0.67733964111E+02  0.75004430194E+02  0.41800000000E+01 0.  1.
</event>
<event>
11    1  0.5813833E-009  0.1260552E+03  0.7561462E-02  0.1124213E+00
         22   -1    0    0    0    0  0.00000000000E+00  0.00000000000E+00  0.95533062356E+02  0.95533062356E+02  0.00000000000E+00 0. -1.
         22   -1    0    0    0    0 -0.00000000000E+00 -0.00000000000E+00 -0.54518719315E+03  0.54518719315E+03  0.00000000000E+00 0.  1.
        -24    2    1    2    0    0 -0.16390266991E+02 -0.73009801363E+01 -0.32191779591E+03  0.33164125177E+03  0.77671792765E+02 0.  0.
         25    2    1    2    0    0  0.29362514184E+02  0.13809604237E+01 -0.17412202106E+03  0.21640152829E+03  0.12508828458E+03 0.  0.
         24    2    1    2    0    0 -0.12972247192E+02  0.59200197126E+01  0.46385686165E+02  0.92677475450E+02  0.78956676375E+02 0.  0.
        -11    1    5    5    0    0  0.26663006133E+02 -0.16356274971E+02  0.59697756597E+01  0.31844651802E+02  0.00000000000E+00 0.  1.
         12    1    5    5    0    0 -0.39635253326E+02  0.22276294684E+02  0.40415910505E+02  0.60832823648E+02  0.00000000000E+00 0. -1.
         11    1    3    3    0    0 -0.65396697602E+01  0.69190160515E+01 -0.26558422645E+00  0.95242111838E+01  0.00000000000E+00 0. -1.
        -12    1    3    3    0    0 -0.98505972312E+01 -0.14219996188E+02 -0.32165221168E+03  0.32211704059E+03  0.00000000000E+00 0.  1.
          5    1    4    4  501    0 -0.34154648879E+02  0.27455549730E+01 -0.13994483964E+03  0.14413919888E+03  0.41800000000E+01 0. -1.
         -5    1    4    4    0  501  0.63517163063E+02 -0.13645945492E+01 -0.34177181414E+02  0.72262329406E+02  0.41800000000E+01 0. -1.
</event>
<event>
11    1  0.5813833E-009  0.1610674E+03  0.7561462E-02  0.1086078E+00
         22   -1    0    0    0    0  0.00000000000E+00  0.00000000000E+00  0.11136822759E+03  0.11136822759E+03  0.00000000000E+00 0. -1.
         22   -1    0    0    0    0 -0.00000000000E+00 -0.00000000000E+00 -0.71118040998E+03  0.71118040998E+03  0.00000000000E+00 0.  1.
        -24    2    1    2    0    0 -0.95820697632E+02  0.30156282743E+02 -0.53150586793E+03  0.54679925277E+03  0.79999548107E+02 0.  0.
         25    2    1    2    0    0  0.97861060763E+02 -0.48805394876E+02 -0.82840361281E+02  0.18566319599E+03  0.12509813391E+03 0.  0.
         24    2    1    2    0    0 -0.20403631309E+01  0.18649112133E+02  0.14534046831E+02  0.90086188808E+02  0.86904145077E+02 0.  0.
        -11    1    5    5    0    0  0.35531167800E+02  0.35418027104E+01 -0.16237873090E+02  0.39225970659E+02  0.00000000000E+00 0.  1.
         12    1    5    5    0    0 -0.37571530931E+02  0.15107309423E+02  0.30771919921E+02  0.50860218149E+02  0.00000000000E+00 0. -1.
         13    1    3    3    0    0 -0.13868881654E+02  0.90750100719E+01 -0.12038421210E+02  0.20484757049E+02  0.00000000000E+00 0. -1.
        -14    1    3    3    0    0 -0.81951815979E+02  0.21081272671E+02 -0.51946744672E+03  0.52631449572E+03  0.00000000000E+00 0.  1.
          5    1    4    4  501    0 -0.87775168689E+01  0.25696319738E+02  0.59469116013E+01  0.28110208254E+02  0.41800000000E+01 0. -1.
         -5    1    4    4    0  501  0.10663857763E+03 -0.74501714615E+02 -0.88787272882E+02  0.15755298774E+03  0.41800000000E+01 0. -1.
</event>
<event>
11    1  0.5813833E-009  0.1364487E+03  0.7561462E-02  0.1111590E+00
         22   -1    0    0    0    0  0.00000000000E+00  0.00000000000E+00  0.10200356519E+04  0.10200356519E+04  0.00000000000E+00 0.  1.
         22   -1    0    0    0    0 -0.00000000000E+00 -0.00000000000E+00 -0.24575707303E+03  0.24575707303E+03  0.00000000000E+00 0.  1.
        -24    2    1    2    0    0 -0.24823022810E+02  0.47510075870E+02 -0.20325185270E+03  0.23265787518E+03  0.99724528015E+02 0.  0.
         25    2    1    2    0    0 -0.56868458569E+00 -0.75483279123E+02  0.18538035078E+03  0.23603297417E+03  0.12509053366E+03 0.  0.
         24    2    1    2    0    0  0.25391707396E+02  0.27973203253E+02  0.79215008075E+03  0.79710187553E+03  0.80264628838E+02 0.  0.
        -11    1    5    5    0    0  0.29526977597E+02  0.18862133724E+02  0.78222274201E+03  0.78300705017E+03  0.00000000000E+00 0.  1.
         12    1    5    5    0    0 -0.41352702012E+01  0.91110695292E+01  0.99273387354E+01  0.14094825361E+02  0.00000000000E+00 0. -1.
         11    1    3    3    0    0  0.14830414431E+02  0.64601618687E+02 -0.92584207626E+02  0.11386459428E+03  0.00000000000E+00 0. -1.
        -12    1    3    3    0    0 -0.39653437241E+02 -0.17091542818E+02 -0.11066764508E+03  0.11879328090E+03  0.00000000000E+00 0.  1.
          5    1    4    4  501    0 -0.22861348657E+02 -0.10224822916E+03  0.10529147488E+03  0.14859713561E+03  0.41800000000E+01 0. -1.
         -5    1    4    4    0  501  0.22292664071E+02  0.26764950039E+02  0.80088875901E+02  0.87435838562E+02  0.41800000000E+01 0. -1.
</event>
<event>
11    1  0.5813833E-009  0.2218445E+03  0.7561462E-02  0.1040068E+00
         22   -1    0    0    0    0  0.00000000000E+00  0.00000000000E+00  0.14736158528E+04  0.14736158528E+04  0.00000000000E+00 0.  1.
         22   -1    0    0    0    0 -0.00000000000E+00 -0.00000000000E+00 -0.23436040524E+03  0.23436040524E+03  0.00000000000E+00 0. -1.
        -24    2    1    2    0    0 -0.17129441586E+03  0.23811400147E+02 -0.11450625906E+03  0.22809244152E+03  0.94898465920E+02 0.  0.
         25    2    1    2    0    0  0.23419488175E+03 -0.33657604868E+02  0.23430889252E+03  0.35570613114E+03  0.12508444194E+03 0.  0.
         24    2    1    2    0    0 -0.62900465888E+02  0.98462047211E+01  0.11194528141E+04  0.11241776854E+04  0.80916308369E+02 0.  0.
        -11    1    5    5    0    0 -0.25193425776E+01  0.22177771474E+02  0.68628908259E+03  0.68665195370E+03  0.00000000000E+00 0.  1.
         12    1    5    5    0    0 -0.60381123311E+02 -0.12331566753E+02  0.43316373148E+03  0.43752573165E+03  0.00000000000E+00 0. -1.
         11    1    3    3    0    0 -0.11759896391E+03  0.41910859028E+02 -0.11737483413E+03  0.17135602734E+03  0.00000000000E+00 0. -1.
        -12    1    3    3    0    0 -0.53695451945E+02 -0.18099458881E+02  0.28685750711E+01  0.56736414183E+02  0.00000000000E+00 0.  1.
          5    1    4    4  501    0  0.14279583748E+03 -0.72079085128E+02  0.99908476374E+02  0.18864045633E+03  0.41800000000E+01 0.  1.
         -5    1    4    4    0  501  0.91399044267E+02  0.38421480260E+02  0.13440041615E+03  0.16706567481E+03  0.41800000000E+01 0.  1.
</event>
<event>
11    1  0.5813833E-009  0.3126239E+03  0.7561462E-02  0.9949857E-01
         22   -1    0    0    0    0  0.00000000000E+00  0.00000000000E+00  0.22715413305E+04  0.22715413305E+04  0.00000000000E+00 0. -1.
         22   -1    0    0    0    0 -0.00000000000E+00 -0.00000000000E+00 -0.94453990794E+02  0.94453990794E+02  0.00000000000E+00 0.  1.
         24    2    1    2    0    0  0.30452718437E+01 -0.44227018015E+02 -0.36946333388E+01  0.88873534929E+02  0.76938625489E+02 0.  0.
         25    2    1    2    0    0 -0.90667156464E+02  0.30319166053E+03  0.83187545598E+03  0.89878334818E+03  0.12509602881E+03 0.  0.
        -24    2    1    2    0    0  0.87621884620E+02 -0.25896464251E+03  0.13489065170E+04  0.13783384382E+04  0.74349025979E+02 0.  0.
        -11    1    3    3    0    0  0.27931199403E+02 -0.30396173193E+02 -0.29268118531E+02  0.50603379405E+02  0.00000000000E+00 0.  1.
         12    1    3    3    0    0 -0.24885927559E+02 -0.13830844822E+02  0.25573485192E+02  0.38270155524E+02  0.00000000000E+00 0. -1.
         11    1    5    5    0    0  0.68938475607E+02 -0.19471544421E+03  0.83862992845E+03  0.86369368096E+03  0.00000000000E+00 0. -1.
        -12    1    5    5    0    0  0.18683409013E+02 -0.64249198303E+02  0.51027658859E+03  0.51464475720E+03  0.00000000000E+00 0.  1.
          5    1    4    4  501    0 -0.44063437186E+02  0.31705983877E+02  0.70338006980E+02  0.88948094618E+02  0.41800000000E+01 0. -1.
         -5    1    4    4    0  501 -0.46603719278E+02  0.27148567665E+03  0.76153744900E+03  0.80983525356E+03  0.41800000000E+01 0. -1.
</event>
<event>
11    1  0.5813833E-009  0.1587943E+03  0.7561462E-02  0.1088217E+00
         22   -1    0    0    0    0  0.00000000000E+00  0.00000000000E+00  0.14592297779E+03  0.14592297779E+03  0.00000000000E+00 0.  1.
         22   -1    0    0    0    0 -0.00000000000E+00 -0.00000000000E+00 -0.16217275239E+04  0.16217275239E+04  0.00000000000E+00 0. -1.
        -24    2    1    2    0    0 -0.51637626759E+02 -0.91185370637E+02 -0.14187670847E+04  0.14247205223E+04  0.77118802732E+02 0.  0.
         25    2    1    2    0    0  0.48913082557E+02  0.13170806064E+02 -0.14692854184E+03  0.19950229915E+03  0.12508881318E+03 0.  0.
         24    2    1    2    0    0  0.27245442017E+01  0.78014564572E+02  0.89891080413E+02  0.14342768026E+03  0.79983733966E+02 0.  0.
        -11    1    5    5    0    0 -0.20636385603E+02  0.42946861116E+02  0.89381226852E+02  0.10128818788E+03  0.00000000000E+00 0.  1.
         12    1    5    5    0    0  0.23360929804E+02  0.35067703457E+02  0.50985356152E+00  0.42139492376E+02  0.00000000000E+00 0. -1.
         13    1    3    3    0    0 -0.55282666230E+02 -0.33464116675E+02 -0.98456223697E+03  0.98668070760E+03  0.00000000000E+00 0. -1.
        -14    1    3    3    0    0  0.36450394712E+01 -0.57721253961E+02 -0.43420484775E+03  0.43803981472E+03  0.00000000000E+00 0.  1.
          5    1    4    4  501    0 -0.38603948797E+02  0.99203266085E+01 -0.79020682876E+02  0.88602587236E+02  0.41800000000E+01 0.  1.
         -5    1    4    4    0  501  0.87517031354E+02  0.32504794558E+01 -0.67907858962E+02  0.11089971191E+03  0.41800000000E+01 0.  1.
</event>
<event>
11    1  0.5813833E-009  0.1324837E+03  0.7561462E-02  0.1116254E+00
         22   -1    0    0    0    0  0.00000000000E+00  0.00000000000E+00  0.59703135766E+03  0.59703135766E+03  0.00000000000E+00 0.  1.
         22   -1    0    0    0    0 -0.00000000000E+00 -0.00000000000E+00 -0.11843581742E+03  0.11843581742E+03  0.00000000000E+00 0.  1.
        -24    2    1    2    0    0  0.13024105286E+02 -0.37960946829E+02 -0.53251568899E+02  0.10322956318E+03  0.78803250699E+02 0.  0.
         25    2    1    2    0    0 -0.41611347841E+02  0.51388234737E+02  0.10194348316E+03  0.17439157330E+03  0.12509073562E+03 0.  0.
         24    2    1    2    0    0  0.28587242554E+02 -0.13427287908E+02  0.42990362599E+03  0.43784603861E+03  0.76775669270E+02 0.  0.
        -11    1    5    5    0    0  0.20582345256E+02  0.22999451905E+02  0.32588443937E+03  0.32734274935E+03  0.00000000000E+00 0.  1.
         12    1    5    5    0    0  0.80048972981E+01 -0.36426739813E+02  0.10401918661E+03  0.11050328926E+03  0.00000000000E+00 0. -1.
         13    1    3    3    0    0  0.46070896300E+02 -0.16439804892E+02 -0.27276318119E+02  0.56007072776E+02  0.00000000000E+00 0. -1.
        -14    1    3    3    0    0 -0.33046791014E+02 -0.21521141937E+02 -0.25975250780E+02  0.47222490401E+02  0.00000000000E+00 0.  1.
          5    1    4    4  501    0 -0.78145165999E+00 -0.39195112225E+02  0.44870503555E+02  0.59730243414E+02  0.41800000000E+01 0.  1.
         -5    1    4    4    0  501 -0.40829896181E+02  0.90583346962E+02  0.57072979605E+02  0.11466132988E+03  0.41800000000E+01 0.  1.
</event>
<event>
11    1  0.5813833E-009  0.1393303E+03  0.7561462E-02  0.1108309E+00
         22   -1    0    0    0    0  0.00000000000E+00  0.00000000000E+00  0.15719807674E+03  0.15719807674E+03  0.00000000000E+00 0.  1.
         22   -1    0    0    0    0 -0.00000000000E+00 -0.00000000000E+00 -0.78639919736E+03  0.78639919736E+03  0.00000000000E+00 0. -1.
         24    2    1    2    0    0  0.59545288824E+02 -0.19378429124E+02 -0.46797017039E+03  0.47807828260E+03  0.75110578407E+02 0.  0.
         25    2    1    2    0    0 -0.67305207558E+02 -0.49484413656E+02 -0.27737465205E+03  0.31553436474E+03  0.12508612862E+03 0.  0.
        -24    2    1    2    0    0  0.77599187345E+01  0.68862842781E+02  0.11614370182E+03  0.14998462675E+03  0.64836111341E+02 0.  0.
        -11    1    3    3    0    0  0.65033432127E+02 -0.17871611937E+02 -0.22145505779E+03  0.23149748255E+03  0.00000000000E+00 0.  1.
         12    1    3    3    0    0 -0.54881433034E+01 -0.15068171875E+01 -0.24651511260E+03  0.24658080005E+03  0.00000000000E+00 0. -1.
         13    1    5    5    0    0 -0.18651733982E+02  0.12436959767E+02  0.56212464287E+01  0.23111978716E+02  0.00000000000E+00 0. -1.
        -14    1    5    5    0    0  0.26411652716E+02  0.56425883014E+02  0.11052245539E+03  0.12687264803E+03  0.00000000000E+00 0.  1.
          5    1    4    4  501    0 -0.79944584993E+02 -0.33891062695E+02 -0.83366389778E+02  0.12044570621E+03  0.41800000000E+01 0. -1.
         -5    1    4    4    0  501  0.12639377435E+02 -0.15593350961E+02 -0.19400826227E+03  0.19508865853E+03  0.41800000000E+01 0. -1.
</event>
<event>
11    1  0.5813833E-009  0.1401763E+03  0.7561462E-02  0.1107362E+00
         22   -1    0    0    0    0  0.00000000000E+00  0.00000000000E+00  0.11457004531E+04  0.11457004531E+04  0.00000000000E+00 0.  1.
         22   -1    0    0    0    0 -0.00000000000E+00 -0.00000000000E+00 -0.46173427616E+03  0.46173427616E+03  0.00000000000E+00 0.  1.
        -24    2    1    2    0    0 -0.53628575830E+01  0.60051821659E+02 -0.33004129824E+03  0.34502292305E+03  0.80489610267E+02 0.  0.
         25    2    1    2    0    0  0.40783227553E+02 -0.77572478182E+02 -0.74645856761E+02  0.17000318490E+03  0.12509323692E+03 0.  0.
         24    2    1    2    0    0 -0.35420369970E+02  0.17520656523E+02  0.10886533320E+04  0.10924086214E+04  0.81418319609E+02 0.  0.
        -13    1    5    5    0    0 -0.37672156650E+01  0.46525749196E+02  0.64301116201E+03  0.64470318110E+03  0.00000000000E+00 0.  1.
         14    1    5    5    0    0 -0.31653154305E+02 -0.29005092673E+02  0.44564216996E+03  0.44770544025E+03  0.00000000000E+00 0. -1.
         13    1    3    3    0    0 -0.33161751384E+02 -0.46580993264E+00 -0.13113436678E+03  0.13526322813E+03  0.00000000000E+00 0. -1.
        -14    1    3    3    0    0  0.27798893801E+02  0.60517631592E+02 -0.19890693147E+03  0.20975969493E+03  0.00000000000E+00 0.  1.
          5    1    4    4  501    0 -0.14346129784E+02 -0.30749651018E+02  0.28119162407E+02  0.44266377444E+02  0.41800000000E+01 0.  1.
         -5    1    4    4    0  501  0.55129357337E+02 -0.46822827164E+02 -0.10276501917E+03  0.12573680745E+03  0.41800000000E+01 0.  1.
</event>
<event>
11    1  0.5813833E-009  0.1611318E+03  0.7561462E-02  0.1086018E+00
         22   -1    0    0    0    0  0.00000000000E+00  0.00000000000E+00  0.44575814707E+03  0.44575814707E+03  0.00000000000E+00 0.  1.
         22   -1    0    0    0    0 -0.00000000000E+00 -0.00000000000E+00 -0.59216459151E+03  0.59216459151E+03  0.00000000000E+00 0. -1.
        -24    2    1    2    0    0  0.10236649215E+03 -0.21315294738E+02 -0.49285218721E+03  0.51044168265E+03  0.81940176009E+02 0.  0.
         25    2    1    2    0    0 -0.82269020403E+02 -0.75983199125E+01 -0.20708398401E+02  0.15133435865E+03  0.12508926477E+03 0.  0.
         24    2    1    2    0    0 -0.20097471747E+02  0.28913614651E+02  0.36715414118E+03  0.37614669727E+03  0.73785289898E+02 0.  0.
        -11    1    5    5    0    0 -0.26565917415E+02  0.32728201213E+02  0.36615226877E+03  0.36857070834E+03  0.00000000000E+00 0.  1.
         12    1    5    5    0    0  0.64684456683E+01 -0.38145865623E+01  0.10018724076E+01  0.75759889339E+01  0.00000000000E+00 0. -1.
         11    1    3    3    0    0  0.73715243539E+01  0.18640319279E+02 -0.17863510391E+03  0.17975622722E+03  0.00000000000E+00 0. -1.
        -12    1    3    3    0    0  0.94994967796E+02 -0.39955614017E+02 -0.31421708330E+03  0.33068545543E+03  0.00000000000E+00 0.  1.
          5    1    4    4  501    0  0.18624486484E+02  0.14872230891E+02 -0.39372835657E+02  0.46214146493E+02  0.41800000000E+01 0.  1.
         -5    1    4    4    0  501 -0.10089350689E+03 -0.22470550804E+02  0.18664437256E+02  0.10512021215E+03  0.41800000000E+01 0.  1.
</event>
<event>
11    1  0.5813833E-009  0.1720563E+03  0.7561462E-02  0.1076256E+00
         22   -1    0    0    0    0  0.00000000000E+00  0.00000000000E+00  0.68015222700E+03  0.68015222700E+03  0.00000000000E+00 0. -1.
         22   -1    0    0    0    0 -0.00000000000E+00 -0.00000000000E+00 -0.44157004048E+03  0.44157004048E+03  0.00000000000E+00 0.  1.
        -24    2    1    2    0    0 -0.12934354083E+01 -0.73327385336E+01 -0.30995856030E+03  0.32007657649E+03  0.79493796534E+02 0.  0.
         25    2    1    2    0    0 -0.80858327310E+02  0.91783686234E+02 -0.53228832512E+02  0.18289072394E+03  0.12511352501E+03 0.  0.
         24    2    1    2    0    0  0.82151762718E+02 -0.84450947700E+02  0.60176957933E+03  0.61875496705E+03  0.82765983055E+02 0.  0.
        -11    1    5    5    0    0  0.68826039927E+02 -0.46538684892E+02  0.22502392602E+03  0.23987213311E+03  0.00000000000E+00 0.  1.
         12    1    5    5    0    0  0.13325722791E+02 -0.37912262808E+02  0.37674565332E+03  0.37888283394E+03  0.00000000000E+00 0. -1.
         11    1    3    3    0    0 -0.22191162906E+02  0.21788231445E+02 -0.60193633859E+02  0.67752847156E+02  0.00000000000E+00 0. -1.
        -12    1    3    3    0    0  0.20897727497E+02 -0.29120969978E+02 -0.24976492644E+03  0.25232372934E+03  0.00000000000E+00 0.  1.
          5    1    4    4  501    0 -0.44876279451E+02 -0.21017277118E+02 -0.39725608476E+02  0.63649059409E+02  0.41800000000E+01 0. -1.
         -5    1    4    4    0  501 -0.35982047859E+02  0.11280096335E+03 -0.13503224036E+02  0.11924166453E+03  0.41800000000E+01 0. -1.
</event>
<event>
11    1  0.5813833E-009  0.1533112E+03  0.7561462E-02  0.1093543E+00
         22   -1    0    0    0    0  0.00000000000E+00  0.00000000000E+00  0.94224927250E+02  0.94224927250E+02  0.00000000000E+00 0.  1.
         22   -1    0    0    0    0 -0.00000000000E+00 -0.00000000000E+00 -0.14037436975E+04  0.14037436975E+04  0.00000000000E+00 0. -1.
        -24    2    1    2    0    0 -0.15484054384E+02  0.53277607788E+02 -0.11792738154E+04  0.11833086488E+04  0.80339077342E+02 0.  0.
         25    2    1    2    0    0 -0.59339975427E+02  0.18423505838E+02 -0.11861193628E+03  0.18324149780E+03  0.12509195353E+03 0.  0.
         24    2    1    2    0    0  0.74824029812E+02 -0.71701113626E+02 -0.11633018632E+02  0.13141847815E+03  0.79973771594E+02 0.  0.
        -11    1    5    5    0    0  0.90892267879E+02 -0.53298632478E+02 -0.26846529138E+01  0.10540092953E+03  0.00000000000E+00 0.  1.
         12    1    5    5    0    0 -0.16068238067E+02 -0.18402481148E+02 -0.89483657177E+01  0.26017548616E+02  0.00000000000E+00 0. -1.
         11    1    3    3    0    0  0.31738845146E+02  0.31481473070E+02 -0.62677350090E+03  0.62836570472E+03  0.00000000000E+00 0. -1.
        -12    1    3    3    0    0 -0.47222899530E+02  0.21796134718E+02 -0.55250031446E+03  0.55494294410E+03  0.00000000000E+00 0.  1.
          5    1    4    4  501    0  0.49823212360E+01 -0.34412108681E+02 -0.87552478617E+02  0.94297007698E+02  0.41800000000E+01 0. -1.
         -5    1    4    4    0  501 -0.64322296663E+02  0.52835614519E+02 -0.31059457660E+02  0.88944490104E+02  0.41800000000E+01 0. -1.
</event>
<event>
11    1  0.5813833E-009  0.1566721E+03  0.7561462E-02  0.1090250E+00
         22   -1    0    0    0    0  0.00000000000E+00  0.00000000000E+00  0.24124750767E+04  0.24124750767E+04  0.00000000000E+00 0. -1.
         22   -1    0    0    0    0 -0.00000000000E+00 -0.00000000000E+00 -0.19103562750E+03  0.19103562750E+03  0.00000000000E+00 0.  1.
         24    2    1    2    0    0 -0.39783287013E+02  0.79213843092E+02 -0.12149680111E+03  0.18505556709E+03  0.10782646876E+03 0.  0.
         25    2    1    2    0    0  0.79474855002E+02 -0.11268507336E+03  0.19952037490E+03  0.27289175356E+03  0.12508937135E+03 0.  0.
        -24    2    1    2    0    0 -0.39691567990E+02  0.33471230271E+02  0.21434158754E+04  0.21455633835E+04  0.80714769426E+02 0.  0.
        -13    1    3    3    0    0 -0.68986921535E+02  0.80290976918E+02 -0.11251141442E+03  0.15448189114E+03  0.00000000000E+00 0.  1.
         14    1    3    3    0    0  0.29203634522E+02 -0.10771338266E+01 -0.89853866957E+01  0.30573675942E+02  0.00000000000E+00 0. -1.
         13    1    5    5    0    0 -0.19948045407E+02  0.59753657456E+02  0.14552385666E+04  0.14566014244E+04  0.00000000000E+00 0. -1.
        -14    1    5    5    0    0 -0.19743522582E+02 -0.26282427185E+02  0.68817730884E+03  0.68896195908E+03  0.00000000000E+00 0.  1.
          5    1    4    4  501    0  0.64486994890E+01  0.24743306437E+02  0.10356813379E+02  0.27902561207E+02  0.41800000000E+01 0.  1.
         -5    1    4    4    0  501  0.73026155513E+02 -0.13742837980E+03  0.18916356152E+03  0.24498919235E+03  0.41800000000E+01 0.  1.
</event>
<event>
11    1  0.5813833E-009  0.1767417E+03  0.7561462E-02  0.1072309E+00
         22   -1    0    0    0    0  0.00000000000E+00  0.00000000000E+00  0.31958007616E+03  0.31958007616E+03  0.00000000000E+00 0. -1.
         22   -1    0    0    0    0 -0.00000000000E+00 -0.00000000000E+00 -0.20525004869E+04  0.20525004869E+04  0.00000000000E+00 0. -1.
         24    2    1    2    0    0  0.59618426820E+01  0.10938928858E+02 -0.18587361347E+04  0.18605406361E+04  0.80970591201E+02 0.  0.
         25    2    1    2    0    0 -0.23009531909E+02 -0.13340697122E+03 -0.12375456283E+03  0.22201437192E+03  0.12509328915E+03 0.  0.
        -24    2    1    2    0    0  0.17047689227E+02  0.12246804236E+03  0.24957028680E+03  0.28952555496E+03  0.79061202946E+02 0.  0.
        -13    1    3    3    0    0 -0.25879936674E+02 -0.65378186698E+01 -0.25501120431E+03  0.25640442375E+03  0.00000000000E+00 0.  1.
         14    1    3    3    0    0  0.31841779356E+02  0.17476747528E+02 -0.16037249304E+04  0.16041362124E+04  0.00000000000E+00 0. -1.
         13    1    5    5    0    0  0.47530367674E+02  0.54996780984E+02  0.12688713438E+03  0.14623312429E+03  0.00000000000E+00 0. -1.
        -14    1    5    5    0    0 -0.30482678447E+02  0.67471261374E+02  0.12268315242E+03  0.14329243066E+03  0.00000000000E+00 0.  1.
          5    1    4    4  501    0 -0.41298036744E+02 -0.14087765256E+03 -0.13449374380E+03  0.19914336632E+03  0.41800000000E+01 0.  1.
         -5    1    4    4    0  501  0.18288504835E+02  0.74706813474E+01  0.10739180971E+02  0.22871005593E+02  0.41800000000E+01 0.  1.
</event>
<event>
11    1  0.5813833E-009  0.1446447E+03  0.7561462E-02  0.1102480E+00
         22   -1    0    0    0    0  0.00000000000E+00  0.00000000000E+00  0.65680139137E+03  0.65680139137E+03  0.00000000000E+00 0. -1.
         22   -1    0    0    0    0 -0.00000000000E+00 -0.00000000000E+00 -0.18145757627E+04  0.18145757627E+04  0.00000000000E+00 0. -1.
         24    2    1    2    0    0  0.44790837494E+02 -0.30599799503E+02 -0.16936854362E+04  0.16964797602E+04  0.80812457777E+02 0.  0.
         25    2    1    2    0    0  0.29675242115E+02  0.29362944740E+02 -0.76660829573E+02  0.15253371495E+03  0.12508736502E+03 0.  0.
        -24    2    1    2    0    0 -0.74466079609E+02  0.12368547631E+01  0.61257189441E+03  0.62236367890E+03  0.80904240744E+02 0.  0.
        -11    1    3    3    0    0 -0.21141192191E+02  0.58499601073E+01 -0.35798552824E+03  0.35865695374E+03  0.00000000000E+00 0.  1.
         12    1    3    3    0    0  0.65932029685E+02 -0.36449759610E+02 -0.13356999079E+04  0.13378228065E+04  0.00000000000E+00 0. -1.
         11    1    5    5    0    0 -0.89217815484E+02 -0.36112576547E+01  0.43235161403E+03  0.44147568216E+03  0.00000000000E+00 0. -1.
        -12    1    5    5    0    0  0.14751735875E+02  0.48481124179E+01  0.18022028038E+03  0.18088799674E+03  0.00000000000E+00 0.  1.
          5    1    4    4  501    0 -0.45595574013E+02  0.14568416019E+02 -0.54331139814E+02  0.72529582023E+02  0.41800000000E+01 0.  1.
         -5    1    4    4    0  501  0.75270816128E+02  0.14794528721E+02 -0.22329689758E+02  0.80004132926E+02  0.41800000000E+01 0.  1.
</event>
<event>
11    1  0.5813833E-009  0.1498633E+03  0.7561462E-02  0.1097019E+00
         22   -1    0    0    0    0  0.00000000000E+00  0.00000000000E+00  0.29577555670E+03  0.29577555670E+03  0.00000000000E+00 0.  1.
         22   -1    0    0    0    0 -0.00000000000E+00 -0.00000000000E+00 -0.27684871241E+04  0.27684871241E+04  0.00000000000E+00 0.  1.
        -24    2    1    2    0    0  0.33021174359E+02 -0.38495918864E+02 -0.23310516279E+04  0.23329617057E+04  0.79600846626E+02 0.  0.
         25    2    1    2    0    0 -0.14520144087E+01  0.11396209058E+03 -0.40587137105E+03  0.43973746871E+03  0.12509198660E+03 0.  0.
         24    2    1    2    0    0 -0.31569159950E+02 -0.75466171718E+02  0.26421143155E+03  0.29156350635E+03  0.92248808869E+02 0.  0.
        -13    1    5    5    0    0 -0.91942373143E+01 -0.93862518264E+02  0.20412935076E+03  0.22486328775E+03  0.00000000000E+00 0.  1.
         14    1    5    5    0    0 -0.22374922636E+02  0.18396346546E+02  0.60082080789E+02  0.66700218599E+02  0.00000000000E+00 0. -1.
         13    1    3    3    0    0  0.18495082045E+02  0.11824293783E+02 -0.18910675336E+03  0.19037659034E+03  0.00000000000E+00 0. -1.
        -14    1    3    3    0    0  0.14526092315E+02 -0.50320212647E+02 -0.21419448745E+04  0.21425851154E+04  0.00000000000E+00 0.  1.
          5    1    4    4  501    0 -0.21025697245E+02  0.13007789406E+03 -0.38397783476E+03  0.40597880296E+03  0.41800000000E+01 0.  1.
         -5    1    4    4    0  501  0.19573682836E+02 -0.16115803480E+02 -0.21893536292E+02  0.33758665746E+02  0.41800000000E+01 0.  1.
</event>
<event>
11    1  0.5813833E-009  0.1962165E+03  0.7561462E-02  0.1057232E+00
         22   -1    0    0    0    0  0.00000000000E+00  0.00000000000E+00  0.69626352218E+03  0.69626352218E+03  0.00000000000E+00 0. -1.
         22   -1    0    0    0    0 -0.00000000000E+00 -0.00000000000E+00 -0.88998321327E+03  0.88998321327E+03  0.00000000000E+00 0. -1.
        -24    2    1    2    0    0  0.51292585855E+02 -0.12743855593E+01 -0.75860753330E+03  0.76451986684E+03  0.79829091164E+02 0.  0.
         25    2    1    2    0    0  0.92473928945E+02  0.60750100455E+02 -0.56364490409E+02  0.17625725650E+03  0.12509061695E+03 0.  0.
         24    2    1    2    0    0 -0.14376651480E+03 -0.59475714896E+02  0.62125233262E+03  0.64546961211E+03  0.80438721591E+02 0.  0.
        -11    1    5    5    0    0 -0.51561977069E+00  0.14007265670E+02  0.43339036273E+02  0.45549329527E+02  0.00000000000E+00 0.  1.
         12    1    5    5    0    0 -0.14325089503E+03 -0.73482980566E+02  0.57791329634E+03  0.59992028258E+03  0.00000000000E+00 0. -1.
         11    1    3    3    0    0  0.14547808925E+02 -0.32977477377E+01 -0.64349822492E+03  0.64367109563E+03  0.00000000000E+00 0. -1.
        -12    1    3    3    0    0  0.36744776930E+02  0.20233621784E+01 -0.11510930839E+03  0.12084877121E+03  0.00000000000E+00 0.  1.
          5    1    4    4  501    0 -0.90618363040E+01  0.54367056881E+02 -0.49507087918E+02  0.74204567954E+02  0.41800000000E+01 0.  1.
         -5    1    4    4    0  501  0.10153576525E+03  0.63830435741E+01 -0.68574024910E+01  0.10205268854E+03  0.41800000000E+01 0.  1.
</event>
<event>
11    1  0.5813833E-009  0.2241350E+03  0.7561462E-02  0.1038658E+00
         22   -1    0    0    0    0  0.00000000000E+00  0.00000000000E+00  0.31714206445E+03  0.31714206445E+03  0.00000000000E+00 0. -1.
         22   -1    0    0    0    0 -0.00000000000E+00 -0.00000000000E+00 -0.28835460619E+03  0.28835460619E+03  0.00000000000E+00 0.  1.
         24    2    1    2    0    0  0.86061429335E+02 -0.21127131797E+03 -0.58273469068E+02  0.24891476030E+03  0.80750363984E+02 0.  0.
         25    2    1    2    0    0  0.25993733726E+02  0.14091258502E+03  0.64034829909E+02  0.20069707698E+03  0.12508727535E+03 0.  0.
        -24    2    1    2    0    0 -0.11205516306E+03  0.70358732948E+02  0.23026097420E+02  0.15588483336E+03  0.79140187259E+02 0.  0.
        -11    1    3    3    0    0  0.61887051699E+02 -0.14145895298E+03 -0.77230763000E+02  0.17264192220E+03  0.00000000000E+00 0.  1.
         12    1    3    3    0    0  0.24174377636E+02 -0.69812364985E+02  0.18957293933E+02  0.76272838102E+02  0.00000000000E+00 0. -1.
         13    1    5    5    0    0 -0.14605748441E+02  0.37515499514E+02  0.33693960442E+02  0.52497843399E+02  0.00000000000E+00 0. -1.
        -14    1    5    5    0    0 -0.97449414620E+02  0.32843233434E+02 -0.10667863022E+02  0.10338698996E+03  0.00000000000E+00 0.  1.
          5    1    4    4  501    0  0.54927652068E+02  0.14875506886E+03  0.44791181057E+02  0.16482972965E+03  0.41800000000E+01 0. -1.
         -5    1    4    4    0  501 -0.28933918341E+02 -0.78424838458E+01  0.19243648851E+02  0.35867347331E+02  0.41800000000E+01 0. -1.
</event>
<event>
11    1  0.5813833E-009  0.1399939E+03  0.7561462E-02  0.1107565E+00
         22   -1    0    0    0    0  0.00000000000E+00  0.00000000000E+00  0.85249188771E+03  0.85249188771E+03  0.00000000000E+00 0.  1.
         22   -1    0    0    0    0 -0.00000000000E+00 -0.00000000000E+00 -0.59225251967E+03  0.59225251967E+03  0.00000000000E+00 0.  1.
         24    2    1    2    0    0 -0.94134669851E+01 -0.40947466394E+02 -0.55864127200E+03  0.56581720549E+03  0.79396038171E+02 0.  0.
         25    2    1    2    0    0 -0.42208858956E+02 -0.21301062646E+01  0.14156890331E+03  0.19358653836E+03  0.12509143985E+03 0.  0.
        -24    2    1    2    0    0  0.51622325941E+02  0.43077572658E+02  0.67731173673E+03  0.68534066353E+03  0.80125492656E+02 0.  0.
        -11    1    3    3    0    0 -0.87521406574E+01 -0.57550760080E+02 -0.52578973126E+03  0.52900239267E+03  0.00000000000E+00 0.  1.
         12    1    3    3    0    0 -0.66132632768E+00  0.16603293686E+02 -0.32851540747E+02  0.36814812823E+02  0.00000000000E+00 0. -1.
         11    1    5    5    0    0  0.25801961195E+02  0.36566057996E+01  0.51128447239E+02  0.57386671663E+02  0.00000000000E+00 0. -1.
        -12    1    5    5    0    0  0.25820364746E+02  0.39420966859E+02  0.62618328949E+03  0.62795399186E+03  0.00000000000E+00 0.  1.
          5    1    4    4  501    0 -0.40900354361E+02  0.52494335506E+02  0.11441909508E+03  0.13242996627E+03  0.41800000000E+01 0.  1.
         -5    1    4    4    0  501 -0.13085045950E+01 -0.54624441770E+02  0.27149808230E+02  0.61156572091E+02  0.41800000000E+01 0.  1.
</event>
<event>
11    1  0.5813833E-009  0.1449293E+03  0.7561462E-02  0.1102176E+00
         22   -1    0    0    0    0  0.00000000000E+00  0.00000000000E+00  0.26760994224E+03  0.26760994224E+03  0.00000000000E+00 0.  1.
         22   -1    0    0    0    0 -0.00000000000E+00 -0.00000000000E+00 -0.34362734331E+04  0.34362734331E+04  0.00000000000E+00 0.  1.
         24    2    1    2    0    0  0.33129902687E+01 -0.54120810348E+02 -0.26026462538E+04  0.26044496615E+04  0.80314872198E+02 0.  0.
         25    2    1    2    0    0 -0.30608593881E+02 -0.14487339506E+02 -0.81668887181E+03  0.82690654186E+03  0.12508775561E+03 0.  0.
        -24    2    1    2    0    0  0.27295603612E+02  0.68608149854E+02  0.25067163479E+03  0.27252717197E+03  0.77347674659E+02 0.  0.
        -11    1    3    3    0    0  0.97799804700E+01 -0.60552530433E+02 -0.25643053353E+04  0.25650388125E+04  0.00000000000E+00 0.  1.
         12    1    3    3    0    0 -0.64669902012E+01  0.64317200857E+01 -0.38340918514E+02  0.39410848989E+02  0.00000000000E+00 0. -1.
         13    1    5    5    0    0  0.29894592605E+02 -0.56419711890E+01  0.10014316340E+03  0.10466217885E+03  0.00000000000E+00 0. -1.
        -14    1    5    5    0    0 -0.25989889933E+01  0.74250121043E+02  0.15052847138E+03  0.16786499312E+03  0.00000000000E+00 0.  1.
          5    1    4    4  501    0 -0.18484739831E+02 -0.31350971682E+02 -0.79744314645E+03  0.79828416824E+03  0.41800000000E+01 0. -1.
         -5    1    4    4    0  501 -0.12123854049E+02  0.16863632176E+02 -0.19245725357E+02  0.28622373621E+02  0.41800000000E+01 0. -1.
</event>
<event>
11    1  0.5813833E-009  0.1405343E+03  0.7561462E-02  0.1106963E+00
         22   -1    0    0    0    0  0.00000000000E+00  0.00000000000E+00  0.30481065029E+03  0.30481065029E+03  0.00000000000E+00 0.  1.
         22   -1    0    0    0    0 -0.00000000000E+00 -0.00000000000E+00 -0.63994641968E+03  0.63994641968E+03  0.00000000000E+00 0.  1.
        -24    2    1    2    0    0 -0.49357355562E+02  0.37361159113E+02 -0.53704139964E+03  0.54628638939E+03  0.78634277142E+02 0.  0.
         25    2    1    2    0    0  0.80425868615E+02 -0.53196765745E+02 -0.20596574267E+02  0.15927942922E+03  0.12508997351E+03 0.  0.
         24    2    1    2    0    0 -0.31068513052E+02  0.15835606632E+02  0.22250220452E+03  0.23919125136E+03  0.80555600484E+02 0.  0.
        -13    1    5    5    0    0 -0.14288702318E+02 -0.20172731462E+02  0.17729203925E+03  0.17900718782E+03  0.00000000000E+00 0.  1.
         14    1    5    5    0    0 -0.16779810734E+02  0.36008338094E+02  0.45210165268E+02  0.60184063539E+02  0.00000000000E+00 0. -1.
         13    1    3    3    0    0 -0.27326147108E+01  0.27730228040E+02 -0.52721545810E+02  0.59632156786E+02  0.00000000000E+00 0. -1.
        -14    1    3    3    0    0 -0.46624740852E+02  0.96309310730E+01 -0.48431985383E+03  0.48665423260E+03  0.00000000000E+00 0.  1.
          5    1    4    4  501    0  0.25916654481E+02 -0.62765559703E+02  0.38528618910E+02  0.78186414034E+02  0.41800000000E+01 0.  1.
         -5    1    4    4    0  501  0.54509214134E+02  0.95687939580E+01 -0.59125193177E+02  0.81093015183E+02  0.41800000000E+01 0.  1.
</event>
<event>
11    1  0.5813833E-009  0.2534344E+03  0.7561462E-02  0.1022085E+00
         22   -1    0    0    0    0  0.00000000000E+00  0.00000000000E+00  0.10272452315E+04  0.10272452315E+04  0.00000000000E+00 0.  1.
         22   -1    0    0    0    0 -0.00000000000E+00 -0.00000000000E+00 -0.38638792888E+03  0.38638792888E+03  0.00000000000E+00 0. -1.
        -24    2    1    2    0    0 -0.18016727314E+03  0.12645738768E+03 -0.27334926787E+03  0.36018387181E+03  0.80999271986E+02 0.  0.
         25    2    1    2    0    0  0.18023231494E+03 -0.12973413073E+03  0.17512738150E+03  0.30924380253E+03  0.12508995813E+03 0.  0.
         24    2    1    2    0    0 -0.65041796377E-01  0.32767430507E+01  0.73907918899E+03  0.74420548606E+03  0.87137917094E+02 0.  0.
        -11    1    5    5    0    0  0.17193423356E+02  0.19339353278E+02  0.68143502555E+03  0.68192618255E+03  0.00000000000E+00 0.  1.
         12    1    5    5    0    0 -0.17258465152E+02 -0.16062610227E+02  0.57644163439E+02  0.62279303507E+02  0.00000000000E+00 0. -1.
         11    1    3    3    0    0 -0.15428054253E+03  0.11341254781E+03 -0.26999625953E+03  0.33100282773E+03  0.00000000000E+00 0. -1.
        -12    1    3    3    0    0 -0.25886730604E+02  0.13044839875E+02 -0.33530083309E+01  0.29181044080E+02  0.00000000000E+00 0.  1.
          5    1    4    4  501    0  0.19238049896E+03 -0.13818263392E+03  0.15199996282E+03  0.28147141559E+03  0.41800000000E+01 0. -1.
         -5    1    4    4    0  501 -0.12148184020E+02  0.84485031926E+01  0.23127418687E+02  0.27772386939E+02  0.41800000000E+01 0. -1.
</event>
<event>
11    1  0.5813833E-009  0.2314649E+03  0.7561462E-02  0.1034264E+00
         22   -1    0    0    0    0  0.00000000000E+00  0.00000000000E+00  0.17304135873E+03  0.17304135873E+03  0.00000000000E+00 0.  1.
         22   -1    0    0    0    0 -0.00000000000E+00 -0.00000000000E+00 -0.13701667105E+04  0.13701667105E+04  0.00000000000E+00 0.  1.
        -24    2    1    2    0    0  0.18295140807E+02  0.15283202042E+02 -0.10828285368E+04  0.10860232561E+04  0.79753270756E+02 0.  0.
         25    2    1    2    0    0  0.13106098913E+03  0.12626464745E+03 -0.73843643747E+02  0.23285259926E+03  0.12509078781E+03 0.  0.
         24    2    1    2    0    0 -0.14935612993E+03 -0.14154784949E+03 -0.40453171211E+02  0.22433221389E+03  0.79658244284E+02 0.  0.
        -13    1    5    5    0    0 -0.14041016484E+03 -0.10417734392E+03 -0.96839082312E+01  0.17510485846E+03  0.00000000000E+00 0.  1.
         14    1    5    5    0    0 -0.89459650894E+01 -0.37370505572E+02 -0.30769262980E+02  0.49227355428E+02  0.00000000000E+00 0. -1.
         11    1    3    3    0    0  0.30212914349E+02  0.40088408545E+02 -0.49202066260E+03  0.49457480033E+03  0.00000000000E+00 0. -1.
        -12    1    3    3    0    0 -0.11917773542E+02 -0.24805206503E+02 -0.59080787420E+03  0.59144845575E+03  0.00000000000E+00 0.  1.
          5    1    4    4  501    0 -0.18120161561E+02 -0.48525648365E+01 -0.18395034643E+02  0.26603333250E+02  0.41800000000E+01 0.  1.
         -5    1    4    4    0  501  0.14918115069E+03  0.13111721228E+03 -0.55448609104E+02  0.20624926601E+03  0.41800000000E+01 0.  1.
</event>
<event>
11    1  0.5813833E-009  0.1447790E+03  0.7561462E-02  0.1102336E+00
         22   -1    0    0    0    0  0.00000000000E+00  0.00000000000E+00  0.14274683889E+04  0.14274683889E+04  0.00000000000E+00 0. -1.
         22   -1    0    0    0    0 -0.00000000000E+00 -0.00000000000E+00 -0.68465004881E+02  0.68465004881E+02  0.00000000000E+00 0. -1.
         24    2    1    2    0    0 -0.26347889042E+02 -0.41354868122E+02  0.30521371307E+02  0.10009437991E+03  0.81748971906E+02 0.  0.
         25    2    1    2    0    0  0.91679474704E+02  0.10282918265E+02  0.16251568072E+03  0.22488130699E+03  0.12509752700E+03 0.  0.
        -24    2    1    2    0    0 -0.65331585662E+02  0.31071949857E+02  0.11659663320E+04  0.11709577069E+04  0.80192155664E+02 0.  0.
        -11    1    3    3    0    0 -0.55739608220E+02 -0.21031813339E+02  0.20024877188E+02  0.62850909327E+02  0.00000000000E+00 0.  1.
         12    1    3    3    0    0  0.29391719178E+02 -0.20323054783E+02  0.10496494119E+02  0.37243470579E+02  0.00000000000E+00 0. -1.
         11    1    5    5    0    0 -0.64920795219E+02  0.15148117845E+02  0.11254481433E+04  0.11274208169E+04  0.00000000000E+00 0. -1.
        -12    1    5    5    0    0 -0.41079044273E+00  0.15923832012E+02  0.40518188674E+02  0.43536889968E+02  0.00000000000E+00 0.  1.
          5    1    4    4  501    0  0.56095805706E+02 -0.40622226731E+02  0.24685963097E+02  0.73646275510E+02  0.41800000000E+01 0. -1.
         -5    1    4    4    0  501  0.35583668997E+02  0.50905144996E+02  0.13782971762E+03  0.15123503148E+03  0.41800000000E+01 0. -1.
</event>
<event>
11    1  0.5813833E-009  0.1648962E+03  0.7561462E-02  0.1082561E+00
         22   -1    0    0    0    0  0.00000000000E+00  0.00000000000E+00  0.75702029336E+03  0.75702029336E+03  0.00000000000E+00 0.  1.
         22   -1    0    0    0    0 -0.00000000000E+00 -0.00000000000E+00 -0.14153834296E+03  0.14153834296E+03  0.00000000000E+00 0.  1.
         24    2    1    2    0    0  0.33729450746E+02  0.10758007561E+03 -0.71214583087E+02  0.15542285421E+03  0.79834818545E+02 0.  0.
         25    2    1    2    0    0 -0.56938036604E+02 -0.62441418161E+02  0.21341613838E+03  0.26141077417E+03  0.12509306143E+03 0.  0.
        -24    2    1    2    0    0  0.23208585858E+02 -0.45138657448E+02  0.47328039510E+03  0.48172500793E+03  0.74084505990E+02 0.  0.
        -11    1    3    3    0    0  0.12150645503E+02  0.23295990714E+02 -0.62726695434E+02  0.68007203218E+02  0.00000000000E+00 0.  1.
         12    1    3    3    0    0  0.21578805243E+02  0.84284084894E+02 -0.84878876536E+01  0.87415650996E+02  0.00000000000E+00 0. -1.
         13    1    5    5    0    0  0.61820133812E+01 -0.14652642970E+02  0.14205444306E+02  0.21323974381E+02  0.00000000000E+00 0. -1.
        -14    1    5    5    0    0  0.17026572477E+02 -0.30486014477E+02  0.45907495079E+03  0.46040103355E+03  0.00000000000E+00 0.  1.
          5    1    4    4  501    0 -0.88866055997E+01 -0.63296599104E+02  0.20189664875E+03  0.21181397591E+03  0.41800000000E+01 0. -1.
         -5    1    4    4    0  501 -0.48051431005E+02  0.85518094302E+00  0.11519489636E+02  0.49596798259E+02  0.41800000000E+01 0. -1.
</event>
<event>
11    1  0.5813833E-009  0.2198176E+03  0.7561462E-02  0.1041332E+00
         22   -1    0    0    0    0  0.00000000000E+00  0.00000000000E+00  0.30139122060E+03  0.30139122060E+03  0.00000000000E+00 0. -1.
         22   -1    0    0    0    0 -0.00000000000E+00 -0.00000000000E+00 -0.87907073179E+03  0.87907073179E+03  0.00000000000E+00 0.  1.
         24    2    1    2    0    0 -0.13425413371E+03  0.12889912104E+03 -0.75585417270E+03  0.78221558106E+03  0.76853946232E+02 0.  0.
         25    2    1    2    0    0  0.59283706336E+02 -0.13818669689E+03  0.67740864167E+01  0.19571382772E+03  0.12509153879E+03 0.  0.
        -24    2    1    2    0    0  0.74970427373E+02  0.92875758570E+01  0.17140057509E+03  0.20253254360E+03  0.77035381688E+02 0.  0.
        -13    1    3    3    0    0 -0.14194835324E+03  0.10856320952E+03 -0.69448364872E+03  0.71710727495E+03  0.00000000000E+00 0.  1.
         14    1    3    3    0    0  0.76942195343E+01  0.20335911512E+02 -0.61370523981E+02  0.65108306114E+02  0.00000000000E+00 0. -1.
         11    1    5    5    0    0  0.25222317871E+02  0.26725706608E+02  0.13116657745E+03  0.13621710521E+03  0.00000000000E+00 0. -1.
        -12    1    5    5    0    0  0.49748109502E+02 -0.17438130751E+02  0.40233997641E+02  0.66315438393E+02  0.00000000000E+00 0.  1.
          5    1    4    4  501    0  0.10309344942E+02  0.23123305410E+02  0.86262465191E+01  0.27071283221E+02  0.41800000000E+01 0. -1.
         -5    1    4    4    0  501  0.48974361393E+02 -0.16131000230E+03 -0.18521601025E+01  0.16864254450E+03  0.41800000000E+01 0. -1.
</event>
<event>
11    1  0.5813833E-009  0.1540679E+03  0.7561462E-02  0.1092793E+00
         22   -1    0    0    0    0  0.00000000000E+00  0.00000000000E+00  0.53165797972E+03  0.53165797972E+03  0.00000000000E+00 0.  1.
         22   -1    0    0    0    0 -0.00000000000E+00 -0.00000000000E+00 -0.92192963553E+02  0.92192963553E+02  0.00000000000E+00 0. -1.
        -24    2    1    2    0    0 -0.87227923856E+02  0.27552420130E+02  0.15027796487E+01  0.12212684723E+03  0.80900320836E+02 0.  0.
         25    2    1    2    0    0  0.85384928371E+02 -0.72627813437E+01  0.21498390797E+03  0.26307557692E+03  0.12508934606E+03 0.  0.
         24    2    1    2    0    0  0.18429954856E+01 -0.20289638786E+02  0.22297832855E+03  0.23864851913E+03  0.82575508514E+02 0.  0.
        -11    1    5    5    0    0  0.21397160547E+02  0.21141811134E+02  0.40153996048E+02  0.50171287168E+02  0.00000000000E+00 0.  1.
         12    1    5    5    0    0 -0.19554165062E+02 -0.41431449921E+02  0.18282433250E+03  0.18847723196E+03  0.00000000000E+00 0. -1.
         11    1    3    3    0    0 -0.65257721773E+02 -0.10299046414E+02 -0.25370440676E+02  0.70769342714E+02  0.00000000000E+00 0. -1.
        -12    1    3    3    0    0 -0.21970202083E+02  0.37851466544E+02  0.26873220325E+02  0.51357504512E+02  0.00000000000E+00 0.  1.
          5    1    4    4  501    0  0.72030856171E+02  0.68834511622E+01  0.32367838425E+02  0.79378684198E+02  0.41800000000E+01 0.  1.
         -5    1    4    4    0  501  0.13354072200E+02 -0.14146232506E+02  0.18261606954E+03  0.18369689272E+03  0.41800000000E+01 0.  1.
</event>
<event>
11    1  0.5813833E-009  0.1711950E+03  0.7561462E-02  0.1076996E+00
         22   -1    0    0    0    0  0.00000000000E+00  0.00000000000E+00  0.39388343428E+03  0.39388343428E+03  0.00000000000E+00 0. -1.
         22   -1    0    0    0    0 -0.00000000000E+00 -0.00000000000E+00 -0.27887777100E+03  0.27887777100E+03  0.00000000000E+00 0.  1.
        -24    2    1    2    0    0 -0.11563020367E+03 -0.39412900225E+02 -0.20054136790E+03  0.24838886556E+03  0.80972017346E+02 0.  0.
         25    2    1    2    0    0  0.77419267583E+02  0.45915576733E+02  0.83404539586E+02  0.17522912369E+03  0.12508775074E+03 0.  0.
         24    2    1    2    0    0  0.38210936087E+02 -0.65026765084E+01  0.23214249159E+03  0.24914321603E+03  0.81730320282E+02 0.  0.
        -11    1    5    5    0    0  0.23630913604E+02  0.36559665789E+02  0.91346604573E+02  0.10118908739E+03  0.00000000000E+00 0.  1.
         12    1    5    5    0    0  0.14580022483E+02 -0.43062342297E+02  0.14079588702E+03  0.14795412864E+03  0.00000000000E+00 0. -1.
         13    1    3    3    0    0 -0.12156079225E+02 -0.22169129099E+02 -0.99782377340E+02  0.10293572448E+03  0.00000000000E+00 0. -1.
        -14    1    3    3    0    0 -0.10347412445E+03 -0.17243771126E+02 -0.10075899056E+03  0.14545314108E+03  0.00000000000E+00 0.  1.
          5    1    4    4  501    0  0.28637261693E+02 -0.43307300483E+02  0.23594934745E+02  0.57182238309E+02  0.41800000000E+01 0. -1.
         -5    1    4    4    0  501  0.48782005890E+02  0.89222877216E+02  0.59809604841E+02  0.11804688538E+03  0.41800000000E+01 0. -1.
</event>
<event>
11    1  0.5813833E-009  0.2352965E+03  0.7561462E-02  0.1032037E+00
         22   -1    0    0    0    0  0.00000000000E+00  0.00000000000E+00  0.15555138977E+04  0.15555138977E+04  0.00000000000E+00 0.  1.
         22   -1    0    0    0    0 -0.00000000000E+00 -0.00000000000E+00 -0.12784525473E+03  0.12784525473E+03  0.00000000000E+00 0. -1.
         24    2    1    2    0    0  0.16486974565E+03  0.11583218551E+03  0.28327858566E+01  0.21702954251E+03  0.80589511808E+02 0.  0.
         25    2    1    2    0    0 -0.17238101509E+03 -0.75487859455E+02  0.70016263645E+03  0.73572357859E+03  0.12509130796E+03 0.  0.
        -24    2    1    2    0    0  0.75112694374E+01 -0.40344326058E+02  0.72467322070E+03  0.73060603135E+03  0.83365535096E+02 0.  0.
        -13    1    3    3    0    0  0.41803309675E+02 -0.58547955681E+01  0.11478567851E+02  0.43744175050E+02  0.00000000000E+00 0.  1.
         14    1    3    3    0    0  0.12306643598E+03  0.12168698108E+03 -0.86457819940E+01  0.17328536746E+03  0.00000000000E+00 0. -1.
         11    1    5    5    0    0  0.70773851275E+01 -0.51350165049E+02  0.22830306313E+03  0.23411368491E+03  0.00000000000E+00 0. -1.
        -12    1    5    5    0    0  0.43388430989E+00  0.11005838991E+02  0.49637015757E+03  0.49649234644E+03  0.00000000000E+00 0.  1.
          5    1    4    4  501    0 -0.77027289123E+02  0.30842514586E+02  0.25991296298E+03  0.27286752225E+03  0.41800000000E+01 0.  1.
         -5    1    4    4    0  501 -0.95353725967E+02 -0.10633037404E+03  0.44024967347E+03  0.46285605634E+03  0.41800000000E+01 0.  1.
</event>
<event>
11    1  0.5813833E-009  0.2120610E+03  0.7561462E-02  0.1046308E+00
         22   -1    0    0    0    0  0.00000000000E+00  0.00000000000E+00  0.33444810927E+04  0.33444810927E+04  0.00000000000E+00 0. -1.
         22   -1    0    0    0    0 -0.00000000000E+00 -0.00000000000E+00 -0.52236317683E+04  0.52236317683E+04  0.00000000000E+00 0. -1.
        -24    2    1    2    0    0 -0.18741935770E+02  0.28223500560E+02 -0.41949177475E+04  0.41959107895E+04  0.84762134537E+02 0.  0.
         25    2    1    2    0    0  0.17812346495E+01  0.14225182794E+03 -0.10167697215E+04  0.10342662744E+04  0.12508918633E+03 0.  0.
         24    2    1    2    0    0  0.16960701121E+02 -0.17047532850E+03  0.33325367934E+04  0.33379357970E+04  0.81635793170E+02 0.  0.
        -11    1    5    5    0    0 -0.70099163086E+01 -0.26264214641E+02  0.18299267289E+03  0.18500071954E+03  0.00000000000E+00 0.  1.
         12    1    5    5    0    0  0.23970617430E+02 -0.14421111386E+03  0.31495441205E+04  0.31529350775E+04  0.00000000000E+00 0. -1.
         11    1    3    3    0    0  0.13594322092E+01  0.33354001399E+02 -0.39426882892E+04  0.39428296037E+04  0.00000000000E+00 0. -1.
        -12    1    3    3    0    0 -0.20101367980E+02 -0.51305008393E+01 -0.25222945823E+03  0.25308118585E+03  0.00000000000E+00 0.  1.
          5    1    4    4  501    0 -0.20097775488E+02 -0.76678607793E+01 -0.38286366543E+02  0.44113885927E+02  0.41800000000E+01 0. -1.
         -5    1    4    4    0  501  0.21879010138E+02  0.14991968872E+03 -0.97848335494E+03  0.99015238850E+03  0.41800000000E+01 0. -1.
</event>
<event>
11    1  0.5813833E-009  0.2480371E+03  0.7561462E-02  0.1024950E+00
         22   -1    0    0    0    0  0.00000000000E+00  0.00000000000E+00  0.17693785323E+03  0.17693785323E+03  0.00000000000E+00 0. -1.
         22   -1    0    0    0    0 -0.00000000000E+00 -0.00000000000E+00 -0.22397673235E+04  0.22397673235E+04  0.00000000000E+00 0.  1.
         24    2    1    2    0    0 -0.11808805006E+03 -0.17570894236E+03 -0.17366612690E+04  0.17513196369E+04  0.79433540437E+02 0.  0.
         25    2    1    2    0    0  0.19717036081E+03  0.13823513207E+03 -0.42932047690E+03  0.50788747371E+03  0.12509400923E+03 0.  0.
        -24    2    1    2    0    0 -0.79082310744E+02  0.37473810293E+02  0.10315227565E+03  0.15749806611E+03  0.80665671296E+02 0.  0.
        -13    1    3    3    0    0 -0.87038517646E+02 -0.13825813812E+03 -0.15436738281E+04  0.15522950441E+04  0.00000000000E+00 0.  1.
         14    1    3    3    0    0 -0.31049532418E+02 -0.37450804245E+02 -0.19298744091E+03  0.19902459283E+03  0.00000000000E+00 0. -1.
         11    1    5    5    0    0 -0.24173093712E+02 -0.14513622682E+02  0.68978906363E+02  0.74518945416E+02  0.00000000000E+00 0. -1.
        -12    1    5    5    0    0 -0.54909217032E+02  0.51987432975E+02  0.34173369286E+02  0.82979120691E+02  0.00000000000E+00 0.  1.
          5    1    4    4  501    0  0.87895869677E+02  0.70074736340E+02 -0.87273877365E+02  0.14237399569E+03  0.41800000000E+01 0.  1.
         -5    1    4    4    0  501  0.10927449113E+03  0.68160395732E+02 -0.34204659953E+03  0.36551347802E+03  0.41800000000E+01 0.  1.
</event>
<event>
11    1  0.5813833E-009  0.2008022E+03  0.7561462E-02  0.1053958E+00
         22   -1    0    0    0    0  0.00000000000E+00  0.00000000000E+00  0.47428865887E+03  0.47428865887E+03  0.00000000000E+00 0.  1.
         22   -1    0    0    0    0 -0.00000000000E+00 -0.00000000000E+00 -0.69096321380E+03  0.69096321380E+03  0.00000000000E+00 0.  1.
        -24    2    1    2    0    0  0.13972665225E+03 -0.74762454562E+02 -0.49111017424E+03  0.52237634087E+03  0.81085610897E+02 0.  0.
         25    2    1    2    0    0 -0.96956844657E+02  0.13320696618E+03 -0.11662492309E+03  0.23747324726E+03  0.12508974744E+03 0.  0.
         24    2    1    2    0    0 -0.42769807595E+02 -0.58444511616E+02  0.39106054240E+03  0.40540228454E+03  0.78598009582E+02 0.  0.
        -11    1    5    5    0    0 -0.55692939549E+02 -0.10137877561E+02  0.19338621352E+03  0.20150113562E+03  0.00000000000E+00 0.  1.
         12    1    5    5    0    0  0.12923131954E+02 -0.48306634054E+02  0.19767432888E+03  0.20390114892E+03  0.00000000000E+00 0. -1.
         11    1    3    3    0    0  0.79882447005E+02 -0.76221903593E+02 -0.23923081917E+03  0.26348124937E+03  0.00000000000E+00 0. -1.
        -12    1    3    3    0    0  0.59844205247E+02  0.14594490309E+01 -0.25187935507E+03  0.25889509150E+03  0.00000000000E+00 0.  1.
          5    1    4    4  501    0 -0.44102600619E+02  0.12378945251E+03 -0.12681301461E+03  0.18266877403E+03  0.41800000000E+01 0. -1.
         -5    1    4    4    0  501 -0.52854244038E+02  0.94175136695E+01  0.10188091519E+02  0.54804473224E+02  0.41800000000E+01 0. -1.
</event>
<event>
11    1  0.5813833E-009  0.2018704E+03  0.7561462E-02  0.1053209E+00
         22   -1    0    0    0    0  0.00000000000E+00  0.00000000000E+00  0.10665161291E+04  0.10665161291E+04  0.00000000000E+00 0. -1.
         22   -1    0    0    0    0 -0.00000000000E+00 -0.00000000000E+00 -0.11758474180E+04  0.11758474180E+04  0.00000000000E+00 0.  1.
         24    2    1    2    0    0  0.72338804227E+02  0.68775792868E+02 -0.10628822488E+04  0.10704099698E+04  0.78075710153E+02 0.  0.
         25    2    1    2    0    0 -0.11684183959E+03 -0.21385790274E+03  0.85131891895E+02  0.28684891182E+03  0.12509053183E+03 0.  0.
        -24    2    1    2    0    0  0.44503035367E+02  0.14508210987E+03  0.86841906793E+03  0.88510466538E+03  0.78925612988E+02 0.  0.
        -13    1    3    3    0    0  0.16233775383E+02  0.40877482394E+02 -0.75149953150E+03  0.75278552715E+03  0.00000000000E+00 0.  1.
         14    1    3    3    0    0  0.56105028845E+02  0.27898310475E+02 -0.31138271726E+03  0.31762444269E+03  0.00000000000E+00 0. -1.
         11    1    5    5    0    0  0.58859199421E+02  0.99231723822E+02  0.47733813294E+03  0.49108353009E+03  0.00000000000E+00 0. -1.
        -12    1    5    5    0    0 -0.14356164053E+02  0.45850386048E+02  0.39108093498E+03  0.39402113529E+03  0.00000000000E+00 0.  1.
          5    1    4    4  501    0  0.70139657304E+01 -0.43525398066E+02 -0.23185576807E+02  0.49986991948E+02  0.41800000000E+01 0. -1.
         -5    1    4    4    0  501 -0.12385580532E+03 -0.17033250467E+03  0.10831746870E+03  0.23686191987E+03  0.41800000000E+01 0. -1.
</event>
<event>
11    1  0.7378244E-009  0.1691288E+03  0.7561462E-02  0.1078792E+00
         22   -1    0    0    0    0  0.00000000000E+00  0.00000000000E+00  0.62677724762E+03  0.62677724762E+03  0.00000000000E+00 0. -1.
         22   -1    0    0    0    0 -0.00000000000E+00 -0.00000000000E+00 -0.20919856358E+03  0.20919856358E+03  0.00000000000E+00 0.  1.
         24    2    1    2    0    0  0.23257654664E+02 -0.48730623692E+00 -0.13031195607E+03  0.15635786915E+03  0.83219116700E+02 0.  0.
         25    2    1    2    0    0  0.33478542474E+02 -0.10023551340E+03  0.64496356691E+02  0.17599920750E+03  0.12509184650E+03 0.  0.
        -24    2    1    2    0    0 -0.56736197138E+02  0.10072281963E+03  0.48339428342E+03  0.50361873455E+03  0.81226313991E+02 0.  0.
        -13    1    3    3    0    0  0.13243364620E+02  0.63684086428E+01 -0.14003700152E+03  0.14080591298E+03  0.00000000000E+00 0.  1.
         14    1    3    3    0    0  0.10014290044E+02 -0.68557148798E+01  0.97250454566E+01  0.15551956171E+02  0.00000000000E+00 0. -1.
         11    1    5    5    0    0 -0.48107331209E+02  0.73419854906E+02  0.45465090045E+03  0.46304668413E+03  0.00000000000E+00 0. -1.
        -12    1    5    5    0    0 -0.86288659287E+01  0.27302964728E+02  0.28743382976E+02  0.40572050418E+02  0.00000000000E+00 0.  1.
          5    1    4    4  501    0  0.21655575924E+02 -0.12979013906E+03  0.51861662610E+02  0.14149752159E+03  0.41800000000E+01 0. -1.
         -5    1    4    4    0  501  0.11822966550E+02  0.29554625665E+02  0.12634694081E+02  0.34501685912E+02  0.41800000000E+01 0. -1.
</event>
<event>
11    1  0.5813833E-009  0.2041798E+03  0.7561462E-02  0.1051607E+00
         22   -1    0    0    0    0  0.00000000000E+00  0.00000000000E+00  0.21270660963E+04  0.21270660963E+04  0.00000000000E+00 0.  1.
         22   -1    0    0    0    0 -0.00000000000E+00 -0.00000000000E+00 -0.81704884785E+03  0.81704884785E+03  0.00000000000E+00 0.  1.
        -24    2    1    2    0    0  0.16298537697E+03 -0.69334515307E+01 -0.77170581348E+03  0.79293530459E+03  0.81266406702E+02 0.  0.
         25    2    1    2    0    0 -0.12298756688E+03  0.17942346841E+02  0.19772615522E+03  0.26492003074E+03  0.12505647048E+03 0.  0.
         24    2    1    2    0    0 -0.39997810088E+02 -0.11008895310E+02  0.18839969067E+04  0.18862596088E+04  0.82522401682E+02 0.  0.
        -11    1    5    5    0    0 -0.42715434790E+02  0.25149036853E+02  0.72333691899E+03  0.72503336530E+03  0.00000000000E+00 0.  1.
         12    1    5    5    0    0  0.27176247028E+01 -0.36157932163E+02  0.11606599877E+04  0.11612262435E+04  0.00000000000E+00 0. -1.
         11    1    3    3    0    0  0.25440667513E+02  0.23043821024E+02 -0.80051819230E+02  0.87100740599E+02  0.00000000000E+00 0. -1.
        -12    1    3    3    0    0  0.13754470946E+03 -0.29977272555E+02 -0.69165399425E+03  0.70583456399E+03  0.00000000000E+00 0.  1.
          5    1    4    4  501    0 -0.33675634085E+02  0.56215817790E+01 -0.12134669835E+02  0.36474280318E+02  0.41800000000E+01 0.  1.
         -5    1    4    4    0  501 -0.89311932799E+02  0.12320765062E+02  0.20986082506E+03  0.22844575042E+03  0.41800000000E+01 0.  1.
</event>
<event>
11    1  0.5813833E-009  0.1267337E+03  0.7561462E-02  0.1123349E+00
         22   -1    0    0    0    0  0.00000000000E+00  0.00000000000E+00  0.45562413488E+03  0.45562413488E+03  0.00000000000E+00 0.  1.
         22   -1    0    0    0    0 -0.00000000000E+00 -0.00000000000E+00 -0.41521754251E+03  0.41521754251E+03  0.00000000000E+00 0. -1.
        -24    2    1    2    0    0 -0.79839360691E+01  0.18004784759E+02 -0.36161871676E+03  0.37135172844E+03  0.82134611401E+02 0.  0.
         25    2    1    2    0    0 -0.19890219862E+01 -0.36736351636E+02  0.53307288744E+02  0.14086545823E+03  0.12509154468E+03 0.  0.
         24    2    1    2    0    0  0.99729580554E+01  0.18731566877E+02  0.34871802040E+03  0.35862449072E+03  0.80974910321E+02 0.  0.
        -11    1    5    5    0    0 -0.15147890412E+02  0.17594820526E+01  0.30523761806E+03  0.30561832052E+03  0.00000000000E+00 0.  1.
         12    1    5    5    0    0  0.25120848467E+02  0.16972084825E+02  0.43480402337E+02  0.53006170192E+02  0.00000000000E+00 0. -1.
         13    1    3    3    0    0 -0.44002663839E+02  0.39385115274E+01 -0.15630408350E+03  0.16242756175E+03  0.00000000000E+00 0. -1.
        -14    1    3    3    0    0  0.36018727770E+02  0.14066273232E+02 -0.20531463327E+03  0.20892416669E+03  0.00000000000E+00 0.  1.
          5    1    4    4  501    0 -0.20261474336E+02  0.39417940105E+02  0.42769701699E+02  0.61733468457E+02  0.41800000000E+01 0.  1.
         -5    1    4    4    0  501  0.18272452349E+02 -0.76154291741E+02  0.10537587044E+02  0.79131989778E+02  0.41800000000E+01 0.  1.
</event>
<event>
11    1  0.5813833E-009  0.1298791E+03  0.7561462E-02  0.1119418E+00
         22   -1    0    0    0    0  0.00000000000E+00  0.00000000000E+00  0.58031196482E+02  0.58031196482E+02  0.00000000000E+00 0.  1.
         22   -1    0    0    0    0 -0.00000000000E+00 -0.00000000000E+00 -0.14444491466E+04  0.14444491466E+04  0.00000000000E+00 0. -1.
         24    2    1    2    0    0  0.37169939961E+01  0.35047542204E+02 -0.11591845382E+04  0.11626199121E+04  0.82061684795E+02 0.  0.
         25    2    1    2    0    0  0.35281993269E+02 -0.33717693455E+02 -0.21050204419E+03  0.24968029402E+03  0.12508971466E+03 0.  0.
        -24    2    1    2    0    0 -0.38998987265E+02 -0.13298487491E+01 -0.16731367673E+02  0.90180136924E+02  0.79560222008E+02 0.  0.
        -11    1    3    3    0    0  0.33764585875E+02 -0.48546292611E+01 -0.28962762606E+03  0.29162951919E+03  0.00000000000E+00 0.  1.
         12    1    3    3    0    0 -0.30047591879E+02  0.39902171465E+02 -0.86955691216E+03  0.87099039291E+03  0.00000000000E+00 0. -1.
         11    1    5    5    0    0 -0.12312405359E+02  0.37685957105E+02 -0.16413510668E+02  0.42909556291E+02  0.00000000000E+00 0. -1.
        -12    1    5    5    0    0 -0.26686581907E+02 -0.39015805854E+02 -0.31785700507E+00  0.47270580633E+02  0.00000000000E+00 0.  1.
          5    1    4    4  501    0 -0.36294318431E+02  0.95638442311E+00 -0.13528059388E+03  0.14013030972E+03  0.41800000000E+01 0. -1.
         -5    1    4    4    0  501  0.71576311700E+02 -0.34674077878E+02 -0.75221450308E+02  0.10954998430E+03  0.41800000000E+01 0. -1.
</event>
<event>
11    1  0.5813833E-009  0.1582633E+03  0.7561462E-02  0.1088722E+00
         22   -1    0    0    0    0  0.00000000000E+00  0.00000000000E+00  0.22302691233E+03  0.22302691233E+03  0.00000000000E+00 0.  1.
         22   -1    0    0    0    0 -0.00000000000E+00 -0.00000000000E+00 -0.74541871491E+03  0.74541871491E+03  0.00000000000E+00 0.  1.
        -24    2    1    2    0    0  0.21738244083E+02  0.93491207117E+02 -0.61657975474E+03  0.62914670187E+03  0.80260958467E+02 0.  0.
         25    2    1    2    0    0  0.17513982900E+02 -0.11326566923E+03 -0.42197497325E+02  0.17482509660E+03  0.12508930489E+03 0.  0.
         24    2    1    2    0    0 -0.39252226983E+02  0.19774462117E+02  0.13638544948E+03  0.16447382877E+03  0.80739598994E+02 0.  0.
        -11    1    5    5    0    0 -0.61939821990E+02  0.27461577092E+02  0.10558722005E+03  0.12545652954E+03  0.00000000000E+00 0.  1.
         12    1    5    5    0    0  0.22687595007E+02 -0.76871149744E+01  0.30798229425E+02  0.39017299234E+02  0.00000000000E+00 0. -1.
         11    1    3    3    0    0  0.34656745404E+02  0.64779589708E+02 -0.23372808721E+03  0.24500266120E+03  0.00000000000E+00 0. -1.
        -12    1    3    3    0    0 -0.12918501321E+02  0.28711617409E+02 -0.38285166753E+03  0.38414404067E+03  0.00000000000E+00 0.  1.
          5    1    4    4  501    0 -0.18855318583E+02 -0.11720571033E+03  0.47366098342E-01  0.11878626275E+03  0.41800000000E+01 0.  1.
         -5    1    4    4    0  501  0.36369301483E+02  0.39400410987E+01 -0.42244863423E+02  0.56038833855E+02  0.41800000000E+01 0.  1.
</event>
<event>
11    1  0.5813833E-009  0.1450545E+03  0.7561462E-02  0.1102042E+00
         22   -1    0    0    0    0  0.00000000000E+00  0.00000000000E+00  0.56971489924E+03  0.56971489924E+03  0.00000000000E+00 0. -1.
         22   -1    0    0    0    0 -0.00000000000E+00 -0.00000000000E+00 -0.12816574038E+04  0.12816574038E+04  0.00000000000E+00 0.  1.
        -24    2    1    2    0    0  0.81678606779E+02  0.36642228193E+02 -0.12445533397E+04  0.12502801101E+04  0.79204108489E+02 0.  0.
         25    2    1    2    0    0  0.36154276685E+01  0.18265554160E+02  0.14779619287E+03  0.19451927834E+03  0.12508930103E+03 0.  0.
         24    2    1    2    0    0 -0.85294034447E+02 -0.54907782353E+02  0.38481464226E+03  0.40657291454E+03  0.83242351400E+02 0.  0.
        -13    1    5    5    0    0  0.15669271341E+02 -0.61403416899E+00  0.63964668849E+02  0.65858803233E+02  0.00000000000E+00 0.  1.
         14    1    5    5    0    0 -0.10096330579E+03 -0.54293748184E+02  0.32084997341E+03  0.34071411131E+03  0.00000000000E+00 0. -1.
         13    1    3    3    0    0  0.35533339111E+02 -0.22768703735E+02 -0.34122619726E+03  0.34382604578E+03  0.00000000000E+00 0. -1.
        -14    1    3    3    0    0  0.46145267668E+02  0.59410931928E+02 -0.90332714243E+03  0.90645406437E+03  0.00000000000E+00 0.  1.
          5    1    4    4  501    0  0.36453600547E+02 -0.31372231457E+02  0.11869526271E+03  0.12813711285E+03  0.41800000000E+01 0.  1.
         -5    1    4    4    0  501 -0.32838172878E+02  0.49637785617E+02  0.29100930159E+02  0.66382165490E+02  0.41800000000E+01 0.  1.
</event>
<event>
11    1  0.5813833E-009  0.2498678E+03  0.7561462E-02  0.1023970E+00
         22   -1    0    0    0    0  0.00000000000E+00  0.00000000000E+00  0.87713895701E+03  0.87713895701E+03  0.00000000000E+00 0. -1.
         22   -1    0    0    0    0 -0.00000000000E+00 -0.00000000000E+00 -0.76546700870E+03  0.76546700870E+03  0.00000000000E+00 0. -1.
         24    2    1    2    0    0  0.49309531232E+02  0.61858579024E+02 -0.60558842377E+03  0.61603874075E+03  0.80675135133E+02 0.  0.
         25    2    1    2    0    0 -0.19918489923E+03 -0.20504014480E+03  0.41016519078E+02  0.31471385981E+03  0.12508546543E+03 0.  0.
        -24    2    1    2    0    0  0.14987536799E+03  0.14318156577E+03  0.67624385300E+03  0.71185336515E+03  0.80410683652E+02 0.  0.
        -11    1    3    3    0    0  0.46390359148E+02  0.20630485668E+02 -0.14561704897E+03  0.15421416054E+03  0.00000000000E+00 0.  1.
         12    1    3    3    0    0  0.29191720846E+01  0.41228093356E+02 -0.45997137480E+03  0.46182458021E+03  0.00000000000E+00 0. -1.
         11    1    5    5    0    0  0.10777096784E+03  0.93511020631E+02  0.56698271378E+03  0.58466083349E+03  0.00000000000E+00 0. -1.
        -12    1    5    5    0    0  0.42104400152E+02  0.49670545142E+02  0.10926113922E+03  0.12719253166E+03  0.00000000000E+00 0.  1.
          5    1    4    4  501    0 -0.97476070028E+01 -0.72365488458E+02 -0.19343872708E+02  0.75653404242E+02  0.41800000000E+01 0. -1.
         -5    1    4    4    0  501 -0.18943729222E+03 -0.13267465634E+03  0.60360391786E+02  0.23906045557E+03  0.41800000000E+01 0. -1.
</event>
<event>
11    1  0.5813833E-009  0.2383693E+03  0.7561462E-02  0.1030284E+00
         22   -1    0    0    0    0  0.00000000000E+00  0.00000000000E+00  0.10234503495E+04  0.10234503495E+04  0.00000000000E+00 0.  1.
         22   -1    0    0    0    0 -0.00000000000E+00 -0.00000000000E+00 -0.38476922522E+03  0.38476922522E+03  0.00000000000E+00 0. -1.
        -24    2    1    2    0    0  0.16657118800E+03  0.92428341255E+02 -0.22880244542E+03  0.30848323181E+03  0.80761292333E+02 0.  0.
         25    2    1    2    0    0 -0.19332916058E+03 -0.20075162460E+03  0.10235872070E+03  0.32218268825E+03  0.12508796024E+03 0.  0.
         24    2    1    2    0    0  0.26757972580E+02  0.10832328335E+03  0.76512484897E+03  0.77755365463E+03  0.81998344474E+02 0.  0.
        -11    1    5    5    0    0  0.48628027989E+02  0.75689029502E+02  0.64307155836E+03  0.64933392293E+03  0.00000000000E+00 0.  1.
         12    1    5    5    0    0 -0.21870055409E+02  0.32634253845E+02  0.12205329061E+03  0.12821973170E+03  0.00000000000E+00 0. -1.
         13    1    3    3    0    0  0.39092235339E+02  0.48788451368E+02 -0.11995567587E+03  0.13526965670E+03  0.00000000000E+00 0. -1.
        -14    1    3    3    0    0  0.12747895266E+03  0.43639889888E+02 -0.10884676955E+03  0.17321357511E+03  0.00000000000E+00 0.  1.
          5    1    4    4  501    0 -0.15147157322E+03 -0.95901776455E+02  0.10752156133E+03  0.20909124031E+03  0.41800000000E+01 0.  1.
         -5    1    4    4    0  501 -0.41857587353E+02 -0.10484984815E+03 -0.51628406294E+01  0.11309144795E+03  0.41800000000E+01 0.  1.
</event>
<event>
11    1  0.5813833E-009  0.1313158E+03  0.7561462E-02  0.1117663E+00
         22   -1    0    0    0    0  0.00000000000E+00  0.00000000000E+00  0.12927664429E+04  0.12927664429E+04  0.00000000000E+00 0. -1.
         22   -1    0    0    0    0 -0.00000000000E+00 -0.00000000000E+00 -0.74938175931E+02  0.74938175931E+02  0.00000000000E+00 0.  1.
         24    2    1    2    0    0  0.40457788758E+02 -0.17054783579E+02 -0.40364754132E+02  0.89448108846E+02  0.66662976876E+02 0.  0.
         25    2    1    2    0    0 -0.11194476761E+02  0.47873502355E+02  0.77970793829E+03  0.79120803837E+03  0.12509397428E+03 0.  0.
        -24    2    1    2    0    0 -0.29263311997E+02 -0.30818718777E+02  0.47848508281E+03  0.48704847162E+03  0.80387215277E+02 0.  0.
        -11    1    3    3    0    0  0.54814466740E+02 -0.59102784406E+01 -0.44451035119E+02  0.70819853702E+02  0.00000000000E+00 0.  1.
         12    1    3    3    0    0 -0.14356677981E+02 -0.11144505138E+02  0.40862809868E+01  0.18628255145E+02  0.00000000000E+00 0. -1.
         13    1    5    5    0    0  0.31425722641E+01  0.83432562709E+01  0.32968963376E+03  0.32981015796E+03  0.00000000000E+00 0. -1.
        -14    1    5    5    0    0 -0.32405884261E+02 -0.39161975048E+02  0.14879544905E+03  0.15723831366E+03  0.00000000000E+00 0.  1.
          5    1    4    4  501    0 -0.50159575027E+02 -0.71684980792E+01  0.53285431378E+03  0.53527428711E+03  0.41800000000E+01 0. -1.
         -5    1    4    4    0  501  0.38965098267E+02  0.55042000435E+02  0.24685362452E+03  0.25593375126E+03  0.41800000000E+01 0. -1.
</event>
<event>
11    1  0.5813833E-009  0.1689548E+03  0.7561462E-02  0.1078945E+00
         22   -1    0    0    0    0  0.00000000000E+00  0.00000000000E+00  0.10705021431E+04  0.10705021431E+04  0.00000000000E+00 0.  1.
         22   -1    0    0    0    0 -0.00000000000E+00 -0.00000000000E+00 -0.21024712915E+03  0.21024712915E+03  0.00000000000E+00 0. -1.
        -24    2    1    2    0    0  0.86010139357E+02 -0.62977718946E+02 -0.87661627211E+02  0.15990428713E+03  0.80751984506E+02 0.  0.
         25    2    1    2    0    0 -0.60754401489E+02  0.13657573593E+03  0.30796483552E+02  0.19733057313E+03  0.12508758031E+03 0.  0.
         24    2    1    2    0    0 -0.25255737868E+02 -0.73598016985E+02  0.91712015763E+03  0.92351441200E+03  0.75597389099E+02 0.  0.
        -11    1    5    5    0    0 -0.14037393459E+02 -0.36668154622E+02  0.78213150128E+03  0.78311639446E+03  0.00000000000E+00 0.  1.
         12    1    5    5    0    0 -0.11218344409E+02 -0.36929862363E+02  0.13498865635E+03  0.14039801754E+03  0.00000000000E+00 0. -1.
         11    1    3    3    0    0  0.47742306428E+02  0.50339727110E+01 -0.60590200210E+02  0.77303564380E+02  0.00000000000E+00 0. -1.
        -12    1    3    3    0    0  0.38267832929E+02 -0.68011691657E+02 -0.27071427001E+02  0.82600722751E+02  0.00000000000E+00 0.  1.
          5    1    4    4  501    0 -0.61666068264E+02  0.64012682748E+02  0.71384938051E+02  0.11407720766E+03  0.41800000000E+01 0. -1.
         -5    1    4    4    0  501  0.91166677455E+00  0.72563053183E+02 -0.40588454499E+02  0.83253365471E+02  0.41800000000E+01 0. -1.
</event>
<event>
11    1  0.5813833E-009  0.1514159E+03  0.7561462E-02  0.1095441E+00
         22   -1    0    0    0    0  0.00000000000E+00  0.00000000000E+00  0.96429930491E+03  0.96429930491E+03  0.00000000000E+00 0.  1.
         22   -1    0    0    0    0 -0.00000000000E+00 -0.00000000000E+00 -0.24200676520E+04  0.24200676520E+04  0.00000000000E+00 0.  1.
         24    2    1    2    0    0  0.14276285492E+02 -0.35959777071E+02 -0.23227139552E+04  0.23243487645E+04  0.78103412419E+02 0.  0.
         25    2    1    2    0    0  0.64196309615E+02 -0.20696389611E+00 -0.39458368505E+02  0.14603659781E+03  0.12509402884E+03 0.  0.
        -24    2    1    2    0    0 -0.78472595107E+02  0.36166740967E+02  0.90640397666E+03  0.91398159465E+03  0.79550016498E+02 0.  0.
        -11    1    3    3    0    0 -0.24111534544E+02 -0.12907243151E+02 -0.16085151669E+04  0.16087476512E+04  0.00000000000E+00 0.  1.
         12    1    3    3    0    0  0.38387820036E+02 -0.23052533921E+02 -0.71419878835E+03  0.71560111328E+03  0.00000000000E+00 0. -1.
         13    1    5    5    0    0 -0.29642519658E+02  0.50989866877E+02  0.32225557230E+03  0.32760845436E+03  0.00000000000E+00 0. -1.
        -14    1    5    5    0    0 -0.48830075449E+02 -0.14823125910E+02  0.58414840436E+03  0.58637314029E+03  0.00000000000E+00 0.  1.
          5    1    4    4  501    0 -0.25322764213E+02 -0.34602669705E+02 -0.24259927722E+01  0.43150260474E+02  0.41800000000E+01 0.  1.
         -5    1    4    4    0  501  0.89519073828E+02  0.34395705809E+02 -0.37032375733E+02  0.10288633733E+03  0.41800000000E+01 0.  1.
</event>
<event>
11    1  0.5813833E-009  0.1376651E+03  0.7561462E-02  0.1110194E+00
         22   -1    0    0    0    0  0.00000000000E+00  0.00000000000E+00  0.53105903713E+03  0.53105903713E+03  0.00000000000E+00 0. -1.
         22   -1    0    0    0    0 -0.00000000000E+00 -0.00000000000E+00 -0.14216641684E+03  0.14216641684E+03  0.00000000000E+00 0. -1.
         24    2    1    2    0    0  0.13366493457E+00 -0.44187461031E+02 -0.15901805741E+02  0.94348841053E+02  0.81830842618E+02 0.  0.
         25    2    1    2    0    0  0.57164368062E+02  0.35763752873E+02 -0.16121196432E+02  0.14302158261E+03  0.12509384126E+03 0.  0.
        -24    2    1    2    0    0 -0.57298032996E+02  0.84237081581E+01  0.42091562246E+03  0.43585503030E+03  0.97188593783E+02 0.  0.
        -13    1    3    3    0    0 -0.53770883158E+01  0.65411201267E+01  0.26615431689E+02  0.27929921863E+02  0.00000000000E+00 0.  1.
         14    1    3    3    0    0  0.55107532504E+01 -0.50728581158E+02 -0.42517237431E+02  0.66418919190E+02  0.00000000000E+00 0. -1.
         13    1    5    5    0    0 -0.60952660391E+01 -0.12509669860E+02  0.32373338944E+03  0.32403233102E+03  0.00000000000E+00 0. -1.
        -14    1    5    5    0    0 -0.51202766957E+02  0.20933378018E+02  0.97182233025E+02  0.11182269928E+03  0.00000000000E+00 0.  1.
          5    1    4    4  501    0  0.68110734208E+02  0.85725352570E+00 -0.56338460342E+02  0.88494641146E+02  0.41800000000E+01 0.  1.
         -5    1    4    4    0  501 -0.10946366146E+02  0.34906499347E+02  0.40217263910E+02  0.54526941459E+02  0.41800000000E+01 0.  1.
</event>
<event>
11    1  0.5813833E-009  0.1639342E+03  0.7561462E-02  0.1083434E+00
         22   -1    0    0    0    0  0.00000000000E+00  0.00000000000E+00  0.67592895631E+03  0.67592895631E+03  0.00000000000E+00 0.  1.
         22   -1    0    0    0    0 -0.00000000000E+00 -0.00000000000E+00 -0.14287069117E+04  0.14287069117E+04  0.00000000000E+00 0.  1.
        -24    2    1    2    0    0  0.25787814911E+02 -0.11511865797E+02 -0.12166673586E+04  0.12198559589E+04  0.83495895707E+02 0.  0.
         25    2    1    2    0    0  0.57918950546E+02 -0.54889543316E+02 -0.17652436427E+03  0.23060158261E+03  0.12509505156E+03 0.  0.
         24    2    1    2    0    0 -0.83706765457E+02  0.66401409112E+02  0.64041376749E+03  0.65417832647E+03  0.80021993948E+02 0.  0.
        -11    1    5    5    0    0 -0.15747365960E+02  0.44481251259E+02  0.41624944894E+03  0.41891546282E+03  0.00000000000E+00 0.  1.
         12    1    5    5    0    0 -0.67959399498E+02  0.21920157853E+02  0.22416431855E+03  0.23526286364E+03  0.00000000000E+00 0. -1.
         11    1    3    3    0    0  0.36729368335E+02 -0.28429009461E+02 -0.36408844858E+03  0.36703903535E+03  0.00000000000E+00 0. -1.
        -12    1    3    3    0    0 -0.10941553424E+02  0.16917143665E+02 -0.85257891002E+03  0.85281692359E+03  0.00000000000E+00 0.  1.
          5    1    4    4  501    0  0.29853964116E+02 -0.90731320624E+02 -0.14961906390E+03  0.17755778889E+03  0.41800000000E+01 0.  1.
         -5    1    4    4    0  501  0.28064986430E+02  0.35841777308E+02 -0.26905300375E+02  0.53043793720E+02  0.41800000000E+01 0.  1.
</event>
<event>
11    1  0.5813833E-009  0.1641704E+03  0.7561462E-02  0.1083219E+00
         22   -1    0    0    0    0  0.00000000000E+00  0.00000000000E+00  0.40720142885E+02  0.40720142885E+02  0.00000000000E+00 0.  1.
         22   -1    0    0    0    0 -0.00000000000E+00 -0.00000000000E+00 -0.23215909108E+04  0.23215909108E+04  0.00000000000E+00 0.  1.
         24    2    1    2    0    0  0.41013462197E+02  0.55117053410E+02 -0.10972946417E+04  0.11024169922E+04  0.80917861287E+02 0.  0.
         25    2    1    2    0    0 -0.86877954803E+02 -0.14204775150E+03 -0.10673483370E+04  0.10874773383E+04  0.12509654719E+03 0.  0.
        -24    2    1    2    0    0  0.45864492606E+02  0.86930698091E+02 -0.11622778923E+03  0.17241672320E+03  0.80982278921E+02 0.  0.
        -11    1    3    3    0    0  0.26167966632E+02  0.20412418508E+00 -0.75301640739E+03  0.75347097750E+03  0.00000000000E+00 0.  1.
         12    1    3    3    0    0  0.14845495565E+02  0.54912929224E+02 -0.34427823434E+03  0.34894601470E+03  0.00000000000E+00 0. -1.
         11    1    5    5    0    0  0.64252449804E+02  0.71043572458E+02 -0.11262402279E+03  0.14785038723E+03  0.00000000000E+00 0. -1.
        -12    1    5    5    0    0 -0.18387957198E+02  0.15887125633E+02 -0.36037664342E+01  0.24566335976E+02  0.00000000000E+00 0.  1.
          5    1    4    4  501    0  0.30966694895E+02 -0.48734938340E+02 -0.29685501573E+03  0.30244735603E+03  0.41800000000E+01 0. -1.
         -5    1    4    4    0  501 -0.11784464970E+03 -0.93312813160E+02 -0.77049332127E+03  0.78502998229E+03  0.41800000000E+01 0. -1.
</event>
<event>
11    1  0.6252996E-009  0.1569284E+03  0.7561462E-02  0.1090002E+00
         22   -1    0    0    0    0  0.00000000000E+00  0.00000000000E+00  0.64916027495E+03  0.64916027495E+03  0.00000000000E+00 0. -1.
         22   -1    0    0    0    0 -0.00000000000E+00 -0.00000000000E+00 -0.65042258712E+03  0.65042258712E+03  0.00000000000E+00 0.  1.
         24    2    1    2    0    0 -0.72660770203E+02  0.27598831969E+02 -0.48431450786E+03  0.49705106426E+03  0.80361277400E+02 0.  0.
         25    2    1    2    0    0  0.12314507755E+03 -0.10466815410E+03 -0.84987551367E+02  0.22134597413E+03  0.12510405178E+03 0.  0.
        -24    2    1    2    0    0 -0.50484307343E+02  0.77069322126E+02  0.56803974707E+03  0.58118582367E+03  0.81360074294E+02 0.  0.
        -11    1    3    3    0    0 -0.61102199517E+02  0.54543248550E+02 -0.33324066621E+03  0.34315854406E+03  0.00000000000E+00 0.  1.
         12    1    3    3    0    0 -0.11558570685E+02 -0.26944416581E+02 -0.15107384166E+03  0.15389252020E+03  0.00000000000E+00 0. -1.
         13    1    5    5    0    0 -0.50844459092E+02  0.74473486316E+02  0.57050514972E+03  0.57758772930E+03  0.00000000000E+00 0. -1.
        -14    1    5    5    0    0  0.36015174929E+00  0.25958358103E+01 -0.24654026542E+01  0.35980943684E+01  0.00000000000E+00 0.  1.
          5    1    4    4  501    0 -0.12783032824E+02 -0.29016516346E+02 -0.53867844490E+02  0.62646478105E+02  0.41800000000E+01 0.  1.
         -5    1    4    4    0  501  0.13592811037E+03 -0.75651637749E+02 -0.31119706877E+02  0.15869949603E+03  0.41800000000E+01 0.  1.
</event>
<event>
11    1  0.5813833E-009  0.1725156E+03  0.7561462E-02  0.1075863E+00
         22   -1    0    0    0    0  0.00000000000E+00  0.00000000000E+00  0.31493141389E+03  0.31493141389E+03  0.00000000000E+00 0. -1.
         22   -1    0    0    0    0 -0.00000000000E+00 -0.00000000000E+00 -0.10438524845E+04  0.10438524845E+04  0.00000000000E+00 0. -1.
        -24    2    1    2    0    0 -0.98254987082E+02  0.65182379995E+02 -0.96725903927E+03  0.97757954628E+03  0.78542568867E+02 0.  0.
         25    2    1    2    0    0  0.14891077637E+03 -0.56559113614E+02  0.16157769584E+03  0.25908797971E+03  0.12508347926E+03 0.  0.
         24    2    1    2    0    0 -0.50655789292E+02 -0.86232663815E+01  0.76760272821E+02  0.12211637239E+03  0.79874271263E+02 0.  0.
        -11    1    5    5    0    0  0.14793566913E+02 -0.59952986580E+01 -0.55716720683E+01  0.16906707475E+02  0.00000000000E+00 0.  1.
         12    1    5    5    0    0 -0.65449356205E+02 -0.26279677234E+01  0.82331944889E+02  0.10520966491E+03  0.00000000000E+00 0. -1.
         13    1    3    3    0    0 -0.88623062101E+02  0.16666978308E+02 -0.54153764851E+03  0.54899440804E+03  0.00000000000E+00 0. -1.
        -14    1    3    3    0    0 -0.96319249811E+01  0.48515401687E+02 -0.42572139076E+03  0.42858513825E+03  0.00000000000E+00 0.  1.
          5    1    4    4  501    0  0.97851561317E+02 -0.60426325073E+02  0.31624130048E+02  0.11934750444E+03  0.41800000000E+01 0. -1.
         -5    1    4    4    0  501  0.51059215057E+02  0.38672114598E+01  0.12995356579E+03  0.13974047527E+03  0.41800000000E+01 0. -1.
</event>
<event>
11    1  0.5813833E-009  0.1309822E+03  0.7561462E-02  0.1118068E+00
         22   -1    0    0    0    0  0.00000000000E+00  0.00000000000E+00  0.54301113552E+03  0.54301113552E+03  0.00000000000E+00 0.  1.
         22   -1    0    0    0    0 -0.00000000000E+00 -0.00000000000E+00 -0.48803863049E+03  0.48803863049E+03  0.00000000000E+00 0. -1.
        -24    2    1    2    0    0 -0.36997451695E+02 -0.13786373933E+02 -0.44945119362E+03  0.46288048628E+03  0.10340741554E+03 0.  0.
         25    2    1    2    0    0  0.67751002233E+01  0.45390718955E+02  0.14333227031E+03  0.19569631022E+03  0.12508671700E+03 0.  0.
         24    2    1    2    0    0  0.30222351472E+02 -0.31604345022E+02  0.36109142834E+03  0.37247296952E+03  0.80230095652E+02 0.  0.
        -11    1    5    5    0    0  0.19178389845E+02 -0.72700967837E+01  0.33325488471E+03  0.33388543413E+03  0.00000000000E+00 0.  1.
         12    1    5    5    0    0  0.11043961627E+02 -0.24334248239E+02  0.27836543632E+02  0.38587535385E+02  0.00000000000E+00 0. -1.
         13    1    3    3    0    0 -0.41414771157E+02 -0.54451268569E+02 -0.24467855139E+03  0.25406242821E+03  0.00000000000E+00 0. -1.
        -14    1    3    3    0    0  0.44173194617E+01  0.40664894636E+02 -0.20477264223E+03  0.20881805806E+03  0.00000000000E+00 0.  1.
          5    1    4    4  501    0  0.58704745912E+01 -0.39517319358E+02  0.80553954255E+02  0.90013848641E+02  0.41800000000E+01 0.  1.
         -5    1    4    4    0  501  0.90462563219E+00  0.84908038313E+02  0.62778316060E+02  0.10568246158E+03  0.41800000000E+01 0.  1.
</event>
<event>
11    1  0.5813833E-009  0.1648140E+03  0.7561462E-02  0.1082635E+00
         22   -1    0    0    0    0  0.00000000000E+00  0.00000000000E+00  0.10803349229E+04  0.10803349229E+04  0.00000000000E+00 0.  1.
         22   -1    0    0    0    0 -0.00000000000E+00 -0.00000000000E+00 -0.40347318461E+03  0.40347318461E+03  0.00000000000E+00 0. -1.
        -24    2    1    2    0    0 -0.10486296924E+03 -0.16809405339E+02 -0.35423325261E+03  0.37805066229E+03  0.78500366771E+02 0.  0.
         25    2    1    2    0    0  0.12938835642E+03  0.66025246940E+01  0.19551955864E+03  0.26582007500E+03  0.12508986510E+03 0.  0.
         24    2    1    2    0    0 -0.24525387187E+02  0.10206880645E+02  0.83557543226E+03  0.83993737021E+03  0.81257663344E+02 0.  0.
        -13    1    5    5    0    0 -0.36601642169E+02  0.36862730429E+02  0.64958576188E+03  0.65165957611E+03  0.00000000000E+00 0.  1.
         14    1    5    5    0    0  0.12076254982E+02 -0.26655849784E+02  0.18598967038E+03  0.18827779410E+03  0.00000000000E+00 0. -1.
         11    1    3    3    0    0 -0.17638701972E+02  0.20054000799E+02 -0.15709263859E+03  0.15934674096E+03  0.00000000000E+00 0. -1.
        -12    1    3    3    0    0 -0.87224267265E+02 -0.36863406138E+02 -0.19714061402E+03  0.21870392134E+03  0.00000000000E+00 0.  1.
          5    1    4    4  501    0  0.39312070517E+02  0.37989295232E+01  0.16631913897E+03  0.17099531907E+03  0.41800000000E+01 0.  1.
         -5    1    4    4    0  501  0.90076285907E+02  0.28035951708E+01  0.29200419664E+02  0.94824755930E+02  0.41800000000E+01 0.  1.
</event>
<event>
11    1  0.5813833E-009  0.1719477E+03  0.7561462E-02  0.1076349E+00
         22   -1    0    0    0    0  0.00000000000E+00  0.00000000000E+00  0.48538047152E+03  0.48538047152E+03  0.00000000000E+00 0. -1.
         22   -1    0    0    0    0 -0.00000000000E+00 -0.00000000000E+00 -0.10526489362E+04  0.10526489362E+04  0.00000000000E+00 0. -1.
        -24    2    1    2    0    0 -0.34784861684E+02 -0.11213072447E+03 -0.99890589711E+03  0.10090659574E+04  0.81350040409E+02 0.  0.
         25    2    1    2    0    0  0.15687589060E+02  0.14576359438E+03  0.18637942276E+03  0.26809800543E+03  0.12508447302E+03 0.  0.
         24    2    1    2    0    0  0.19097272623E+02 -0.33632869910E+02  0.24525800969E+03  0.26086544488E+03  0.80021330001E+02 0.  0.
        -11    1    5    5    0    0 -0.29621274689E+02 -0.25564502721E+02  0.96756550482E+02  0.10436854782E+03  0.00000000000E+00 0.  1.
         12    1    5    5    0    0  0.48718547312E+02 -0.80683671883E+01  0.14850145921E+03  0.15649689706E+03  0.00000000000E+00 0. -1.
         11    1    3    3    0    0 -0.10231505140E+02 -0.83587918261E+02 -0.88715783667E+03  0.89114569569E+03  0.00000000000E+00 0. -1.
        -12    1    3    3    0    0 -0.24553356544E+02 -0.28542806208E+02 -0.11174806044E+03  0.11792026168E+03  0.00000000000E+00 0.  1.
          5    1    4    4  501    0  0.62551934320E+02  0.11832718116E+03  0.10496351105E+03  0.17014369615E+03  0.41800000000E+01 0.  1.
         -5    1    4    4    0  501 -0.46864345260E+02  0.27436413218E+02  0.81415911712E+02  0.97954309281E+02  0.41800000000E+01 0.  1.
</event>
<event>
11    1  0.5813833E-009  0.1960311E+03  0.7561462E-02  0.1057366E+00
         22   -1    0    0    0    0  0.00000000000E+00  0.00000000000E+00  0.16577809647E+03  0.16577809647E+03  0.00000000000E+00 0.  1.
         22   -1    0    0    0    0 -0.00000000000E+00 -0.00000000000E+00 -0.40462932211E+03  0.40462932211E+03  0.00000000000E+00 0.  1.
         24    2    1    2    0    0 -0.16458161887E+02  0.25422803745E+02 -0.17369038889E+03  0.19352522961E+03  0.79790182716E+02 0.  0.
         25    2    1    2    0    0 -0.46422763247E+02 -0.15525445532E+03 -0.52880398804E+02  0.21143082025E+03  0.12509051256E+03 0.  0.
        -24    2    1    2    0    0  0.62880925134E+02  0.12983165157E+03 -0.12280437941E+02  0.16545136872E+03  0.80081694290E+02 0.  0.
        -11    1    3    3    0    0  0.75383190629E+01  0.41911134452E+02 -0.15018669395E+03  0.15610705456E+03  0.00000000000E+00 0.  1.
         12    1    3    3    0    0 -0.23996480950E+02 -0.16488330708E+02 -0.23503694942E+02  0.37418175041E+02  0.00000000000E+00 0. -1.
         13    1    5    5    0    0  0.36070757315E+02  0.56746242666E+01  0.63853153448E+01  0.37068492631E+02  0.00000000000E+00 0. -1.
        -14    1    5    5    0    0  0.26810167819E+02  0.12415702730E+03 -0.18665753286E+02  0.12838287609E+03  0.00000000000E+00 0.  1.
          5    1    4    4  501    0 -0.62586911353E+02 -0.16430781551E+03 -0.66535616454E+02  0.18803893312E+03  0.41800000000E+01 0.  1.
         -5    1    4    4    0  501  0.16164148106E+02  0.90533601952E+01  0.13655217650E+02  0.23391887138E+02  0.41800000000E+01 0.  1.
</event>
<event>
11    1  0.5813833E-009  0.1477817E+03  0.7561462E-02  0.1099167E+00
         22   -1    0    0    0    0  0.00000000000E+00  0.00000000000E+00  0.23059365441E+03  0.23059365441E+03  0.00000000000E+00 0.  1.
         22   -1    0    0    0    0 -0.00000000000E+00 -0.00000000000E+00 -0.19279754791E+03  0.19279754791E+03  0.00000000000E+00 0. -1.
         24    2    1    2    0    0 -0.63453169506E+02  0.37534235865E+02 -0.61355354141E+02  0.12584610320E+03  0.81471704461E+02 0.  0.
         25    2    1    2    0    0  0.73366230357E+02 -0.51001255482E+02 -0.18638319529E+02  0.15484659360E+03  0.12508536595E+03 0.  0.
        -24    2    1    2    0    0 -0.99130608514E+01  0.13467019616E+02  0.11778978018E+03  0.14269850552E+03  0.78795950214E+02 0.  0.
        -13    1    3    3    0    0  0.18813484935E+02  0.52589159263E+01 -0.25573140718E+01  0.19701351917E+02  0.00000000000E+00 0.  1.
         14    1    3    3    0    0 -0.82266654441E+02  0.32275319939E+02 -0.58798040069E+02  0.10614475129E+03  0.00000000000E+00 0. -1.
         13    1    5    5    0    0 -0.49755032172E+01 -0.21624873242E+02  0.27925934121E+01  0.22364913435E+02  0.00000000000E+00 0. -1.
        -14    1    5    5    0    0 -0.49375576342E+01  0.35091892858E+02  0.11499718677E+03  0.12033359208E+03  0.00000000000E+00 0.  1.
          5    1    4    4  501    0 -0.15633117813E+02 -0.13824272909E+02  0.37536243495E+02  0.43150282383E+02  0.41800000000E+01 0. -1.
         -5    1    4    4    0  501  0.88999348170E+02 -0.37176982573E+02 -0.56174563024E+02  0.11169631121E+03  0.41800000000E+01 0. -1.
</event>
<event>
11    1  0.5813833E-009  0.1288406E+03  0.7561462E-02  0.1120702E+00
         22   -1    0    0    0    0  0.00000000000E+00  0.00000000000E+00  0.75142547159E+03  0.75142547159E+03  0.00000000000E+00 0. -1.
         22   -1    0    0    0    0 -0.00000000000E+00 -0.00000000000E+00 -0.94275211470E+03  0.94275211470E+03  0.00000000000E+00 0. -1.
        -24    2    1    2    0    0  0.28619546453E+02 -0.47293086398E+01 -0.82621717454E+03  0.83062888904E+03  0.80424417941E+02 0.  0.
         25    2    1    2    0    0 -0.42461360314E+02  0.31821527029E+02 -0.70109680283E+02  0.15290140462E+03  0.12509154873E+03 0.  0.
         24    2    1    2    0    0  0.13841813861E+02 -0.27092218389E+02  0.70500021171E+03  0.71064729263E+03  0.84075513042E+02 0.  0.
        -13    1    5    5    0    0  0.31146926569E+02  0.20765979355E+02  0.35465730764E+03  0.35662748463E+03  0.00000000000E+00 0.  1.
         14    1    5    5    0    0 -0.17305112708E+02 -0.47858197744E+02  0.35034290407E+03  0.35401980799E+03  0.00000000000E+00 0. -1.
         13    1    3    3    0    0  0.46596501877E+02 -0.27463507480E+02 -0.62485802946E+03  0.62719457524E+03  0.00000000000E+00 0. -1.
        -14    1    3    3    0    0 -0.17976955424E+02  0.22734198840E+02 -0.20135914508E+03  0.20343431380E+03  0.00000000000E+00 0.  1.
          5    1    4    4  501    0 -0.24808082464E+02  0.29933718150E+01  0.34547138766E+02  0.42841316825E+02  0.41800000000E+01 0. -1.
         -5    1    4    4    0  501 -0.17653277850E+02  0.28828155214E+02 -0.10465681905E+03  0.11006008779E+03  0.41800000000E+01 0. -1.
</event>
<event>
11    1  0.5813833E-009  0.1880435E+03  0.7561462E-02  0.1063316E+00
         22   -1    0    0    0    0  0.00000000000E+00  0.00000000000E+00  0.76722372984E+03  0.76722372984E+03  0.00000000000E+00 0.  1.
         22   -1    0    0    0    0 -0.00000000000E+00 -0.00000000000E+00 -0.19537931998E+03  0.19537931998E+03  0.00000000000E+00 0.  1.
         24    2    1    2    0    0  0.34371470598E+01 -0.37246712618E+02 -0.14175396979E+03  0.16675752352E+03  0.79465414609E+02 0.  0.
         25    2    1    2    0    0  0.13248864609E+03  0.61084152357E+02  0.38833498798E+03  0.43328471664E+03  0.12508823994E+03 0.  0.
        -24    2    1    2    0    0 -0.13592579315E+03 -0.23837439739E+02  0.32526339167E+03  0.36256080967E+03  0.81302041622E+02 0.  0.
        -13    1    3    3    0    0  0.32254908506E+02  0.77917813133E+01 -0.67962510423E+02  0.75630640628E+02  0.00000000000E+00 0.  1.
         14    1    3    3    0    0 -0.28817761446E+02 -0.45038493931E+02 -0.73791459366E+02  0.91126882893E+02  0.00000000000E+00 0. -1.
         11    1    5    5    0    0  0.48014077936E+01 -0.66992082653E+01  0.56316660739E+00  0.82613597434E+01  0.00000000000E+00 0. -1.
        -12    1    5    5    0    0 -0.14072720094E+03 -0.17138231473E+02  0.32470022506E+03  0.35429944992E+03  0.00000000000E+00 0.  1.
          5    1    4    4  501    0 -0.37642235461E+01  0.47243810998E+02  0.16068940972E+03  0.16758492131E+03  0.41800000000E+01 0.  1.
         -5    1    4    4    0  501  0.13625286963E+03  0.13840341359E+02  0.22764557826E+03  0.26569979532E+03  0.41800000000E+01 0.  1.
</event>
<event>
11    1  0.5813833E-009  0.1594411E+03  0.7561462E-02  0.1087604E+00
         22   -1    0    0    0    0  0.00000000000E+00  0.00000000000E+00  0.57351322426E+03  0.57351322426E+03  0.00000000000E+00 0.  1.
         22   -1    0    0    0    0 -0.00000000000E+00 -0.00000000000E+00 -0.42696454830E+03  0.42696454830E+03  0.00000000000E+00 0. -1.
         24    2    1    2    0    0  0.58862241593E+02  0.12617924450E+02 -0.37218408091E+03  0.39009784634E+03  0.10015669791E+03 0.  0.
         25    2    1    2    0    0 -0.13565813867E+03  0.28066251315E+02  0.21871125950E+03  0.28752898897E+03  0.12508980540E+03 0.  0.
        -24    2    1    2    0    0  0.76795897077E+02 -0.40684175765E+02  0.30002149738E+03  0.32285093725E+03  0.81651802343E+02 0.  0.
        -13    1    3    3    0    0  0.45051062947E+02  0.45278295514E+02 -0.12490285126E+03  0.14028700785E+03  0.00000000000E+00 0.  1.
         14    1    3    3    0    0  0.13811178645E+02 -0.32660371064E+02 -0.24728122965E+03  0.24981083850E+03  0.00000000000E+00 0. -1.
         11    1    5    5    0    0  0.53104951164E+01 -0.26833034576E+01  0.16716686346E+03  0.16727271658E+03  0.00000000000E+00 0. -1.
        -12    1    5    5    0    0  0.71485401960E+02 -0.38000872308E+02  0.13285463393E+03  0.15557822066E+03  0.00000000000E+00 0.  1.
          5    1    4    4  501    0 -0.34981713539E+02 -0.13993778688E+02  0.15823118420E+03  0.16270871574E+03  0.41800000000E+01 0. -1.
         -5    1    4    4    0  501 -0.10067642513E+03  0.42060030003E+02  0.60480075297E+02  0.12482027323E+03  0.41800000000E+01 0. -1.
</event>
<event>
11    1  0.5813833E-009  0.1402319E+03  0.7561462E-02  0.1107300E+00
         22   -1    0    0    0    0  0.00000000000E+00  0.00000000000E+00  0.59164555239E+03  0.59164555239E+03  0.00000000000E+00 0. -1.
         22   -1    0    0    0    0 -0.00000000000E+00 -0.00000000000E+00 -0.31295516749E+03  0.31295516749E+03  0.00000000000E+00 0.  1.
        -24    2    1    2    0    0 -0.30029179705E+02 -0.40212084464E+02 -0.20160203866E+03  0.22265029886E+03  0.80068784313E+02 0.  0.
         25    2    1    2    0    0  0.60728012358E+02 -0.16490824598E+02 -0.43940867631E+02  0.14675888169E+03  0.12509009044E+03 0.  0.
         24    2    1    2    0    0 -0.30698832653E+02  0.56702909062E+02  0.52423329118E+03  0.53519153933E+03  0.86323820381E+02 0.  0.
        -13    1    5    5    0    0  0.29083564551E+02  0.15238939545E+02  0.21645143573E+03  0.21892762054E+03  0.00000000000E+00 0.  1.
         14    1    5    5    0    0 -0.59782397204E+02  0.41463969517E+02  0.30778185545E+03  0.31626391879E+03  0.00000000000E+00 0. -1.
         11    1    3    3    0    0 -0.18073856454E+02 -0.61865900602E+02 -0.10739983696E+03  0.12525485589E+03  0.00000000000E+00 0. -1.
        -12    1    3    3    0    0 -0.11955323251E+02  0.21653816138E+02 -0.94202201695E+02  0.97395442971E+02  0.00000000000E+00 0.  1.
          5    1    4    4  501    0  0.83099105137E+02 -0.20078062320E+02  0.11839869910E+02  0.86407434753E+02  0.41800000000E+01 0. -1.
         -5    1    4    4    0  501 -0.22371092779E+02  0.35872377221E+01 -0.55780737540E+02  0.60351446935E+02  0.41800000000E+01 0. -1.
</event>
<event>
11    1  0.5813833E-009  0.2220550E+03  0.7561462E-02  0.1039938E+00
         22   -1    0    0    0    0  0.00000000000E+00  0.00000000000E+00  0.16349429863E+04  0.16349429863E+04  0.00000000000E+00 0.  1.
         22   -1    0    0    0    0 -0.00000000000E+00 -0.00000000000E+00 -0.39109626623E+03  0.39109626623E+03  0.00000000000E+00 0.  1.
         24    2    1    2    0    0 -0.25699180623E+02 -0.79469747794E+02 -0.32209530397E+03  0.34230378079E+03  0.80315657319E+02 0.  0.
         25    2    1    2    0    0  0.73039413409E+02 -0.10687989288E+03  0.10582058474E+03  0.20881309100E+03  0.12508734311E+03 0.  0.
        -24    2    1    2    0    0 -0.47340232786E+02  0.18634964068E+03  0.14601214393E+04  0.14749223808E+04  0.80461950287E+02 0.  0.
        -13    1    3    3    0    0 -0.73529903798E+01 -0.58190823201E+02 -0.30229315496E+03  0.30793082000E+03  0.00000000000E+00 0.  1.
         14    1    3    3    0    0 -0.18346190243E+02 -0.21278924593E+02 -0.19802149005E+02  0.34372960790E+02  0.00000000000E+00 0. -1.
         11    1    5    5    0    0 -0.79780612887E+01  0.23869079468E+02  0.63106475434E+02  0.67939750208E+02  0.00000000000E+00 0. -1.
        -12    1    5    5    0    0 -0.39362171497E+02  0.16248056121E+03  0.13970149639E+04  0.14069826306E+04  0.00000000000E+00 0.  1.
          5    1    4    4  501    0 -0.83082314277E+01 -0.79718618610E+02  0.11193342473E+02  0.81036091825E+02  0.41800000000E+01 0.  1.
         -5    1    4    4    0  501  0.81347644837E+02 -0.27161274271E+02  0.94627242265E+02  0.12777699918E+03  0.41800000000E+01 0.  1.
</event>
<event>
11    1  0.5813833E-009  0.2264461E+03  0.7561462E-02  0.1037253E+00
         22   -1    0    0    0    0  0.00000000000E+00  0.00000000000E+00  0.13699382269E+04  0.13699382269E+04  0.00000000000E+00 0. -1.
         22   -1    0    0    0    0 -0.00000000000E+00 -0.00000000000E+00 -0.59406527389E+03  0.59406527389E+03  0.00000000000E+00 0.  1.
         24    2    1    2    0    0 -0.44141521633E+02 -0.22668196721E+02 -0.41294117280E+03  0.42313297410E+03  0.77838168687E+02 0.  0.
         25    2    1    2    0    0  0.22072412611E+03  0.82511987477E+02 -0.61653747080E+02  0.27381748342E+03  0.12508981483E+03 0.  0.
        -24    2    1    2    0    0 -0.17658260447E+03 -0.59843790756E+02  0.12504678728E+04  0.12670530432E+04  0.83611110962E+02 0.  0.
        -11    1    3    3    0    0 -0.58913148736E+02 -0.17922089557E+01 -0.19545900471E+03  0.20415237845E+03  0.00000000000E+00 0.  1.
         12    1    3    3    0    0  0.14771627104E+02 -0.20875987765E+02 -0.21748216809E+03  0.21898059565E+03  0.00000000000E+00 0. -1.
         11    1    5    5    0    0 -0.18565639976E+03 -0.53596970601E+02  0.11907222407E+04  0.12063002896E+04  0.00000000000E+00 0. -1.
        -12    1    5    5    0    0  0.90737952827E+01 -0.62468201551E+01  0.59745632122E+02  0.60752753686E+02  0.00000000000E+00 0.  1.
          5    1    4    4  501    0  0.14356975276E+03  0.10770542867E+03 -0.15110506482E+02  0.18016251852E+03  0.41800000000E+01 0.  1.
         -5    1    4    4    0  501  0.77154373346E+02 -0.25193441189E+02 -0.46543240598E+02  0.93654964901E+02  0.41800000000E+01 0.  1.
</event>
<event>
11    1  0.5813833E-009  0.2280046E+03  0.7561462E-02  0.1036316E+00
         22   -1    0    0    0    0  0.00000000000E+00  0.00000000000E+00  0.21293334632E+04  0.21293334632E+04  0.00000000000E+00 0. -1.
         22   -1    0    0    0    0 -0.00000000000E+00 -0.00000000000E+00 -0.96578269247E+02  0.96578269247E+02  0.00000000000E+00 0.  1.
         24    2    1    2    0    0  0.17460711519E+03 -0.11507904863E+03  0.19957950735E+03  0.29985182388E+03  0.79676247544E+02 0.  0.
         25    2    1    2    0    0 -0.85512698419E+01  0.21905177615E+03  0.37127211903E+03  0.44893991410E+03  0.12508898931E+03 0.  0.
        -24    2    1    2    0    0 -0.16605584534E+03 -0.10397272753E+03  0.14619035676E+04  0.14771199945E+04  0.79602546152E+02 0.  0.
        -13    1    3    3    0    0  0.17872833024E+02 -0.42743417414E+02  0.70273293484E+02  0.84171097591E+02  0.00000000000E+00 0.  1.
         14    1    3    3    0    0  0.15673428216E+03 -0.72335631212E+02  0.12930621387E+03  0.21568072629E+03  0.00000000000E+00 0. -1.
         11    1    5    5    0    0 -0.16398139775E+03 -0.10550754735E+03  0.12430144759E+04  0.12582156925E+04  0.00000000000E+00 0. -1.
        -12    1    5    5    0    0 -0.20744475937E+01  0.15348198282E+01  0.21888909165E+03  0.21890430203E+03  0.00000000000E+00 0.  1.
          5    1    4    4  501    0  0.18768297541E+02  0.24306981330E+02  0.26294682891E+01  0.31104096795E+02  0.41800000000E+01 0. -1.
         -5    1    4    4    0  501 -0.27319567383E+02  0.19474479482E+03  0.36864265074E+03  0.41783581730E+03  0.41800000000E+01 0. -1.
</event>
<event>
11    1  0.5813833E-009  0.1452392E+03  0.7561462E-02  0.1101845E+00
         22   -1    0    0    0    0  0.00000000000E+00  0.00000000000E+00  0.97221226622E+02  0.97221226622E+02  0.00000000000E+00 0. -1.
         22   -1    0    0    0    0 -0.00000000000E+00 -0.00000000000E+00 -0.11465235867E+04  0.11465235867E+04  0.00000000000E+00 0.  1.
        -24    2    1    2    0    0 -0.56106022201E+02  0.51094675492E+02 -0.86940668396E+03  0.87661700590E+03  0.82648903983E+02 0.  0.
         25    2    1    2    0    0  0.71579159337E+02 -0.10346310626E+02 -0.22446677507E+03  0.26695329653E+03  0.12509239476E+03 0.  0.
         24    2    1    2    0    0 -0.15473137136E+02 -0.40748364866E+02  0.44571098926E+02  0.10017451091E+03  0.78412387825E+02 0.  0.
        -13    1    5    5    0    0  0.30353926549E+01 -0.57303183513E+02  0.11017547231E+02  0.58431624968E+02  0.00000000000E+00 0.  1.
         14    1    5    5    0    0 -0.18508529791E+02  0.16554818647E+02  0.33553551695E+02  0.41742885942E+02  0.00000000000E+00 0. -1.
         11    1    3    3    0    0 -0.23272270254E+02  0.69681194983E+02 -0.51633329185E+03  0.52153344645E+03  0.00000000000E+00 0. -1.
        -12    1    3    3    0    0 -0.32833751948E+02 -0.18586519492E+02 -0.35307339211E+03  0.35508355945E+03  0.00000000000E+00 0.  1.
          5    1    4    4  501    0  0.51229013294E+01 -0.59643416935E+02 -0.11446990547E+03  0.12924555296E+03  0.41800000000E+01 0. -1.
         -5    1    4    4    0  501  0.66456258007E+02  0.49297106309E+02 -0.10999686960E+03  0.13770774357E+03  0.41800000000E+01 0. -1.
</event>
<event>
11    1  0.5813833E-009  0.1292982E+03  0.7561462E-02  0.1120134E+00
         22   -1    0    0    0    0  0.00000000000E+00  0.00000000000E+00  0.28433170933E+03  0.28433170933E+03  0.00000000000E+00 0.  1.
         22   -1    0    0    0    0 -0.00000000000E+00 -0.00000000000E+00 -0.52265285778E+03  0.52265285778E+03  0.00000000000E+00 0. -1.
         24    2    1    2    0    0  0.62170419631E+01  0.49054139619E+01 -0.47774817080E+03  0.48469808111E+03  0.81401476843E+02 0.  0.
         25    2    1    2    0    0 -0.35753235712E+02  0.40575072882E+01  0.14029443513E+03  0.19137990312E+03  0.12509588947E+03 0.  0.
        -24    2    1    2    0    0  0.29536193749E+02 -0.89629212501E+01  0.99132587224E+02  0.13090658287E+03  0.79727930427E+02 0.  0.
        -11    1    3    3    0    0  0.25342068466E+02  0.33592573951E+02 -0.17476487169E+03  0.17975939985E+03  0.00000000000E+00 0.  1.
         12    1    3    3    0    0 -0.19125026503E+02 -0.28687159989E+02 -0.30298329911E+03  0.30493868126E+03  0.00000000000E+00 0. -1.
         13    1    5    5    0    0  0.53106166502E+02  0.98477586589E+01  0.52152247394E+02  0.75080624527E+02  0.00000000000E+00 0. -1.
        -14    1    5    5    0    0 -0.23569972753E+02 -0.18810679909E+02  0.46980339831E+02  0.55825958342E+02  0.00000000000E+00 0.  1.
          5    1    4    4  501    0  0.15558566326E+02  0.39572348063E+02  0.58822089587E+01  0.43129021547E+02  0.41800000000E+01 0. -1.
         -5    1    4    4    0  501 -0.51311802039E+02 -0.35514840775E+02  0.13441222617E+03  0.14825088157E+03  0.41800000000E+01 0. -1.
</event>
<event>
11    1  0.5813833E-009  0.2075054E+03  0.7561462E-02  0.1049339E+00
         22   -1    0    0    0    0  0.00000000000E+00  0.00000000000E+00  0.27015852226E+03  0.27015852226E+03  0.00000000000E+00 0.  1.
         22   -1    0    0    0    0 -0.00000000000E+00 -0.00000000000E+00 -0.12098481867E+04  0.12098481867E+04  0.00000000000E+00 0. -1.
         24    2    1    2    0    0 -0.58920046206E+02  0.15502239640E+03 -0.10646047417E+04  0.10810232636E+04  0.87889278534E+02 0.  0.
         25    2    1    2    0    0  0.70161380762E+02 -0.14742679636E+03 -0.46232211777E+02  0.21081183949E+03  0.12508770773E+03 0.  0.
        -24    2    1    2    0    0 -0.11241334556E+02 -0.75956000424E+01  0.17114728897E+03  0.18817160590E+03  0.77026605813E+02 0.  0.
        -13    1    3    3    0    0 -0.50921507756E+02  0.43961931109E+02 -0.25198973179E+03  0.26081502309E+03  0.00000000000E+00 0.  1.
         14    1    3    3    0    0 -0.79985384499E+01  0.11106046529E+03 -0.81261500987E+03  0.82020824053E+03  0.00000000000E+00 0. -1.
         13    1    5    5    0    0 -0.20782679227E+02  0.11755294333E+02  0.10502829310E+02  0.26084787219E+02  0.00000000000E+00 0. -1.
        -14    1    5    5    0    0  0.95413446713E+01 -0.19350894376E+02  0.16064445966E+03  0.16208681868E+03  0.00000000000E+00 0.  1.
          5    1    4    4  501    0  0.43999458247E+02 -0.82696076593E+02  0.38133542880E+02  0.10122367758E+03  0.41800000000E+01 0.  1.
         -5    1    4    4    0  501  0.26161922516E+02 -0.64730719768E+02 -0.84365754657E+02  0.10958816191E+03  0.41800000000E+01 0.  1.
</event>
<event>
11    1  0.5813833E-009  0.2032905E+03  0.7561462E-02  0.1052221E+00
         22   -1    0    0    0    0  0.00000000000E+00  0.00000000000E+00  0.38123105224E+03  0.38123105224E+03  0.00000000000E+00 0.  1.
         22   -1    0    0    0    0 -0.00000000000E+00 -0.00000000000E+00 -0.48167543155E+03  0.48167543155E+03  0.00000000000E+00 0. -1.
         24    2    1    2    0    0  0.30680792064E+01  0.16629781205E+03 -0.38715349117E+03  0.42958747698E+03  0.83625350523E+02 0.  0.
         25    2    1    2    0    0 -0.36881085794E+02 -0.12267490943E+03  0.63906622306E+02  0.19010715523E+03  0.12508927293E+03 0.  0.
        -24    2    1    2    0    0  0.33813006588E+02 -0.43622902613E+02  0.22280248955E+03  0.24321185157E+03  0.80403845365E+02 0.  0.
        -11    1    3    3    0    0 -0.22281278904E+02  0.17288817173E+02 -0.27177783228E+02  0.39166190650E+02  0.00000000000E+00 0.  1.
         12    1    3    3    0    0  0.25349358111E+02  0.14900899487E+03 -0.35997570794E+03  0.39042128633E+03  0.00000000000E+00 0. -1.
         11    1    5    5    0    0 -0.37445402814E+01  0.95671855659E+01  0.12677227598E+03  0.12718790264E+03  0.00000000000E+00 0. -1.
        -12    1    5    5    0    0  0.37557546869E+02 -0.53190088179E+02  0.96030213573E+02  0.11602394893E+03  0.00000000000E+00 0.  1.
          5    1    4    4  501    0 -0.27790648935E+02  0.15472403916E+02 -0.93537763548E+01  0.33416776973E+02  0.41800000000E+01 0.  1.
         -5    1    4    4    0  501 -0.90904368594E+01 -0.13814731335E+03  0.73260398660E+02  0.15669037826E+03  0.41800000000E+01 0.  1.
</event>
<event>
11    1  0.5813833E-009  0.3211179E+03  0.7561462E-02  0.9916296E-01
         22   -1    0    0    0    0  0.00000000000E+00  0.00000000000E+00  0.12767154160E+03  0.12767154160E+03  0.00000000000E+00 0. -1.
         22   -1    0    0    0    0 -0.00000000000E+00 -0.00000000000E+00 -0.17013556215E+04  0.17013556215E+04  0.00000000000E+00 0. -1.
         24    2    1    2    0    0  0.57985143784E+02 -0.30657035381E+03 -0.12293540309E+04  0.12704853093E+04  0.73986004827E+02 0.  0.
         25    2    1    2    0    0 -0.14448778707E+02  0.25712531283E+03 -0.35570793975E+03  0.45661431855E+03  0.12508518616E+03 0.  0.
        -24    2    1    2    0    0 -0.43536365076E+02  0.49445040975E+02  0.11377890756E+02  0.10192753533E+03  0.76938539750E+02 0.  0.
        -13    1    3    3    0    0 -0.62967731496E+01 -0.12388978742E+03 -0.39857537227E+03  0.41743341524E+03  0.00000000000E+00 0.  1.
         14    1    3    3    0    0  0.64281916933E+02 -0.18268056639E+03 -0.83077865867E+03  0.85305189402E+03  0.00000000000E+00 0. -1.
         13    1    5    5    0    0 -0.27321910550E+02  0.30686221820E+01  0.37332400987E+02  0.46363901924E+02  0.00000000000E+00 0. -1.
        -14    1    5    5    0    0 -0.16214454526E+02  0.46376418793E+02 -0.25954510231E+02  0.55563633403E+02  0.00000000000E+00 0.  1.
          5    1    4    4  501    0 -0.49522636357E+02  0.33604125991E+02 -0.72765894438E+02  0.94308412078E+02  0.41800000000E+01 0. -1.
         -5    1    4    4    0  501  0.35073857649E+02  0.22352118684E+03 -0.28294204531E+03  0.36230590647E+03  0.41800000000E+01 0. -1.
</event>
<event>
11    1  0.5813833E-009  0.1557217E+03  0.7561462E-02  0.1091172E+00
         22   -1    0    0    0    0  0.00000000000E+00  0.00000000000E+00  0.46864223798E+03  0.46864223798E+03  0.00000000000E+00 0.  1.
         22   -1    0    0    0    0 -0.00000000000E+00 -0.00000000000E+00 -0.53627294271E+03  0.53627294271E+03  0.00000000000E+00 0. -1.
         24    2    1    2    0    0 -0.18736271247E+02  0.14107792907E+02 -0.47822655273E+03  0.48554571136E+03  0.80646911949E+02 0.  0.
         25    2    1    2    0    0 -0.77539913657E+02 -0.28351121276E+02  0.10573440644E+03  0.18342422689E+03  0.12509379689E+03 0.  0.
        -24    2    1    2    0    0  0.96276184904E+02  0.14243328369E+02  0.30486144156E+03  0.33594524244E+03  0.10220925194E+03 0.  0.
        -13    1    3    3    0    0 -0.11039581537E+02 -0.27871485004E+02 -0.87453677247E+02  0.92449108708E+02  0.00000000000E+00 0.  1.
         14    1    3    3    0    0 -0.76966897107E+01  0.41979277912E+02 -0.39077287548E+03  0.39309660266E+03  0.00000000000E+00 0. -1.
         11    1    5    5    0    0  0.50900661791E+02 -0.40494064111E+02  0.10188775217E+03  0.12087911582E+03  0.00000000000E+00 0. -1.
        -12    1    5    5    0    0  0.45375523113E+02  0.54737392479E+02  0.20297368939E+03  0.21506612662E+03  0.00000000000E+00 0.  1.
          5    1    4    4  501    0 -0.66539239922E+01  0.16664436228E+02 -0.23122106929E+02  0.29564884037E+02  0.41800000000E+01 0. -1.
         -5    1    4    4    0  501 -0.70885989665E+02 -0.45015557504E+02  0.12885651336E+03  0.15385934286E+03  0.41800000000E+01 0. -1.
</event>
<event>
11    1  0.5813833E-009  0.1449941E+03  0.7561462E-02  0.1102106E+00
         22   -1    0    0    0    0  0.00000000000E+00  0.00000000000E+00  0.12236585625E+03  0.12236585625E+03  0.00000000000E+00 0. -1.
         22   -1    0    0    0    0 -0.00000000000E+00 -0.00000000000E+00 -0.13638108405E+04  0.13638108405E+04  0.00000000000E+00 0. -1.
        -24    2    1    2    0    0 -0.20442605112E+02 -0.27705656813E+02 -0.11628219150E+04  0.11660297247E+04  0.79278051693E+02 0.  0.
         25    2    1    2    0    0  0.56374654105E+02  0.84891233909E+02 -0.12658085790E+03  0.20507359242E+03  0.12509133264E+03 0.  0.
         24    2    1    2    0    0 -0.35932048993E+02 -0.57185577095E+02  0.47957788644E+02  0.11507337959E+03  0.79878850925E+02 0.  0.
        -11    1    5    5    0    0  0.26956715381E+01  0.18736774787E+02  0.45574402519E+01  0.19470583866E+02  0.00000000000E+00 0.  1.
         12    1    5    5    0    0 -0.38627720531E+02 -0.75922351882E+02  0.43400348393E+02  0.95602795719E+02  0.00000000000E+00 0. -1.
         11    1    3    3    0    0  0.26996880052E+02 -0.27916329257E+02 -0.55860781238E+03  0.55995610634E+03  0.00000000000E+00 0. -1.
        -12    1    3    3    0    0 -0.47439485164E+02  0.21067244378E+00 -0.60421410259E+03  0.60607361839E+03  0.00000000000E+00 0.  1.
          5    1    4    4  501    0 -0.19154577147E+02  0.29771846601E+02  0.12202938469E+02  0.37678173828E+02  0.41800000000E+01 0.  1.
         -5    1    4    4    0  501  0.75529231252E+02  0.55119387307E+02 -0.13878379637E+03  0.16739541859E+03  0.41800000000E+01 0.  1.
</event>
<event>
11    1  0.5813833E-009  0.1442109E+03  0.7561462E-02  0.1102945E+00
         22   -1    0    0    0    0  0.00000000000E+00  0.00000000000E+00  0.71210422092E+02  0.71210422092E+02  0.00000000000E+00 0.  1.
         22   -1    0    0    0    0 -0.00000000000E+00 -0.00000000000E+00 -0.89653101241E+03  0.89653101241E+03  0.00000000000E+00 0. -1.
         24    2    1    2    0    0 -0.31623278831E+02 -0.28267290698E+02 -0.55900520359E+03  0.56509556069E+03  0.71042969928E+02 0.  0.
         25    2    1    2    0    0  0.86759356697E+02 -0.14521458636E+02 -0.24713831946E+03  0.29062455579E+03  0.12508886741E+03 0.  0.
        -24    2    1    2    0    0 -0.55136077866E+02  0.42788749335E+02 -0.19177067273E+02  0.11202131803E+03  0.85499424741E+02 0.  0.
        -13    1    3    3    0    0  0.14564646770E+02 -0.33081758034E+02 -0.26208981459E+03  0.26457060034E+03  0.00000000000E+00 0.  1.
         14    1    3    3    0    0 -0.46187925601E+02  0.48144673359E+01 -0.29691538900E+03  0.30052496035E+03  0.00000000000E+00 0. -1.
         11    1    5    5    0    0 -0.51268019155E+02  0.23445041740E+02 -0.50048654585E+02  0.75385327458E+02  0.00000000000E+00 0. -1.
        -12    1    5    5    0    0 -0.38680587114E+01  0.19343707594E+02  0.30871587313E+02  0.36635990568E+02  0.00000000000E+00 0.  1.
          5    1    4    4  501    0  0.10448752570E+03 -0.47696015343E+02 -0.19120474815E+03  0.22309029791E+03  0.41800000000E+01 0. -1.
         -5    1    4    4    0  501 -0.17728169000E+02  0.33174556707E+02 -0.55933571310E+02  0.67534257887E+02  0.41800000000E+01 0. -1.
</event>
<event>
11    1  0.5813833E-009  0.1642418E+03  0.7561462E-02  0.1083154E+00
         22   -1    0    0    0    0  0.00000000000E+00  0.00000000000E+00  0.31412414791E+03  0.31412414791E+03  0.00000000000E+00 0.  1.
         22   -1    0    0    0    0 -0.00000000000E+00 -0.00000000000E+00 -0.20977791108E+04  0.20977791108E+04  0.00000000000E+00 0.  1.
        -24    2    1    2    0    0 -0.21102175842E+02  0.12085291112E+03 -0.12627148338E+04  0.12712525837E+04  0.81139707088E+02 0.  0.
         25    2    1    2    0    0  0.40168666664E+02 -0.73175845724E+02 -0.81643536971E+03  0.83016939642E+03  0.12508512167E+03 0.  0.
         24    2    1    2    0    0 -0.19066490823E+02 -0.47677065395E+02  0.29549524059E+03  0.31048127863E+03  0.80277976645E+02 0.  0.
        -13    1    5    5    0    0 -0.17828403320E+02 -0.55172594493E+02  0.29710976822E+03  0.30271452149E+03  0.00000000000E+00 0.  1.
         14    1    5    5    0    0 -0.12380875031E+01  0.74955290978E+01 -0.16145276292E+01  0.77667571474E+01  0.00000000000E+00 0. -1.
         11    1    3    3    0    0 -0.25373232201E+02  0.94701612766E+02 -0.59589577618E+03  0.60390725483E+03  0.00000000000E+00 0. -1.
        -12    1    3    3    0    0  0.42710563597E+01  0.26151298354E+02 -0.66681905763E+03  0.66734532886E+03  0.00000000000E+00 0.  1.
          5    1    4    4  501    0  0.67812811910E+02 -0.42019138805E+02 -0.25604492145E+03  0.26821756036E+03  0.41800000000E+01 0. -1.
         -5    1    4    4    0  501 -0.27644145245E+02 -0.31156706919E+02 -0.56039044825E+03  0.56195183606E+03  0.41800000000E+01 0. -1.
</event>
<event>
11    1  0.5813833E-009  0.1891297E+03  0.7561462E-02  0.1062488E+00
         22   -1    0    0    0    0  0.00000000000E+00  0.00000000000E+00  0.12603041005E+04  0.12603041005E+04  0.00000000000E+00 0.  1.
         22   -1    0    0    0    0 -0.00000000000E+00 -0.00000000000E+00 -0.13261688701E+04  0.13261688701E+04  0.00000000000E+00 0. -1.
         24    2    1    2    0    0 -0.44886397612E+02  0.68346393279E+02 -0.12344214737E+04  0.12397276030E+04  0.80262921998E+02 0.  0.
         25    2    1    2    0    0  0.64072062957E+02  0.76364031375E+02 -0.61112041014E+01  0.16006768387E+03  0.12509045553E+03 0.  0.
        -24    2    1    2    0    0 -0.19185665345E+02 -0.14471042465E+03  0.11746679082E+04  0.11866776837E+04  0.83964479693E+02 0.  0.
        -13    1    3    3    0    0  0.21118427322E+02  0.54045127600E+01 -0.32994956533E+03  0.33066888633E+03  0.00000000000E+00 0.  1.
         14    1    3    3    0    0 -0.66004824934E+02  0.62941880519E+02 -0.90447190837E+03  0.90905871662E+03  0.00000000000E+00 0. -1.
         11    1    5    5    0    0 -0.13241993891E+01 -0.20139435602E+02  0.37666091034E+02  0.42732713279E+02  0.00000000000E+00 0. -1.
        -12    1    5    5    0    0 -0.17861465956E+02 -0.12457098905E+03  0.11370018171E+04  0.11439449704E+04  0.00000000000E+00 0.  1.
          5    1    4    4  501    0  0.33546696016E+02  0.33821520678E+01 -0.56681377007E+02  0.66083815459E+02  0.41800000000E+01 0.  1.
         -5    1    4    4    0  501  0.30525366941E+02  0.72981879307E+02  0.50570172906E+02  0.93983868412E+02  0.41800000000E+01 0.  1.
</event>
<event>
11    1  0.5813833E-009  0.1743751E+03  0.7561462E-02  0.1074286E+00
         22   -1    0    0    0    0  0.00000000000E+00  0.00000000000E+00  0.15668730946E+04  0.15668730946E+04  0.00000000000E+00 0. -1.
         22   -1    0    0    0    0 -0.00000000000E+00 -0.00000000000E+00 -0.10861950187E+03  0.10861950187E+03  0.00000000000E+00 0.  1.
         24    2    1    2    0    0  0.89512418516E+02 -0.90389245008E+02  0.38496635765E+02  0.15601685560E+03  0.81710339509E+02 0.  0.
         25    2    1    2    0    0 -0.11642361741E+03  0.35046236395E+02  0.11099727022E+03  0.20676224903E+03  0.12509011251E+03 0.  0.
        -24    2    1    2    0    0  0.26911198899E+02  0.55343008613E+02  0.13087596868E+04  0.13127134919E+04  0.81103223307E+02 0.  0.
        -11    1    3    3    0    0  0.71988093455E+02 -0.14829469695E+02  0.21937103460E+02  0.76703554539E+02  0.00000000000E+00 0.  1.
         12    1    3    3    0    0  0.17524325061E+02 -0.75559775313E+02  0.16559532305E+02  0.79313301056E+02  0.00000000000E+00 0. -1.
         11    1    5    5    0    0  0.41595186400E+02  0.67131852144E+02  0.11728003411E+04  0.11754562881E+04  0.00000000000E+00 0. -1.
        -12    1    5    5    0    0 -0.14683987502E+02 -0.11788843531E+02  0.13595934562E+03  0.13725720376E+03  0.00000000000E+00 0.  1.
          5    1    4    4  501    0 -0.65111732628E+02  0.75267167927E+01  0.12976880503E+03  0.14544278720E+03  0.41800000000E+01 0. -1.
         -5    1    4    4    0  501 -0.51311884786E+02  0.27519519602E+02 -0.18771534804E+02  0.61319461824E+02  0.41800000000E+01 0. -1.
</event>
<event>
11    1  0.5813833E-009  0.1475771E+03  0.7561462E-02  0.1099380E+00
         22   -1    0    0    0    0  0.00000000000E+00  0.00000000000E+00  0.60794773049E+02  0.60794773049E+02  0.00000000000E+00 0.  1.
         22   -1    0    0    0    0 -0.00000000000E+00 -0.00000000000E+00 -0.32308908226E+04  0.32308908226E+04  0.00000000000E+00 0.  1.
         24    2    1    2    0    0 -0.76293550624E+01  0.24238670866E+02 -0.27434724737E+04  0.27449887891E+04  0.87615741086E+02 0.  0.
         25    2    1    2    0    0  0.11137601203E+02 -0.99121713490E+02 -0.40533018364E+03  0.43576208314E+03  0.12508746972E+03 0.  0.
        -24    2    1    2    0    0 -0.35082461405E+01  0.74883042624E+02 -0.21293392190E+02  0.11093472340E+03  0.78951418234E+02 0.  0.
        -11    1    3    3    0    0  0.37282707249E+02  0.51924225460E+01 -0.16490732007E+04  0.16495027683E+04  0.00000000000E+00 0.  1.
         12    1    3    3    0    0 -0.44912062312E+02  0.19046248320E+02 -0.10943992730E+04  0.10954860207E+04  0.00000000000E+00 0. -1.
         11    1    5    5    0    0  0.17707555580E+02 -0.88546684370E+01 -0.13991695376E+02  0.24243147841E+02  0.00000000000E+00 0. -1.
        -12    1    5    5    0    0 -0.21215801721E+02  0.83737711061E+02 -0.73016968142E+01  0.86691575558E+02  0.00000000000E+00 0.  1.
          5    1    4    4  501    0  0.17688097888E+02 -0.12649533613E+03 -0.28885986966E+03  0.31586616718E+03  0.41800000000E+01 0.  1.
         -5    1    4    4    0  501 -0.65504966847E+01  0.27373622641E+02 -0.11647031398E+03  0.11989591595E+03  0.41800000000E+01 0.  1.
</event>
<event>
11    1  0.5813833E-009  0.1348793E+03  0.7561462E-02  0.1113415E+00
         22   -1    0    0    0    0  0.00000000000E+00  0.00000000000E+00  0.22307912190E+03  0.22307912190E+03  0.00000000000E+00 0.  1.
         22   -1    0    0    0    0 -0.00000000000E+00 -0.00000000000E+00 -0.80904046122E+03  0.80904046122E+03  0.00000000000E+00 0. -1.
         24    2    1    2    0    0 -0.36361834689E+02  0.37450981073E+02 -0.74810418987E+03  0.75420264903E+03  0.80230903658E+02 0.  0.
         25    2    1    2    0    0 -0.18852281226E+02 -0.11969749288E+02  0.53421875046E+02  0.13783962286E+03  0.12508869450E+03 0.  0.
        -24    2    1    2    0    0  0.55214115914E+02 -0.25481231786E+02  0.10872097551E+03  0.14007731123E+03  0.64058651529E+02 0.  0.
        -11    1    3    3    0    0 -0.29023857926E+01  0.13588019364E+02 -0.17051580615E+02  0.21995784028E+02  0.00000000000E+00 0.  1.
         12    1    3    3    0    0 -0.33459448896E+02  0.23862961709E+02 -0.73105260925E+03  0.73220686500E+03  0.00000000000E+00 0. -1.
         13    1    5    5    0    0 -0.13937367879E+02 -0.10084732202E+02  0.17042684161E+02  0.24215803320E+02  0.00000000000E+00 0. -1.
        -14    1    5    5    0    0  0.69151483794E+02 -0.15396499584E+02  0.91678291350E+02  0.11586150791E+03  0.00000000000E+00 0.  1.
          5    1    4    4  501    0  0.46786860119E+02 -0.24626654498E+02  0.14416282944E+01  0.53056885356E+02  0.41800000000E+01 0. -1.
         -5    1    4    4    0  501 -0.65639141344E+02  0.12656905210E+02  0.51980246752E+02  0.84782737502E+02  0.41800000000E+01 0. -1.
</event>
<event>
11    1  0.5813833E-009  0.1383414E+03  0.7561462E-02  0.1109425E+00
         22   -1    0    0    0    0  0.00000000000E+00  0.00000000000E+00  0.44528741146E+03  0.44528741146E+03  0.00000000000E+00 0. -1.
         22   -1    0    0    0    0 -0.00000000000E+00 -0.00000000000E+00 -0.33575330966E+03  0.33575330966E+03  0.00000000000E+00 0. -1.
        -24    2    1    2    0    0 -0.41324464176E+01 -0.21055512032E+02 -0.24730930623E+03  0.26230046425E+03  0.84730330441E+02 0.  0.
         25    2    1    2    0    0  0.21423914844E+02  0.75918447756E+02 -0.20739905291E+01  0.14789541931E+03  0.12508460648E+03 0.  0.
         24    2    1    2    0    0 -0.17291468427E+02 -0.54862935724E+02  0.35891739856E+03  0.37084483756E+03  0.73452419668E+02 0.  0.
        -11    1    5    5    0    0  0.40314193003E+01 -0.43620460300E+02  0.82772032040E+02  0.93649378996E+02  0.00000000000E+00 0.  1.
         12    1    5    5    0    0 -0.21322887727E+02 -0.11242475424E+02  0.27614536652E+03  0.27719545856E+03  0.00000000000E+00 0. -1.
         11    1    3    3    0    0  0.21375071458E+02  0.48063423359E+00 -0.21426299983E+03  0.21532709487E+03  0.00000000000E+00 0. -1.
        -12    1    3    3    0    0 -0.25507517876E+02 -0.21536146265E+02 -0.33046306403E+02  0.46973369381E+02  0.00000000000E+00 0.  1.
          5    1    4    4  501    0  0.65511483907E+01  0.64390999077E+02  0.56633620552E+02  0.86104341843E+02  0.41800000000E+01 0.  1.
         -5    1    4    4    0  501  0.14872766454E+02  0.11527448679E+02 -0.58707611082E+02  0.61791077462E+02  0.41800000000E+01 0.  1.
</event>
<event>
11    1  0.5813833E-009  0.1436358E+03  0.7561462E-02  0.1103565E+00
         22   -1    0    0    0    0  0.00000000000E+00  0.00000000000E+00  0.13605117816E+04  0.13605117816E+04  0.00000000000E+00 0.  1.
         22   -1    0    0    0    0 -0.00000000000E+00 -0.00000000000E+00 -0.14216934950E+03  0.14216934950E+03  0.00000000000E+00 0.  1.
         24    2    1    2    0    0  0.95287378289E+01 -0.38287019460E+02 -0.10576986123E+03  0.13747955543E+03  0.78464462740E+02 0.  0.
         25    2    1    2    0    0  0.17197859175E+02  0.98918963292E+02  0.34472140637E+03  0.38021352058E+03  0.12509494619E+03 0.  0.
        -24    2    1    2    0    0 -0.26726597004E+02 -0.60631943832E+02  0.97939088692E+03  0.98498805504E+03  0.81267555554E+02 0.  0.
        -13    1    3    3    0    0 -0.18483282620E+02 -0.41627552079E+02 -0.98234900382E+02  0.10828010196E+03  0.00000000000E+00 0.  1.
         14    1    3    3    0    0  0.28012020449E+02  0.33405326185E+01 -0.75349608494E+01  0.29199453467E+02  0.00000000000E+00 0. -1.
         13    1    5    5    0    0 -0.16289020454E+02 -0.68151281448E+02  0.44844747292E+03  0.45388882485E+03  0.00000000000E+00 0. -1.
        -14    1    5    5    0    0 -0.10437576550E+02  0.75193376160E+01  0.53094341400E+03  0.53109923019E+03  0.00000000000E+00 0.  1.
          5    1    4    4  501    0  0.38731125051E+02  0.85712506518E+02  0.11300203141E+03  0.14708387174E+03  0.41800000000E+01 0. -1.
         -5    1    4    4    0  501 -0.21533265876E+02  0.13206456773E+02  0.23171937496E+03  0.23312964884E+03  0.41800000000E+01 0. -1.
</event>
<event>
11    1  0.5813833E-009  0.1472183E+03  0.7561462E-02  0.1099755E+00
         22   -1    0    0    0    0  0.00000000000E+00  0.00000000000E+00  0.83664915094E+02  0.83664915094E+02  0.00000000000E+00 0.  1.
         22   -1    0    0    0    0 -0.00000000000E+00 -0.00000000000E+00 -0.16550826806E+04  0.16550826806E+04  0.00000000000E+00 0.  1.
        -24    2    1    2    0    0 -0.58276672886E+01  0.75552669253E+02 -0.11934394346E+04  0.11984657503E+04  0.79248362734E+02 0.  0.
         25    2    1    2    0    0 -0.63087644279E+02 -0.10392562374E+03 -0.38809397327E+03  0.42549340004E+03  0.12508842975E+03 0.  0.
         24    2    1    2    0    0  0.68915311568E+02  0.28372954487E+02  0.10115642356E+02  0.11478844538E+03  0.86716297536E+02 0.  0.
        -13    1    5    5    0    0  0.24249274239E+02  0.47193538570E+02  0.31616259707E+02  0.61764433630E+02  0.00000000000E+00 0.  1.
         14    1    5    5    0    0  0.44666037328E+02 -0.18820584083E+02 -0.21500617351E+02  0.53024011752E+02  0.00000000000E+00 0. -1.
         11    1    3    3    0    0 -0.24196420869E+01 -0.43869565321E+00  0.14167933543E+00  0.24631676230E+01  0.00000000000E+00 0. -1.
        -12    1    3    3    0    0 -0.34080252017E+01  0.75991364906E+02 -0.11935811140E+04  0.11960025827E+04  0.00000000000E+00 0.  1.
          5    1    4    4  501    0 -0.64756740846E+02 -0.59592591242E+02 -0.36464860793E+03  0.37514102959E+03  0.41800000000E+01 0. -1.
         -5    1    4    4    0  501  0.16690965667E+01 -0.44333032498E+02 -0.23445365335E+02  0.50352370446E+02  0.41800000000E+01 0. -1.
</event>
<event>
11    1  0.5813833E-009  0.1339526E+03  0.7561462E-02  0.1114506E+00
         22   -1    0    0    0    0  0.00000000000E+00  0.00000000000E+00  0.10944250924E+04  0.10944250924E+04  0.00000000000E+00 0.  1.
         22   -1    0    0    0    0 -0.00000000000E+00 -0.00000000000E+00 -0.30188456942E+03  0.30188456942E+03  0.00000000000E+00 0.  1.
         24    2    1    2    0    0  0.12633481361E+02  0.43749739284E+02 -0.24056062852E+03  0.25794971366E+03  0.81209569896E+02 0.  0.
         25    2    1    2    0    0 -0.11645813391E+02 -0.77081376467E+02  0.56826114285E+02  0.15796592564E+03  0.12508742075E+03 0.  0.
        -24    2    1    2    0    0 -0.98766796947E+00  0.33331637183E+02  0.97627503717E+03  0.98039402248E+03  0.83351770212E+02 0.  0.
        -11    1    3    3    0    0  0.32445644134E+02  0.84552650311E+01 -0.19119417251E+03  0.19411188251E+03  0.00000000000E+00 0.  1.
         12    1    3    3    0    0 -0.19812162773E+02  0.35294474253E+02 -0.49366456015E+02  0.63837831151E+02  0.00000000000E+00 0. -1.
         11    1    5    5    0    0 -0.40424288371E+01 -0.25176488393E+02  0.47924104642E+03  0.47991892791E+03  0.00000000000E+00 0. -1.
        -12    1    5    5    0    0  0.30547608676E+01  0.58508125577E+02  0.49703399075E+03  0.50047509457E+03  0.00000000000E+00 0.  1.
          5    1    4    4  501    0  0.39316468078E+02 -0.84783786610E+02  0.49192971807E+02  0.10569529795E+03  0.41800000000E+01 0.  1.
         -5    1    4    4    0  501 -0.50962281469E+02  0.77024101430E+01  0.76331424779E+01  0.52270627685E+02  0.41800000000E+01 0.  1.
</event>
<event>
11    1  0.5813833E-009  0.1485313E+03  0.7561462E-02  0.1098389E+00
         22   -1    0    0    0    0  0.00000000000E+00  0.00000000000E+00  0.48630781118E+03  0.48630781118E+03  0.00000000000E+00 0.  1.
         22   -1    0    0    0    0 -0.00000000000E+00 -0.00000000000E+00 -0.88234908976E+03  0.88234908976E+03  0.00000000000E+00 0. -1.
        -24    2    1    2    0    0 -0.13412618900E+02  0.78126993378E+02 -0.82261801911E+03  0.83043508961E+03  0.81475807790E+02 0.  0.
         25    2    1    2    0    0  0.77931845456E+02 -0.10503089603E+03  0.12815438141E+03  0.22175259046E+03  0.12508318929E+03 0.  0.
         24    2    1    2    0    0 -0.64519226556E+02  0.26903902654E+02  0.29842235911E+03  0.31646922087E+03  0.78805537658E+02 0.  0.
        -13    1    5    5    0    0 -0.22623834599E+02  0.49482738144E+02  0.19800739568E+03  0.20534679936E+03  0.00000000000E+00 0.  1.
         14    1    5    5    0    0 -0.41895391957E+02 -0.22578835490E+02  0.10041496344E+03  0.11112242151E+03  0.00000000000E+00 0. -1.
         11    1    3    3    0    0  0.24921756258E+02  0.12378998840E+02 -0.40383478054E+03  0.40479237088E+03  0.00000000000E+00 0. -1.
        -12    1    3    3    0    0 -0.38334375157E+02  0.65747994537E+02 -0.41878323857E+03  0.42564271874E+03  0.00000000000E+00 0.  1.
          5    1    4    4  501    0  0.67369661943E+02 -0.13185132120E+03  0.88494661968E+02  0.17254628321E+03  0.41800000000E+01 0.  1.
         -5    1    4    4    0  501  0.10562183514E+02  0.26820425169E+02  0.39659719445E+02  0.49206307251E+02  0.41800000000E+01 0.  1.
</event>
<event>
11    1  0.5813833E-009  0.1426923E+03  0.7561462E-02  0.1104589E+00
         22   -1    0    0    0    0  0.00000000000E+00  0.00000000000E+00  0.24241503047E+04  0.24241503047E+04  0.00000000000E+00 0. -1.
         22   -1    0    0    0    0 -0.00000000000E+00 -0.00000000000E+00 -0.69950423335E+03  0.69950423335E+03  0.00000000000E+00 0.  1.
        -24    2    1    2    0    0 -0.70290090673E+01 -0.45920878113E+02 -0.64733295661E+03  0.65396601453E+03  0.80457799028E+02 0.  0.
         25    2    1    2    0    0  0.75518866046E+02  0.45543009818E+02  0.74897259562E+02  0.17039615094E+03  0.12509190179E+03 0.  0.
         24    2    1    2    0    0 -0.68489856979E+02  0.37786829506E+00  0.22970817684E+04  0.22992923726E+04  0.73957830186E+02 0.  0.
        -13    1    5    5    0    0 -0.62612706886E+01 -0.29296817167E+02  0.50783884161E+03  0.50872172753E+03  0.00000000000E+00 0.  1.
         14    1    5    5    0    0 -0.62228586290E+02  0.29674685462E+02  0.17892429268E+04  0.17905706451E+04  0.00000000000E+00 0. -1.
         11    1    3    3    0    0 -0.10130066519E+02  0.22357333657E+02 -0.17582000594E+03  0.17752504923E+03  0.00000000000E+00 0. -1.
        -12    1    3    3    0    0  0.31010574521E+01 -0.68278211769E+02 -0.47151295068E+03  0.47644096530E+03  0.00000000000E+00 0.  1.
          5    1    4    4  501    0  0.10141103478E+03  0.45621602118E+02  0.25040332640E+02  0.11406147121E+03  0.41800000000E+01 0.  1.
         -5    1    4    4    0  501 -0.25892168733E+02 -0.78592300003E-01  0.49856926922E+02  0.56334679733E+02  0.41800000000E+01 0.  1.
</event>
<event>
11    1  0.5813833E-009  0.2025688E+03  0.7561462E-02  0.1052722E+00
         22   -1    0    0    0    0  0.00000000000E+00  0.00000000000E+00  0.13582257316E+03  0.13582257316E+03  0.00000000000E+00 0. -1.
         22   -1    0    0    0    0 -0.00000000000E+00 -0.00000000000E+00 -0.59143568929E+03  0.59143568929E+03  0.00000000000E+00 0.  1.
         24    2    1    2    0    0 -0.90786521630E+02 -0.13016284673E+03 -0.38724960232E+03  0.42624683708E+03  0.80867499310E+02 0.  0.
         25    2    1    2    0    0  0.83286823925E+02  0.13891225908E+03 -0.74988525533E+02  0.21795355360E+03  0.12508861580E+03 0.  0.
        -24    2    1    2    0    0  0.74996977048E+01 -0.87494123454E+01  0.66250117282E+01  0.83057871772E+02  0.81987325855E+02 0.  0.
        -11    1    3    3    0    0 -0.95870045779E+02 -0.12393145312E+03 -0.29840927210E+03  0.33704326789E+03  0.00000000000E+00 0.  1.
         12    1    3    3    0    0  0.50835241485E+01 -0.62313936153E+01 -0.88840330216E+02  0.89203569194E+02  0.00000000000E+00 0. -1.
         13    1    5    5    0    0 -0.12146228205E+02  0.27801119248E+02 -0.17534569105E+02  0.35041321390E+02  0.00000000000E+00 0. -1.
        -14    1    5    5    0    0  0.19645925910E+02 -0.36550531593E+02  0.24159580833E+02  0.48016550382E+02  0.00000000000E+00 0.  1.
          5    1    4    4  501    0  0.11467116765E+03  0.90350875164E+02 -0.61277824889E+02  0.15838308482E+03  0.41800000000E+01 0. -1.
         -5    1    4    4    0  501 -0.31384343723E+02  0.48561383916E+02 -0.13710700644E+02  0.59570468782E+02  0.41800000000E+01 0. -1.
</event>
<event>
11    1  0.5813833E-009  0.1451252E+03  0.7561462E-02  0.1101967E+00
         22   -1    0    0    0    0  0.00000000000E+00  0.00000000000E+00  0.52929300430E+03  0.52929300430E+03  0.00000000000E+00 0. -1.
         22   -1    0    0    0    0 -0.00000000000E+00 -0.00000000000E+00 -0.14965998446E+04  0.14965998446E+04  0.00000000000E+00 0.  1.
        -24    2    1    2    0    0  0.20600759504E+02 -0.47967140276E+01 -0.63346831214E+03  0.63958940667E+03  0.85703598986E+02 0.  0.
         25    2    1    2    0    0 -0.94040945046E+02  0.56093705875E+01 -0.84739555554E+03  0.86174367885E+03  0.12509107120E+03 0.  0.
         24    2    1    2    0    0  0.73440185541E+02 -0.81265655989E+00  0.51355702735E+03  0.52455976341E+03  0.77640220137E+02 0.  0.
        -11    1    5    5    0    0  0.19671205114E+02 -0.30260929647E+02  0.96646467455E+02  0.10316598202E+03  0.00000000000E+00 0.  1.
         12    1    5    5    0    0  0.53768980427E+02  0.29448273087E+02  0.41691055990E+03  0.42139378139E+03  0.00000000000E+00 0. -1.
         11    1    3    3    0    0 -0.30694434242E+02  0.87744471836E+01 -0.32771550511E+03  0.32926674826E+03  0.00000000000E+00 0. -1.
        -12    1    3    3    0    0  0.51295193746E+02 -0.13571161211E+02 -0.30575280703E+03  0.31032265841E+03  0.00000000000E+00 0.  1.
          5    1    4    4  501    0 -0.88830272068E+02 -0.48403497616E+02 -0.50500231045E+03  0.51505196027E+03  0.41800000000E+01 0. -1.
         -5    1    4    4    0  501 -0.52106729778E+01  0.54012868203E+02 -0.34239324509E+03  0.34669171858E+03  0.41800000000E+01 0. -1.
</event>
<event>
11    1  0.5813833E-009  0.1348864E+03  0.7561462E-02  0.1113407E+00
         22   -1    0    0    0    0  0.00000000000E+00  0.00000000000E+00  0.10268131763E+04  0.10268131763E+04  0.00000000000E+00 0.  1.
         22   -1    0    0    0    0 -0.00000000000E+00 -0.00000000000E+00 -0.20629276275E+04  0.20629276275E+04  0.00000000000E+00 0. -1.
         24    2    1    2    0    0 -0.27858841733E+02  0.58324119152E+00 -0.18608476135E+04  0.18626290315E+04  0.76528511279E+02 0.  0.
         25    2    1    2    0    0  0.45762083872E+02 -0.47695399466E+02 -0.17349582976E+03  0.22385441364E+03  0.12506388812E+03 0.  0.
        -24    2    1    2    0    0 -0.17903242139E+02  0.47112158275E+02  0.99822899206E+03  0.10032573586E+04  0.86741716950E+02 0.  0.
        -11    1    3    3    0    0 -0.31609260547E+02  0.11458940561E+02 -0.32428132951E+03  0.32601968244E+03  0.00000000000E+00 0.  1.
         12    1    3    3    0    0  0.37504188141E+01 -0.10875699370E+02 -0.15365662840E+04  0.15366093490E+04  0.00000000000E+00 0. -1.
         11    1    5    5    0    0 -0.90921107689E+01 -0.91338145859E+01  0.22973216925E+02  0.26341255532E+02  0.00000000000E+00 0. -1.
        -12    1    5    5    0    0 -0.88111313706E+01  0.56245972861E+02  0.97525577513E+03  0.97691610307E+03  0.00000000000E+00 0.  1.
          5    1    4    4  501    0 -0.43406361140E+02 -0.17694641781E+02 -0.51973249822E+02  0.70113505349E+02  0.41800000000E+01 0. -1.
         -5    1    4    4    0  501  0.89168445013E+02 -0.30000757685E+02 -0.12152257993E+03  0.15374090829E+03  0.41800000000E+01 0. -1.
</event>
<event>
11    1  0.5813833E-009  0.1387937E+03  0.7561462E-02  0.1108913E+00
         22   -1    0    0    0    0  0.00000000000E+00  0.00000000000E+00  0.21458085446E+03  0.21458085446E+03  0.00000000000E+00 0.  1.
         22   -1    0    0    0    0 -0.00000000000E+00 -0.00000000000E+00 -0.81492730479E+03  0.81492730479E+03  0.00000000000E+00 0. -1.
         24    2    1    2    0    0  0.55116447760E+02  0.23086023875E+02 -0.70140162187E+03  0.70819461351E+03  0.77489277577E+02 0.  0.
         25    2    1    2    0    0 -0.64184740413E+02 -0.16539034353E+02 -0.50075271377E+02  0.15016267203E+03  0.12509226479E+03 0.  0.
        -24    2    1    2    0    0  0.90682926528E+01 -0.65469895216E+01  0.15113044292E+03  0.17115087370E+03  0.79543156762E+02 0.  0.
        -11    1    3    3    0    0  0.28050047077E+02 -0.24186825265E+02 -0.16886013805E+03  0.17287438758E+03  0.00000000000E+00 0.  1.
         12    1    3    3    0    0  0.27066400683E+02  0.47272849140E+02 -0.53254148381E+03  0.53532022593E+03  0.00000000000E+00 0. -1.
         11    1    5    5    0    0 -0.22968375102E+02 -0.15171622927E+02  0.15644457407E+02  0.31661861041E+02  0.00000000000E+00 0. -1.
        -12    1    5    5    0    0  0.32036667754E+02  0.86246334053E+01  0.13548598551E+03  0.13948901266E+03  0.00000000000E+00 0.  1.
          5    1    4    4  501    0 -0.26991769619E+02 -0.57562506944E+02  0.14142677936E+02  0.65264734521E+02  0.41800000000E+01 0.  1.
         -5    1    4    4    0  501 -0.37192970794E+02  0.41023472591E+02 -0.64217949313E+02  0.84897937513E+02  0.41800000000E+01 0.  1.
</event>
<event>
11    1  0.5813833E-009  0.1709832E+03  0.7561462E-02  0.1077179E+00
         22   -1    0    0    0    0  0.00000000000E+00  0.00000000000E+00  0.60317473501E+03  0.60317473501E+03  0.00000000000E+00 0.  1.
         22   -1    0    0    0    0 -0.00000000000E+00 -0.00000000000E+00 -0.51078824306E+03  0.51078824306E+03  0.00000000000E+00 0.  1.
         24    2    1    2    0    0 -0.77279952676E+01 -0.38774184004E+02 -0.40641098634E+03  0.41629187377E+03  0.81030087587E+02 0.  0.
         25    2    1    2    0    0  0.67316284099E+02 -0.64798950548E+02 -0.21586750823E+02  0.15761239649E+03  0.12508114814E+03 0.  0.
        -24    2    1    2    0    0 -0.59588288831E+02  0.10357313455E+03  0.52038422911E+03  0.54005870780E+03  0.81151115829E+02 0.  0.
        -11    1    3    3    0    0 -0.12809881192E+02 -0.38274724001E+02 -0.40870555395E+03  0.41069365393E+03  0.00000000000E+00 0.  1.
         12    1    3    3    0    0  0.50818859246E+01 -0.49946000247E+00  0.22945676079E+01  0.55982198378E+01  0.00000000000E+00 0. -1.
         11    1    5    5    0    0  0.10738776319E+02  0.60648503025E+02  0.20156143170E+03  0.21076188694E+03  0.00000000000E+00 0. -1.
        -12    1    5    5    0    0 -0.70327065150E+02  0.42924631527E+02  0.31882279741E+03  0.32929682086E+03  0.00000000000E+00 0.  1.
          5    1    4    4  501    0  0.87846249077E+02 -0.84846579147E+02 -0.12753893705E+01  0.12220885601E+03  0.41800000000E+01 0.  1.
         -5    1    4    4    0  501 -0.20529964978E+02  0.20047628598E+02 -0.20311361452E+02  0.35403540479E+02  0.41800000000E+01 0.  1.
</event>
<event>
11    1  0.5813833E-009  0.1492464E+03  0.7561462E-02  0.1097651E+00
         22   -1    0    0    0    0  0.00000000000E+00  0.00000000000E+00  0.59236621820E+03  0.59236621820E+03  0.00000000000E+00 0. -1.
         22   -1    0    0    0    0 -0.00000000000E+00 -0.00000000000E+00 -0.29563913956E+03  0.29563913956E+03  0.00000000000E+00 0. -1.
        -24    2    1    2    0    0 -0.81471000584E+02 -0.13756845290E+01 -0.24249576742E+03  0.26815706484E+03  0.80402722365E+02 0.  0.
         25    2    1    2    0    0  0.80136402492E+02  0.17573140642E+02  0.11749142062E+03  0.19021491735E+03  0.12508725990E+03 0.  0.
         24    2    1    2    0    0  0.13345980919E+01 -0.16197456113E+02  0.42173142544E+03  0.42963337555E+03  0.80394673007E+02 0.  0.
        -11    1    5    5    0    0  0.11589877713E+02  0.23192873234E+02  0.56785412206E+02  0.62424495782E+02  0.00000000000E+00 0.  1.
         12    1    5    5    0    0 -0.10255279621E+02 -0.39390329347E+02  0.36494601324E+03  0.36720887977E+03  0.00000000000E+00 0. -1.
         11    1    3    3    0    0 -0.67997760370E+02 -0.31881947144E+02 -0.12318343640E+03  0.14427166379E+03  0.00000000000E+00 0. -1.
        -12    1    3    3    0    0 -0.13473240214E+02  0.30506262615E+02 -0.11931233102E+03  0.12388540105E+03  0.00000000000E+00 0.  1.
          5    1    4    4  501    0  0.30483633236E+01  0.17935403047E+02  0.11120110148E+03  0.11275694467E+03  0.41800000000E+01 0.  1.
         -5    1    4    4    0  501  0.77088039169E+02 -0.36226240483E+00  0.62903191385E+01  0.77457972681E+02  0.41800000000E+01 0.  1.
</event>
<event>
11    1  0.5813833E-009  0.1759600E+03  0.7561462E-02  0.1072958E+00
         22   -1    0    0    0    0  0.00000000000E+00  0.00000000000E+00  0.23683070113E+03  0.23683070113E+03  0.00000000000E+00 0. -1.
         22   -1    0    0    0    0 -0.00000000000E+00 -0.00000000000E+00 -0.88174333151E+03  0.88174333151E+03  0.00000000000E+00 0.  1.
        -24    2    1    2    0    0  0.25661254018E+02  0.75537421841E+02 -0.52751579598E+03  0.53954622523E+03  0.80453788569E+02 0.  0.
         25    2    1    2    0    0  0.85004120417E+02 -0.12889048956E+03 -0.29081821299E+03  0.35222485450E+03  0.12509458954E+03 0.  0.
         24    2    1    2    0    0 -0.11066537443E+03  0.53353067721E+02  0.17342137859E+03  0.22680295291E+03  0.79191097737E+02 0.  0.
        -11    1    5    5    0    0  0.11979549956E+02  0.83663274662E+01  0.10591479777E+02  0.18046730903E+02  0.00000000000E+00 0.  1.
         12    1    5    5    0    0 -0.12264492439E+03  0.44986740255E+02  0.16282989882E+03  0.20875622201E+03  0.00000000000E+00 0. -1.
         11    1    3    3    0    0  0.47569440436E+02  0.23186519760E+02 -0.32284330407E+03  0.32715174667E+03  0.00000000000E+00 0. -1.
        -12    1    3    3    0    0 -0.21908186418E+02  0.52350902081E+02 -0.20467249191E+03  0.21239447856E+03  0.00000000000E+00 0.  1.
          5    1    4    4  501    0  0.83566309315E+02 -0.94864686694E+02 -0.10833239648E+03  0.16654133829E+03  0.41800000000E+01 0. -1.
         -5    1    4    4    0  501  0.14378111018E+01 -0.34025802867E+02 -0.18248581652E+03  0.18568351621E+03  0.41800000000E+01 0. -1.
</event>
<event>
11    1  0.5813833E-009  0.2989092E+03  0.7561462E-02  0.1000654E+00
         22   -1    0    0    0    0  0.00000000000E+00  0.00000000000E+00  0.28313162634E+04  0.28313162634E+04  0.00000000000E+00 0.  1.
         22   -1    0    0    0    0 -0.00000000000E+00 -0.00000000000E+00 -0.17921428476E+04  0.17921428476E+04  0.00000000000E+00 0.  1.
        -24    2    1    2    0    0 -0.55699272660E+02 -0.25007874320E+03 -0.11602096732E+04  0.11910282253E+04  0.82583055537E+02 0.  0.
         25    2    1    2    0    0  0.52015567403E+02  0.31472640582E+03 -0.56788812381E+03  0.66325983582E+03  0.12513336435E+03 0.  0.
         24    2    1    2    0    0  0.36837052575E+01 -0.64647662618E+02  0.27672712128E+04  0.27691710499E+04  0.79532686419E+02 0.  0.
        -11    1    5    5    0    0  0.22322874359E+02 -0.74686675921E+02  0.24199901092E+04  0.24212452455E+04  0.00000000000E+00 0.  1.
         12    1    5    5    0    0 -0.18639169101E+02  0.10039013303E+02  0.34728110361E+03  0.34792580436E+03  0.00000000000E+00 0. -1.
         13    1    3    3    0    0 -0.20003444225E+02 -0.10951163973E+02 -0.18008091081E+03  0.18151914558E+03  0.00000000000E+00 0. -1.
        -14    1    3    3    0    0 -0.35695828435E+02 -0.23912757923E+03 -0.98012876236E+03  0.10095090798E+04  0.00000000000E+00 0.  1.
          5    1    4    4  501    0  0.43904232065E+02  0.11436653715E+03 -0.11556661341E+03  0.16846483594E+03  0.41800000000E+01 0. -1.
         -5    1    4    4    0  501  0.81113353374E+01  0.20035986866E+03 -0.45232151040E+03  0.49479499988E+03  0.41800000000E+01 0. -1.
</event>
<event>
11    1  0.5813833E-009  0.1284570E+03  0.7561462E-02  0.1121179E+00
         22   -1    0    0    0    0  0.00000000000E+00  0.00000000000E+00  0.31923076094E+03  0.31923076094E+03  0.00000000000E+00 0. -1.
         22   -1    0    0    0    0 -0.00000000000E+00 -0.00000000000E+00 -0.35940305899E+03  0.35940305899E+03  0.00000000000E+00 0.  1.
         24    2    1    2    0    0  0.19029944597E+02 -0.17701498342E+02 -0.29378880481E+03  0.30552065249E+03  0.79721549320E+02 0.  0.
         25    2    1    2    0    0 -0.55630882675E+01 -0.11822586717E+02  0.24910529983E+02  0.12821139045E+03  0.12508758783E+03 0.  0.
        -24    2    1    2    0    0 -0.13466856329E+02  0.29524085058E+02  0.22870597678E+03  0.24490177699E+03  0.81347579805E+02 0.  0.
        -13    1    3    3    0    0  0.63945780184E+01 -0.44393354912E+02 -0.24003068559E+03  0.24418515641E+03  0.00000000000E+00 0.  1.
         14    1    3    3    0    0  0.12635366578E+02  0.26691856571E+02 -0.53758119226E+02  0.61335496073E+02  0.00000000000E+00 0. -1.
         13    1    5    5    0    0 -0.14272199303E+02  0.13529865605E+02  0.22802640990E+03  0.22887288294E+03  0.00000000000E+00 0. -1.
        -14    1    5    5    0    0  0.80534297419E+00  0.15994219453E+02  0.67956688337E+00  0.16028894047E+02  0.00000000000E+00 0.  1.
          5    1    4    4  501    0 -0.24803368078E+02 -0.38291379712E+02 -0.36450190250E+02  0.58545073213E+02  0.41800000000E+01 0.  1.
         -5    1    4    4    0  501  0.19240279811E+02  0.26468792995E+02  0.61360720233E+02  0.69666317237E+02  0.41800000000E+01 0.  1.
</event>
<event>
11    1  0.5813833E-009  0.2361083E+03  0.7561462E-02  0.1031571E+00
         22   -1    0    0    0    0  0.00000000000E+00  0.00000000000E+00  0.18052381230E+04  0.18052381230E+04  0.00000000000E+00 0.  1.
         22   -1    0    0    0    0 -0.00000000000E+00 -0.00000000000E+00 -0.26648384882E+03  0.26648384882E+03  0.00000000000E+00 0.  1.
        -24    2    1    2    0    0  0.21221624405E+02 -0.74317210731E+02 -0.35373594903E+02  0.11426742200E+03  0.76369806609E+02 0.  0.
         25    2    1    2    0    0  0.14028830968E+03 -0.47797226330E+02 -0.13381845338E+03  0.23562718339E+03  0.12508959353E+03 0.  0.
         24    2    1    2    0    0 -0.16150993409E+03  0.12211443706E+03  0.17079463225E+04  0.17218273664E+04  0.81310791682E+02 0.  0.
        -13    1    5    5    0    0 -0.13779716345E+03  0.93334559632E+02  0.15744012103E+04  0.15831735752E+04  0.00000000000E+00 0.  1.
         14    1    5    5    0    0 -0.23712770633E+02  0.28779877430E+02  0.13354511215E+03  0.13865379120E+03  0.00000000000E+00 0. -1.
         11    1    3    3    0    0  0.49108144237E+02 -0.49792295955E+02 -0.32211187959E+02  0.76996384308E+02  0.00000000000E+00 0. -1.
        -12    1    3    3    0    0 -0.27886519832E+02 -0.24524914776E+02 -0.31624069444E+01  0.37271037694E+02  0.00000000000E+00 0.  1.
          5    1    4    4  501    0  0.14998465789E+03 -0.58958338299E+02 -0.14483879764E+03  0.21671924917E+03  0.41800000000E+01 0.  1.
         -5    1    4    4    0  501 -0.96963482111E+01  0.11161111968E+02  0.11020344260E+02  0.18907934224E+02  0.41800000000E+01 0.  1.
</event>
<event>
11    1  0.5813833E-009  0.1323049E+03  0.7561462E-02  0.1116469E+00
         22   -1    0    0    0    0  0.00000000000E+00  0.00000000000E+00  0.10177476272E+03  0.10177476272E+03  0.00000000000E+00 0. -1.
         22   -1    0    0    0    0 -0.00000000000E+00 -0.00000000000E+00 -0.14872640221E+04  0.14872640221E+04  0.00000000000E+00 0.  1.
        -24    2    1    2    0    0  0.98236915732E+01 -0.20993292120E+02 -0.10362969815E+04  0.10396362299E+04  0.79967702729E+02 0.  0.
         25    2    1    2    0    0 -0.49293532122E+02  0.35603774251E+02 -0.41060769636E+03  0.43352422621E+03  0.12508834217E+03 0.  0.
         24    2    1    2    0    0  0.39469840549E+02 -0.14610482131E+02  0.61415418494E+02  0.11587832868E+03  0.88795264101E+02 0.  0.
        -13    1    5    5    0    0 -0.23223254438E+02 -0.12737669875E+02 -0.21551275359E+01  0.26574656258E+02  0.00000000000E+00 0.  1.
         14    1    5    5    0    0  0.62693094987E+02 -0.18728122559E+01  0.63570546030E+02  0.89303672418E+02  0.00000000000E+00 0. -1.
         13    1    3    3    0    0  0.84913208341E+01 -0.50578733596E+02 -0.53062016454E+03  0.53309292796E+03  0.00000000000E+00 0. -1.
        -14    1    3    3    0    0  0.13323707391E+01  0.29585441476E+02 -0.50567681694E+03  0.50654330195E+03  0.00000000000E+00 0.  1.
          5    1    4    4  501    0 -0.83818215918E+02  0.31801355285E+02 -0.36595611854E+03  0.37679991058E+03  0.41800000000E+01 0. -1.
         -5    1    4    4    0  501  0.34524683795E+02  0.38024189662E+01 -0.44651577825E+02  0.56724315628E+02  0.41800000000E+01 0. -1.
</event>
<event>
11    1  0.5813833E-009  0.1712681E+03  0.7561462E-02  0.1076933E+00
         22   -1    0    0    0    0  0.00000000000E+00  0.00000000000E+00  0.63013640083E+03  0.63013640083E+03  0.00000000000E+00 0.  1.
         22   -1    0    0    0    0 -0.00000000000E+00 -0.00000000000E+00 -0.10511389480E+04  0.10511389480E+04  0.00000000000E+00 0. -1.
         24    2    1    2    0    0 -0.91365880208E+02  0.85140722876E+02 -0.89046329324E+03  0.90276719593E+03  0.80418074331E+02 0.  0.
         25    2    1    2    0    0  0.25334206495E+02 -0.74482032809E+02 -0.11348718376E+03  0.18632593532E+03  0.12509443659E+03 0.  0.
        -24    2    1    2    0    0  0.66031673713E+02 -0.10658690067E+02  0.58294792981E+03  0.59218221761E+03  0.79860505739E+02 0.  0.
        -13    1    3    3    0    0 -0.73934755756E+02  0.99332053137E+02 -0.68743627561E+03  0.69849970502E+03  0.00000000000E+00 0.  1.
         14    1    3    3    0    0 -0.17431124452E+02 -0.14191330261E+02 -0.20302701762E+03  0.20426749090E+03  0.00000000000E+00 0. -1.
         11    1    5    5    0    0  0.11960328336E+01  0.26984759301E+02  0.21368632634E+03  0.21538675399E+03  0.00000000000E+00 0. -1.
        -12    1    5    5    0    0  0.64835640879E+02 -0.37643449369E+02  0.36926160346E+03  0.37679546362E+03  0.00000000000E+00 0.  1.
          5    1    4    4  501    0  0.75008791422E+02 -0.30020740849E+02 -0.59134637963E+02  0.10020948797E+03  0.41800000000E+01 0.  1.
         -5    1    4    4    0  501 -0.49674584927E+02 -0.44461291959E+02 -0.54352545798E+02  0.86116447355E+02  0.41800000000E+01 0.  1.
</event>
<event>
11    1  0.5813833E-009  0.1801272E+03  0.7561462E-02  0.1069540E+00
         22   -1    0    0    0    0  0.00000000000E+00  0.00000000000E+00  0.19107231522E+04  0.19107231522E+04  0.00000000000E+00 0. -1.
         22   -1    0    0    0    0 -0.00000000000E+00 -0.00000000000E+00 -0.14448685039E+03  0.14448685039E+03  0.00000000000E+00 0. -1.
        -24    2    1    2    0    0  0.83667656428E+02 -0.14881103564E+02 -0.18524866916E+02  0.11864428512E+03  0.80694310345E+02 0.  0.
         25    2    1    2    0    0 -0.17006751787E+03  0.10739041857E+03  0.12079490112E+03  0.26588441326E+03  0.12508976953E+03 0.  0.
         24    2    1    2    0    0  0.86399861440E+02 -0.92509315009E+02  0.16639662676E+04  0.16706813042E+04  0.79808339708E+02 0.  0.
        -13    1    5    5    0    0  0.24415583726E+02 -0.57297618625E+02  0.41137647813E+03  0.41606459184E+03  0.00000000000E+00 0.  1.
         14    1    5    5    0    0  0.61984277714E+02 -0.35211696384E+02  0.12525897895E+04  0.12546167124E+04  0.00000000000E+00 0. -1.
         13    1    3    3    0    0  0.32924713673E+02 -0.32632546092E+02 -0.39535462073E+02  0.60925959953E+02  0.00000000000E+00 0. -1.
        -14    1    3    3    0    0  0.50742942756E+02  0.17751442527E+02  0.21010595157E+02  0.57718325167E+02  0.00000000000E+00 0.  1.
          5    1    4    4  501    0 -0.80642951442E+02  0.10752033933E+03  0.28792432325E+02  0.13751503753E+03  0.41800000000E+01 0. -1.
         -5    1    4    4    0  501 -0.89424566427E+02 -0.12992076030E+00  0.92002468795E+02  0.12836937573E+03  0.41800000000E+01 0. -1.
</event>
<event>
11    1  0.5813833E-009  0.1758491E+03  0.7561462E-02  0.1073051E+00
         22   -1    0    0    0    0  0.00000000000E+00  0.00000000000E+00  0.31456040504E+03  0.31456040504E+03  0.00000000000E+00 0.  1.
         22   -1    0    0    0    0 -0.00000000000E+00 -0.00000000000E+00 -0.14289234191E+04  0.14289234191E+04  0.00000000000E+00 0.  1.
         24    2    1    2    0    0 -0.13484938620E+02 -0.12434343949E+03 -0.13241597135E+04  0.13325522720E+04  0.81568843243E+02 0.  0.
         25    2    1    2    0    0  0.60785077756E+02  0.90140182743E+02 -0.13717474821E+02  0.16630011097E+03  0.12508988597E+03 0.  0.
        -24    2    1    2    0    0 -0.47300139136E+02  0.34203256743E+02  0.22351417424E+03  0.24463144120E+03  0.80490931174E+02 0.  0.
        -13    1    3    3    0    0 -0.23573501681E+02 -0.12962120526E+03 -0.10613081898E+04  0.10694542724E+04  0.00000000000E+00 0.  1.
         14    1    3    3    0    0  0.10088563061E+02  0.52777657785E+01 -0.26285152365E+03  0.26309799961E+03  0.00000000000E+00 0. -1.
         11    1    5    5    0    0 -0.18055803505E+02 -0.11418356020E+02  0.86651343025E+01  0.23053751254E+02  0.00000000000E+00 0. -1.
        -12    1    5    5    0    0 -0.29244335631E+02  0.45621612763E+02  0.21484903994E+03  0.22157768994E+03  0.00000000000E+00 0.  1.
          5    1    4    4  501    0  0.46508076523E+02  0.45587591884E+02 -0.68181780976E+02  0.94379327041E+02  0.41800000000E+01 0.  1.
         -5    1    4    4    0  501  0.14277001233E+02  0.44552590859E+02  0.54464306155E+02  0.71920783932E+02  0.41800000000E+01 0.  1.
</event>
<event>
11    1  0.5813833E-009  0.1523788E+03  0.7561462E-02  0.1094473E+00
         22   -1    0    0    0    0  0.00000000000E+00  0.00000000000E+00  0.50157325222E+03  0.50157325222E+03  0.00000000000E+00 0.  1.
         22   -1    0    0    0    0 -0.00000000000E+00 -0.00000000000E+00 -0.67184904968E+03  0.67184904968E+03  0.00000000000E+00 0.  1.
         24    2    1    2    0    0  0.25998915395E+02  0.30729032417E+02 -0.61947731097E+03  0.62829816725E+03  0.96882563570E+02 0.  0.
         25    2    1    2    0    0 -0.10627297839E+03 -0.13877294121E+02  0.14946422702E+03  0.22242616798E+03  0.12508924741E+03 0.  0.
        -24    2    1    2    0    0  0.80274062991E+02 -0.16851738295E+02  0.29973728649E+03  0.32269796666E+03  0.86969135344E+02 0.  0.
        -11    1    3    3    0    0  0.23355492275E+02 -0.16569160786E+02 -0.48271816678E+03  0.48356679440E+03  0.00000000000E+00 0.  1.
         12    1    3    3    0    0  0.26434231205E+01  0.47298193203E+02 -0.13675914419E+03  0.14473137285E+03  0.00000000000E+00 0. -1.
         11    1    5    5    0    0 -0.16385635405E+02 -0.14806872907E+02  0.71353310627E+02  0.74692887683E+02  0.00000000000E+00 0. -1.
        -12    1    5    5    0    0  0.96659698396E+02 -0.20448653879E+01  0.22838397586E+03  0.24800507898E+03  0.00000000000E+00 0.  1.
          5    1    4    4  501    0 -0.10617423740E+03  0.13684191191E+02  0.48349053196E+02  0.11753862821E+03  0.41800000000E+01 0. -1.
         -5    1    4    4    0  501 -0.98740987818E-01 -0.27561485313E+02  0.10111517383E+03  0.10488753978E+03  0.41800000000E+01 0. -1.
</event>
<event>
11    1  0.5813833E-009  0.1685115E+03  0.7561462E-02  0.1079334E+00
         22   -1    0    0    0    0  0.00000000000E+00  0.00000000000E+00  0.56606635431E+03  0.56606635431E+03  0.00000000000E+00 0.  1.
         22   -1    0    0    0    0 -0.00000000000E+00 -0.00000000000E+00 -0.16847082622E+04  0.16847082622E+04  0.00000000000E+00 0.  1.
        -24    2    1    2    0    0 -0.43337884452E+02 -0.21393606250E+01 -0.15059323666E+04  0.15088749966E+04  0.83598525135E+02 0.  0.
         25    2    1    2    0    0  0.13270387275E+03  0.67943025003E+02 -0.11154360658E+03  0.22431812314E+03  0.12510024665E+03 0.  0.
         24    2    1    2    0    0 -0.89365988294E+02 -0.65803664378E+02  0.49883406534E+03  0.51758149674E+03  0.82090065874E+02 0.  0.
        -13    1    5    5    0    0 -0.27593310392E+02 -0.30220157405E+02  0.35185101662E+03  0.35422279231E+03  0.00000000000E+00 0.  1.
         14    1    5    5    0    0 -0.61772677903E+02 -0.35583506972E+02  0.14698304872E+03  0.16335870444E+03  0.00000000000E+00 0. -1.
         11    1    3    3    0    0 -0.23722910583E+02 -0.14156538033E+01 -0.99246152050E+02  0.10205184594E+03  0.00000000000E+00 0. -1.
        -12    1    3    3    0    0 -0.19614973869E+02 -0.72370682177E+00 -0.14066862146E+04  0.14068231507E+04  0.00000000000E+00 0.  1.
          5    1    4    4  501    0  0.14941514904E+03  0.63746937018E+02 -0.12247875271E+03  0.20348728709E+03  0.41800000000E+01 0. -1.
         -5    1    4    4    0  501 -0.16711276296E+02  0.41960879842E+01  0.10935146127E+02  0.20830836052E+02  0.41800000000E+01 0. -1.
</event>
<event>
11    1  0.5813833E-009  0.1681321E+03  0.7561462E-02  0.1079669E+00
         22   -1    0    0    0    0  0.00000000000E+00  0.00000000000E+00  0.48285533164E+03  0.48285533164E+03  0.00000000000E+00 0.  1.
         22   -1    0    0    0    0 -0.00000000000E+00 -0.00000000000E+00 -0.37975563277E+03  0.37975563277E+03  0.00000000000E+00 0.  1.
         24    2    1    2    0    0 -0.76341089926E+01 -0.16237499135E+02 -0.31723532637E+03  0.32775030659E+03  0.80374592848E+02 0.  0.
         25    2    1    2    0    0 -0.10514918064E+03 -0.71506013424E+01  0.11835528466E+03  0.20190214763E+03  0.12509605317E+03 0.  0.
        -24    2    1    2    0    0  0.11278328964E+03  0.23388100477E+02  0.30197974057E+03  0.33295851020E+03  0.80015824245E+02 0.  0.
        -11    1    3    3    0    0  0.19360952957E+02  0.14920872783E+02 -0.22965448381E+03  0.23095164186E+03  0.00000000000E+00 0.  1.
         12    1    3    3    0    0 -0.26995061949E+02 -0.31158371918E+02 -0.87580842560E+02  0.96798664731E+02  0.00000000000E+00 0. -1.
         13    1    5    5    0    0  0.10021939766E+03  0.32362945064E+02  0.16930072586E+03  0.19938411085E+03  0.00000000000E+00 0. -1.
        -14    1    5    5    0    0  0.12563891979E+02 -0.89748445872E+01  0.13267901471E+03  0.13357439935E+03  0.00000000000E+00 0.  1.
          5    1    4    4  501    0 -0.84455697329E+02  0.51929188952E+02  0.58502141321E+02  0.11519278804E+03  0.41800000000E+01 0.  1.
         -5    1    4    4    0  501 -0.20693483316E+02 -0.59079790295E+02  0.59853143337E+02  0.86709359589E+02  0.41800000000E+01 0.  1.
</event>
<event>
11    1  0.5813833E-009  0.1957356E+03  0.7561462E-02  0.1057581E+00
         22   -1    0    0    0    0  0.00000000000E+00  0.00000000000E+00  0.10558599283E+04  0.10558599283E+04  0.00000000000E+00 0.  1.
         22   -1    0    0    0    0 -0.00000000000E+00 -0.00000000000E+00 -0.44178631751E+03  0.44178631751E+03  0.00000000000E+00 0. -1.
         24    2    1    2    0    0  0.16517467690E+02  0.44196329498E+02 -0.35517230145E+03  0.36708470238E+03  0.79860332632E+02 0.  0.
         25    2    1    2    0    0  0.10231211528E+03  0.55617522993E+02  0.30644860860E+02  0.17363428244E+03  0.12509467912E+03 0.  0.
        -24    2    1    2    0    0 -0.11882958297E+03 -0.99813852491E+02  0.93860105138E+03  0.95692726100E+03  0.10322099710E+03 0.  0.
        -11    1    3    3    0    0  0.29194853690E+02  0.94402739308E+01 -0.43546894203E+02  0.53270913720E+02  0.00000000000E+00 0.  1.
         12    1    3    3    0    0 -0.12677386000E+02  0.34756055567E+02 -0.31162540725E+03  0.31381378866E+03  0.00000000000E+00 0. -1.
         11    1    5    5    0    0  0.73482593787E+01 -0.78609281609E+01  0.27486553717E+03  0.27507608881E+03  0.00000000000E+00 0. -1.
        -12    1    5    5    0    0 -0.12617784235E+03 -0.91952924330E+02  0.66373551421E+03  0.68185117219E+03  0.00000000000E+00 0.  1.
          5    1    4    4  501    0  0.50098730343E+02  0.68437094794E+02  0.67365063430E+02  0.10839300207E+03  0.41800000000E+01 0.  1.
         -5    1    4    4    0  501  0.52213384939E+02 -0.12819571801E+02 -0.36720202570E+02  0.65241280374E+02  0.41800000000E+01 0.  1.
</event>
<event>
11    1  0.5813833E-009  0.1374138E+03  0.7561462E-02  0.1110481E+00
         22   -1    0    0    0    0  0.00000000000E+00  0.00000000000E+00  0.12972647329E+04  0.12972647329E+04  0.00000000000E+00 0. -1.
         22   -1    0    0    0    0 -0.00000000000E+00 -0.00000000000E+00 -0.16623823448E+03  0.16623823448E+03  0.00000000000E+00 0. -1.
         24    2    1    2    0    0  0.11456852759E+02  0.32919393220E+02 -0.11131366974E+03  0.14183309738E+03  0.80690448728E+02 0.  0.
         25    2    1    2    0    0  0.35470113314E+02 -0.64202456141E+02  0.10245262825E+03  0.17754541474E+03  0.12508296825E+03 0.  0.
        -24    2    1    2    0    0 -0.46926966073E+02  0.31283062921E+02  0.11398875399E+04  0.11441244553E+04  0.80600219255E+02 0.  0.
        -11    1    3    3    0    0  0.29871036277E+02  0.11919366290E+02 -0.57932960882E+01  0.32678928694E+02  0.00000000000E+00 0.  1.
         12    1    3    3    0    0 -0.18414183518E+02  0.21000026930E+02 -0.10552037365E+03  0.10915416868E+03  0.00000000000E+00 0. -1.
         11    1    5    5    0    0 -0.66980759974E+02  0.21513114538E+02  0.99979205221E+03  0.10022641288E+04  0.00000000000E+00 0. -1.
        -12    1    5    5    0    0  0.20053793900E+02  0.97699483832E+01  0.14009548771E+03  0.14186032644E+03  0.00000000000E+00 0.  1.
          5    1    4    4  501    0  0.28902721023E+01 -0.95741595917E+02  0.50161256833E+02  0.10820550332E+03  0.41800000000E+01 0.  1.
         -5    1    4    4    0  501  0.32579841212E+02  0.31539139776E+02  0.52291371414E+02  0.69339911419E+02  0.41800000000E+01 0.  1.
</event>
<event>
11    1  0.5813833E-009  0.1448986E+03  0.7561462E-02  0.1102208E+00
         22   -1    0    0    0    0  0.00000000000E+00  0.00000000000E+00  0.15615587749E+04  0.15615587749E+04  0.00000000000E+00 0.  1.
         22   -1    0    0    0    0 -0.00000000000E+00 -0.00000000000E+00 -0.90162622011E+02  0.90162622011E+02  0.00000000000E+00 0. -1.
         24    2    1    2    0    0 -0.41195512115E+02  0.43698707427E+01  0.33743039213E+03  0.34928300994E+03  0.80144778448E+02 0.  0.
         25    2    1    2    0    0 -0.46691353185E+02 -0.54623422811E+02 -0.16032436313E+02  0.14515251692E+03  0.12509361843E+03 0.  0.
        -24    2    1    2    0    0  0.87886865300E+02  0.50253552068E+02  0.11499981971E+04  0.11572858701E+04  0.81025990663E+02 0.  0.
        -11    1    3    3    0    0 -0.16176469513E+02  0.39319522408E+02  0.22363629027E+03  0.22764202892E+03  0.00000000000E+00 0.  1.
         12    1    3    3    0    0 -0.25019042602E+02 -0.34949651665E+02  0.11379410186E+03  0.12164098102E+03  0.00000000000E+00 0. -1.
         11    1    5    5    0    0  0.24641032012E+02 -0.26048302698E+01  0.72064881144E+02  0.76205726121E+02  0.00000000000E+00 0. -1.
        -12    1    5    5    0    0  0.63245833289E+02  0.52858382338E+02  0.10779333160E+04  0.10810801440E+04  0.00000000000E+00 0.  1.
          5    1    4    4  501    0  0.65558184752E+01 -0.66577808831E+02 -0.47374255729E+02  0.82081519787E+02  0.41800000000E+01 0. -1.
         -5    1    4    4    0  501 -0.53247171660E+02  0.11954386021E+02  0.31341819416E+02  0.63070997132E+02  0.41800000000E+01 0. -1.
</event>
<event>
11    1  0.5813833E-009  0.1280164E+03  0.7561462E-02  0.1121730E+00
         22   -1    0    0    0    0  0.00000000000E+00  0.00000000000E+00  0.75368518429E+03  0.75368518429E+03  0.00000000000E+00 0.  1.
         22   -1    0    0    0    0 -0.00000000000E+00 -0.00000000000E+00 -0.20641644399E+03  0.20641644399E+03  0.00000000000E+00 0. -1.
         24    2    1    2    0    0  0.10944608985E+02 -0.23202065152E+02 -0.17328145553E+03  0.19821870818E+03  0.92768923413E+02 0.  0.
         25    2    1    2    0    0 -0.84346030995E+01  0.62668957060E+02  0.28278172553E+03  0.31562723204E+03  0.12512595495E+03 0.  0.
        -24    2    1    2    0    0 -0.25100058853E+01 -0.39466891908E+02  0.43776847029E+03  0.44625568806E+03  0.77064712153E+02 0.  0.
        -13    1    3    3    0    0 -0.20771563646E+01  0.32396030030E+02 -0.30918142598E+02  0.44830222864E+02  0.00000000000E+00 0.  1.
         14    1    3    3    0    0  0.13021765349E+02 -0.55598095182E+02 -0.14236331293E+03  0.15338848532E+03  0.00000000000E+00 0. -1.
         13    1    5    5    0    0 -0.13165741218E+02  0.17544060261E+02  0.56629624632E+02  0.60729277768E+02  0.00000000000E+00 0. -1.
        -14    1    5    5    0    0  0.10655735333E+02 -0.57010952169E+02  0.38113884566E+03  0.38552641030E+03  0.00000000000E+00 0.  1.
          5    1    4    4  501    0 -0.28459786138E+02  0.10513861045E+02  0.24756963130E+03  0.24945680076E+03  0.41800000000E+01 0.  1.
         -5    1    4    4    0  501  0.20025183039E+02  0.52155096015E+02  0.35212094228E+02  0.66170431282E+02  0.41800000000E+01 0.  1.
</event>
<event>
11    1  0.5813833E-009  0.1813716E+03  0.7561462E-02  0.1068539E+00
         22   -1    0    0    0    0  0.00000000000E+00  0.00000000000E+00  0.48281077301E+03  0.48281077301E+03  0.00000000000E+00 0.  1.
         22   -1    0    0    0    0 -0.00000000000E+00 -0.00000000000E+00 -0.70588263596E+03  0.70588263596E+03  0.00000000000E+00 0. -1.
         24    2    1    2    0    0  0.10420990560E+03 -0.79325055057E+02 -0.65637443885E+03  0.67395005377E+03  0.78924661703E+02 0.  0.
         25    2    1    2    0    0 -0.10821181606E+03  0.93931198838E+02  0.24950832384E+03  0.31374382104E+03  0.12509162373E+03 0.  0.
        -24    2    1    2    0    0  0.40019104596E+01 -0.14606143780E+02  0.18379425205E+03  0.20099953415E+03  0.79944549028E+02 0.  0.
        -11    1    3    3    0    0 -0.67824481636E+01 -0.10529581948E+01 -0.48105458847E+01  0.83816272740E+01  0.00000000000E+00 0.  1.
         12    1    3    3    0    0  0.11099235376E+03 -0.78272096863E+02 -0.65156389296E+03  0.66556842650E+03  0.00000000000E+00 0. -1.
         11    1    5    5    0    0 -0.32006728827E+02  0.77469877813E+01  0.44236807933E+02  0.55148360683E+02  0.00000000000E+00 0. -1.
        -12    1    5    5    0    0  0.36008639287E+02 -0.22353131562E+02  0.13955744412E+03  0.14585117347E+03  0.00000000000E+00 0.  1.
          5    1    4    4  501    0 -0.10339434442E+03  0.11748075038E+03  0.17244039598E+03  0.23290616079E+03  0.41800000000E+01 0. -1.
         -5    1    4    4    0  501 -0.48174716353E+01 -0.23549551539E+02  0.77067927859E+02  0.80837660253E+02  0.41800000000E+01 0. -1.
</event>
<event>
11    1  0.5813833E-009  0.1367543E+03  0.7561462E-02  0.1111238E+00
         22   -1    0    0    0    0  0.00000000000E+00  0.00000000000E+00  0.56217912922E+03  0.56217912922E+03  0.00000000000E+00 0.  1.
         22   -1    0    0    0    0 -0.00000000000E+00 -0.00000000000E+00 -0.27540824967E+04  0.27540824967E+04  0.00000000000E+00 0. -1.
         24    2    1    2    0    0  0.36184346799E+02  0.41660247481E+02 -0.26933076457E+04  0.26950574470E+04  0.79897967982E+02 0.  0.
         25    2    1    2    0    0 -0.13265828335E+02 -0.74082249557E+02  0.40185414384E+02  0.15141436074E+03  0.12508908508E+03 0.  0.
        -24    2    1    2    0    0 -0.22918518463E+02  0.32422002075E+02  0.46121886377E+03  0.46978981822E+03  0.80019924407E+02 0.  0.
        -11    1    3    3    0    0  0.36147753797E+02 -0.25520449677E+01 -0.50301138700E+03  0.50431500918E+03  0.00000000000E+00 0.  1.
         12    1    3    3    0    0  0.36593001114E-01  0.44212292449E+02 -0.21902962587E+04  0.21907424378E+04  0.00000000000E+00 0. -1.
         13    1    5    5    0    0 -0.23057812657E+02 -0.16874351170E+02  0.29593338031E+03  0.29730955591E+03  0.00000000000E+00 0. -1.
        -14    1    5    5    0    0  0.13929419353E+00  0.49296353245E+02  0.16528548345E+03  0.17248026231E+03  0.00000000000E+00 0.  1.
          5    1    4    4  501    0  0.37908355598E+02 -0.21653158655E+02 -0.27348842452E+02  0.51684952233E+02  0.41800000000E+01 0. -1.
         -5    1    4    4    0  501 -0.51174183933E+02 -0.52429090901E+02  0.67534256836E+02  0.99729408503E+02  0.41800000000E+01 0. -1.
</event>
<event>
11    1  0.5813833E-009  0.1340876E+03  0.7561462E-02  0.1114346E+00
         22   -1    0    0    0    0  0.00000000000E+00  0.00000000000E+00  0.36255443884E+02  0.36255443884E+02  0.00000000000E+00 0.  1.
         22   -1    0    0    0    0 -0.00000000000E+00 -0.00000000000E+00 -0.25751005290E+04  0.25751005290E+04  0.00000000000E+00 0. -1.
        -24    2    1    2    0    0  0.40880372680E+02  0.24384537739E+02 -0.21394838529E+04  0.21417495479E+04  0.86221568565E+02 0.  0.
         25    2    1    2    0    0 -0.68416324826E+02  0.50420430547E+01 -0.32032247642E+03  0.35065911297E+03  0.12509639848E+03 0.  0.
         24    2    1    2    0    0  0.27535952146E+02 -0.29426580794E+02 -0.79038755843E+02  0.11894731198E+03  0.79228692929E+02 0.  0.
        -11    1    5    5    0    0  0.37159000551E+01  0.30137155905E+01  0.15487615588E+02  0.16209769631E+02  0.00000000000E+00 0.  1.
         12    1    5    5    0    0  0.23820052091E+02 -0.32440296384E+02 -0.94526371431E+02  0.10273754234E+03  0.00000000000E+00 0. -1.
         11    1    3    3    0    0  0.56140952872E+02 -0.13378377032E+02 -0.12220362946E+04  0.12233983378E+04  0.00000000000E+00 0. -1.
        -12    1    3    3    0    0 -0.15260580192E+02  0.37762914771E+02 -0.91744755828E+03  0.91835121018E+03  0.00000000000E+00 0.  1.
          5    1    4    4  501    0 -0.96798367437E+02  0.20273179721E+02 -0.28921226221E+03  0.30568305607E+03  0.41800000000E+01 0.  1.
         -5    1    4    4    0  501  0.28382042611E+02 -0.15231136666E+02 -0.31110214207E+02  0.44976056907E+02  0.41800000000E+01 0.  1.
</event>
<event>
11    1  0.5813833E-009  0.1318593E+03  0.7561462E-02  0.1117005E+00
         22   -1    0    0    0    0  0.00000000000E+00  0.00000000000E+00  0.12269101110E+04  0.12269101110E+04  0.00000000000E+00 0. -1.
         22   -1    0    0    0    0 -0.00000000000E+00 -0.00000000000E+00 -0.18000624997E+03  0.18000624997E+03  0.00000000000E+00 0. -1.
        -24    2    1    2    0    0  0.46519834672E+01 -0.27903302692E+02 -0.14983264040E+03  0.17247358039E+03  0.80604469797E+02 0.  0.
         25    2    1    2    0    0  0.33423470273E+02  0.42876733869E+02  0.26249589396E+03  0.29581361624E+03  0.12508420579E+03 0.  0.
         24    2    1    2    0    0 -0.38075453740E+02 -0.14973431177E+02  0.93424060750E+03  0.93862916436E+03  0.80902729706E+02 0.  0.
        -11    1    5    5    0    0 -0.53966252348E+01 -0.97697140533E+01  0.14522400330E+02  0.18315867109E+02  0.00000000000E+00 0.  1.
         12    1    5    5    0    0 -0.32678828506E+02 -0.52037171236E+01  0.91971820717E+03  0.92031329725E+03  0.00000000000E+00 0. -1.
         11    1    3    3    0    0  0.22367271232E+02 -0.44904523435E+02 -0.54690785503E+02  0.74214507115E+02  0.00000000000E+00 0. -1.
        -12    1    3    3    0    0 -0.17715287764E+02  0.17001220743E+02 -0.95141854897E+02  0.98259073273E+02  0.00000000000E+00 0.  1.
          5    1    4    4  501    0  0.80976811786E+01  0.83192858046E+02  0.12663301938E+03  0.15178938720E+03  0.41800000000E+01 0.  1.
         -5    1    4    4    0  501  0.25325789095E+02 -0.40316124176E+02  0.13586287458E+03  0.14402422904E+03  0.41800000000E+01 0.  1.
</event>
<event>
11    1  0.5813833E-009  0.1509229E+03  0.7561462E-02  0.1095939E+00
         22   -1    0    0    0    0  0.00000000000E+00  0.00000000000E+00  0.53239582552E+03  0.53239582552E+03  0.00000000000E+00 0. -1.
         22   -1    0    0    0    0 -0.00000000000E+00 -0.00000000000E+00 -0.43383122803E+03  0.43383122803E+03  0.00000000000E+00 0.  1.
        -24    2    1    2    0    0 -0.63296753747E+02 -0.51277301949E+02 -0.31393188433E+03  0.33916579104E+03  0.99218773842E+02 0.  0.
         25    2    1    2    0    0  0.12416701159E+03  0.21930360177E+01 -0.22886019231E+02  0.17774556272E+03  0.12508980380E+03 0.  0.
         24    2    1    2    0    0 -0.60870257842E+02  0.49084265931E+02  0.43538250105E+03  0.44931569979E+03  0.78817652914E+02 0.  0.
        -13    1    5    5    0    0  0.15260585980E+02  0.10013856826E+02  0.30965192444E+02  0.35944484362E+02  0.00000000000E+00 0.  1.
         14    1    5    5    0    0 -0.76130843822E+02  0.39070409105E+02  0.40441730860E+03  0.41337121543E+03  0.00000000000E+00 0. -1.
         13    1    3    3    0    0  0.16830445128E+02 -0.43949976415E+02 -0.97572354459E+02  0.10832926043E+03  0.00000000000E+00 0. -1.
        -14    1    3    3    0    0 -0.80127198876E+02 -0.73273255338E+01 -0.21635952987E+03  0.23083653061E+03  0.00000000000E+00 0.  1.
          5    1    4    4  501    0  0.13679370706E+03  0.22976349236E+01  0.14901348090E+02  0.13768558383E+03  0.41800000000E+01 0. -1.
         -5    1    4    4    0  501 -0.12626695475E+02 -0.10459890590E+00 -0.37787367321E+02  0.40059978889E+02  0.41800000000E+01 0. -1.
</event>
<event>
11    1  0.5813833E-009  0.1413694E+03  0.7561462E-02  0.1106039E+00
         22   -1    0    0    0    0  0.00000000000E+00  0.00000000000E+00  0.10967788706E+03  0.10967788706E+03  0.00000000000E+00 0. -1.
         22   -1    0    0    0    0 -0.00000000000E+00 -0.00000000000E+00 -0.55934392476E+03  0.55934392476E+03  0.00000000000E+00 0. -1.
        -24    2    1    2    0    0  0.14803944720E+01 -0.12235202354E+01 -0.32077560218E+03  0.33106415536E+03  0.81870626261E+02 0.  0.
         25    2    1    2    0    0 -0.65287597788E+02  0.16546069878E+02 -0.17502097361E+03  0.22542287740E+03  0.12508752774E+03 0.  0.
         24    2    1    2    0    0  0.63807203316E+02 -0.15322549642E+02  0.46130538091E+02  0.11253477906E+03  0.78929780386E+02 0.  0.
        -13    1    5    5    0    0 -0.16210985959E+02 -0.54453447439E+01  0.22992462221E+02  0.28654862836E+02  0.00000000000E+00 0.  1.
         14    1    5    5    0    0  0.80018189275E+02 -0.98772048983E+01  0.23138075870E+02  0.83879916228E+02  0.00000000000E+00 0. -1.
         11    1    3    3    0    0 -0.77732485185E+01  0.36542998932E+02 -0.21801355467E+03  0.22119160062E+03  0.00000000000E+00 0. -1.
        -12    1    3    3    0    0  0.92536429905E+01 -0.37766519167E+02 -0.10276204751E+03  0.10987255475E+03  0.00000000000E+00 0.  1.
          5    1    4    4  501    0 -0.85478411159E+01  0.49162656499E+02 -0.14480123027E+03  0.15321521162E+03  0.41800000000E+01 0.  1.
         -5    1    4    4    0  501 -0.56739756672E+02 -0.32616586622E+02 -0.30219743337E+02  0.72207665780E+02  0.41800000000E+01 0.  1.
</event>
<event>
11    1  0.5813833E-009  0.1485254E+03  0.7561462E-02  0.1098395E+00
         22   -1    0    0    0    0  0.00000000000E+00  0.00000000000E+00  0.46372937291E+03  0.46372937291E+03  0.00000000000E+00 0.  1.
         22   -1    0    0    0    0 -0.00000000000E+00 -0.00000000000E+00 -0.25913195711E+03  0.25913195711E+03  0.00000000000E+00 0. -1.
        -24    2    1    2    0    0 -0.33003338872E+02  0.15843511544E+02 -0.18683577475E+03  0.20702467141E+03  0.81310335204E+02 0.  0.
         25    2    1    2    0    0  0.84176791980E+02  0.43668031810E+02  0.63622168805E+02  0.16936934489E+03  0.12508223421E+03 0.  0.
         24    2    1    2    0    0 -0.51173453108E+02 -0.59511543355E+02  0.32781102174E+03  0.34646731372E+03  0.80119831551E+02 0.  0.
        -11    1    5    5    0    0 -0.56818513688E+02 -0.20079397180E+02  0.26739302968E+03  0.27409954033E+03  0.00000000000E+00 0.  1.
         12    1    5    5    0    0  0.56450605803E+01 -0.39432146174E+02  0.60417992064E+02  0.72367773393E+02  0.00000000000E+00 0. -1.
         13    1    3    3    0    0 -0.34951635225E+02 -0.89582967608E+00 -0.18693045421E+03  0.19017206427E+03  0.00000000000E+00 0. -1.
        -14    1    3    3    0    0  0.19482963530E+01  0.16739341220E+02  0.94679466148E-01  0.16852607139E+02  0.00000000000E+00 0.  1.
          5    1    4    4  501    0  0.63279973664E+02  0.36728707008E+02  0.10159896193E+03  0.12527240100E+03  0.41800000000E+01 0.  1.
         -5    1    4    4    0  501  0.20896818315E+02  0.69393248022E+01 -0.37976793127E+02  0.44096943893E+02  0.41800000000E+01 0.  1.
</event>
<event>
11    1  0.5813833E-009  0.3249489E+03  0.7561462E-02  0.9901523E-01
         22   -1    0    0    0    0  0.00000000000E+00  0.00000000000E+00  0.40038601704E+03  0.40038601704E+03  0.00000000000E+00 0.  1.
         22   -1    0    0    0    0 -0.00000000000E+00 -0.00000000000E+00 -0.72236718126E+03  0.72236718126E+03  0.00000000000E+00 0.  1.
         24    2    1    2    0    0  0.12773450170E+03 -0.36698761183E+02 -0.51966939237E+03  0.54258595283E+03  0.81733327676E+02 0.  0.
         25    2    1    2    0    0  0.19859507816E+00 -0.47146642920E+02 -0.14467042408E+03  0.19696739552E+03  0.12507508911E+03 0.  0.
        -24    2    1    2    0    0 -0.12793309678E+03  0.83845404103E+02  0.34235865222E+03  0.38319984995E+03  0.78966760160E+02 0.  0.
        -13    1    3    3    0    0  0.12728555434E+03 -0.29703813543E+02 -0.51937637801E+03  0.53557049108E+03  0.00000000000E+00 0.  1.
         14    1    3    3    0    0  0.44894736658E+00 -0.69949476395E+01 -0.29301435754E+00  0.70154617547E+01  0.00000000000E+00 0. -1.
         11    1    5    5    0    0 -0.63995413187E+02  0.58649704141E+01  0.83310689967E+02  0.10521635733E+03  0.00000000000E+00 0. -1.
        -12    1    5    5    0    0 -0.63937683593E+02  0.77980433689E+02  0.25904796225E+03  0.27798349262E+03  0.00000000000E+00 0.  1.
          5    1    4    4  501    0  0.15218872174E+02  0.27917710404E+02  0.12913579299E+01  0.32095990867E+02  0.41800000000E+01 0. -1.
         -5    1    4    4    0  501 -0.15020277096E+02 -0.75064353324E+02 -0.14596178201E+03  0.16487140465E+03  0.41800000000E+01 0. -1.
</event>
<event>
11    1  0.5813833E-009  0.1624523E+03  0.7561462E-02  0.1084793E+00
         22   -1    0    0    0    0  0.00000000000E+00  0.00000000000E+00  0.19117541236E+03  0.19117541236E+03  0.00000000000E+00 0.  1.
         22   -1    0    0    0    0 -0.00000000000E+00 -0.00000000000E+00 -0.12216587506E+04  0.12216587506E+04  0.00000000000E+00 0.  1.
        -24    2    1    2    0    0 -0.98983105657E+02  0.34407802320E+02 -0.62223897710E+03  0.63657870839E+03  0.84080647524E+02 0.  0.
         25    2    1    2    0    0  0.10660512226E+03  0.59307923708E+01 -0.56905878989E+03  0.59234705996E+03  0.12508919499E+03 0.  0.
         24    2    1    2    0    0 -0.76220166010E+01 -0.40338594691E+02  0.16081442874E+03  0.18390839461E+03  0.79219440546E+02 0.  0.
        -13    1    5    5    0    0 -0.21996470050E+02  0.12224375042E+02  0.95933747666E+02  0.99179453422E+02  0.00000000000E+00 0.  1.
         14    1    5    5    0    0  0.14374453449E+02 -0.52562969733E+02  0.64880681072E+02  0.84728941192E+02  0.00000000000E+00 0. -1.
         13    1    3    3    0    0 -0.17403789465E+02 -0.26235665420E+02 -0.18661712901E+03  0.18925420701E+03  0.00000000000E+00 0. -1.
        -14    1    3    3    0    0 -0.81579316192E+02  0.60643467740E+02 -0.43562184808E+03  0.44732450138E+03  0.00000000000E+00 0.  1.
          5    1    4    4  501    0  0.12796815448E+03 -0.40350575128E+01 -0.53850054386E+03  0.55352726977E+03  0.41800000000E+01 0. -1.
         -5    1    4    4    0  501 -0.21363032218E+02  0.99658498836E+01 -0.30558246028E+02  0.38819790182E+02  0.41800000000E+01 0. -1.
</event>
<event>
11    1  0.5813833E-009  0.1585372E+03  0.7561462E-02  0.1088461E+00
         22   -1    0    0    0    0  0.00000000000E+00  0.00000000000E+00  0.26245604851E+04  0.26245604851E+04  0.00000000000E+00 0.  1.
         22   -1    0    0    0    0 -0.00000000000E+00 -0.00000000000E+00 -0.82555750517E+02  0.82555750517E+02  0.00000000000E+00 0.  1.
        -24    2    1    2    0    0  0.18719617636E+02  0.16760269639E+02 -0.43981899970E+02  0.96445408185E+02  0.82073007209E+02 0.  0.
         25    2    1    2    0    0  0.66441937258E+02  0.38329866569E+02  0.51038654509E+03  0.53106116635E+03  0.12509127586E+03 0.  0.
         24    2    1    2    0    0 -0.85161554893E+02 -0.55090136208E+02  0.20756000894E+04  0.20796096610E+04  0.79832308944E+02 0.  0.
        -13    1    5    5    0    0 -0.20038552017E+02 -0.12801207832E+02  0.12818645699E+04  0.12820850947E+04  0.00000000000E+00 0.  1.
         14    1    5    5    0    0 -0.65123002877E+02 -0.42288928376E+02  0.79373551951E+03  0.79752456633E+03  0.00000000000E+00 0. -1.
         13    1    3    3    0    0  0.39112753615E+02  0.19125752749E+02  0.45248639128E+01  0.43773008887E+02  0.00000000000E+00 0. -1.
        -14    1    3    3    0    0 -0.20393135980E+02 -0.23654831103E+01 -0.48506763883E+02  0.52672399298E+02  0.00000000000E+00 0.  1.
          5    1    4    4  501    0  0.91327724743E+02  0.10203167320E+02  0.22341536648E+03  0.24161282315E+03  0.41800000000E+01 0.  1.
         -5    1    4    4    0  501 -0.24885787485E+02  0.28126699249E+02  0.28697117861E+03  0.28944834320E+03  0.41800000000E+01 0.  1.
</event>
<event>
11    1  0.5813833E-009  0.1601147E+03  0.7561462E-02  0.1086969E+00
         22   -1    0    0    0    0  0.00000000000E+00  0.00000000000E+00  0.15475376860E+04  0.15475376860E+04  0.00000000000E+00 0. -1.
         22   -1    0    0    0    0 -0.00000000000E+00 -0.00000000000E+00 -0.49394202453E+02  0.49394202453E+02  0.00000000000E+00 0. -1.
        -24    2    1    2    0    0  0.45987046754E+01 -0.10534742927E+01  0.18730695883E+02  0.80772187869E+02  0.78428626611E+02 0.  0.
         25    2    1    2    0    0 -0.80528014948E+02  0.64541821455E+02  0.44997788002E+03  0.47830895744E+03  0.12509579670E+03 0.  0.
         24    2    1    2    0    0  0.75929310272E+02 -0.63488347162E+02  0.10294349077E+04  0.10378507432E+04  0.87188907469E+02 0.  0.
        -13    1    5    5    0    0  0.17518237666E+02 -0.56994790001E+02  0.28899177278E+03  0.29507886992E+03  0.00000000000E+00 0.  1.
         14    1    5    5    0    0  0.58411072606E+02 -0.64935571619E+01  0.74044313488E+03  0.74277187324E+03  0.00000000000E+00 0. -1.
         11    1    3    3    0    0 -0.16582861612E+01 -0.23155483759E+02 -0.23289348894E+02  0.32883432197E+02  0.00000000000E+00 0. -1.
        -12    1    3    3    0    0  0.62569908366E+01  0.22102009466E+02  0.42020044777E+02  0.47888755672E+02  0.00000000000E+00 0.  1.
          5    1    4    4  501    0  0.25780662183E+02 -0.96221462935E+01  0.43492842127E+02  0.51636498314E+02  0.41800000000E+01 0.  1.
         -5    1    4    4    0  501 -0.10630867713E+03  0.74163967749E+02  0.40648503789E+03  0.42667245913E+03  0.41800000000E+01 0.  1.
</event>
<event>
11    1  0.5813833E-009  0.3173755E+03  0.7561462E-02  0.9930944E-01
         22   -1    0    0    0    0  0.00000000000E+00  0.00000000000E+00  0.18632744341E+04  0.18632744341E+04  0.00000000000E+00 0. -1.
         22   -1    0    0    0    0 -0.00000000000E+00 -0.00000000000E+00 -0.73915674062E+03  0.73915674062E+03  0.00000000000E+00 0.  1.
        -24    2    1    2    0    0 -0.11624934284E+02  0.30565209345E+03 -0.59592062070E+03  0.67464712043E+03  0.80430153586E+02 0.  0.
         25    2    1    2    0    0  0.56801553810E+02 -0.22665311216E+03  0.71197348203E+02  0.27443612205E+03  0.12509225767E+03 0.  0.
         24    2    1    2    0    0 -0.45176619526E+02 -0.78998981290E+02  0.16488409659E+04  0.16533479322E+04  0.81247079455E+02 0.  0.
        -13    1    5    5    0    0  0.18600533422E+02 -0.33920519431E+02  0.34325805624E+03  0.34543114315E+03  0.00000000000E+00 0.  1.
         14    1    5    5    0    0 -0.63777152947E+02 -0.45078461859E+02  0.13055829097E+04  0.13079167890E+04  0.00000000000E+00 0. -1.
         11    1    3    3    0    0  0.25590539703E+02  0.74200206368E+02 -0.10996588260E+03  0.13510381816E+03  0.00000000000E+00 0. -1.
        -12    1    3    3    0    0 -0.37215473987E+02  0.23145188709E+03 -0.48595473810E+03  0.53954330227E+03  0.00000000000E+00 0.  1.
          5    1    4    4  501    0  0.92340670325E+02 -0.17954658243E+03  0.74349311590E+02  0.21519541629E+03  0.41800000000E+01 0. -1.
         -5    1    4    4    0  501 -0.35539116515E+02 -0.47106529736E+02 -0.31519633866E+01  0.59240705766E+02  0.41800000000E+01 0. -1.
</event>
<event>
11    1  0.5813833E-009  0.1534563E+03  0.7561462E-02  0.1093399E+00
         22   -1    0    0    0    0  0.00000000000E+00  0.00000000000E+00  0.71509353345E+03  0.71509353345E+03  0.00000000000E+00 0. -1.
         22   -1    0    0    0    0 -0.00000000000E+00 -0.00000000000E+00 -0.43913739393E+03  0.43913739393E+03  0.00000000000E+00 0.  1.
         24    2    1    2    0    0  0.30031742821E+02 -0.11939251056E+02 -0.35944585589E+03  0.36844610014E+03  0.74207507024E+02 0.  0.
         25    2    1    2    0    0  0.49152103945E+02  0.55669811267E+02  0.68959057970E+01  0.14563684898E+03  0.12508989190E+03 0.  0.
        -24    2    1    2    0    0 -0.79183846766E+02 -0.43730560211E+02  0.62850608962E+03  0.64014797825E+03  0.81160864252E+02 0.  0.
        -11    1    3    3    0    0  0.26485785686E+02 -0.34438125099E+02 -0.31968532522E+03  0.32262391180E+03  0.00000000000E+00 0.  1.
         12    1    3    3    0    0  0.35459571358E+01  0.22498874043E+02 -0.39760530679E+02  0.45822188349E+02  0.00000000000E+00 0. -1.
         13    1    5    5    0    0 -0.72218424893E+02 -0.66027639277E+02  0.52464353760E+03  0.53369091391E+03  0.00000000000E+00 0. -1.
        -14    1    5    5    0    0 -0.69654218729E+01  0.22297079065E+02  0.10386255202E+03  0.10645706434E+03  0.00000000000E+00 0.  1.
          5    1    4    4  501    0 -0.13483728439E+02  0.45279321913E+02  0.49895397291E+02  0.68840765513E+02  0.41800000000E+01 0.  1.
         -5    1    4    4    0  501  0.62635832384E+02  0.10390489354E+02 -0.42999491494E+02  0.76796083469E+02  0.41800000000E+01 0.  1.
</event>
<event>
11    1  0.5813833E-009  0.1653597E+03  0.7561462E-02  0.1082142E+00
         22   -1    0    0    0    0  0.00000000000E+00  0.00000000000E+00  0.63285751322E+03  0.63285751322E+03  0.00000000000E+00 0. -1.
         22   -1    0    0    0    0 -0.00000000000E+00 -0.00000000000E+00 -0.22958308222E+03  0.22958308222E+03  0.00000000000E+00 0.  1.
        -24    2    1    2    0    0  0.27673251376E+02 -0.87868023581E+02 -0.14683403719E+03  0.19078114022E+03  0.79690718262E+02 0.  0.
         25    2    1    2    0    0 -0.12048854956E+03  0.12024189280E+03  0.16944328369E+03  0.27080507993E+03  0.12509501018E+03 0.  0.
         24    2    1    2    0    0  0.92815298181E+02 -0.32373869215E+02  0.38066518449E+03  0.40085437529E+03  0.78201665681E+02 0.  0.
        -11    1    5    5    0    0  0.49783750763E+02 -0.30330261367E+02  0.91463136592E+02  0.10846129240E+03  0.00000000000E+00 0.  1.
         12    1    5    5    0    0  0.43031547417E+02 -0.20436078473E+01  0.28920204790E+03  0.29239308288E+03  0.00000000000E+00 0. -1.
         11    1    3    3    0    0 -0.10384459401E+01 -0.72386132889E+02 -0.48399221673E+02  0.87082232764E+02  0.00000000000E+00 0. -1.
        -12    1    3    3    0    0  0.28711697316E+02 -0.15481890692E+02 -0.98434815517E+02  0.10369890746E+03  0.00000000000E+00 0.  1.
          5    1    4    4  501    0 -0.22127042128E+02  0.57708968183E+02  0.13604752199E+03  0.14948689455E+03  0.41800000000E+01 0.  1.
         -5    1    4    4    0  501 -0.98361507429E+02  0.62532924613E+02  0.33395761694E+02  0.12131818538E+03  0.41800000000E+01 0.  1.
</event>
<event>
11    1  0.5813833E-009  0.1373513E+03  0.7561462E-02  0.1110553E+00
         22   -1    0    0    0    0  0.00000000000E+00  0.00000000000E+00  0.49442488111E+03  0.49442488111E+03  0.00000000000E+00 0. -1.
         22   -1    0    0    0    0 -0.00000000000E+00 -0.00000000000E+00 -0.11981007059E+03  0.11981007059E+03  0.00000000000E+00 0. -1.
        -24    2    1    2    0    0 -0.20028348092E+02  0.25312228345E+02 -0.61997468816E+02  0.10849071338E+03  0.82974123195E+02 0.  0.
         25    2    1    2    0    0  0.44511914541E+02 -0.67500266958E+02  0.18766408778E+03  0.23958520866E+03  0.12508263586E+03 0.  0.
         24    2    1    2    0    0 -0.24483566449E+02  0.42188038613E+02  0.24894819156E+03  0.26615902964E+03  0.80536646014E+02 0.  0.
        -11    1    5    5    0    0  0.10127926414E+02 -0.20240256956E+02  0.53862891603E+02  0.58424772031E+02  0.00000000000E+00 0.  1.
         12    1    5    5    0    0 -0.34611492863E+02  0.62428295569E+02  0.19508529996E+03  0.20773425761E+03  0.00000000000E+00 0. -1.
         11    1    3    3    0    0 -0.48592596923E+02  0.28404824579E+02 -0.55474352919E+02  0.79028339011E+02  0.00000000000E+00 0. -1.
        -12    1    3    3    0    0  0.28564248831E+02 -0.30925962336E+01 -0.65231158973E+01  0.29462374374E+02  0.00000000000E+00 0.  1.
          5    1    4    4  501    0  0.62436993689E+02 -0.96190662653E+02  0.14829777698E+03  0.18751193247E+03  0.41800000000E+01 0.  1.
         -5    1    4    4    0  501 -0.17925079147E+02  0.28690395695E+02  0.39366310799E+02  0.52073276193E+02  0.41800000000E+01 0.  1.
</event>
<event>
11    1  0.5813833E-009  0.1371979E+03  0.7561462E-02  0.1110728E+00
         22   -1    0    0    0    0  0.00000000000E+00  0.00000000000E+00  0.12156504581E+03  0.12156504581E+03  0.00000000000E+00 0. -1.
         22   -1    0    0    0    0 -0.00000000000E+00 -0.00000000000E+00 -0.33625829630E+03  0.33625829630E+03  0.00000000000E+00 0. -1.
         24    2    1    2    0    0 -0.19183528464E+02 -0.40866881246E+02 -0.51181686271E+02  0.10376139937E+03  0.78158513570E+02 0.  0.
         25    2    1    2    0    0 -0.35204444735E+02  0.57532415202E+02 -0.20366414936E+03  0.24834447131E+03  0.12508620613E+03 0.  0.
        -24    2    1    2    0    0  0.54387973199E+02 -0.16665533956E+02  0.40152585143E+02  0.10571747142E+03  0.79549745568E+02 0.  0.
        -11    1    3    3    0    0 -0.23729544343E+02  0.20255474555E+01  0.12461572731E+02  0.26879079451E+02  0.00000000000E+00 0.  1.
         12    1    3    3    0    0  0.45460158790E+01 -0.42892428702E+02 -0.63643259002E+02  0.76882319923E+02  0.00000000000E+00 0. -1.
         11    1    5    5    0    0  0.71990029760E+02  0.21554995311E+01  0.29978586690E+02  0.78012346606E+02  0.00000000000E+00 0. -1.
        -12    1    5    5    0    0 -0.17602056560E+02 -0.18821033487E+02  0.10173998453E+02  0.27705124818E+02  0.00000000000E+00 0.  1.
          5    1    4    4  501    0  0.41784139662E+01  0.10344865658E+01  0.16534387994E+02  0.17589419890E+02  0.41800000000E+01 0.  1.
         -5    1    4    4    0  501 -0.39382858701E+02  0.56497928636E+02 -0.22019853736E+03  0.23075505142E+03  0.41800000000E+01 0.  1.
</event>
<event>
11    1  0.5813833E-009  0.1811266E+03  0.7561462E-02  0.1068735E+00
         22   -1    0    0    0    0  0.00000000000E+00  0.00000000000E+00  0.19699589173E+04  0.19699589173E+04  0.00000000000E+00 0.  1.
         22   -1    0    0    0    0 -0.00000000000E+00 -0.00000000000E+00 -0.45106109023E+03  0.45106109023E+03  0.00000000000E+00 0. -1.
        -24    2    1    2    0    0 -0.13519622793E+03  0.71806965665E+01 -0.34280075952E+03  0.37715810206E+03  0.80039307681E+02 0.  0.
         25    2    1    2    0    0  0.10837127788E+03  0.68876495012E+02  0.75184746165E+00  0.17926678054E+03  0.12509079861E+03 0.  0.
         24    2    1    2    0    0  0.26824950058E+02 -0.76057191578E+02  0.18609467391E+04  0.18645951249E+04  0.84189902593E+02 0.  0.
        -13    1    5    5    0    0  0.55617931214E+02 -0.50256989276E+02  0.14113093345E+04  0.14132986793E+04  0.00000000000E+00 0.  1.
         14    1    5    5    0    0 -0.28792981156E+02 -0.25800202302E+02  0.44963740463E+03  0.45129644564E+03  0.00000000000E+00 0. -1.
         13    1    3    3    0    0 -0.14318909719E+03  0.90520451342E+00 -0.29043486625E+03  0.32381529995E+03  0.00000000000E+00 0. -1.
        -14    1    3    3    0    0  0.79928692515E+01  0.62754920531E+01 -0.52365893269E+02  0.53342802113E+02  0.00000000000E+00 0.  1.
          5    1    4    4  501    0  0.11930350534E+03  0.17238599455E+02  0.21282094404E+02  0.12247814352E+03  0.41800000000E+01 0.  1.
         -5    1    4    4    0  501 -0.10932227465E+02  0.51637895557E+02 -0.20530246942E+02  0.56788637018E+02  0.41800000000E+01 0.  1.
</event>
<event>
11    1  0.5813833E-009  0.1963949E+03  0.7561462E-02  0.1057103E+00
         22   -1    0    0    0    0  0.00000000000E+00  0.00000000000E+00  0.25427843002E+03  0.25427843002E+03  0.00000000000E+00 0.  1.
         22   -1    0    0    0    0 -0.00000000000E+00 -0.00000000000E+00 -0.28653517305E+04  0.28653517305E+04  0.00000000000E+00 0.  1.
        -24    2    1    2    0    0  0.92535444753E+02  0.56382817666E+01 -0.25309909392E+04  0.25338751343E+04  0.77546523146E+02 0.  0.
         25    2    1    2    0    0 -0.19093784327E+03  0.10113093146E+03 -0.24649077995E+03  0.35084167905E+03  0.12508978323E+03 0.  0.
         24    2    1    2    0    0  0.98402398521E+02 -0.10676921323E+03  0.16640841862E+03  0.23491334719E+03  0.80061363774E+02 0.  0.
        -13    1    5    5    0    0  0.85232015781E+02 -0.78275104485E+02  0.16740248736E+03  0.20350695632E+03  0.00000000000E+00 0.  1.
         14    1    5    5    0    0  0.13170382741E+02 -0.28494108741E+02 -0.99406873774E+00  0.31406390864E+02  0.00000000000E+00 0. -1.
         13    1    3    3    0    0  0.63331411856E+02 -0.31663241507E+02 -0.12448890805E+04  0.12469010592E+04  0.00000000000E+00 0. -1.
        -14    1    3    3    0    0  0.29204032897E+02  0.37301523274E+02 -0.12861018587E+04  0.12869740752E+04  0.00000000000E+00 0.  1.
          5    1    4    4  501    0 -0.13122866713E+03  0.32316378778E+02 -0.21570769812E+03  0.25458317863E+03  0.41800000000E+01 0. -1.
         -5    1    4    4    0  501 -0.59709176146E+02  0.68814552682E+02 -0.30783081833E+02  0.96258500424E+02  0.41800000000E+01 0. -1.
</event>
<event>
11    1  0.5813833E-009  0.1724224E+03  0.7561462E-02  0.1075943E+00
         22   -1    0    0    0    0  0.00000000000E+00  0.00000000000E+00  0.10123013238E+04  0.10123013238E+04  0.00000000000E+00 0. -1.
         22   -1    0    0    0    0 -0.00000000000E+00 -0.00000000000E+00 -0.93446975311E+03  0.93446975311E+03  0.00000000000E+00 0.  1.
        -24    2    1    2    0    0 -0.13988090384E+02 -0.87782228912E+01 -0.87416660506E+03  0.87817912361E+03  0.82210679837E+02 0.  0.
         25    2    1    2    0    0  0.80986578302E+02 -0.89068080322E+02  0.92001527675E+02  0.19647849678E+03  0.12509024664E+03 0.  0.
         24    2    1    2    0    0 -0.66998487918E+02  0.97846303214E+02  0.85999664807E+03  0.87211345652E+03  0.83216283963E+02 0.  0.
        -11    1    5    5    0    0  0.59294275546E+01  0.42882079852E+02  0.44959529374E+03  0.45167461633E+03  0.00000000000E+00 0.  1.
         12    1    5    5    0    0 -0.72927915473E+02  0.54964223362E+02  0.41040135433E+03  0.42043884019E+03  0.00000000000E+00 0. -1.
         13    1    3    3    0    0 -0.81447901932E+01 -0.41856557144E+02 -0.29814401783E+03  0.30117796127E+03  0.00000000000E+00 0. -1.
        -14    1    3    3    0    0 -0.58433001909E+01  0.33078334253E+02 -0.57602258722E+03  0.57700116234E+03  0.00000000000E+00 0.  1.
          5    1    4    4  501    0  0.45800440869E+02  0.48472601192E+01  0.83866695853E+02  0.95771976004E+02  0.41800000000E+01 0.  1.
         -5    1    4    4    0  501  0.35186137433E+02 -0.93915340442E+02  0.81348318222E+01  0.10070652077E+03  0.41800000000E+01 0.  1.
</event>
<event>
11    1  0.5813833E-009  0.1535072E+03  0.7561462E-02  0.1093348E+00
         22   -1    0    0    0    0  0.00000000000E+00  0.00000000000E+00  0.41426350029E+03  0.41426350029E+03  0.00000000000E+00 0. -1.
         22   -1    0    0    0    0 -0.00000000000E+00 -0.00000000000E+00 -0.71365472105E+03  0.71365472105E+03  0.00000000000E+00 0. -1.
        -24    2    1    2    0    0 -0.44888396379E+02  0.68538269845E+02 -0.60300475441E+03  0.61373875009E+03  0.79674694610E+02 0.  0.
         25    2    1    2    0    0  0.20598453967E+02 -0.14816366581E+03  0.65792304629E+01  0.19510677317E+03  0.12508636412E+03 0.  0.
         24    2    1    2    0    0  0.24289942412E+02  0.79625395967E+02  0.29703430319E+03  0.31907269808E+03  0.81534068950E+02 0.  0.
        -11    1    5    5    0    0 -0.20189569112E+02  0.49082249382E-01  0.24795795582E+02  0.31975812555E+02  0.00000000000E+00 0.  1.
         12    1    5    5    0    0  0.44479511524E+02  0.79576313718E+02  0.27223850761E+03  0.28709688552E+03  0.00000000000E+00 0. -1.
         13    1    3    3    0    0 -0.65955442480E+02  0.57666740670E+02 -0.40813872727E+03  0.41743597601E+03  0.00000000000E+00 0. -1.
        -14    1    3    3    0    0  0.21067046101E+02  0.10871529175E+02 -0.19486602714E+03  0.19630277408E+03  0.00000000000E+00 0.  1.
          5    1    4    4  501    0  0.40307143109E+02 -0.16306788205E+03 -0.35784955395E+01  0.16806569540E+03  0.41800000000E+01 0. -1.
         -5    1    4    4    0  501 -0.19708689142E+02  0.14904216234E+02  0.10157726002E+02  0.27041077767E+02  0.41800000000E+01 0. -1.
</event>
<event>
11    1  0.5813833E-009  0.1779217E+03  0.7561462E-02  0.1071336E+00
         22   -1    0    0    0    0  0.00000000000E+00  0.00000000000E+00  0.13249610510E+04  0.13249610510E+04  0.00000000000E+00 0.  1.
         22   -1    0    0    0    0 -0.00000000000E+00 -0.00000000000E+00 -0.18229593727E+03  0.18229593727E+03  0.00000000000E+00 0. -1.
         24    2    1    2    0    0 -0.10318889453E+03 -0.95544475974E+02 -0.10932360571E+03  0.19890623718E+03  0.88517487414E+02 0.  0.
         25    2    1    2    0    0  0.43409164875E+02  0.48150264782E+02  0.17146718081E+03  0.22192594602E+03  0.12508927943E+03 0.  0.
        -24    2    1    2    0    0  0.59779729660E+02  0.47394211192E+02  0.10805215386E+04  0.10864248051E+04  0.83499906024E+02 0.  0.
        -13    1    3    3    0    0 -0.63656956268E+02 -0.11972281592E+01 -0.46785509643E+02  0.79009653519E+02  0.00000000000E+00 0.  1.
         14    1    3    3    0    0 -0.39531938266E+02 -0.94347247815E+02 -0.62538096071E+02  0.11989658366E+03  0.00000000000E+00 0. -1.
         11    1    5    5    0    0  0.45432820799E+02  0.55973812349E+01  0.21712081641E+03  0.22189394043E+03  0.00000000000E+00 0. -1.
        -12    1    5    5    0    0  0.14346908862E+02  0.41796829957E+02  0.86340072220E+03  0.86453086463E+03  0.00000000000E+00 0.  1.
          5    1    4    4  501    0 -0.42102462074E+02  0.20203049486E+01  0.38878585957E+02  0.57495354515E+02  0.41800000000E+01 0. -1.
         -5    1    4    4    0  501  0.85511626948E+02  0.46129959833E+02  0.13258859485E+03  0.16443059150E+03  0.41800000000E+01 0. -1.
</event>
<event>
11    1  0.5813833E-009  0.1685646E+03  0.7561462E-02  0.1079288E+00
         22   -1    0    0    0    0  0.00000000000E+00  0.00000000000E+00  0.10149654181E+03  0.10149654181E+03  0.00000000000E+00 0. -1.
         22   -1    0    0    0    0 -0.00000000000E+00 -0.00000000000E+00 -0.98401099878E+03  0.98401099878E+03  0.00000000000E+00 0. -1.
         24    2    1    2    0    0  0.72216192017E+02 -0.79836836547E+02 -0.48694092896E+03  0.50501156098E+03  0.79599683229E+02 0.  0.
         25    2    1    2    0    0 -0.43691586789E+02  0.12198905044E+03 -0.44031737251E+03  0.47572756673E+03  0.12508815304E+03 0.  0.
        -24    2    1    2    0    0 -0.28524605227E+02 -0.42152213898E+02  0.44743844501E+02  0.10476841288E+03  0.79899602485E+02 0.  0.
        -11    1    3    3    0    0 -0.15203597194E+02  0.15671198731E+00 -0.47449224394E+02  0.49825724499E+02  0.00000000000E+00 0.  1.
         12    1    3    3    0    0  0.87419789210E+02 -0.79993548534E+02 -0.43949170456E+03  0.45518583648E+03  0.00000000000E+00 0. -1.
         13    1    5    5    0    0 -0.27374156539E+02 -0.41366319223E+02  0.66502916899E+02  0.82964780289E+02  0.00000000000E+00 0. -1.
        -14    1    5    5    0    0 -0.11504486880E+01 -0.78589467420E+00 -0.21759072398E+02  0.21803632593E+02  0.00000000000E+00 0.  1.
          5    1    4    4  501    0  0.50935724924E+01  0.81720186600E+02 -0.98848635322E+02  0.12842374579E+03  0.41800000000E+01 0.  1.
         -5    1    4    4    0  501 -0.48785159282E+02  0.40268863845E+02 -0.34146873719E+03  0.34730382094E+03  0.41800000000E+01 0.  1.
</event>
<event>
11    1  0.5813833E-009  0.1404282E+03  0.7561462E-02  0.1107081E+00
         22   -1    0    0    0    0  0.00000000000E+00  0.00000000000E+00  0.70720825094E+02  0.70720825094E+02  0.00000000000E+00 0.  1.
         22   -1    0    0    0    0 -0.00000000000E+00 -0.00000000000E+00 -0.17075921242E+04  0.17075921242E+04  0.00000000000E+00 0. -1.
         24    2    1    2    0    0  0.49928060379E+02  0.18228937664E+02 -0.89807223972E+03  0.90328937887E+03  0.81073108065E+02 0.  0.
         25    2    1    2    0    0 -0.46832575449E+02 -0.81062337433E+02 -0.75558829944E+03  0.77157370221E+03  0.12509159455E+03 0.  0.
        -24    2    1    2    0    0 -0.30954849299E+01  0.62833399769E+02  0.16789240065E+02  0.10344986819E+03  0.80388920217E+02 0.  0.
        -11    1    3    3    0    0  0.12139389699E+02 -0.19150389420E+02 -0.71479791880E+02  0.74989751596E+02  0.00000000000E+00 0.  1.
         12    1    3    3    0    0  0.37788670680E+02  0.37379327084E+02 -0.82659244784E+03  0.82829962728E+03  0.00000000000E+00 0. -1.
         13    1    5    5    0    0 -0.31767504210E+01  0.80219690194E+02  0.14991826796E+01  0.80296562734E+02  0.00000000000E+00 0. -1.
        -14    1    5    5    0    0  0.81265491148E-01 -0.17386290425E+02  0.15290057386E+02  0.23153305459E+02  0.00000000000E+00 0.  1.
          5    1    4    4  501    0  0.31305114720E+02  0.48323464572E+01 -0.28791781379E+03  0.28968517683E+03  0.41800000000E+01 0.  1.
         -5    1    4    4    0  501 -0.78137690169E+02 -0.85894683890E+02 -0.46767048565E+03  0.48188852538E+03  0.41800000000E+01 0.  1.
</event>
<event>
11    1  0.5813833E-009  0.1411329E+03  0.7561462E-02  0.1106300E+00
         22   -1    0    0    0    0  0.00000000000E+00  0.00000000000E+00  0.65641615342E+03  0.65641615342E+03  0.00000000000E+00 0.  1.
         22   -1    0    0    0    0 -0.00000000000E+00 -0.00000000000E+00 -0.15362831347E+03  0.15362831347E+03  0.00000000000E+00 0. -1.
         24    2    1    2    0    0  0.32026347029E+02 -0.47985239880E+01 -0.58101524515E+02  0.10890262254E+03  0.86228077261E+02 0.  0.
         25    2    1    2    0    0  0.24855222715E+02 -0.31789858767E+02  0.20809195684E+01  0.13145529064E+03  0.12509111077E+03 0.  0.
        -24    2    1    2    0    0 -0.56881569744E+02  0.36588382755E+02  0.55880844490E+03  0.56968655372E+03  0.87759151443E+02 0.  0.
        -13    1    3    3    0    0 -0.18122397445E+02  0.25416467398E+02 -0.89907866771E+01  0.32484647900E+02  0.00000000000E+00 0.  1.
         14    1    3    3    0    0  0.50148744474E+02 -0.30214991386E+02 -0.49110737838E+02  0.76417974638E+02  0.00000000000E+00 0. -1.
         13    1    5    5    0    0  0.58657536250E+01  0.20431800776E+02  0.35913095614E+03  0.35975951579E+03  0.00000000000E+00 0. -1.
        -14    1    5    5    0    0 -0.62747323369E+02  0.16156581979E+02  0.19967748877E+03  0.20992703792E+03  0.00000000000E+00 0.  1.
          5    1    4    4  501    0 -0.39065978473E+02  0.65117378483E+01  0.31958112987E+02  0.51062185515E+02  0.41800000000E+01 0.  1.
         -5    1    4    4    0  501  0.63921201188E+02 -0.38301596615E+02 -0.29877193418E+02  0.80393105122E+02  0.41800000000E+01 0.  1.
</event>
<event>
11    1  0.5813833E-009  0.1330249E+03  0.7561462E-02  0.1115607E+00
         22   -1    0    0    0    0  0.00000000000E+00  0.00000000000E+00  0.35821790236E+03  0.35821790236E+03  0.00000000000E+00 0.  1.
         22   -1    0    0    0    0 -0.00000000000E+00 -0.00000000000E+00 -0.53631413010E+03  0.53631413010E+03  0.00000000000E+00 0.  1.
        -24    2    1    2    0    0  0.16122624677E+00 -0.23712052849E+02 -0.47920021462E+03  0.48662581268E+03  0.81299129326E+02 0.  0.
         25    2    1    2    0    0  0.34062848392E+02 -0.90421420868E+01  0.44581989252E+02  0.13739142913E+03  0.12508722180E+03 0.  0.
         24    2    1    2    0    0 -0.34224074639E+02  0.32754194936E+02  0.25652199764E+03  0.27051479065E+03  0.71628151734E+02 0.  0.
        -11    1    5    5    0    0 -0.47037492139E+02  0.25204960041E+02  0.24735170411E+03  0.25304284460E+03  0.00000000000E+00 0.  1.
         12    1    5    5    0    0  0.12813417500E+02  0.75492348951E+01  0.91702935243E+01  0.17471946052E+02  0.00000000000E+00 0. -1.
         13    1    3    3    0    0  0.15342187462E+02  0.26697099520E+02 -0.13844712127E+03  0.14182990949E+03  0.00000000000E+00 0. -1.
        -14    1    3    3    0    0 -0.15180961215E+02 -0.50409152369E+02 -0.34075309335E+03  0.34479590319E+03  0.00000000000E+00 0.  1.
          5    1    4    4  501    0  0.76383125181E+02 -0.30153399535E+02  0.24108756121E+02  0.85687302662E+02  0.41800000000E+01 0. -1.
         -5    1    4    4    0  501 -0.42320276788E+02  0.21111257448E+02  0.20473233131E+02  0.51704126463E+02  0.41800000000E+01 0. -1.
</event>
<event>
11    1  0.5813833E-009  0.1567223E+03  0.7561462E-02  0.1090201E+00
         22   -1    0    0    0    0  0.00000000000E+00  0.00000000000E+00  0.61983721694E+03  0.61983721694E+03  0.00000000000E+00 0.  1.
         22   -1    0    0    0    0 -0.00000000000E+00 -0.00000000000E+00 -0.38744418857E+03  0.38744418857E+03  0.00000000000E+00 0. -1.
         24    2    1    2    0    0 -0.31867563791E+02 -0.18374643998E+01 -0.33228094067E+03  0.34301030925E+03  0.78908369780E+02 0.  0.
         25    2    1    2    0    0  0.77127145931E+02 -0.77899275372E+02  0.12928891875E+03  0.21066509918E+03  0.12508903132E+03 0.  0.
        -24    2    1    2    0    0 -0.45259582140E+02  0.79736739771E+02  0.43538505029E+03  0.45360599707E+03  0.88271632607E+02 0.  0.
        -11    1    3    3    0    0  0.58086805647E+01  0.33178957255E+02 -0.13219117987E+03  0.13641514582E+03  0.00000000000E+00 0.  1.
         12    1    3    3    0    0 -0.37676244356E+02 -0.35016421655E+02 -0.20008976080E+03  0.20659516343E+03  0.00000000000E+00 0. -1.
         13    1    5    5    0    0 -0.49144635047E+02  0.24766953631E+02  0.10392995900E+03  0.11760116294E+03  0.00000000000E+00 0. -1.
        -14    1    5    5    0    0  0.38850529067E+01  0.54969786140E+02  0.33145509128E+03  0.33600483414E+03  0.00000000000E+00 0.  1.
          5    1    4    4  501    0  0.78465055731E+02 -0.31306267910E+02  0.13914779756E+03  0.16283866048E+03  0.41800000000E+01 0.  1.
         -5    1    4    4    0  501 -0.13379098000E+01 -0.46593007462E+02 -0.98588788109E+01  0.47826438696E+02  0.41800000000E+01 0.  1.
</event>
<event>
11    1  0.5813833E-009  0.1732377E+03  0.7561462E-02  0.1075248E+00
         22   -1    0    0    0    0  0.00000000000E+00  0.00000000000E+00  0.71973196111E+03  0.71973196111E+03  0.00000000000E+00 0.  1.
         22   -1    0    0    0    0 -0.00000000000E+00 -0.00000000000E+00 -0.10300654307E+03  0.10300654307E+03  0.00000000000E+00 0.  1.
         24    2    1    2    0    0 -0.31017851354E+02  0.31898962560E+02 -0.71008972750E+01  0.90690223578E+02  0.78706054376E+02 0.  0.
         25    2    1    2    0    0 -0.94558089115E+02 -0.20043098755E+02  0.98549679352E+02  0.18628784286E+03  0.12509261797E+03 0.  0.
        -24    2    1    2    0    0  0.12557594047E+03 -0.11855863805E+02  0.52527663597E+03  0.54576043775E+03  0.77646846556E+02 0.  0.
        -13    1    3    3    0    0  0.74204309651E+01  0.14990935478E+02 -0.36012282354E+02  0.39707372396E+02  0.00000000000E+00 0.  1.
         14    1    3    3    0    0 -0.38438282319E+02  0.16908027082E+02  0.28911385079E+02  0.50982851182E+02  0.00000000000E+00 0. -1.
         11    1    5    5    0    0  0.26176959190E+02  0.13463167365E+02  0.39439660350E+02  0.49213584268E+02  0.00000000000E+00 0. -1.
        -12    1    5    5    0    0  0.99398981279E+02 -0.25319031170E+02  0.48583697562E+03  0.49654685348E+03  0.00000000000E+00 0.  1.
          5    1    4    4  501    0 -0.24475757994E+02 -0.39745547445E+02  0.10307495148E+03  0.11322848269E+03  0.41800000000E+01 0. -1.
         -5    1    4    4    0  501 -0.70082331121E+02  0.19702448690E+02 -0.45252721249E+01  0.73059360163E+02  0.41800000000E+01 0. -1.
</event>
<event>
11    1  0.5813833E-009  0.1439072E+03  0.7561462E-02  0.1103272E+00
         22   -1    0    0    0    0  0.00000000000E+00  0.00000000000E+00  0.25077868923E+02  0.25077868923E+02  0.00000000000E+00 0.  1.
         22   -1    0    0    0    0 -0.00000000000E+00 -0.00000000000E+00 -0.19363697212E+04  0.19363697212E+04  0.00000000000E+00 0. -1.
         24    2    1    2    0    0  0.57558152489E+01  0.61994932086E+02 -0.11210477934E+04  0.11256923176E+04  0.80984799744E+02 0.  0.
         25    2    1    2    0    0  0.65360675034E+02 -0.59873484860E+02 -0.57261690301E+03  0.59278120800E+03  0.12507034389E+03 0.  0.
        -24    2    1    2    0    0 -0.71116490283E+02 -0.21214472263E+01 -0.21762715583E+03  0.24297406449E+03  0.81318886673E+02 0.  0.
        -11    1    3    3    0    0 -0.40651777166E+01 -0.15570472779E+02 -0.74002845650E+02  0.75732334288E+02  0.00000000000E+00 0.  1.
         12    1    3    3    0    0  0.98209929655E+01  0.77565404866E+02 -0.10470449478E+04  0.10499599833E+04  0.00000000000E+00 0. -1.
         11    1    5    5    0    0 -0.76396379960E+02  0.16163373780E+02 -0.20685916624E+03  0.22110715995E+03  0.00000000000E+00 0. -1.
        -12    1    5    5    0    0  0.52798896776E+01 -0.18284821006E+02 -0.10767989590E+02  0.21866904538E+02  0.00000000000E+00 0.  1.
          5    1    4    4  501    0  0.33352867628E+02  0.31228241366E+02 -0.95202529035E+02  0.10568164823E+03  0.41800000000E+01 0. -1.
         -5    1    4    4    0  501  0.32007807406E+02 -0.91101726226E+02 -0.47741437397E+03  0.48709955977E+03  0.41800000000E+01 0. -1.
</event>
<event>
11    1  0.5813833E-009  0.1905280E+03  0.7561462E-02  0.1061431E+00
         22   -1    0    0    0    0  0.00000000000E+00  0.00000000000E+00  0.11799005073E+04  0.11799005073E+04  0.00000000000E+00 0. -1.
         22   -1    0    0    0    0 -0.00000000000E+00 -0.00000000000E+00 -0.60608521530E+03  0.60608521530E+03  0.00000000000E+00 0. -1.
         24    2    1    2    0    0  0.21471887299E+02  0.24727920409E+02 -0.52153073164E+03  0.52897338600E+03  0.82134201516E+02 0.  0.
         25    2    1    2    0    0 -0.15102832182E+03  0.35756964953E+02  0.59092467522E+02  0.20790970196E+03  0.12508561035E+03 0.  0.
        -24    2    1    2    0    0  0.12955643452E+03 -0.60484885361E+02  0.10362535561E+04  0.10491026346E+04  0.79697016110E+02 0.  0.
        -13    1    3    3    0    0  0.10129367112E+02 -0.28826019689E+02 -0.25900769153E+03  0.26080361915E+03  0.00000000000E+00 0.  1.
         14    1    3    3    0    0  0.11342520187E+02  0.53553940098E+02 -0.26252304010E+03  0.26816976684E+03  0.00000000000E+00 0. -1.
         13    1    5    5    0    0  0.12496565325E+03 -0.71576407786E+02  0.82251512093E+03  0.83502737728E+03  0.00000000000E+00 0. -1.
        -14    1    5    5    0    0  0.45907812714E+01  0.11091522424E+02  0.21373843514E+03  0.21407525733E+03  0.00000000000E+00 0.  1.
          5    1    4    4  501    0 -0.62948609440E+02 -0.37572771724E+02  0.57417444187E+02  0.93211994413E+02  0.41800000000E+01 0. -1.
         -5    1    4    4    0  501 -0.88079712380E+02  0.73329736676E+02  0.16750233352E+01  0.11469770755E+03  0.41800000000E+01 0. -1.
</event>
<event>
11    1  0.5813833E-009  0.1526925E+03  0.7561462E-02  0.1094159E+00
         22   -1    0    0    0    0  0.00000000000E+00  0.00000000000E+00  0.25462078831E+03  0.25462078831E+03  0.00000000000E+00 0. -1.
         22   -1    0    0    0    0 -0.00000000000E+00 -0.00000000000E+00 -0.58243947553E+03  0.58243947553E+03  0.00000000000E+00 0.  1.
        -24    2    1    2    0    0  0.70849899125E+02 -0.22543263830E+02 -0.39991925113E+03  0.41478904882E+03  0.81158121256E+02 0.  0.
         25    2    1    2    0    0 -0.73804045810E+02  0.10726044399E+03 -0.10571974583E+03  0.20922599381E+03  0.12508801623E+03 0.  0.
         24    2    1    2    0    0  0.29541466852E+01 -0.84717180160E+02  0.17782030975E+03  0.21304522120E+03  0.81132460347E+02 0.  0.
        -13    1    5    5    0    0 -0.68900959447E+01 -0.76114667133E+02  0.67540794153E+02  0.10199350396E+03  0.00000000000E+00 0.  1.
         14    1    5    5    0    0  0.98442426299E+01 -0.86025130272E+01  0.11027951559E+03  0.11105171724E+03  0.00000000000E+00 0. -1.
         11    1    3    3    0    0 -0.44743146967E+01  0.64378529758E+01 -0.18578608539E+03  0.18595143174E+03  0.00000000000E+00 0. -1.
        -12    1    3    3    0    0  0.75324213822E+02 -0.28981116805E+02 -0.21413316575E+03  0.22883761708E+03  0.00000000000E+00 0.  1.
          5    1    4    4  501    0 -0.44405416857E+02 -0.18372180407E+02 -0.12023537407E+02  0.49713337355E+02  0.41800000000E+01 0.  1.
         -5    1    4    4    0  501 -0.29398628953E+02  0.12563262440E+03 -0.93696208423E+02  0.15951265646E+03  0.41800000000E+01 0.  1.
</event>
<event>
11    1  0.5813833E-009  0.1989212E+03  0.7561462E-02  0.1055289E+00
         22   -1    0    0    0    0  0.00000000000E+00  0.00000000000E+00  0.73639638902E+02  0.73639638902E+02  0.00000000000E+00 0. -1.
         22   -1    0    0    0    0 -0.00000000000E+00 -0.00000000000E+00 -0.31727595436E+04  0.31727595436E+04  0.00000000000E+00 0. -1.
         24    2    1    2    0    0 -0.39022483833E+02  0.15556084306E+03 -0.25039247370E+04  0.25104355597E+04  0.83220676127E+02 0.  0.
         25    2    1    2    0    0 -0.79835264477E+02 -0.14002665670E+03 -0.54884766544E+03  0.58554457348E+03  0.12509018199E+03 0.  0.
        -24    2    1    2    0    0  0.11885774831E+03 -0.15534186358E+02 -0.46347502294E+02  0.15041904931E+03  0.78162165709E+02 0.  0.
        -13    1    3    3    0    0  0.28625292506E+01  0.10744583323E+02 -0.73917354128E+03  0.73925717059E+03  0.00000000000E+00 0.  1.
         14    1    3    3    0    0 -0.41885013083E+02  0.14481625974E+03 -0.17647511957E+04  0.17711783891E+04  0.00000000000E+00 0. -1.
         11    1    5    5    0    0  0.10162587415E+03  0.15241819566E+02 -0.51206864196E+02  0.11481408582E+03  0.00000000000E+00 0. -1.
        -12    1    5    5    0    0  0.17231874157E+02 -0.30776005924E+02  0.48593619011E+01  0.35604963498E+02  0.00000000000E+00 0.  1.
          5    1    4    4  501    0  0.28789912545E+02 -0.22106424554E+02 -0.52764063100E+02  0.64179995526E+02  0.41800000000E+01 0. -1.
         -5    1    4    4    0  501 -0.10862517702E+03 -0.11792023215E+03 -0.49608360234E+03  0.52136457796E+03  0.41800000000E+01 0. -1.
</event>
<event>
11    1  0.5813833E-009  0.1780566E+03  0.7561462E-02  0.1071226E+00
         22   -1    0    0    0    0  0.00000000000E+00  0.00000000000E+00  0.27051116758E+04  0.27051116758E+04  0.00000000000E+00 0. -1.
         22   -1    0    0    0    0 -0.00000000000E+00 -0.00000000000E+00 -0.45647303554E+02  0.45647303554E+02  0.00000000000E+00 0.  1.
         24    2    1    2    0    0 -0.28249141655E+01 -0.91282756302E+02  0.16439550854E+03  0.20450832367E+03  0.80357012676E+02 0.  0.
         25    2    1    2    0    0 -0.10729068804E+03  0.18501614001E+02  0.27713223119E+03  0.32295783752E+03  0.12508353126E+03 0.  0.
        -24    2    1    2    0    0  0.11011560220E+03  0.72781142301E+02  0.22179366325E+04  0.22232928181E+04  0.79784139286E+02 0.  0.
        -13    1    3    3    0    0  0.11575311213E+02 -0.10251687951E+03  0.14380781447E+03  0.17698696538E+03  0.00000000000E+00 0.  1.
         14    1    3    3    0    0 -0.14400225378E+02  0.11234123204E+02  0.20587694074E+02  0.27521358294E+02  0.00000000000E+00 0. -1.
         13    1    5    5    0    0  0.33749246645E+02  0.38617398819E+02  0.14315935746E+04  0.14325119468E+04  0.00000000000E+00 0. -1.
        -14    1    5    5    0    0  0.76366355559E+02  0.34163743483E+02  0.78634305793E+03  0.79078087128E+03  0.00000000000E+00 0.  1.
          5    1    4    4  501    0  0.76445712391E+01 -0.37037245509E+02  0.59939373327E+02  0.70995759726E+02  0.41800000000E+01 0. -1.
         -5    1    4    4    0  501 -0.11493525928E+03  0.55538859510E+02  0.21719285786E+03  0.25196207780E+03  0.41800000000E+01 0. -1.
</event>
<event>
11    1  0.5813833E-009  0.4262105E+03  0.7561462E-02  0.9575439E-01
         22   -1    0    0    0    0  0.00000000000E+00  0.00000000000E+00  0.31267968831E+03  0.31267968831E+03  0.00000000000E+00 0.  1.
         22   -1    0    0    0    0 -0.00000000000E+00 -0.00000000000E+00 -0.75827042262E+03  0.75827042262E+03  0.00000000000E+00 0.  1.
        -24    2    1    2    0    0 -0.19499805525E+03 -0.10445754753E+03 -0.42408827724E+03  0.48491825488E+03  0.79744756816E+02 0.  0.
         25    2    1    2    0    0 -0.11270881157E+03 -0.33093026836E+02 -0.13632953736E+03  0.21915807858E+03  0.12508435562E+03 0.  0.
         24    2    1    2    0    0  0.30770686682E+03  0.13755057437E+03  0.11482708028E+03  0.36687377746E+03  0.88359684419E+02 0.  0.
        -13    1    5    5    0    0  0.26872887199E+03  0.82848247465E+02  0.89937039731E+02  0.29524178205E+03  0.00000000000E+00 0.  1.
         14    1    5    5    0    0  0.38977994823E+02  0.54702326902E+02  0.24890040549E+02  0.71631995418E+02  0.00000000000E+00 0. -1.
         13    1    3    3    0    0 -0.26327764116E+02 -0.46682803355E+02 -0.13528490943E+03  0.14551440482E+03  0.00000000000E+00 0. -1.
        -14    1    3    3    0    0 -0.16867029113E+03 -0.57774744177E+02 -0.28880336781E+03  0.33940385006E+03  0.00000000000E+00 0.  1.
          5    1    4    4  501    0 -0.30465549517E+02 -0.47661014825E+02 -0.12168820447E+03  0.13425801112E+03  0.41800000000E+01 0.  1.
         -5    1    4    4    0  501 -0.82243262050E+02  0.14567987989E+02 -0.14641332885E+02  0.84900067464E+02  0.41800000000E+01 0.  1.
</event>
<event>
11    1  0.5813833E-009  0.2668166E+03  0.7561462E-02  0.1015303E+00
         22   -1    0    0    0    0  0.00000000000E+00  0.00000000000E+00  0.60892913130E+03  0.60892913130E+03  0.00000000000E+00 0. -1.
         22   -1    0    0    0    0 -0.00000000000E+00 -0.00000000000E+00 -0.72275707002E+03  0.72275707002E+03  0.00000000000E+00 0. -1.
         24    2    1    2    0    0 -0.23685843170E+03 -0.50457812318E+02 -0.59510393559E+03  0.65042747427E+03  0.10128819102E+03 0.  0.
         25    2    1    2    0    0  0.17893633139E+03  0.10526993209E+03  0.66731706005E+02  0.25140018354E+03  0.12509581290E+03 0.  0.
        -24    2    1    2    0    0  0.57922100315E+02 -0.54812119776E+02  0.41454429087E+03  0.42985854350E+03  0.81068243790E+02 0.  0.
        -13    1    3    3    0    0 -0.17116143534E+03  0.43435200948E+01 -0.32864029640E+03  0.37056652241E+03  0.00000000000E+00 0.  1.
         14    1    3    3    0    0 -0.65696996359E+02 -0.54801332413E+02 -0.26646363919E+03  0.27986095186E+03  0.00000000000E+00 0. -1.
         11    1    5    5    0    0  0.16124651406E+02 -0.43318832319E+02  0.34377184796E+03  0.34686540483E+03  0.00000000000E+00 0. -1.
        -12    1    5    5    0    0  0.41797448909E+02 -0.11493287456E+02  0.70772442911E+02  0.82993138677E+02  0.00000000000E+00 0.  1.
          5    1    4    4  501    0  0.94935915911E+02  0.11729853060E+03  0.14470127790E+02  0.15165299341E+03  0.41800000000E+01 0. -1.
         -5    1    4    4    0  501  0.84000415475E+02 -0.12028598506E+02  0.52261578215E+02  0.99747190133E+02  0.41800000000E+01 0. -1.
</event>
<event>
11    1  0.5813833E-009  0.1544911E+03  0.7561462E-02  0.1092376E+00
         22   -1    0    0    0    0  0.00000000000E+00  0.00000000000E+00  0.27225839133E+04  0.27225839133E+04  0.00000000000E+00 0. -1.
         22   -1    0    0    0    0 -0.00000000000E+00 -0.00000000000E+00 -0.15998517850E+03  0.15998517850E+03  0.00000000000E+00 0. -1.
        -24    2    1    2    0    0  0.11697345939E+03  0.41487149161E+02 -0.18933258898E+02  0.14846826456E+03  0.79248870922E+02 0.  0.
         25    2    1    2    0    0 -0.43724366278E+02 -0.42779285807E+02 -0.10644245279E+02  0.13965440203E+03  0.12509262387E+03 0.  0.
         24    2    1    2    0    0 -0.73249093110E+02  0.12921366466E+01  0.25921762390E+04  0.25944464252E+04  0.80046862032E+02 0.  0.
        -13    1    5    5    0    0 -0.47378931175E+02 -0.24143373565E+02  0.73716536725E+03  0.73908081039E+03  0.00000000000E+00 0.  1.
         14    1    5    5    0    0 -0.25870161935E+02  0.25435510211E+02  0.18550108718E+04  0.18553656149E+04  0.00000000000E+00 0. -1.
         13    1    3    3    0    0  0.12749854070E+03  0.39967032297E+02 -0.25418782579E+02  0.13601233789E+03  0.00000000000E+00 0. -1.
        -14    1    3    3    0    0 -0.10525081308E+02  0.15201168636E+01  0.64855236813E+01  0.12455926671E+02  0.00000000000E+00 0.  1.
          5    1    4    4  501    0 -0.70210224163E+02 -0.52119091202E+02 -0.42220008829E+02  0.97189900660E+02  0.41800000000E+01 0.  1.
         -5    1    4    4    0  501  0.26485857884E+02  0.93398053951E+01  0.31575763550E+02  0.42464501368E+02  0.41800000000E+01 0.  1.
</event>
<event>
11    1  0.5813833E-009  0.1323058E+03  0.7561462E-02  0.1116468E+00
         22   -1    0    0    0    0  0.00000000000E+00  0.00000000000E+00  0.21556649953E+04  0.21556649953E+04  0.00000000000E+00 0. -1.
         22   -1    0    0    0    0 -0.00000000000E+00 -0.00000000000E+00 -0.95758694937E+03  0.95758694937E+03  0.00000000000E+00 0. -1.
         24    2    1    2    0    0  0.35278994719E+02 -0.21107469698E+02 -0.89308068366E+03  0.90005140299E+03  0.10396772451E+03 0.  0.
         25    2    1    2    0    0 -0.93332587159E+02  0.55260863823E+02  0.55256215342E+02  0.17454426474E+03  0.12509083149E+03 0.  0.
        -24    2    1    2    0    0  0.58053592440E+02 -0.34153394125E+02  0.20359025143E+04  0.20386562770E+04  0.81753862495E+02 0.  0.
        -11    1    3    3    0    0  0.72416975820E+01  0.16101056942E+02 -0.24373147728E+02  0.30095457276E+02  0.00000000000E+00 0.  1.
         12    1    3    3    0    0  0.28037297137E+02 -0.37208526640E+02 -0.86870753594E+03  0.86995594571E+03  0.00000000000E+00 0. -1.
         13    1    5    5    0    0  0.67709428616E+02 -0.11286382007E+02  0.18262258902E+04  0.18275155133E+04  0.00000000000E+00 0. -1.
        -14    1    5    5    0    0 -0.96558361760E+01 -0.22867012119E+02  0.20967662405E+03  0.21114076368E+03  0.00000000000E+00 0.  1.
          5    1    4    4  501    0 -0.12235183363E+03  0.31967973895E+02  0.52532044675E+02  0.13700003892E+03  0.41800000000E+01 0. -1.
         -5    1    4    4    0  501  0.29019246466E+02  0.23292889928E+02  0.27241706670E+01  0.37544225821E+02  0.41800000000E+01 0. -1.
</event>
<event>
11    1  0.5863927E-009  0.1394672E+03  0.7561462E-02  0.1108155E+00
         22   -1    0    0    0    0  0.00000000000E+00  0.00000000000E+00  0.19082947165E+04  0.19082947165E+04  0.00000000000E+00 0. -1.
         22   -1    0    0    0    0 -0.00000000000E+00 -0.00000000000E+00 -0.91239263563E+03  0.91239263563E+03  0.00000000000E+00 0. -1.
         24    2    1    2    0    0 -0.67038378370E+02 -0.54597259235E+02 -0.58329118434E+03  0.59487490600E+03  0.78565534216E+02 0.  0.
         25    2    1    2    0    0  0.48286013664E+01  0.87220973190E+01 -0.30929286724E+03  0.33377941822E+03  0.12508889610E+03 0.  0.
        -24    2    1    2    0    0  0.62209777004E+02  0.45875161916E+02  0.18884861325E+04  0.18920330280E+04  0.86223659149E+02 0.  0.
        -13    1    3    3    0    0 -0.54400475150E+02 -0.79289166724E+01 -0.16770789644E+03  0.17648857738E+03  0.00000000000E+00 0.  1.
         14    1    3    3    0    0 -0.12637903220E+02 -0.46668342563E+02 -0.41558328790E+03  0.41838632862E+03  0.00000000000E+00 0. -1.
         13    1    5    5    0    0  0.30099723175E+02  0.57501506423E+02  0.16311617724E+04  0.16324524938E+04  0.00000000000E+00 0. -1.
        -14    1    5    5    0    0  0.32110053829E+02 -0.11626344507E+02  0.25732436007E+03  0.25958053419E+03  0.00000000000E+00 0.  1.
          5    1    4    4  501    0  0.54874241144E+02  0.30566005826E+02 -0.22179722341E+03  0.23055789677E+03  0.41800000000E+01 0.  1.
         -5    1    4    4    0  501 -0.50045639778E+02 -0.21843908507E+02 -0.87495643839E+02  0.10322152145E+03  0.41800000000E+01 0.  1.
</event>
<event>
11    1  0.5813833E-009  0.1546990E+03  0.7561462E-02  0.1092172E+00
         22   -1    0    0    0    0  0.00000000000E+00  0.00000000000E+00  0.32918796839E+03  0.32918796839E+03  0.00000000000E+00 0.  1.
         22   -1    0    0    0    0 -0.00000000000E+00 -0.00000000000E+00 -0.21963017522E+04  0.21963017522E+04  0.00000000000E+00 0.  1.
         24    2    1    2    0    0  0.14413710955E+02  0.66025769824E+01 -0.18846362578E+04  0.18873798181E+04  0.10048584172E+03 0.  0.
         25    2    1    2    0    0 -0.99707511001E+02  0.23803093594E+02 -0.27639055450E+03  0.32023798944E+03  0.12510977677E+03 0.  0.
        -24    2    1    2    0    0  0.85293800046E+02 -0.30405670577E+02  0.29391302850E+03  0.31787191307E+03  0.80362601187E+02 0.  0.
        -11    1    3    3    0    0  0.57122134999E+02 -0.28740628809E+01 -0.94976926255E+03  0.95148980585E+03  0.00000000000E+00 0.  1.
         12    1    3    3    0    0 -0.42708424044E+02  0.94766398633E+01 -0.93486699528E+03  0.93589001226E+03  0.00000000000E+00 0. -1.
         13    1    5    5    0    0  0.59276495430E+02 -0.28689927394E+02  0.85938399821E+02  0.10826921727E+03  0.00000000000E+00 0. -1.
        -14    1    5    5    0    0  0.26017304616E+02 -0.17157431829E+01  0.20797462868E+03  0.20960269580E+03  0.00000000000E+00 0.  1.
          5    1    4    4  501    0 -0.51790011414E+02  0.49904560644E+02 -0.50920273708E+02  0.88221409702E+02  0.41800000000E+01 0.  1.
         -5    1    4    4    0  501 -0.47917499587E+02 -0.26101467050E+02 -0.22547028080E+03  0.23201657973E+03  0.41800000000E+01 0.  1.
</event>
<event>
11    1  0.5813833E-009  0.1812227E+03  0.7561462E-02  0.1068658E+00
         22   -1    0    0    0    0  0.00000000000E+00  0.00000000000E+00  0.72846523487E+03  0.72846523487E+03  0.00000000000E+00 0. -1.
         22   -1    0    0    0    0 -0.00000000000E+00 -0.00000000000E+00 -0.72835550206E+03  0.72835550206E+03  0.00000000000E+00 0.  1.
        -24    2    1    2    0    0  0.10640077370E+02  0.24819424659E+02 -0.62248818013E+03  0.63125908493E+03  0.10132760147E+03 0.  0.
         25    2    1    2    0    0 -0.13117707944E+03 -0.71812711157E+02  0.10974110169E+02  0.19527560516E+03  0.12509052412E+03 0.  0.
         24    2    1    2    0    0  0.12053700207E+03  0.46993286498E+02  0.61162380277E+03  0.63028604684E+03  0.80245167344E+02 0.  0.
        -13    1    5    5    0    0 -0.26935648353E+01  0.22466781329E+02  0.15686212430E+03  0.15848576464E+03  0.00000000000E+00 0.  1.
         14    1    5    5    0    0  0.12323056690E+03  0.24526505169E+02  0.45476167847E+03  0.47180028220E+03  0.00000000000E+00 0. -1.
         13    1    3    3    0    0  0.15586775888E+02 -0.22622933215E+02 -0.48414002053E+03  0.48491886349E+03  0.00000000000E+00 0. -1.
        -14    1    3    3    0    0 -0.49466985182E+01  0.47442357874E+02 -0.13834815960E+03  0.14634022144E+03  0.00000000000E+00 0.  1.
          5    1    4    4  501    0 -0.81486298905E+02 -0.45674736370E+02 -0.55047476527E+02  0.10850758279E+03  0.41800000000E+01 0. -1.
         -5    1    4    4    0  501 -0.49690780530E+02 -0.26137974788E+02  0.66021586696E+02  0.86768022368E+02  0.41800000000E+01 0. -1.
</event>
<event>
11    1  0.5813833E-009  0.2233941E+03  0.7561462E-02  0.1039112E+00
         22   -1    0    0    0    0  0.00000000000E+00  0.00000000000E+00  0.53829480556E+03  0.53829480556E+03  0.00000000000E+00 0. -1.
         22   -1    0    0    0    0 -0.00000000000E+00 -0.00000000000E+00 -0.86755624632E+03  0.86755624632E+03  0.00000000000E+00 0. -1.
         24    2    1    2    0    0  0.10005017621E+03  0.14446130065E+03 -0.61248372521E+03  0.64222890704E+03  0.80265498522E+02 0.  0.
         25    2    1    2    0    0 -0.13418186597E+03 -0.18844262740E+03 -0.16142934161E+03  0.30859041793E+03  0.12511281600E+03 0.  0.
        -24    2    1    2    0    0  0.34131689765E+02  0.43981326749E+02  0.44465162606E+03  0.45503172690E+03  0.78990344877E+02 0.  0.
        -13    1    3    3    0    0 -0.35808402349E+01  0.30872315098E+01 -0.10903259141E+03  0.10913505122E+03  0.00000000000E+00 0.  1.
         14    1    3    3    0    0  0.10363101644E+03  0.14137406914E+03 -0.50345113380E+03  0.53309385582E+03  0.00000000000E+00 0. -1.
         11    1    5    5    0    0  0.20193478704E+02  0.60730807589E+01  0.36608067477E+03  0.36668749547E+03  0.00000000000E+00 0. -1.
        -12    1    5    5    0    0  0.13938211061E+02  0.37908245990E+02  0.78570951282E+02  0.88344231430E+02  0.00000000000E+00 0.  1.
          5    1    4    4  501    0  0.48057353514E+01 -0.37482149210E+02  0.12019192219E+02  0.39874051503E+02  0.41800000000E+01 0. -1.
         -5    1    4    4    0  501 -0.13898760133E+03 -0.15096047819E+03 -0.17344853383E+03  0.26871636642E+03  0.41800000000E+01 0. -1.
</event>
<event>
11    1  0.5813833E-009  0.1555474E+03  0.7561462E-02  0.1091341E+00
         22   -1    0    0    0    0  0.00000000000E+00  0.00000000000E+00  0.67477715792E+03  0.67477715792E+03  0.00000000000E+00 0. -1.
         22   -1    0    0    0    0 -0.00000000000E+00 -0.00000000000E+00 -0.11883135179E+03  0.11883135179E+03  0.00000000000E+00 0.  1.
         24    2    1    2    0    0 -0.30700920704E+02 -0.88632090217E+02 -0.52928138213E+02  0.13479100440E+03  0.81049571891E+02 0.  0.
         25    2    1    2    0    0 -0.18545773046E+02  0.90561668357E+02  0.33329898413E+03  0.36781004428E+03  0.12510257540E+03 0.  0.
        -24    2    1    2    0    0  0.49246693750E+02 -0.19295781400E+01  0.27557496021E+03  0.29100746103E+03  0.79465864137E+02 0.  0.
        -13    1    3    3    0    0 -0.57216973423E+02 -0.69916912734E+02 -0.30556855784E+02  0.95372313432E+02  0.00000000000E+00 0.  1.
         14    1    3    3    0    0  0.26516052718E+02 -0.18715177483E+02 -0.22371282430E+02  0.39418690967E+02  0.00000000000E+00 0. -1.
         11    1    5    5    0    0  0.59795383868E+01 -0.17770254482E+02  0.21015830299E+03  0.21099300732E+03  0.00000000000E+00 0. -1.
        -12    1    5    5    0    0  0.43267155364E+02  0.15840676341E+02  0.65416657223E+02  0.80014453710E+02  0.00000000000E+00 0.  1.
          5    1    4    4  501    0 -0.36344646587E+02 -0.14504671502E+02  0.15618836666E+03  0.16107016208E+03  0.41800000000E+01 0.  1.
         -5    1    4    4    0  501  0.17798873541E+02  0.10506633986E+03  0.17711061747E+03  0.20673988220E+03  0.41800000000E+01 0.  1.
</event>
<event>
11    1  0.5813833E-009  0.1593707E+03  0.7561462E-02  0.1087671E+00
         22   -1    0    0    0    0  0.00000000000E+00  0.00000000000E+00  0.61944901063E+03  0.61944901063E+03  0.00000000000E+00 0.  1.
         22   -1    0    0    0    0 -0.00000000000E+00 -0.00000000000E+00 -0.25940330187E+03  0.25940330187E+03  0.00000000000E+00 0. -1.
         24    2    1    2    0    0  0.92899730125E+02 -0.91683250452E+01 -0.75287462045E+02  0.14664520818E+03  0.84393110493E+02 0.  0.
         25    2    1    2    0    0 -0.10562758616E+03 -0.35018115762E+02 -0.95932504779E+02  0.19295736158E+03  0.12508414178E+03 0.  0.
        -24    2    1    2    0    0  0.12727856035E+02  0.44186440807E+02  0.53126567559E+03  0.53924974275E+03  0.80203660270E+02 0.  0.
        -11    1    3    3    0    0  0.93269960043E+01 -0.36674150852E+02 -0.21471763191E+02  0.43508881963E+02  0.00000000000E+00 0.  1.
         12    1    3    3    0    0  0.83572734120E+02  0.27505825807E+02 -0.53815698854E+02  0.10313632621E+03  0.00000000000E+00 0. -1.
         11    1    5    5    0    0 -0.68587985756E+01 -0.16270211160E+02  0.37937574688E+02  0.41845220304E+02  0.00000000000E+00 0. -1.
        -12    1    5    5    0    0  0.19586654611E+02  0.60456651967E+02  0.49332810090E+03  0.49740452244E+03  0.00000000000E+00 0.  1.
          5    1    4    4  501    0 -0.10343068101E+03  0.22071674513E+02 -0.40745504199E+02  0.11341398989E+03  0.41800000000E+01 0. -1.
         -5    1    4    4    0  501 -0.21969051460E+01 -0.57089790275E+02 -0.55187000580E+02  0.79543371684E+02  0.41800000000E+01 0. -1.
</event>
<event>
11    1  0.5813833E-009  0.1358808E+03  0.7561462E-02  0.1112247E+00
         22   -1    0    0    0    0  0.00000000000E+00  0.00000000000E+00  0.79265032617E+03  0.79265032617E+03  0.00000000000E+00 0.  1.
         22   -1    0    0    0    0 -0.00000000000E+00 -0.00000000000E+00 -0.41882420772E+02  0.41882420772E+02  0.00000000000E+00 0.  1.
         24    2    1    2    0    0  0.11488288111E+02 -0.46125369443E+02  0.83687960111E+02  0.12675839840E+03  0.82489310985E+02 0.  0.
         25    2    1    2    0    0 -0.32701697166E+02  0.64909564409E+02  0.33433900515E+03  0.36429695572E+03  0.12508816504E+03 0.  0.
        -24    2    1    2    0    0  0.21213409055E+02 -0.18784194966E+02  0.33274094014E+03  0.34347739282E+03  0.80357522568E+02 0.  0.
        -13    1    3    3    0    0 -0.22513353326E+02 -0.45912580730E+02  0.20675001265E+02  0.55156793095E+02  0.00000000000E+00 0.  1.
         14    1    3    3    0    0  0.34001641437E+02 -0.21278871381E+00  0.63012958846E+02  0.71601605303E+02  0.00000000000E+00 0. -1.
         11    1    5    5    0    0  0.12941123788E+01 -0.43683316286E+01 -0.38650117578E+01  0.59745597289E+01  0.00000000000E+00 0. -1.
        -12    1    5    5    0    0  0.19919296676E+02 -0.14415863337E+02  0.33660595189E+03  0.33750283309E+03  0.00000000000E+00 0.  1.
          5    1    4    4  501    0 -0.63696530008E+01 -0.34693328688E+02  0.13838398239E+03  0.14286986567E+03  0.41800000000E+01 0.  1.
         -5    1    4    4    0  501 -0.26332044165E+02  0.99602893097E+02  0.19595502277E+03  0.22142709006E+03  0.41800000000E+01 0.  1.
</event>
<event>
11    1  0.5813833E-009  0.1506257E+03  0.7561462E-02  0.1096241E+00
         22   -1    0    0    0    0  0.00000000000E+00  0.00000000000E+00  0.10057412584E+03  0.10057412584E+03  0.00000000000E+00 0.  1.
         22   -1    0    0    0    0 -0.00000000000E+00 -0.00000000000E+00 -0.22552961507E+04  0.22552961507E+04  0.00000000000E+00 0.  1.
        -24    2    1    2    0    0  0.17781352619E+02  0.35479992115E+02 -0.17386876904E+04  0.17409700599E+04  0.79792596557E+02 0.  0.
         25    2    1    2    0    0 -0.84941172931E+02  0.15646510683E+02 -0.46483668192E+03  0.48906086665E+03  0.12509026450E+03 0.  0.
         24    2    1    2    0    0  0.67159820312E+02 -0.51126502798E+02  0.48802347415E+02  0.12583935000E+03  0.79558231148E+02 0.  0.
        -11    1    5    5    0    0  0.26382594617E+02 -0.63291481380E+02  0.12068110876E+02  0.69623934205E+02  0.00000000000E+00 0.  1.
         12    1    5    5    0    0  0.40777225695E+02  0.12164978582E+02  0.36734236539E+02  0.56215415798E+02  0.00000000000E+00 0. -1.
         11    1    3    3    0    0 -0.91117790353E+00 -0.25356457936E+02 -0.45903579344E+03  0.45973648959E+03  0.00000000000E+00 0. -1.
        -12    1    3    3    0    0  0.18692530523E+02  0.60836450051E+02 -0.12796518970E+04  0.12812335703E+04  0.00000000000E+00 0.  1.
          5    1    4    4  501    0 -0.34833121292E+02 -0.44450289774E+02 -0.91620974335E+02  0.10770817025E+03  0.41800000000E+01 0.  1.
         -5    1    4    4    0  501 -0.50108051639E+02  0.60096800457E+02 -0.37321570759E+03  0.38135269640E+03  0.41800000000E+01 0.  1.
</event>
<event>
11    1  0.5813833E-009  0.1528300E+03  0.7561462E-02  0.1094022E+00
         22   -1    0    0    0    0  0.00000000000E+00  0.00000000000E+00  0.60971150980E+03  0.60971150980E+03  0.00000000000E+00 0. -1.
         22   -1    0    0    0    0 -0.00000000000E+00 -0.00000000000E+00 -0.63777783796E+03  0.63777783796E+03  0.00000000000E+00 0.  1.
        -24    2    1    2    0    0  0.43174334875E+02  0.17136051584E+01 -0.49486955072E+03  0.50452518975E+03  0.88220378767E+02 0.  0.
         25    2    1    2    0    0 -0.21808510436E+01  0.77036921203E+02 -0.90698515814E+02  0.17266468673E+03  0.12508968756E+03 0.  0.
         24    2    1    2    0    0 -0.40993483831E+02 -0.78750526361E+02  0.55750173838E+03  0.57029947128E+03  0.80939406541E+02 0.  0.
        -11    1    5    5    0    0 -0.50581291081E+02 -0.60165375675E+02  0.24949982808E+03  0.26158842415E+03  0.00000000000E+00 0.  1.
         12    1    5    5    0    0  0.95878072500E+01 -0.18585150686E+02  0.30800191029E+03  0.30871104713E+03  0.00000000000E+00 0. -1.
         13    1    3    3    0    0  0.47134344510E+02 -0.24924174062E+01 -0.11108137991E+03  0.12069354390E+03  0.00000000000E+00 0. -1.
        -14    1    3    3    0    0 -0.39600096356E+01  0.42060225646E+01 -0.38378817080E+03  0.38383164584E+03  0.00000000000E+00 0.  1.
          5    1    4    4  501    0  0.16713492322E+02  0.58073697781E+02  0.15940540175E+02  0.62637595903E+02  0.41800000000E+01 0.  1.
         -5    1    4    4    0  501 -0.18894343365E+02  0.18963223422E+02 -0.10663905599E+03  0.11002709083E+03  0.41800000000E+01 0.  1.
</event>
<event>
11    1  0.5813833E-009  0.1413220E+03  0.7561462E-02  0.1106091E+00
         22   -1    0    0    0    0  0.00000000000E+00  0.00000000000E+00  0.52848085838E+03  0.52848085838E+03  0.00000000000E+00 0.  1.
         22   -1    0    0    0    0 -0.00000000000E+00 -0.00000000000E+00 -0.12714700632E+03  0.12714700632E+03  0.00000000000E+00 0.  1.
        -24    2    1    2    0    0 -0.29176712374E+02  0.62100647839E+01 -0.71880357070E+02  0.11185732834E+03  0.80345695102E+02 0.  0.
         25    2    1    2    0    0  0.74669621617E+02  0.35274873803E+02  0.17903350177E+03  0.23349479536E+03  0.12508779153E+03 0.  0.
         24    2    1    2    0    0 -0.45492909243E+02 -0.41484938587E+02  0.29418070736E+03  0.31027574100E+03  0.77059340434E+02 0.  0.
        -11    1    5    5    0    0 -0.21221139323E+02 -0.11423542543E+02  0.25170552562E+03  0.25285669006E+03  0.00000000000E+00 0.  1.
         12    1    5    5    0    0 -0.24271769920E+02 -0.30061396043E+02  0.42475181735E+02  0.57419050937E+02  0.00000000000E+00 0. -1.
         13    1    3    3    0    0 -0.22040879267E+02  0.31316167511E+02 -0.32513823743E+01  0.38432722955E+02  0.00000000000E+00 0. -1.
        -14    1    3    3    0    0 -0.71358331075E+01 -0.25106102727E+02 -0.68628974695E+02  0.73424605385E+02  0.00000000000E+00 0.  1.
          5    1    4    4  501    0  0.79277622910E+02  0.66556259580E+02  0.17207096301E+03  0.20084961014E+03  0.41800000000E+01 0. -1.
         -5    1    4    4    0  501 -0.46080012932E+01 -0.31281385777E+02  0.69625387632E+01  0.32645185221E+02  0.41800000000E+01 0. -1.
</event>
<event>
11    1  0.5813833E-009  0.1691573E+03  0.7561462E-02  0.1078767E+00
         22   -1    0    0    0    0  0.00000000000E+00  0.00000000000E+00  0.51801406177E+02  0.51801406177E+02  0.00000000000E+00 0. -1.
         22   -1    0    0    0    0 -0.00000000000E+00 -0.00000000000E+00 -0.12785632821E+04  0.12785632821E+04  0.00000000000E+00 0.  1.
        -24    2    1    2    0    0  0.10054441290E+03 -0.42784230692E+02 -0.83545306092E+03  0.84647268554E+03  0.81206656252E+02 0.  0.
         25    2    1    2    0    0 -0.14058613057E+03  0.18730861589E+02 -0.28751587403E+03  0.34412294953E+03  0.12505967093E+03 0.  0.
         24    2    1    2    0    0  0.40041717673E+02  0.24053369103E+02 -0.10379294096E+03  0.13976905317E+03  0.81120342170E+02 0.  0.
        -11    1    5    5    0    0 -0.19556866855E+02  0.25084763845E+02 -0.22485960447E+02  0.38952982371E+02  0.00000000000E+00 0.  1.
         12    1    5    5    0    0  0.59598584529E+02 -0.10313947422E+01 -0.81306980508E+02  0.10081607080E+03  0.00000000000E+00 0. -1.
         11    1    3    3    0    0 -0.13512548408E+02 -0.92369058725E+01 -0.13688691117E+03  0.13786201741E+03  0.00000000000E+00 0. -1.
        -12    1    3    3    0    0  0.11405696130E+03 -0.33547324819E+02 -0.69856614975E+03  0.70861066814E+03  0.00000000000E+00 0.  1.
          5    1    4    4  501    0 -0.13573775642E+03  0.89616272180E+01 -0.29851721366E+03  0.32807780866E+03  0.41800000000E+01 0. -1.
         -5    1    4    4    0  501 -0.48483741440E+01  0.97692343712E+01  0.11001339632E+02  0.16045140876E+02  0.41800000000E+01 0. -1.
</event>
<event>
11    1  0.5813833E-009  0.1563270E+03  0.7561462E-02  0.1090584E+00
         22   -1    0    0    0    0  0.00000000000E+00  0.00000000000E+00  0.28458136049E+03  0.28458136049E+03  0.00000000000E+00 0. -1.
         22   -1    0    0    0    0 -0.00000000000E+00 -0.00000000000E+00 -0.57764460165E+03  0.57764460165E+03  0.00000000000E+00 0. -1.
         24    2    1    2    0    0  0.43169813510E+02  0.85774317015E+02 -0.48027435788E+03  0.49624259699E+03  0.79827250819E+02 0.  0.
         25    2    1    2    0    0 -0.15444922393E+02 -0.75698073827E+02 -0.14068332808E+02  0.14769579544E+03  0.12508951193E+03 0.  0.
        -24    2    1    2    0    0 -0.27724891117E+02 -0.10076243188E+02  0.20127944953E+03  0.21828756970E+03  0.79157097088E+02 0.  0.
        -11    1    3    3    0    0  0.37914858137E+01 -0.24472078893E+01  0.15931179135E+01  0.47856259586E+01  0.00000000000E+00 0.  1.
         12    1    3    3    0    0  0.39378327696E+02  0.88221524905E+02 -0.48186747579E+03  0.49145697103E+03  0.00000000000E+00 0. -1.
         11    1    5    5    0    0 -0.51434448289E+02 -0.17180932033E+02  0.16976297732E+03  0.17821379118E+03  0.00000000000E+00 0. -1.
        -12    1    5    5    0    0  0.23709557173E+02  0.71046888448E+01  0.31516472208E+02  0.40073778526E+02  0.00000000000E+00 0.  1.
          5    1    4    4  501    0  0.48001045562E+02 -0.28609145241E+02 -0.34723529175E+02  0.65922526081E+02  0.41800000000E+01 0. -1.
         -5    1    4    4    0  501 -0.63445967956E+02 -0.47088928586E+02  0.20655196367E+02  0.81773269362E+02  0.41800000000E+01 0. -1.
</event>
<event>
11    1  0.5813833E-009  0.4607564E+03  0.7561462E-02  0.9485758E-01
         22   -1    0    0    0    0  0.00000000000E+00  0.00000000000E+00  0.64710733910E+03  0.64710733910E+03  0.00000000000E+00 0. -1.
         22   -1    0    0    0    0 -0.00000000000E+00 -0.00000000000E+00 -0.14831411132E+04  0.14831411132E+04  0.00000000000E+00 0.  1.
         24    2    1    2    0    0  0.20788945810E+02 -0.62747584754E+02 -0.81786371802E+03  0.82448758377E+03  0.80680077301E+02 0.  0.
         25    2    1    2    0    0 -0.35606574877E+03  0.34082255303E+03 -0.45590300334E+03  0.68296305268E+03  0.12509257677E+03 0.  0.
        -24    2    1    2    0    0  0.33527680296E+03 -0.27807496828E+03  0.43773294726E+03  0.62279781585E+03  0.80813140816E+02 0.  0.
        -13    1    3    3    0    0  0.16350792407E+02 -0.46121924720E+01 -0.55393855669E+03  0.55419901238E+03  0.00000000000E+00 0.  1.
         14    1    3    3    0    0  0.44381534038E+01 -0.58135392282E+02 -0.26392516133E+03  0.27028857139E+03  0.00000000000E+00 0. -1.
         13    1    5    5    0    0  0.32383679666E+03 -0.24574892624E+03  0.38502386416E+03  0.55991622730E+03  0.00000000000E+00 0. -1.
        -14    1    5    5    0    0  0.11440006302E+02 -0.32326042039E+02  0.52709083101E+02  0.62881588557E+02  0.00000000000E+00 0.  1.
          5    1    4    4  501    0 -0.30701211062E+03  0.28965834071E+03 -0.32022872923E+03  0.52983233370E+03  0.41800000000E+01 0.  1.
         -5    1    4    4    0  501 -0.49053638147E+02  0.51164212326E+02 -0.13567427411E+03  0.15313071898E+03  0.41800000000E+01 0.  1.
</event>
<event>
11    1  0.5813833E-009  0.2073366E+03  0.7561462E-02  0.1049453E+00
         22   -1    0    0    0    0  0.00000000000E+00  0.00000000000E+00  0.40667839432E+03  0.40667839432E+03  0.00000000000E+00 0.  1.
         22   -1    0    0    0    0 -0.00000000000E+00 -0.00000000000E+00 -0.20866612990E+03  0.20866612990E+03  0.00000000000E+00 0. -1.
        -24    2    1    2    0    0  0.16683752268E+03  0.29408087309E+02 -0.84097950972E+02  0.20601574172E+03  0.81672675391E+02 0.  0.
         25    2    1    2    0    0 -0.14224832270E+03 -0.62339585928E+02  0.15365916496E+03  0.25175313848E+03  0.12509074496E+03 0.  0.
         24    2    1    2    0    0 -0.24589199977E+02  0.32931498619E+02  0.12845105043E+03  0.15757564401E+03  0.81494164652E+02 0.  0.
        -11    1    5    5    0    0  0.13976008389E+02  0.46996189970E+02  0.82405439647E+02  0.95888618541E+02  0.00000000000E+00 0.  1.
         12    1    5    5    0    0 -0.38565208366E+02 -0.14064691351E+02  0.46045610786E+02  0.61687025473E+02  0.00000000000E+00 0. -1.
         11    1    3    3    0    0  0.17358444762E+03  0.27273563169E+02 -0.67967212044E+02  0.18840103401E+03  0.00000000000E+00 0. -1.
        -12    1    3    3    0    0 -0.67469249369E+01  0.21345241397E+01 -0.16130738927E+02  0.17614707711E+02  0.00000000000E+00 0.  1.
          5    1    4    4  501    0 -0.13325389402E+03 -0.12450617302E+02  0.63405960110E+02  0.14815332032E+03  0.41800000000E+01 0.  1.
         -5    1    4    4    0  501 -0.89944286808E+01 -0.49888968626E+02  0.90253204854E+02  0.10359981817E+03  0.41800000000E+01 0.  1.
</event>
<event>
11    1  0.5813833E-009  0.1296310E+03  0.7561462E-02  0.1119723E+00
         22   -1    0    0    0    0  0.00000000000E+00  0.00000000000E+00  0.27358768872E+03  0.27358768872E+03  0.00000000000E+00 0. -1.
         22   -1    0    0    0    0 -0.00000000000E+00 -0.00000000000E+00 -0.14465034382E+03  0.14465034382E+03  0.00000000000E+00 0. -1.
        -24    2    1    2    0    0  0.10954868211E+02  0.42007458806E+02 -0.50892139955E+02  0.10471854885E+03  0.80568783227E+02 0.  0.
         25    2    1    2    0    0 -0.20915632253E+01 -0.10375546391E+02  0.83841399196E+01  0.12581655823E+03  0.12508991135E+03 0.  0.
         24    2    1    2    0    0 -0.88633049854E+01 -0.31631912415E+02  0.17144534493E+03  0.18770292547E+03  0.68990911523E+02 0.  0.
        -13    1    5    5    0    0 -0.45885231406E+01 -0.36597052059E+01 -0.57771932266E+01  0.82355296358E+01  0.00000000000E+00 0.  1.
         14    1    5    5    0    0 -0.42747818448E+01 -0.27972207209E+02  0.17722253816E+03  0.17946739584E+03  0.00000000000E+00 0. -1.
         11    1    3    3    0    0 -0.30440785310E+02  0.39498332266E+02 -0.24496075744E+02  0.55559134162E+02  0.00000000000E+00 0. -1.
        -12    1    3    3    0    0  0.41395653520E+02  0.25091265404E+01 -0.26396064210E+02  0.49159414685E+02  0.00000000000E+00 0.  1.
          5    1    4    4  501    0  0.15160430375E+02  0.55274233596E+02  0.18746871772E+01  0.57498403463E+02  0.41800000000E+01 0. -1.
         -5    1    4    4    0  501 -0.17251993600E+02 -0.65649779987E+02  0.65094527424E+01  0.68318154765E+02  0.41800000000E+01 0. -1.
</event>
<event>
11    1  0.5813833E-009  0.1704994E+03  0.7561462E-02  0.1077598E+00
         22   -1    0    0    0    0  0.00000000000E+00  0.00000000000E+00  0.25256313635E+04  0.25256313635E+04  0.00000000000E+00 0. -1.
         22   -1    0    0    0    0 -0.00000000000E+00 -0.00000000000E+00 -0.91943142445E+03  0.91943142445E+03  0.00000000000E+00 0. -1.
         24    2    1    2    0    0 -0.43506220527E+02  0.43781533661E+02 -0.86890837917E+03  0.87500074761E+03  0.82552547009E+02 0.  0.
         25    2    1    2    0    0  0.72321910847E+02 -0.15354578826E+03  0.19956650579E+03  0.29031077767E+03  0.12508712771E+03 0.  0.
        -24    2    1    2    0    0 -0.28815690320E+02  0.10976425460E+03  0.22755418124E+04  0.22797512627E+04  0.79352025282E+02 0.  0.
        -11    1    3    3    0    0  0.57157506471E+01  0.47677249558E+02 -0.57227327426E+03  0.57428432885E+03  0.00000000000E+00 0.  1.
         12    1    3    3    0    0 -0.49221971174E+02 -0.38957158970E+01 -0.29663510491E+03  0.30071641876E+03  0.00000000000E+00 0. -1.
         11    1    5    5    0    0 -0.32063094619E+02  0.55178443981E+02  0.17904761501E+04  0.17916131131E+04  0.00000000000E+00 0. -1.
        -12    1    5    5    0    0  0.32474042986E+01  0.54585810616E+02  0.48506566231E+03  0.48813814961E+03  0.00000000000E+00 0.  1.
          5    1    4    4  501    0 -0.31658873927E+02 -0.13132595213E+02  0.20822155731E+02  0.40321010958E+02  0.41800000000E+01 0. -1.
         -5    1    4    4    0  501  0.10398078477E+03 -0.14041319304E+03  0.17874435005E+03  0.24998976671E+03  0.41800000000E+01 0. -1.
</event>
<event>
11    1  0.5813833E-009  0.1303096E+03  0.7561462E-02  0.1118889E+00
         22   -1    0    0    0    0  0.00000000000E+00  0.00000000000E+00  0.10921598665E+04  0.10921598665E+04  0.00000000000E+00 0. -1.
         22   -1    0    0    0    0 -0.00000000000E+00 -0.00000000000E+00 -0.46371944304E+03  0.46371944304E+03  0.00000000000E+00 0.  1.
         24    2    1    2    0    0 -0.15777297760E+02  0.37739009052E+01 -0.41208257009E+03  0.42016740572E+03  0.80407952399E+02 0.  0.
         25    2    1    2    0    0  0.47427906087E+02 -0.20619198673E+02  0.54916293477E+02  0.14607275816E+03  0.12508754437E+03 0.  0.
        -24    2    1    2    0    0 -0.31650608327E+02  0.16845297768E+02  0.98560670007E+03  0.98963914567E+03  0.81728491647E+02 0.  0.
        -13    1    3    3    0    0 -0.49183472569E+00  0.40886419176E+02 -0.24063668541E+03  0.24408595932E+03  0.00000000000E+00 0.  1.
         14    1    3    3    0    0 -0.15285463034E+02 -0.37112518271E+02 -0.17144588468E+03  0.17608144640E+03  0.00000000000E+00 0. -1.
         13    1    5    5    0    0  0.24344327638E+02  0.22123418427E+02  0.34044849362E+03  0.34203401693E+03  0.00000000000E+00 0. -1.
        -14    1    5    5    0    0 -0.55994935966E+02 -0.52781206595E+01  0.64515820646E+03  0.64760512874E+03  0.00000000000E+00 0.  1.
          5    1    4    4  501    0  0.70509303983E+02  0.30605351678E+02  0.19102598263E+02  0.79313499229E+02  0.41800000000E+01 0.  1.
         -5    1    4    4    0  501 -0.23081397896E+02 -0.51224550351E+02  0.35813695215E+02  0.66759258926E+02  0.41800000000E+01 0.  1.
</event>
<event>
11    1  0.5813833E-009  0.1464709E+03  0.7561462E-02  0.1100540E+00
         22   -1    0    0    0    0  0.00000000000E+00  0.00000000000E+00  0.85963643203E+03  0.85963643203E+03  0.00000000000E+00 0. -1.
         22   -1    0    0    0    0 -0.00000000000E+00 -0.00000000000E+00 -0.78128820890E+02  0.78128820890E+02  0.00000000000E+00 0. -1.
         24    2    1    2    0    0  0.52062397788E+02 -0.48387260572E+02  0.17658061135E+02  0.13041330720E+03  0.10790738308E+03 0.  0.
         25    2    1    2    0    0 -0.71103433151E+02  0.74771807844E+02  0.37034788246E+03  0.40429049255E+03  0.12508687730E+03 0.  0.
        -24    2    1    2    0    0  0.19041035363E+02 -0.26384547272E+02  0.39350166755E+03  0.40306145317E+03  0.80970780570E+02 0.  0.
        -11    1    3    3    0    0 -0.28453904440E+02  0.51277794317E+00  0.22212325707E+02  0.36100900715E+02  0.00000000000E+00 0.  1.
         12    1    3    3    0    0  0.80516302228E+02 -0.48900038515E+02 -0.45542645718E+01  0.94312406485E+02  0.00000000000E+00 0. -1.
         13    1    5    5    0    0 -0.28382670884E+01 -0.26251489554E+02  0.37003959418E+03  0.37098045463E+03  0.00000000000E+00 0. -1.
        -14    1    5    5    0    0  0.21879302452E+02 -0.13305771745E+00  0.23462073377E+02  0.32080998539E+02  0.00000000000E+00 0.  1.
          5    1    4    4  501    0 -0.70673977006E+02  0.48161573227E+02  0.96061294551E+02  0.12868408166E+03  0.41800000000E+01 0. -1.
         -5    1    4    4    0  501 -0.42945614451E+00  0.26610234616E+02  0.27428658790E+03  0.27560641089E+03  0.41800000000E+01 0. -1.
</event>
<event>
11    1  0.5813833E-009  0.1313927E+03  0.7561462E-02  0.1117570E+00
         22   -1    0    0    0    0  0.00000000000E+00  0.00000000000E+00  0.44360901374E+03  0.44360901374E+03  0.00000000000E+00 0.  1.
         22   -1    0    0    0    0 -0.00000000000E+00 -0.00000000000E+00 -0.17151126174E+04  0.17151126174E+04  0.00000000000E+00 0. -1.
        -24    2    1    2    0    0 -0.42551548394E+02 -0.16650685559E+02 -0.13825350024E+04  0.13857396273E+04  0.82361411734E+02 0.  0.
         25    2    1    2    0    0 -0.18675322750E+02  0.30653420293E+02 -0.31297568013E+03  0.33895678075E+03  0.12509805356E+03 0.  0.
         24    2    1    2    0    0  0.61226871144E+02 -0.14002734735E+02  0.42400707884E+03  0.43402522315E+03  0.68198864332E+02 0.  0.
        -13    1    5    5    0    0  0.63050463435E+02 -0.17565588666E+02  0.20961747392E+03  0.21959826097E+03  0.00000000000E+00 0.  1.
         14    1    5    5    0    0 -0.18235922911E+01  0.35628539318E+01  0.21438960491E+03  0.21442696219E+03  0.00000000000E+00 0. -1.
         11    1    3    3    0    0  0.10122553300E+02 -0.21695180382E+01 -0.90977135080E+03  0.90983024990E+03  0.00000000000E+00 0. -1.
        -12    1    3    3    0    0 -0.52674101695E+02 -0.14481167521E+02 -0.47276365158E+03  0.47590937736E+03  0.00000000000E+00 0.  1.
          5    1    4    4  501    0 -0.36381571301E+02 -0.15775640961E+02 -0.27058573172E+03  0.27350795269E+03  0.41800000000E+01 0.  1.
         -5    1    4    4    0  501  0.17706248551E+02  0.46429061255E+02 -0.42389948415E+02  0.65448828052E+02  0.41800000000E+01 0.  1.
</event>
<event>
11    1  0.5813833E-009  0.1527931E+03  0.7561462E-02  0.1094058E+00
         22   -1    0    0    0    0  0.00000000000E+00  0.00000000000E+00  0.44491393032E+03  0.44491393032E+03  0.00000000000E+00 0. -1.
         22   -1    0    0    0    0 -0.00000000000E+00 -0.00000000000E+00 -0.19250311414E+03  0.19250311414E+03  0.00000000000E+00 0. -1.
        -24    2    1    2    0    0  0.22876095274E+02 -0.15744634503E+02 -0.12850638861E+03  0.15412735603E+03  0.80437184883E+02 0.  0.
         25    2    1    2    0    0 -0.65232135151E+02 -0.61575884855E+02  0.11572228924E+03  0.19258154632E+03  0.12509669342E+03 0.  0.
         24    2    1    2    0    0  0.42356039876E+02  0.77320519358E+02  0.26519491555E+03  0.29070814211E+03  0.80064872594E+02 0.  0.
        -13    1    5    5    0    0  0.11170945082E+02 -0.42700731213E+01  0.49567361015E+00  0.11969512555E+02  0.00000000000E+00 0.  1.
         14    1    5    5    0    0  0.31185094795E+02  0.81590592479E+02  0.26469924194E+03  0.27873862955E+03  0.00000000000E+00 0. -1.
         13    1    3    3    0    0  0.26837618331E+02 -0.37668545963E+02 -0.12266562074E+03  0.13109550573E+03  0.00000000000E+00 0. -1.
        -14    1    3    3    0    0 -0.39615230564E+01  0.21923911460E+02 -0.58407678725E+01  0.23031850294E+02  0.00000000000E+00 0.  1.
          5    1    4    4  501    0  0.25564256388E+02  0.43034790241E+01  0.63613752137E+02  0.68820294953E+02  0.41800000000E+01 0.  1.
         -5    1    4    4    0  501 -0.90796391538E+02 -0.65879363879E+02  0.52108537105E+02  0.12376125137E+03  0.41800000000E+01 0.  1.
</event>
<event>
11    1  0.5813833E-009  0.1383651E+03  0.7561462E-02  0.1109398E+00
         22   -1    0    0    0    0  0.00000000000E+00  0.00000000000E+00  0.56855811413E+03  0.56855811413E+03  0.00000000000E+00 0. -1.
         22   -1    0    0    0    0 -0.00000000000E+00 -0.00000000000E+00 -0.14364315021E+03  0.14364315021E+03  0.00000000000E+00 0.  1.
         24    2    1    2    0    0  0.10688171340E+02 -0.57314475263E+02 -0.95999550029E+02  0.13867319028E+03  0.81333597087E+02 0.  0.
         25    2    1    2    0    0 -0.35778078654E+02  0.63080942025E+02  0.22698694873E+03  0.26912649202E+03  0.12508684045E+03 0.  0.
        -24    2    1    2    0    0  0.25089907314E+02 -0.57664667624E+01  0.29392756522E+03  0.30440158203E+03  0.74860897409E+02 0.  0.
        -13    1    3    3    0    0  0.34100153241E+02 -0.66212064414E+02 -0.77884495720E+02  0.10776294632E+03  0.00000000000E+00 0.  1.
         14    1    3    3    0    0 -0.23411981901E+02  0.88975891513E+01 -0.18115054309E+02  0.30910243963E+02  0.00000000000E+00 0. -1.
         13    1    5    5    0    0  0.29489870238E+02 -0.34711530116E+02  0.22414848990E+03  0.22872929041E+03  0.00000000000E+00 0. -1.
        -14    1    5    5    0    0 -0.43999629238E+01  0.28945063354E+02  0.69779075320E+02  0.75672291618E+02  0.00000000000E+00 0.  1.
          5    1    4    4  501    0  0.35653436469E+01  0.87604787686E+01 -0.14867062075E+02  0.18109654837E+02  0.41800000000E+01 0. -1.
         -5    1    4    4    0  501 -0.39343422301E+02  0.54320463257E+02  0.24185401081E+03  0.25101683719E+03  0.41800000000E+01 0. -1.
</event>
<event>
11    1  0.5813833E-009  0.1460475E+03  0.7561462E-02  0.1100987E+00
         22   -1    0    0    0    0  0.00000000000E+00  0.00000000000E+00  0.11756176850E+04  0.11756176850E+04  0.00000000000E+00 0. -1.
         22   -1    0    0    0    0 -0.00000000000E+00 -0.00000000000E+00 -0.54509196857E+03  0.54509196857E+03  0.00000000000E+00 0. -1.
         24    2    1    2    0    0  0.71452880336E+02  0.25090949842E+02 -0.52407442337E+03  0.53580938303E+03  0.81869553792E+02 0.  0.
         25    2    1    2    0    0 -0.57742997203E+02  0.37744385327E+01  0.35993046009E+03  0.38541642239E+03  0.12508949769E+03 0.  0.
        -24    2    1    2    0    0 -0.13709883133E+02 -0.28865388375E+02  0.79466967970E+03  0.79948384814E+03  0.81568082374E+02 0.  0.
        -11    1    3    3    0    0  0.87993022224E+01 -0.10455903597E+02 -0.30272898696E+03  0.30303728019E+03  0.00000000000E+00 0.  1.
         12    1    3    3    0    0  0.62653578113E+02  0.35546853439E+02 -0.22134543641E+03  0.23277210284E+03  0.00000000000E+00 0. -1.
         13    1    5    5    0    0  0.22120885868E+02 -0.20104555326E+02  0.63106378805E+03  0.63177134418E+03  0.00000000000E+00 0. -1.
        -14    1    5    5    0    0 -0.35830769001E+02 -0.87608330493E+01  0.16360589165E+03  0.16771250396E+03  0.00000000000E+00 0.  1.
          5    1    4    4  501    0 -0.90646901423E+02 -0.13615451864E+02  0.18480466483E+03  0.20633099091E+03  0.41800000000E+01 0. -1.
         -5    1    4    4    0  501  0.32903904220E+02  0.17389890397E+02  0.17512579526E+03  0.17908543148E+03  0.41800000000E+01 0. -1.
</event>
<event>
11    1  0.5813833E-009  0.2298202E+03  0.7561462E-02  0.1035234E+00
         22   -1    0    0    0    0  0.00000000000E+00  0.00000000000E+00  0.89050496270E+03  0.89050496270E+03  0.00000000000E+00 0.  1.
         22   -1    0    0    0    0 -0.00000000000E+00 -0.00000000000E+00 -0.19776502920E+03  0.19776502920E+03  0.00000000000E+00 0.  1.
         24    2    1    2    0    0  0.19110813734E+03  0.88939785232E+02 -0.88980897149E+02  0.24260487602E+03  0.80665483673E+02 0.  0.
         25    2    1    2    0    0 -0.10962414822E+03 -0.51560223676E+02  0.28083231147E+03  0.33044476237E+03  0.12510412971E+03 0.  0.
        -24    2    1    2    0    0 -0.81483989123E+02 -0.37379561556E+02  0.50088851918E+03  0.51522035351E+03  0.80782621433E+02 0.  0.
        -11    1    3    3    0    0  0.56937901006E+02  0.69911206656E+02 -0.37182162233E+02  0.97529557445E+02  0.00000000000E+00 0.  1.
         12    1    3    3    0    0  0.13417023633E+03  0.19028578576E+02 -0.51798734916E+02  0.14507531857E+03  0.00000000000E+00 0. -1.
         13    1    5    5    0    0 -0.16176211143E+02  0.21870701018E+02  0.64329553655E+02  0.69844748145E+02  0.00000000000E+00 0. -1.
        -14    1    5    5    0    0 -0.65307777980E+02 -0.59250262574E+02  0.43655896552E+03  0.44537560537E+03  0.00000000000E+00 0.  1.
          5    1    4    4  501    0 -0.13626732638E+02  0.34824789426E+02  0.10995186893E+03  0.11621247644E+03  0.41800000000E+01 0.  1.
         -5    1    4    4    0  501 -0.95997415580E+02 -0.86385013102E+02  0.17088044255E+03  0.21423228592E+03  0.41800000000E+01 0.  1.
</event>
<event>
11    1  0.5813833E-009  0.3181453E+03  0.7561462E-02  0.9927913E-01
         22   -1    0    0    0    0  0.00000000000E+00  0.00000000000E+00  0.56095047585E+03  0.56095047585E+03  0.00000000000E+00 0.  1.
         22   -1    0    0    0    0 -0.00000000000E+00 -0.00000000000E+00 -0.74707973430E+03  0.74707973430E+03  0.00000000000E+00 0. -1.
        -24    2    1    2    0    0  0.52720427733E+01  0.98063708966E+02 -0.50537686826E+03  0.52111902929E+03  0.80715415237E+02 0.  0.
         25    2    1    2    0    0 -0.10448726732E+03  0.20086116990E+03 -0.81102377383E+02  0.27108501138E+03  0.12508672659E+03 0.  0.
         24    2    1    2    0    0  0.99215224548E+02 -0.29892487887E+03  0.40034998720E+03  0.51582616949E+03  0.81220569406E+02 0.  0.
        -13    1    5    5    0    0  0.93925716888E+02 -0.29205317642E+03  0.35296927302E+03  0.46765842861E+03  0.00000000000E+00 0.  1.
         14    1    5    5    0    0  0.52895076600E+01 -0.68717024432E+01  0.47380714177E+02  0.48167740882E+02  0.00000000000E+00 0. -1.
         13    1    3    3    0    0 -0.19687842913E+02  0.63963723363E+02 -0.42570558035E+03  0.43093411353E+03  0.00000000000E+00 0. -1.
        -14    1    3    3    0    0  0.24959885686E+02  0.34099985603E+02 -0.79671287913E+02  0.90184915752E+02  0.00000000000E+00 0.  1.
          5    1    4    4  501    0 -0.97997727719E+02  0.79212132745E+02 -0.79751003148E+02  0.14918381787E+03  0.41800000000E+01 0. -1.
         -5    1    4    4    0  501 -0.64895396022E+01  0.12164903716E+03 -0.13513742344E+01  0.12190119350E+03  0.41800000000E+01 0. -1.
</event>
<event>
11    1  0.5813833E-009  0.1265176E+03  0.7561462E-02  0.1123623E+00
         22   -1    0    0    0    0  0.00000000000E+00  0.00000000000E+00  0.45633486122E+03  0.45633486122E+03  0.00000000000E+00 0.  1.
         22   -1    0    0    0    0 -0.00000000000E+00 -0.00000000000E+00 -0.10145593132E+04  0.10145593132E+04  0.00000000000E+00 0.  1.
         24    2    1    2    0    0 -0.29203093918E+02 -0.34386036923E+02 -0.92428945211E+03  0.92889921629E+03  0.80669340600E+02 0.  0.
         25    2    1    2    0    0  0.46333135844E+02  0.31622956993E+02 -0.25611345513E+02  0.13946541921E+03  0.12509153149E+03 0.  0.
        -24    2    1    2    0    0 -0.17130041925E+02  0.27630799304E+01  0.39167634563E+03  0.40252953893E+03  0.91206343170E+02 0.  0.
        -11    1    3    3    0    0 -0.84588510110E+01 -0.52147719756E+02 -0.79518716839E+03  0.79694012925E+03  0.00000000000E+00 0.  1.
         12    1    3    3    0    0 -0.20744242907E+02  0.17761682832E+02 -0.12910228372E+03  0.13195908704E+03  0.00000000000E+00 0. -1.
         13    1    5    5    0    0  0.31234482457E+02 -0.18765365972E+02  0.21593009270E+03  0.21898296004E+03  0.00000000000E+00 0. -1.
        -14    1    5    5    0    0 -0.48364524382E+02  0.21528445902E+02  0.17574625293E+03  0.18354657889E+03  0.00000000000E+00 0.  1.
          5    1    4    4  501    0  0.13593003204E+02  0.52844038638E+02  0.36655294777E+02  0.65866115651E+02  0.41800000000E+01 0.  1.
         -5    1    4    4    0  501  0.32740132639E+02 -0.21221081645E+02 -0.62266640290E+02  0.73599303559E+02  0.41800000000E+01 0.  1.
</event>
<event>
11    1  0.5813833E-009  0.2120401E+03  0.7561462E-02  0.1046322E+00
         22   -1    0    0    0    0  0.00000000000E+00  0.00000000000E+00  0.13256345445E+04  0.13256345445E+04  0.00000000000E+00 0. -1.
         22   -1    0    0    0    0 -0.00000000000E+00 -0.00000000000E+00 -0.21913376988E+03  0.21913376988E+03  0.00000000000E+00 0.  1.
         24    2    1    2    0    0 -0.14208702056E+03 -0.10473728256E+03 -0.14186918998E+03  0.24184493458E+03  0.84873350021E+02 0.  0.
         25    2    1    2    0    0  0.94274768383E+02  0.98782557626E+02  0.31893964923E+03  0.36880342063E+03  0.12509091724E+03 0.  0.
        -24    2    1    2    0    0  0.47812252182E+02  0.59547249368E+01  0.92943031537E+03  0.93411995917E+03  0.80111901624E+02 0.  0.
        -13    1    3    3    0    0 -0.13173303812E+03 -0.11437839729E+03 -0.14557704525E+03  0.22721946924E+03  0.00000000000E+00 0.  1.
         14    1    3    3    0    0 -0.10353982444E+02  0.96411147260E+01  0.37078552694E+01  0.14625465337E+02  0.00000000000E+00 0. -1.
         11    1    5    5    0    0  0.40871319876E+02  0.16948401975E+02  0.90783726472E+03  0.90891485428E+03  0.00000000000E+00 0. -1.
        -12    1    5    5    0    0  0.69409323061E+01 -0.10993677038E+02  0.21593050655E+02  0.25205104894E+02  0.00000000000E+00 0.  1.
          5    1    4    4  501    0 -0.28276631731E+02  0.17710692319E+02  0.96396407054E+02  0.10209297830E+03  0.41800000000E+01 0.  1.
         -5    1    4    4    0  501  0.12255140011E+03  0.81071865308E+02  0.22254324217E+03  0.26671044234E+03  0.41800000000E+01 0.  1.
</event>
<event>
11    1  0.5813833E-009  0.1344214E+03  0.7561462E-02  0.1113953E+00
         22   -1    0    0    0    0  0.00000000000E+00  0.00000000000E+00  0.46603848827E+03  0.46603848827E+03  0.00000000000E+00 0.  1.
         22   -1    0    0    0    0 -0.00000000000E+00 -0.00000000000E+00 -0.11818210018E+04  0.11818210018E+04  0.00000000000E+00 0.  1.
         24    2    1    2    0    0 -0.25412831123E+02 -0.16378160510E+02 -0.99258432520E+03  0.99486261696E+03  0.60115953538E+02 0.  0.
         25    2    1    2    0    0  0.40611226971E+02  0.62545394353E+02 -0.15413698021E+03  0.21204878251E+03  0.12508109123E+03 0.  0.
        -24    2    1    2    0    0 -0.15198395848E+02 -0.46167233843E+02  0.43093879186E+03  0.44094809062E+03  0.79778265040E+02 0.  0.
        -13    1    3    3    0    0 -0.34432353753E+02 -0.32882760681E+02 -0.77805175390E+03  0.77950714858E+03  0.00000000000E+00 0.  1.
         14    1    3    3    0    0  0.90195226300E+01  0.16504600171E+02 -0.21453257130E+03  0.21535546838E+03  0.00000000000E+00 0. -1.
         13    1    5    5    0    0 -0.43071329360E+02 -0.45488272809E+01  0.19557107695E+03  0.20030945405E+03  0.00000000000E+00 0. -1.
        -14    1    5    5    0    0  0.27872933512E+02 -0.41618406562E+02  0.23536771491E+03  0.24063863657E+03  0.00000000000E+00 0.  1.
          5    1    4    4  501    0 -0.39579174944E+01 -0.36417380011E+02 -0.35110541250E+02  0.50912799811E+02  0.41800000000E+01 0.  1.
         -5    1    4    4    0  501  0.44569144465E+02  0.98962774364E+02 -0.11902643896E+03  0.16113598270E+03  0.41800000000E+01 0.  1.
</event>
<event>
11    1  0.5813833E-009  0.1545107E+03  0.7561462E-02  0.1092357E+00
         22   -1    0    0    0    0  0.00000000000E+00  0.00000000000E+00  0.74521489675E+02  0.74521489675E+02  0.00000000000E+00 0.  1.
         22   -1    0    0    0    0 -0.00000000000E+00 -0.00000000000E+00 -0.71706813676E+03  0.71706813676E+03  0.00000000000E+00 0. -1.
         24    2    1    2    0    0  0.30078290197E+02 -0.71427877117E+02 -0.29692907666E+03  0.31708552717E+03  0.79810461771E+02 0.  0.
         25    2    1    2    0    0 -0.10205866051E+03  0.10502982560E+02 -0.30069905530E+03  0.34145704413E+03  0.12508680307E+03 0.  0.
        -24    2    1    2    0    0  0.71980370316E+02  0.60924894557E+02 -0.44918515124E+02  0.13304705512E+03  0.82406488752E+02 0.  0.
        -13    1    3    3    0    0  0.81637208926E+01  0.44048617762E+01  0.56876141863E+00  0.92936879456E+01  0.00000000000E+00 0.  1.
         14    1    3    3    0    0  0.21914569305E+02 -0.75832738893E+02 -0.29749783807E+03  0.30779183923E+03  0.00000000000E+00 0. -1.
         13    1    5    5    0    0  0.78841144773E+02  0.56362677747E+02 -0.61324671473E+02  0.11468824213E+03  0.00000000000E+00 0. -1.
        -14    1    5    5    0    0 -0.68607744564E+01  0.45622168096E+01  0.16406156348E+02  0.18358812992E+02  0.00000000000E+00 0.  1.
          5    1    4    4  501    0 -0.28555724455E+02 -0.51364563969E+02 -0.69854244126E+02  0.91382906789E+02  0.41800000000E+01 0. -1.
         -5    1    4    4    0  501 -0.73502936059E+02  0.61867546528E+02 -0.23084481117E+03  0.25007413735E+03  0.41800000000E+01 0. -1.
</event>
<event>
11    1  0.5813833E-009  0.1475333E+03  0.7561462E-02  0.1099426E+00
         22   -1    0    0    0    0  0.00000000000E+00  0.00000000000E+00  0.18980106046E+04  0.18980106046E+04  0.00000000000E+00 0.  1.
         22   -1    0    0    0    0 -0.00000000000E+00 -0.00000000000E+00 -0.15596867793E+03  0.15596867793E+03  0.00000000000E+00 0. -1.
        -24    2    1    2    0    0 -0.26185807268E+00 -0.16236328094E+02 -0.10906890750E+03  0.13548558310E+03  0.78718674563E+02 0.  0.
         25    2    1    2    0    0 -0.75747551619E+02  0.33859622194E+02  0.14512948336E+03  0.20879318561E+03  0.12509141388E+03 0.  0.
         24    2    1    2    0    0  0.76009409692E+02 -0.17623294100E+02  0.17059813508E+04  0.17097005138E+04  0.81335519712E+02 0.  0.
        -11    1    5    5    0    0  0.85777357938E+02  0.26525229969E+01  0.15088563091E+04  0.15112948595E+04  0.00000000000E+00 0.  1.
         12    1    5    5    0    0 -0.97679482463E+01 -0.20275817097E+02  0.19712504176E+03  0.19840565431E+03  0.00000000000E+00 0. -1.
         11    1    3    3    0    0 -0.84843931584E+01 -0.30485625777E+02 -0.11400040912E+03  0.11831082616E+03  0.00000000000E+00 0. -1.
        -12    1    3    3    0    0  0.82225350857E+01  0.14249297683E+02  0.49315016233E+01  0.17174756940E+02  0.00000000000E+00 0.  1.
          5    1    4    4  501    0 -0.76007706525E+02  0.48587777367E+02  0.16233338188E+03  0.18576205972E+03  0.41800000000E+01 0.  1.
         -5    1    4    4    0  501  0.26015490629E+00 -0.14728155173E+02 -0.17203898519E+02  0.23031125887E+02  0.41800000000E+01 0.  1.
</event>
<event>
11    1  0.5813833E-009  0.1298504E+03  0.7561462E-02  0.1119453E+00
         22   -1    0    0    0    0  0.00000000000E+00  0.00000000000E+00  0.53364375356E+03  0.53364375356E+03  0.00000000000E+00 0. -1.
         22   -1    0    0    0    0 -0.00000000000E+00 -0.00000000000E+00 -0.60231595859E+03  0.60231595859E+03  0.00000000000E+00 0.  1.
        -24    2    1    2    0    0  0.31042528307E+02 -0.26727847791E+01 -0.43674660432E+03  0.44527831964E+03  0.80959268890E+02 0.  0.
         25    2    1    2    0    0 -0.61935871208E+02 -0.39109749927E+01 -0.12665487962E+03  0.18852136840E+03  0.12508996740E+03 0.  0.
         24    2    1    2    0    0  0.30893342901E+02  0.65837597718E+01  0.49472927891E+03  0.50216002412E+03  0.80061762936E+02 0.  0.
        -13    1    5    5    0    0  0.60480077677E+01 -0.35972343790E+02  0.23184537584E+03  0.23469739286E+03  0.00000000000E+00 0.  1.
         14    1    5    5    0    0  0.24845335134E+02  0.42556103562E+02  0.26288390307E+03  0.26746263126E+03  0.00000000000E+00 0. -1.
         13    1    3    3    0    0 -0.10600072406E+02  0.31215802164E+02 -0.15630555177E+03  0.15974421227E+03  0.00000000000E+00 0. -1.
        -14    1    3    3    0    0  0.41642600713E+02 -0.33888586943E+02 -0.28044105255E+03  0.28553410737E+03  0.00000000000E+00 0.  1.
          5    1    4    4  501    0 -0.87197435713E+02  0.15985365935E+02 -0.12835601051E+03  0.15605019242E+03  0.41800000000E+01 0. -1.
         -5    1    4    4    0  501  0.25261564504E+02 -0.19896340927E+02  0.17011308919E+01  0.32471175984E+02  0.41800000000E+01 0. -1.
</event>
<event>
11    1  0.5813833E-009  0.1455293E+03  0.7561462E-02  0.1101537E+00
         22   -1    0    0    0    0  0.00000000000E+00  0.00000000000E+00  0.50638187479E+03  0.50638187479E+03  0.00000000000E+00 0.  1.
         22   -1    0    0    0    0 -0.00000000000E+00 -0.00000000000E+00 -0.11657698967E+04  0.11657698967E+04  0.00000000000E+00 0.  1.
         24    2    1    2    0    0  0.61540303025E+02  0.42354010498E+02 -0.10791630678E+04  0.10847278250E+04  0.80376963564E+02 0.  0.
         25    2    1    2    0    0 -0.36421982929E+02 -0.63456043352E+02 -0.13495505937E+02  0.14554735898E+03  0.12509466315E+03 0.  0.
        -24    2    1    2    0    0 -0.25118320097E+02  0.21102032855E+02  0.43327055184E+03  0.44187658752E+03  0.80345016716E+02 0.  0.
        -13    1    3    3    0    0  0.55157143392E+02 -0.99457179762E+01 -0.62894565018E+03  0.63143792937E+03  0.00000000000E+00 0.  1.
         14    1    3    3    0    0  0.63831596336E+01  0.52299728474E+02 -0.45021741764E+03  0.45328989562E+03  0.00000000000E+00 0. -1.
         13    1    5    5    0    0  0.63711575616E+01 -0.10595797600E+02  0.90809296115E+01  0.15340334353E+02  0.00000000000E+00 0. -1.
        -14    1    5    5    0    0 -0.31489477658E+02  0.31697830455E+02  0.42418962222E+03  0.42653625316E+03  0.00000000000E+00 0.  1.
          5    1    4    4  501    0  0.28444044989E+02  0.22846274239E+02 -0.63706052580E+01  0.37270269026E+02  0.41800000000E+01 0.  1.
         -5    1    4    4    0  501 -0.64866027917E+02 -0.86302317592E+02 -0.71249006794E+01  0.10827708996E+03  0.41800000000E+01 0.  1.
</event>
<event>
11    1  0.5813833E-009  0.1278441E+03  0.7561462E-02  0.1121947E+00
         22   -1    0    0    0    0  0.00000000000E+00  0.00000000000E+00  0.28874445738E+03  0.28874445738E+03  0.00000000000E+00 0.  1.
         22   -1    0    0    0    0 -0.00000000000E+00 -0.00000000000E+00 -0.43929410733E+03  0.43929410733E+03  0.00000000000E+00 0.  1.
        -24    2    1    2    0    0 -0.37619714488E+01  0.13449650160E+02 -0.24570283612E+03  0.25843214906E+03  0.78881217496E+02 0.  0.
         25    2    1    2    0    0 -0.89793161964E+01 -0.36068484103E+02 -0.15675279134E+03  0.20397084696E+03  0.12510437703E+03 0.  0.
         24    2    1    2    0    0  0.12741287645E+02  0.22618833943E+02  0.25190597751E+03  0.26563556868E+03  0.80197766706E+02 0.  0.
        -11    1    5    5    0    0  0.17669862699E+02  0.19703016113E+01  0.24121051998E+03  0.24186488188E+03  0.00000000000E+00 0.  1.
         12    1    5    5    0    0 -0.49285750538E+01  0.20648532332E+02  0.10695457532E+02  0.23770686808E+02  0.00000000000E+00 0. -1.
         13    1    3    3    0    0 -0.13566839574E+02 -0.29902847062E+02 -0.72025349256E+02  0.79157377002E+02  0.00000000000E+00 0. -1.
        -14    1    3    3    0    0  0.98048681247E+01  0.43352497222E+02 -0.17367748686E+03  0.17927477206E+03  0.00000000000E+00 0.  1.
          5    1    4    4  501    0  0.58069644756E+02 -0.16163330577E+02 -0.74422852161E+02  0.95862246068E+02  0.41800000000E+01 0. -1.
         -5    1    4    4    0  501 -0.67048960953E+02 -0.19905153526E+02 -0.82329939179E+02  0.10810860089E+03  0.41800000000E+01 0. -1.
</event>
<event>
11    1  0.5813833E-009  0.2423190E+03  0.7561462E-02  0.1028072E+00
         22   -1    0    0    0    0  0.00000000000E+00  0.00000000000E+00  0.10105354342E+04  0.10105354342E+04  0.00000000000E+00 0.  1.
         22   -1    0    0    0    0 -0.00000000000E+00 -0.00000000000E+00 -0.13526228827E+03  0.13526228827E+03  0.00000000000E+00 0. -1.
        -24    2    1    2    0    0  0.28654404650E+02  0.23859925557E+02 -0.34775825974E+02  0.94930789494E+02  0.80075750189E+02 0.  0.
         25    2    1    2    0    0 -0.22805975808E+03  0.16507367974E+01  0.26833110208E+03  0.37371590435E+03  0.12509204063E+03 0.  0.
         24    2    1    2    0    0  0.19940535343E+03 -0.25510662354E+02  0.64171786977E+03  0.67715102858E+03  0.79488378107E+02 0.  0.
        -13    1    5    5    0    0  0.19808011160E+03 -0.37716765798E+02  0.57543724890E+03  0.60974282485E+03  0.00000000000E+00 0.  1.
         14    1    5    5    0    0  0.13252418298E+01  0.12206103444E+02  0.66280620872E+02  0.67408203732E+02  0.00000000000E+00 0. -1.
         13    1    3    3    0    0  0.21392610883E+02 -0.26537193262E+02 -0.26869100165E+02  0.43402937346E+02  0.00000000000E+00 0. -1.
        -14    1    3    3    0    0  0.72617937671E+01  0.50397118818E+02 -0.79067258085E+01  0.51527852147E+02  0.00000000000E+00 0.  1.
          5    1    4    4  501    0  0.72428167329E+01 -0.52148747436E+01 -0.65157243772E+01  0.11814413950E+02  0.41800000000E+01 0.  1.
         -5    1    4    4    0  501 -0.23530257482E+03  0.68656115410E+01  0.27484682646E+03  0.36190149040E+03  0.41800000000E+01 0.  1.
</event>
<event>
11    1  0.5813833E-009  0.2899498E+03  0.7561462E-02  0.1004537E+00
         22   -1    0    0    0    0  0.00000000000E+00  0.00000000000E+00  0.20308124746E+04  0.20308124746E+04  0.00000000000E+00 0. -1.
         22   -1    0    0    0    0 -0.00000000000E+00 -0.00000000000E+00 -0.10728136200E+04  0.10728136200E+04  0.00000000000E+00 0. -1.
         24    2    1    2    0    0  0.98265990329E+02  0.24230853417E+03 -0.10357201648E+04  0.10712584532E+04  0.80677029970E+02 0.  0.
         25    2    1    2    0    0 -0.13661111965E+03 -0.23708306070E+03  0.15466280222E+04  0.15756186075E+04  0.12507910114E+03 0.  0.
        -24    2    1    2    0    0  0.38345129321E+02 -0.52254734680E+01  0.44709099730E+03  0.45674903390E+03  0.85039200315E+02 0.  0.
        -11    1    3    3    0    0  0.58160426622E+02  0.91311895856E+02 -0.29491320475E+03  0.31415648312E+03  0.00000000000E+00 0.  1.
         12    1    3    3    0    0  0.40105563707E+02  0.15099663831E+03 -0.74080696008E+03  0.75710197010E+03  0.00000000000E+00 0. -1.
         11    1    5    5    0    0 -0.27042688466E+02  0.41886470760E+01  0.12912685114E+03  0.13199467962E+03  0.00000000000E+00 0. -1.
        -12    1    5    5    0    0  0.65387817787E+02 -0.94141205439E+01  0.31796414616E+03  0.32475435428E+03  0.00000000000E+00 0.  1.
          5    1    4    4  501    0 -0.12314732700E+03 -0.19777637507E+03  0.14699718095E+04  0.14883263593E+04  0.41800000000E+01 0.  1.
         -5    1    4    4    0  501 -0.13463792647E+02 -0.39306685632E+02  0.76656212692E+02  0.87292248179E+02  0.41800000000E+01 0.  1.
</event>
<event>
11    1  0.5813833E-009  0.2713252E+03  0.7561462E-02  0.1013115E+00
         22   -1    0    0    0    0  0.00000000000E+00  0.00000000000E+00  0.11157172788E+04  0.11157172788E+04  0.00000000000E+00 0.  1.
         22   -1    0    0    0    0 -0.00000000000E+00 -0.00000000000E+00 -0.13990428164E+03  0.13990428164E+03  0.00000000000E+00 0.  1.
        -24    2    1    2    0    0  0.24237764900E+03  0.10333904089E+03  0.14654382357E+03  0.31195296593E+03  0.80085445735E+02 0.  0.
         25    2    1    2    0    0 -0.21153915667E+03 -0.37556082813E+02  0.24366096445E+03  0.34810474171E+03  0.12508785490E+03 0.  0.
         24    2    1    2    0    0 -0.30838492329E+02 -0.65782958075E+02  0.58560820918E+03  0.59556385284E+03  0.80504148759E+02 0.  0.
        -13    1    5    5    0    0 -0.21146695881E+02 -0.79073908301E+02  0.55317205061E+03  0.55919512095E+03  0.00000000000E+00 0.  1.
         14    1    5    5    0    0 -0.96917964479E+01  0.13290950226E+02  0.32436158571E+02  0.36368731888E+02  0.00000000000E+00 0. -1.
         11    1    3    3    0    0  0.88396000034E+02  0.79834315747E+02  0.72976400304E+02  0.13968867454E+03  0.00000000000E+00 0. -1.
        -12    1    3    3    0    0  0.15398164897E+03  0.23504725141E+02  0.73567423269E+02  0.17226429139E+03  0.00000000000E+00 0.  1.
          5    1    4    4  501    0 -0.16752249679E+02  0.30656188404E+02  0.69999663828E+02  0.78344528161E+02  0.41800000000E+01 0. -1.
         -5    1    4    4    0  501 -0.19478690699E+03 -0.68212271217E+02  0.17366130062E+03  0.26976021355E+03  0.41800000000E+01 0. -1.
</event>
<event>
11    1  0.1079999E-008  0.1724989E+03  0.7561462E-02  0.1075877E+00
         22   -1    0    0    0    0  0.00000000000E+00  0.00000000000E+00  0.90584918699E+02  0.90584918699E+02  0.00000000000E+00 0. -1.
         22   -1    0    0    0    0 -0.00000000000E+00 -0.00000000000E+00 -0.17651914591E+04  0.17651914591E+04  0.00000000000E+00 0. -1.
         24    2    1    2    0    0 -0.48613422120E+02 -0.37362569950E+02 -0.82088156793E+03  0.82983298708E+03  0.10496195231E+03 0.  0.
         25    2    1    2    0    0  0.76045684043E+02 -0.80043787807E+02 -0.86233817630E+03  0.87833203058E+03  0.12510024625E+03 0.  0.
        -24    2    1    2    0    0 -0.27432261923E+02  0.11740635776E+03  0.86132037910E+01  0.14761136018E+03  0.84723931317E+02 0.  0.
        -11    1    3    3    0    0 -0.84300922130E+01 -0.34733097586E+02 -0.77313614582E+02  0.85175404445E+02  0.00000000000E+00 0.  1.
         12    1    3    3    0    0 -0.40183329907E+02 -0.26294723644E+01 -0.74356795335E+03  0.74465758263E+03  0.00000000000E+00 0. -1.
         13    1    5    5    0    0 -0.25330174054E+02  0.12469654053E+03  0.24888474442E+02  0.12965446810E+03  0.00000000000E+00 0. -1.
        -14    1    5    5    0    0 -0.21020878689E+01 -0.72901827755E+01 -0.16275270651E+02  0.17956892077E+02  0.00000000000E+00 0.  1.
          5    1    4    4  501    0  0.21489161748E+02 -0.83739645855E+02 -0.72952744494E+03  0.73464404829E+03  0.41800000000E+01 0.  1.
         -5    1    4    4    0  501  0.54556522295E+02  0.36958580474E+01 -0.13281073136E+03  0.14368798229E+03  0.41800000000E+01 0.  1.
</event>
<event>
11    1  0.5813833E-009  0.1955753E+03  0.7561462E-02  0.1057697E+00
         22   -1    0    0    0    0  0.00000000000E+00  0.00000000000E+00  0.16866798048E+04  0.16866798048E+04  0.00000000000E+00 0.  1.
         22   -1    0    0    0    0 -0.00000000000E+00 -0.00000000000E+00 -0.25335475945E+04  0.25335475945E+04  0.00000000000E+00 0.  1.
        -24    2    1    2    0    0 -0.34717938686E+02 -0.14450319228E+03 -0.24131584324E+04  0.24191015066E+04  0.81436919213E+02 0.  0.
         25    2    1    2    0    0  0.61905875618E+02  0.23977760905E+03  0.52929673895E+02  0.28244484520E+03  0.12509157031E+03 0.  0.
         24    2    1    2    0    0 -0.27187936932E+02 -0.95274416767E+02  0.15133609688E+04  0.15186810476E+04  0.79462594982E+02 0.  0.
        -11    1    5    5    0    0 -0.28065428682E+02 -0.70865331021E+02  0.14241112931E+04  0.14261495499E+04  0.00000000000E+00 0.  1.
         12    1    5    5    0    0  0.87749174985E+00 -0.24409085746E+02  0.89249675675E+02  0.92531497701E+02  0.00000000000E+00 0. -1.
         13    1    3    3    0    0  0.60759942638E+01  0.87189009093E+01 -0.18885565293E+03  0.18915441994E+03  0.00000000000E+00 0. -1.
        -14    1    3    3    0    0 -0.40793932950E+02 -0.15322209319E+03 -0.22243027794E+04  0.22299470867E+04  0.00000000000E+00 0.  1.
          5    1    4    4  501    0  0.84974289279E+02  0.13600979710E+03  0.69399460968E+02  0.17479431435E+03  0.41800000000E+01 0. -1.
         -5    1    4    4    0  501 -0.23068413661E+02  0.10376781195E+03 -0.16469787073E+02  0.10765053085E+03  0.41800000000E+01 0. -1.
</event>
<event>
11    1  0.5813833E-009  0.1410675E+03  0.7561462E-02  0.1106372E+00
         22   -1    0    0    0    0  0.00000000000E+00  0.00000000000E+00  0.44376490526E+03  0.44376490526E+03  0.00000000000E+00 0. -1.
         22   -1    0    0    0    0 -0.00000000000E+00 -0.00000000000E+00 -0.20395042719E+03  0.20395042719E+03  0.00000000000E+00 0.  1.
        -24    2    1    2    0    0  0.25003677902E+02  0.48341888780E+02 -0.97685696192E+02  0.13391319163E+03  0.73675813750E+02 0.  0.
         25    2    1    2    0    0  0.17746489182E+02  0.69320021185E+01 -0.30719032974E+02  0.13020716753E+03  0.12508899615E+03 0.  0.
         24    2    1    2    0    0 -0.42750167084E+02 -0.55273890899E+02  0.36821920724E+03  0.38359497328E+03  0.81712539720E+02 0.  0.
        -11    1    5    5    0    0 -0.20945434558E+02 -0.20104869347E+02  0.26278714261E+02  0.39159773027E+02  0.00000000000E+00 0.  1.
         12    1    5    5    0    0 -0.21804732526E+02 -0.35169021551E+02  0.34194049298E+03  0.34443520026E+03  0.00000000000E+00 0. -1.
         13    1    3    3    0    0 -0.23564474823E+02  0.28488917116E+02 -0.26535252270E+02  0.45508488056E+02  0.00000000000E+00 0. -1.
        -14    1    3    3    0    0  0.48568152726E+02  0.19852971664E+02 -0.71150443923E+02  0.88404703571E+02  0.00000000000E+00 0.  1.
          5    1    4    4  501    0  0.68075980400E+02  0.24550994346E+02 -0.11632197354E+02  0.73415739770E+02  0.41800000000E+01 0.  1.
         -5    1    4    4    0  501 -0.50329491218E+02 -0.17618992227E+02 -0.19086835619E+02  0.56791427763E+02  0.41800000000E+01 0.  1.
</event>
<event>
11    1  0.5813833E-009  0.1524996E+03  0.7561462E-02  0.1094352E+00
         22   -1    0    0    0    0  0.00000000000E+00  0.00000000000E+00  0.11255565552E+04  0.11255565552E+04  0.00000000000E+00 0.  1.
         22   -1    0    0    0    0 -0.00000000000E+00 -0.00000000000E+00 -0.40875352159E+03  0.40875352159E+03  0.00000000000E+00 0.  1.
         24    2    1    2    0    0 -0.38175316583E+01  0.86008818813E+02 -0.35015761789E+03  0.37714378775E+03  0.11052144049E+03 0.  0.
         25    2    1    2    0    0  0.99440289417E+01 -0.99305583119E+02  0.10422371439E+03  0.19097143507E+03  0.12508806427E+03 0.  0.
        -24    2    1    2    0    0 -0.61264972833E+01  0.13296764306E+02  0.96273693711E+03  0.96619485396E+03  0.80347668499E+02 0.  0.
        -13    1    3    3    0    0 -0.15715614919E+02  0.25841040790E+02 -0.28883169411E+03  0.29041089419E+03  0.00000000000E+00 0.  1.
         14    1    3    3    0    0  0.11898083261E+02  0.60167778023E+02 -0.61325923786E+02  0.86732893563E+02  0.00000000000E+00 0. -1.
         13    1    5    5    0    0  0.15154839823E+02  0.42235883833E+02  0.46339967534E+03  0.46556717900E+03  0.00000000000E+00 0. -1.
        -14    1    5    5    0    0 -0.21281337106E+02 -0.28939119527E+02  0.49933726176E+03  0.50062767496E+03  0.00000000000E+00 0.  1.
          5    1    4    4  501    0  0.58093465216E+02 -0.13435964573E+02  0.53145497911E+02  0.79983074416E+02  0.41800000000E+01 0. -1.
         -5    1    4    4    0  501 -0.48149436274E+02 -0.85869618546E+02  0.51078216481E+02  0.11098836066E+03  0.41800000000E+01 0. -1.
</event>
<event>
11    1  0.5813833E-009  0.2438676E+03  0.7561462E-02  0.1027218E+00
         22   -1    0    0    0    0  0.00000000000E+00  0.00000000000E+00  0.35787224197E+03  0.35787224197E+03  0.00000000000E+00 0.  1.
         22   -1    0    0    0    0 -0.00000000000E+00 -0.00000000000E+00 -0.39182675629E+03  0.39182675629E+03  0.00000000000E+00 0.  1.
         24    2    1    2    0    0 -0.23562175815E+03 -0.96883945329E+01 -0.16914626428E+03  0.30038127456E+03  0.77504667493E+02 0.  0.
         25    2    1    2    0    0  0.17685352340E+03 -0.60216389671E+01 -0.63945507674E+02  0.22594621375E+03  0.12509690117E+03 0.  0.
        -24    2    1    2    0    0  0.58768234756E+02  0.15710033500E+02  0.19913725764E+03  0.22337150995E+03  0.80862064696E+02 0.  0.
        -13    1    3    3    0    0 -0.90272647980E+02 -0.22359161108E+02 -0.27374886684E+02  0.96945693456E+02  0.00000000000E+00 0.  1.
         14    1    3    3    0    0 -0.14534911017E+03  0.12670766575E+02 -0.14177137760E+03  0.20343558111E+03  0.00000000000E+00 0. -1.
         13    1    5    5    0    0  0.30709047016E+02 -0.32449377298E+02  0.75056111865E+02  0.87346594576E+02  0.00000000000E+00 0. -1.
        -14    1    5    5    0    0  0.28059187740E+02  0.48159410798E+02  0.12408114577E+03  0.13602491537E+03  0.00000000000E+00 0.  1.
          5    1    4    4  501    0  0.32371482793E+02 -0.37843935416E+02  0.22213979941E+02  0.54690123887E+02  0.41800000000E+01 0. -1.
         -5    1    4    4    0  501  0.14448204060E+03  0.31822296449E+02 -0.86159487616E+02  0.17125608986E+03  0.41800000000E+01 0. -1.
</event>
<event>
11    1  0.5813833E-009  0.2183040E+03  0.7561462E-02  0.1042285E+00
         22   -1    0    0    0    0  0.00000000000E+00  0.00000000000E+00  0.48346056894E+03  0.48346056894E+03  0.00000000000E+00 0. -1.
         22   -1    0    0    0    0 -0.00000000000E+00 -0.00000000000E+00 -0.87299947929E+03  0.87299947929E+03  0.00000000000E+00 0.  1.
         24    2    1    2    0    0 -0.10360124807E+03  0.18841197009E+02 -0.73487984173E+03  0.74595925292E+03  0.72928841478E+02 0.  0.
         25    2    1    2    0    0  0.12441010664E+03 -0.18807551522E+03  0.58387351588E+02  0.26439868796E+03  0.12508920542E+03 0.  0.
        -24    2    1    2    0    0 -0.20808858572E+02  0.16923431821E+03  0.28695357979E+03  0.34610210736E+03  0.91493435307E+02 0.  0.
        -11    1    3    3    0    0 -0.41175035786E+02  0.33591467744E+02 -0.48790876695E+03  0.49079398442E+03  0.00000000000E+00 0.  1.
         12    1    3    3    0    0 -0.62426212281E+02 -0.14750270735E+02 -0.24697107478E+03  0.25516526849E+03  0.00000000000E+00 0. -1.
         11    1    5    5    0    0 -0.54196283135E+02  0.13220464373E+03  0.22565032420E+03  0.26708308396E+03  0.00000000000E+00 0. -1.
        -12    1    5    5    0    0  0.33387424562E+02  0.37029674482E+02  0.61303255598E+02  0.79019023393E+02  0.00000000000E+00 0.  1.
          5    1    4    4  501    0  0.56293345766E+02 -0.29627255864E+02  0.65933209034E+02  0.91713551458E+02  0.41800000000E+01 0. -1.
         -5    1    4    4    0  501  0.68116760874E+02 -0.15844825936E+03 -0.75458574464E+01  0.17268513650E+03  0.41800000000E+01 0. -1.
</event>
<event>
11    1  0.5813833E-009  0.1520215E+03  0.7561462E-02  0.1094831E+00
         22   -1    0    0    0    0  0.00000000000E+00  0.00000000000E+00  0.58203766522E+03  0.58203766522E+03  0.00000000000E+00 0.  1.
         22   -1    0    0    0    0 -0.00000000000E+00 -0.00000000000E+00 -0.41325383864E+03  0.41325383864E+03  0.00000000000E+00 0. -1.
        -24    2    1    2    0    0  0.29005428571E+00  0.53893807766E+01 -0.37064677418E+03  0.37919921655E+03  0.79899218185E+02 0.  0.
         25    2    1    2    0    0 -0.86607188401E+02 -0.40012661156E+01  0.17123797098E+03  0.22910008748E+03  0.12509033601E+03 0.  0.
         24    2    1    2    0    0  0.86317134115E+02 -0.13881146610E+01  0.36819262977E+03  0.38699219983E+03  0.82125365199E+02 0.  0.
        -13    1    5    5    0    0  0.81229987009E+02  0.30044686920E+02  0.28683803915E+03  0.29962819411E+03  0.00000000000E+00 0.  1.
         14    1    5    5    0    0  0.50871471058E+01 -0.31432801581E+02  0.81354590622E+02  0.87364005724E+02  0.00000000000E+00 0. -1.
         11    1    3    3    0    0  0.66315387282E+01  0.14230162740E+02 -0.36755270703E+03  0.36788784607E+03  0.00000000000E+00 0. -1.
        -12    1    3    3    0    0 -0.63414844425E+01 -0.88407819630E+01 -0.30940671441E+01  0.11311370480E+02  0.00000000000E+00 0.  1.
          5    1    4    4  501    0 -0.63569541912E+02  0.57699670251E+02  0.10336242117E+03  0.13443065542E+03  0.41800000000E+01 0. -1.
         -5    1    4    4    0  501 -0.23037646489E+02 -0.61700936367E+02  0.67875549807E+02  0.94669432057E+02  0.41800000000E+01 0. -1.
</event>
<event>
11    1  0.5813833E-009  0.1346372E+03  0.7561462E-02  0.1113699E+00
         22   -1    0    0    0    0  0.00000000000E+00  0.00000000000E+00  0.25656058801E+03  0.25656058801E+03  0.00000000000E+00 0. -1.
         22   -1    0    0    0    0 -0.00000000000E+00 -0.00000000000E+00 -0.19496507516E+04  0.19496507516E+04  0.00000000000E+00 0. -1.
         24    2    1    2    0    0  0.30830808286E+01 -0.48744306881E+02 -0.18029299056E+04  0.18054165394E+04  0.81161096778E+02 0.  0.
         25    2    1    2    0    0  0.63053859099E+00  0.81039611796E+02 -0.95306659457E+02  0.17691664011E+03  0.12509325303E+03 0.  0.
        -24    2    1    2    0    0 -0.37136194196E+01 -0.32295304914E+02  0.20514640148E+03  0.22387816002E+03  0.83544041117E+02 0.  0.
        -11    1    3    3    0    0  0.16355127716E+02  0.77910185168E+01 -0.10928753050E+03  0.11077885400E+03  0.00000000000E+00 0.  1.
         12    1    3    3    0    0 -0.13272046887E+02 -0.56535325398E+02 -0.16936423751E+04  0.16946376854E+04  0.00000000000E+00 0. -1.
         11    1    5    5    0    0  0.46243723102E+01  0.28191699902E+02  0.67521002421E+02  0.73316045519E+02  0.00000000000E+00 0. -1.
        -12    1    5    5    0    0 -0.83379917298E+01 -0.60487004816E+02  0.13762539906E+03  0.15056211450E+03  0.00000000000E+00 0.  1.
          5    1    4    4  501    0 -0.36829577285E+02 -0.18921634348E+02 -0.19740525413E+02  0.46060902650E+02  0.41800000000E+01 0. -1.
         -5    1    4    4    0  501  0.37460115876E+02  0.99961246144E+02 -0.75566134044E+02  0.13085573746E+03  0.41800000000E+01 0. -1.
</event>
<event>
11    1  0.5813833E-009  0.1427383E+03  0.7561462E-02  0.1104539E+00
         22   -1    0    0    0    0  0.00000000000E+00  0.00000000000E+00  0.51733351211E+03  0.51733351211E+03  0.00000000000E+00 0. -1.
         22   -1    0    0    0    0 -0.00000000000E+00 -0.00000000000E+00 -0.17125630789E+03  0.17125630789E+03  0.00000000000E+00 0. -1.
         24    2    1    2    0    0  0.27952617731E+02  0.42519602694E+01 -0.10830152172E+03  0.13829396509E+03  0.81219290628E+02 0.  0.
         25    2    1    2    0    0  0.41837269811E+02 -0.24423382474E+02  0.70034738840E+02  0.15132328085E+03  0.12508801672E+03 0.  0.
        -24    2    1    2    0    0 -0.69789887542E+02  0.20171422204E+02  0.38434398710E+03  0.39897257405E+03  0.78621242341E+02 0.  0.
        -11    1    3    3    0    0 -0.63202317741E+01  0.35088095403E+02 -0.26600304967E+02  0.44482535821E+02  0.00000000000E+00 0.  1.
         12    1    3    3    0    0  0.34272849505E+02 -0.30836135133E+02 -0.81701216755E+02  0.93811429274E+02  0.00000000000E+00 0. -1.
         11    1    5    5    0    0 -0.43801319740E+02 -0.37457722814E+01  0.33726454841E+03  0.34011757090E+03  0.00000000000E+00 0. -1.
        -12    1    5    5    0    0 -0.25988567802E+02  0.23917194486E+02  0.47079438693E+02  0.58855003153E+02  0.00000000000E+00 0.  1.
          5    1    4    4  501    0 -0.89697278681E+01 -0.20576402224E+02  0.92649294661E+02  0.95421216444E+02  0.41800000000E+01 0. -1.
         -5    1    4    4    0  501  0.50806997679E+02 -0.38469802500E+01 -0.22614555821E+02  0.55902064409E+02  0.41800000000E+01 0. -1.
</event>
<event>
11    1  0.5813833E-009  0.1278130E+03  0.7561462E-02  0.1121986E+00
         22   -1    0    0    0    0  0.00000000000E+00  0.00000000000E+00  0.14754656193E+03  0.14754656193E+03  0.00000000000E+00 0. -1.
         22   -1    0    0    0    0 -0.00000000000E+00 -0.00000000000E+00 -0.50301840275E+03  0.50301840275E+03  0.00000000000E+00 0. -1.
        -24    2    1    2    0    0 -0.12005837783E+02  0.16027197338E+02 -0.39501864994E+03  0.40355265500E+03  0.80087454461E+02 0.  0.
         25    2    1    2    0    0 -0.61374946830E+01  0.79827545468E+01 -0.37907139396E+02  0.13106735291E+03  0.12506121130E+03 0.  0.
         24    2    1    2    0    0  0.18143332466E+02 -0.24009951885E+02  0.77453948514E+02  0.11594495676E+03  0.80860747929E+02 0.  0.
        -13    1    5    5    0    0 -0.18964097723E+02  0.19881422478E+02  0.34970111769E+02  0.44472650914E+02  0.00000000000E+00 0.  1.
         14    1    5    5    0    0  0.37107430188E+02 -0.43891374363E+02  0.42483836745E+02  0.71472305848E+02  0.00000000000E+00 0. -1.
         11    1    3    3    0    0  0.97733278991E+01 -0.29956032927E+02 -0.16357372442E+03  0.16658104685E+03  0.00000000000E+00 0. -1.
        -12    1    3    3    0    0 -0.21779165682E+02  0.45983230265E+02 -0.23144492552E+03  0.23697160815E+03  0.00000000000E+00 0.  1.
          5    1    4    4  501    0 -0.60671090101E+02  0.20990312068E+02 -0.20133250016E+01  0.64366918928E+02  0.41800000000E+01 0. -1.
         -5    1    4    4    0  501  0.54533595418E+02 -0.13007557522E+02 -0.35893814394E+02  0.66700433984E+02  0.41800000000E+01 0. -1.
</event>
<event>
11    1  0.5813833E-009  0.1451283E+03  0.7561462E-02  0.1101963E+00
         22   -1    0    0    0    0  0.00000000000E+00  0.00000000000E+00  0.99823604607E+03  0.99823604607E+03  0.00000000000E+00 0.  1.
         22   -1    0    0    0    0 -0.00000000000E+00 -0.00000000000E+00 -0.90249658898E+03  0.90249658898E+03  0.00000000000E+00 0. -1.
         24    2    1    2    0    0 -0.20668437454E+02 -0.15786184540E+02 -0.83955136174E+03  0.84400143027E+03  0.82556267869E+02 0.  0.
         25    2    1    2    0    0  0.70476626593E+02 -0.38194490431E+02  0.38420039477E+02  0.15345602396E+03  0.12508748083E+03 0.  0.
        -24    2    1    2    0    0 -0.49808189139E+02  0.53980674971E+02  0.89687077935E+03  0.90327518083E+03  0.78320421782E+02 0.  0.
        -11    1    3    3    0    0  0.17951097337E+02  0.45786156374E+01 -0.61308890659E+03  0.61336874146E+03  0.00000000000E+00 0.  1.
         12    1    3    3    0    0 -0.38619534791E+02 -0.20364800177E+02 -0.22646245515E+03  0.23063268881E+03  0.00000000000E+00 0. -1.
         13    1    5    5    0    0 -0.25904017185E+02  0.37704850447E+02  0.17674870031E+03  0.18257266202E+03  0.00000000000E+00 0. -1.
        -14    1    5    5    0    0 -0.23904171954E+02  0.16275824524E+02  0.72012207904E+03  0.72070251881E+03  0.00000000000E+00 0.  1.
          5    1    4    4  501    0  0.75280098409E+01 -0.64785572775E+02 -0.14476475567E+02  0.66939391369E+02  0.41800000000E+01 0.  1.
         -5    1    4    4    0  501  0.62948616752E+02  0.26591082344E+02  0.52896515044E+02  0.86516632592E+02  0.41800000000E+01 0.  1.
</event>
<event>
11    1  0.5813833E-009  0.1294709E+03  0.7561462E-02  0.1119921E+00
         22   -1    0    0    0    0  0.00000000000E+00  0.00000000000E+00  0.73443908978E+03  0.73443908978E+03  0.00000000000E+00 0. -1.
         22   -1    0    0    0    0 -0.00000000000E+00 -0.00000000000E+00 -0.12271662743E+04  0.12271662743E+04  0.00000000000E+00 0.  1.
         24    2    1    2    0    0  0.87243177043E+00  0.32667223973E+02 -0.10752802115E+04  0.10785761042E+04  0.77659323905E+02 0.  0.
         25    2    1    2    0    0  0.32422089659E+02 -0.34894449910E+02 -0.11720223470E+03  0.17791150678E+03  0.12508927170E+03 0.  0.
        -24    2    1    2    0    0 -0.33294521430E+02  0.22272259370E+01  0.69975526171E+03  0.70511775308E+03  0.80125736959E+02 0.  0.
        -11    1    3    3    0    0 -0.63257752775E+01  0.43622603182E+02 -0.10400909384E+04  0.10410245468E+04  0.00000000000E+00 0.  1.
         12    1    3    3    0    0  0.71982070479E+01 -0.10955379209E+02 -0.35189273112E+02  0.37551557364E+02  0.00000000000E+00 0. -1.
         11    1    5    5    0    0 -0.54786626702E+02 -0.63734468727E+01  0.60764423407E+03  0.61014236903E+03  0.00000000000E+00 0. -1.
        -12    1    5    5    0    0  0.21492105272E+02  0.86006728097E+01  0.92111027646E+02  0.94975384051E+02  0.00000000000E+00 0.  1.
          5    1    4    4  501    0 -0.17169803894E+02 -0.48369088131E+02 -0.18142064504E+01  0.51527998190E+02  0.41800000000E+01 0.  1.
         -5    1    4    4    0  501  0.49591893554E+02  0.13474638221E+02 -0.11538802825E+03  0.12638350859E+03  0.41800000000E+01 0.  1.
</event>
<event>
11    1  0.5813833E-009  0.1336444E+03  0.7561462E-02  0.1114871E+00
         22   -1    0    0    0    0  0.00000000000E+00  0.00000000000E+00  0.90752757470E+03  0.90752757470E+03  0.00000000000E+00 0.  1.
         22   -1    0    0    0    0 -0.00000000000E+00 -0.00000000000E+00 -0.20488406952E+03  0.20488406952E+03  0.00000000000E+00 0. -1.
         24    2    1    2    0    0  0.13109271615E+01  0.23929927733E+02 -0.16692224096E+03  0.18677224288E+03  0.80289950860E+02 0.  0.
         25    2    1    2    0    0  0.42028198233E+02 -0.25151060889E+01  0.15058164746E+03  0.20023563009E+03  0.12508708885E+03 0.  0.
        -24    2    1    2    0    0 -0.43339125395E+02 -0.21414821644E+02  0.71898409868E+03  0.72540377126E+03  0.83280386796E+02 0.  0.
        -11    1    3    3    0    0  0.24972151684E+02 -0.41498562977E+01 -0.12858654778E+02  0.28393215206E+02  0.00000000000E+00 0.  1.
         12    1    3    3    0    0 -0.23661224523E+02  0.28079784031E+02 -0.15406358619E+03  0.15837902767E+03  0.00000000000E+00 0. -1.
         11    1    5    5    0    0  0.20731664240E+02 -0.11495897220E+02  0.89377038457E+02  0.92467359422E+02  0.00000000000E+00 0. -1.
        -12    1    5    5    0    0 -0.64070789634E+02 -0.99189244240E+01  0.62960706023E+03  0.63293641184E+03  0.00000000000E+00 0.  1.
          5    1    4    4  501    0 -0.19578242675E+02  0.32971077805E+02  0.11363604269E+03  0.12000425891E+03  0.41800000000E+01 0.  1.
         -5    1    4    4    0  501  0.61606440909E+02 -0.35486183894E+02  0.36945604772E+02  0.80231371176E+02  0.41800000000E+01 0.  1.
</event>
<event>
11    1  0.5813833E-009  0.2365662E+03  0.7561462E-02  0.1031309E+00
         22   -1    0    0    0    0  0.00000000000E+00  0.00000000000E+00  0.11525525814E+04  0.11525525814E+04  0.00000000000E+00 0.  1.
         22   -1    0    0    0    0 -0.00000000000E+00 -0.00000000000E+00 -0.64938565835E+03  0.64938565835E+03  0.00000000000E+00 0.  1.
         24    2    1    2    0    0 -0.99682399420E+02 -0.18050796726E+03 -0.60034598812E+03  0.64015747884E+03  0.82864861478E+02 0.  0.
         25    2    1    2    0    0  0.77527069328E+02  0.91770197887E+02  0.27999427370E+03  0.32935838777E+03  0.12509172071E+03 0.  0.
        -24    2    1    2    0    0  0.22155330092E+02  0.88737769368E+02  0.82351863747E+03  0.83242237314E+03  0.79867456872E+02 0.  0.
        -11    1    3    3    0    0 -0.10427961196E+03 -0.17876523244E+03 -0.52013694145E+03  0.55979789537E+03  0.00000000000E+00 0.  1.
         12    1    3    3    0    0  0.45972125444E+01 -0.17427348170E+01 -0.80209046675E+02  0.80359583476E+02  0.00000000000E+00 0. -1.
         11    1    5    5    0    0  0.17268459570E+02 -0.10173598069E+02  0.87189191308E+02  0.89463159315E+02  0.00000000000E+00 0. -1.
        -12    1    5    5    0    0  0.48868705223E+01  0.98911367438E+02  0.73632944617E+03  0.74295921382E+03  0.00000000000E+00 0.  1.
          5    1    4    4  501    0 -0.18070355854E+02  0.21550612562E+02  0.37291348876E+01  0.28676567254E+02  0.41800000000E+01 0. -1.
         -5    1    4    4    0  501  0.95597425182E+02  0.70219585326E+02  0.27626513882E+03  0.30068182052E+03  0.41800000000E+01 0. -1.
</event>
<event>
11    1  0.6558539E-009  0.1563895E+03  0.7561462E-02  0.1090523E+00
         22   -1    0    0    0    0  0.00000000000E+00  0.00000000000E+00  0.17613718972E+04  0.17613718972E+04  0.00000000000E+00 0. -1.
         22   -1    0    0    0    0 -0.00000000000E+00 -0.00000000000E+00 -0.81071673330E+03  0.81071673330E+03  0.00000000000E+00 0.  1.
         24    2    1    2    0    0 -0.51823567788E+02  0.84919323839E+01 -0.55083622237E+03  0.55913519106E+03  0.80335688954E+02 0.  0.
         25    2    1    2    0    0 -0.31256339973E+02 -0.52782617969E+02 -0.23439552908E+03  0.27269921713E+03  0.12514246051E+03 0.  0.
        -24    2    1    2    0    0  0.83079907760E+02  0.44290685585E+02  0.17358869154E+04  0.17402542223E+04  0.79482321594E+02 0.  0.
        -13    1    3    3    0    0 -0.58329160878E+02  0.32793775517E+02 -0.46143552887E+03  0.46626223311E+03  0.00000000000E+00 0.  1.
         14    1    3    3    0    0  0.65055930907E+01 -0.24301843133E+02 -0.89400693497E+02  0.92872957952E+02  0.00000000000E+00 0. -1.
         13    1    5    5    0    0  0.34338122395E+02  0.39296173977E+02  0.13827506373E+04  0.13837350256E+04  0.00000000000E+00 0. -1.
        -14    1    5    5    0    0  0.48741785366E+02  0.49945116084E+01  0.35313627806E+03  0.35651919677E+03  0.00000000000E+00 0.  1.
          5    1    4    4  501    0 -0.24690368177E+02  0.29908018547E+02 -0.22324449703E+02  0.44943935171E+02  0.41800000000E+01 0. -1.
         -5    1    4    4    0  501 -0.65659717959E+01 -0.82690636517E+02 -0.21207107937E+03  0.22775528196E+03  0.41800000000E+01 0. -1.
</event>
<event>
11    1  0.5813833E-009  0.1335411E+03  0.7561462E-02  0.1114993E+00
         22   -1    0    0    0    0  0.00000000000E+00  0.00000000000E+00  0.62179103047E+03  0.62179103047E+03  0.00000000000E+00 0. -1.
         22   -1    0    0    0    0 -0.00000000000E+00 -0.00000000000E+00 -0.49218320600E+03  0.49218320600E+03  0.00000000000E+00 0. -1.
        -24    2    1    2    0    0  0.39866244121E+02  0.63325117166E+01 -0.40882897188E+03  0.41853569906E+03  0.80009905743E+02 0.  0.
         25    2    1    2    0    0  0.53578610219E+01 -0.23591805078E+02 -0.20468086820E+02  0.12904352641E+03  0.12509200290E+03 0.  0.
         24    2    1    2    0    0 -0.45224105143E+02  0.17259293361E+02  0.55890488316E+03  0.56639501100E+03  0.78009853032E+02 0.  0.
        -11    1    5    5    0    0  0.11479483906E+02 -0.18273576836E+02  0.21196155206E+03  0.21305727332E+03  0.00000000000E+00 0.  1.
         12    1    5    5    0    0 -0.56703589049E+02  0.35532870197E+02  0.34694333110E+03  0.35333773768E+03  0.00000000000E+00 0. -1.
         11    1    3    3    0    0  0.36286352789E+01  0.36743431123E+02 -0.25312513532E+03  0.25580379367E+03  0.00000000000E+00 0. -1.
        -12    1    3    3    0    0  0.36237608842E+02 -0.30410919406E+02 -0.15570383656E+03  0.16273190539E+03  0.00000000000E+00 0.  1.
          5    1    4    4  501    0 -0.44446231806E+02 -0.19046687251E+02 -0.50916572540E+02  0.70343539691E+02  0.41800000000E+01 0. -1.
         -5    1    4    4    0  501  0.49804092828E+02 -0.45451178266E+01  0.30448485719E+02  0.58699986722E+02  0.41800000000E+01 0. -1.
</event>
<event>
11    1  0.5813833E-009  0.1793072E+03  0.7561462E-02  0.1070205E+00
         22   -1    0    0    0    0  0.00000000000E+00  0.00000000000E+00  0.16597684489E+04  0.16597684489E+04  0.00000000000E+00 0.  1.
         22   -1    0    0    0    0 -0.00000000000E+00 -0.00000000000E+00 -0.96038352108E+02  0.96038352108E+02  0.00000000000E+00 0. -1.
         24    2    1    2    0    0  0.10831178577E+03  0.71111016775E+02  0.46833173809E+01  0.15378263137E+03  0.82697911742E+02 0.  0.
         25    2    1    2    0    0 -0.16172638991E+03  0.41097606055E+02  0.70158587232E+03  0.73192470146E+03  0.12508634601E+03 0.  0.
        -24    2    1    2    0    0  0.53414604138E+02 -0.11220862283E+03  0.85746090707E+03  0.87009946815E+03  0.79937365170E+02 0.  0.
        -11    1    3    3    0    0  0.14463922768E+02  0.56632531889E+02 -0.28990866868E+01  0.58522247339E+02  0.00000000000E+00 0.  1.
         12    1    3    3    0    0  0.93847863002E+02  0.14478484887E+02  0.75824040676E+01  0.95260384033E+02  0.00000000000E+00 0. -1.
         11    1    5    5    0    0  0.24555797552E+01  0.43454988840E+01  0.22070956567E+03  0.22076599740E+03  0.00000000000E+00 0. -1.
        -12    1    5    5    0    0  0.50959024383E+02 -0.11655412171E+03  0.63675134140E+03  0.64933347075E+03  0.00000000000E+00 0.  1.
          5    1    4    4  501    0 -0.80258659989E+02  0.83631355472E+02  0.36442231158E+03  0.38243528825E+03  0.41800000000E+01 0.  1.
         -5    1    4    4    0  501 -0.81467729919E+02 -0.42533749417E+02  0.33716356074E+03  0.34948941321E+03  0.41800000000E+01 0.  1.
</event>
<event>
11    1  0.5813833E-009  0.2604817E+03  0.7561462E-02  0.1018459E+00
         22   -1    0    0    0    0  0.00000000000E+00  0.00000000000E+00  0.31146629076E+03  0.31146629076E+03  0.00000000000E+00 0.  1.
         22   -1    0    0    0    0 -0.00000000000E+00 -0.00000000000E+00 -0.11529454946E+04  0.11529454946E+04  0.00000000000E+00 0.  1.
         24    2    1    2    0    0 -0.72166339023E+02  0.21550585472E+03 -0.97836728092E+03  0.10077838398E+04  0.82310251843E+02 0.  0.
         25    2    1    2    0    0  0.30600076617E+02 -0.24115206249E+03 -0.20429295005E+02  0.27414795590E+03  0.12509621776E+03 0.  0.
        -24    2    1    2    0    0  0.41566262406E+02  0.25646207771E+02  0.15731737211E+03  0.18247998959E+03  0.78515660154E+02 0.  0.
        -11    1    3    3    0    0 -0.42410151584E+01  0.88493507801E+02 -0.24800386011E+03  0.26335337811E+03  0.00000000000E+00 0.  1.
         12    1    3    3    0    0 -0.67925323864E+02  0.12701234692E+03 -0.73036342082E+03  0.74443046174E+03  0.00000000000E+00 0. -1.
         13    1    5    5    0    0  0.82411559382E+01  0.42624613437E+01 -0.81448479258E+01  0.12346002415E+02  0.00000000000E+00 0. -1.
        -14    1    5    5    0    0  0.33325106467E+02  0.21383746428E+02  0.16546222004E+03  0.17013398718E+03  0.00000000000E+00 0.  1.
          5    1    4    4  501    0 -0.78105227931E+01 -0.51876959927E+00 -0.28954120734E+02  0.30283442600E+02  0.41800000000E+01 0.  1.
         -5    1    4    4    0  501  0.38410599410E+02 -0.24063329289E+03  0.85248257296E+01  0.24386451330E+03  0.41800000000E+01 0.  1.
</event>
<event>
11    1  0.5813833E-009  0.1578998E+03  0.7561462E-02  0.1089069E+00
         22   -1    0    0    0    0  0.00000000000E+00  0.00000000000E+00  0.22771344744E+04  0.22771344744E+04  0.00000000000E+00 0.  1.
         22   -1    0    0    0    0 -0.00000000000E+00 -0.00000000000E+00 -0.20961247434E+03  0.20961247434E+03  0.00000000000E+00 0.  1.
        -24    2    1    2    0    0 -0.29173568220E+02 -0.90432920585E+02 -0.16751576792E+03  0.20764414320E+03  0.77623111867E+02 0.  0.
         25    2    1    2    0    0  0.31789105216E+02  0.11603803723E+03  0.33539367556E+03  0.37763828309E+03  0.12508549856E+03 0.  0.
         24    2    1    2    0    0 -0.26155369959E+01 -0.25605116645E+02  0.18996440924E+04  0.19014645224E+04  0.79102397045E+02 0.  0.
        -11    1    5    5    0    0 -0.35503616156E+02 -0.34081592871E+02  0.11117146031E+04  0.11128034060E+04  0.00000000000E+00 0.  1.
         12    1    5    5    0    0  0.32888079160E+02  0.84764762259E+01  0.78792948931E+03  0.78866111640E+03  0.00000000000E+00 0. -1.
         13    1    3    3    0    0 -0.43288072779E+02 -0.34919171340E+02 -0.12336869358E+03  0.13532568244E+03  0.00000000000E+00 0. -1.
        -14    1    3    3    0    0  0.14114504559E+02 -0.55513749245E+02 -0.44147074339E+02  0.72318460761E+02  0.00000000000E+00 0.  1.
          5    1    4    4  501    0  0.23463531095E+02 -0.11762061463E+02  0.10837145312E+02  0.28701907599E+02  0.41800000000E+01 0. -1.
         -5    1    4    4    0  501  0.83255741208E+01  0.12780009869E+03  0.32455653025E+03  0.34893637549E+03  0.41800000000E+01 0. -1.
</event>
<event>
11    1  0.5813833E-009  0.3097028E+03  0.7561462E-02  0.9961664E-01
         22   -1    0    0    0    0  0.00000000000E+00  0.00000000000E+00  0.87183562917E+03  0.87183562917E+03  0.00000000000E+00 0.  1.
         22   -1    0    0    0    0 -0.00000000000E+00 -0.00000000000E+00 -0.35962747869E+03  0.35962747869E+03  0.00000000000E+00 0. -1.
         24    2    1    2    0    0  0.19977270720E+03  0.18721465166E+03 -0.17851994024E+03  0.33598097427E+03  0.77816358625E+02 0.  0.
         25    2    1    2    0    0 -0.26475114480E+03 -0.18591194369E+03  0.21516772515E+03  0.40816895042E+03  0.12509325585E+03 0.  0.
        -24    2    1    2    0    0  0.64978437597E+02 -0.13027079719E+01  0.47556036556E+03  0.48731318317E+03  0.84217473235E+02 0.  0.
        -11    1    3    3    0    0 -0.36001507214E+01 -0.39955665618E+01 -0.46939791148E+01  0.71385626913E+01  0.00000000000E+00 0.  1.
         12    1    3    3    0    0  0.20337285792E+03  0.19121021822E+03 -0.17382596112E+03  0.32884241158E+03  0.00000000000E+00 0. -1.
         11    1    5    5    0    0  0.57007953068E+02 -0.20111407423E+02  0.15915235724E+03  0.17024643385E+03  0.00000000000E+00 0. -1.
        -12    1    5    5    0    0  0.79704845296E+01  0.18808699451E+02  0.31640800832E+03  0.31706674933E+03  0.00000000000E+00 0.  1.
          5    1    4    4  501    0 -0.29266931625E+02 -0.91087367702E+01 -0.15014268231E+02  0.34386378449E+02  0.41800000000E+01 0.  1.
         -5    1    4    4    0  501 -0.23548421317E+03 -0.17680320692E+03  0.23018199339E+03  0.37378257197E+03  0.41800000000E+01 0.  1.
</event>
<event>
11    1  0.5813833E-009  0.1578500E+03  0.7561462E-02  0.1089117E+00
         22   -1    0    0    0    0  0.00000000000E+00  0.00000000000E+00  0.73455270284E+02  0.73455270284E+02  0.00000000000E+00 0.  1.
         22   -1    0    0    0    0 -0.00000000000E+00 -0.00000000000E+00 -0.20314925919E+04  0.20314925919E+04  0.00000000000E+00 0.  1.
        -24    2    1    2    0    0  0.34995330241E+02  0.93960522987E+02 -0.16841580613E+04  0.16889979297E+04  0.79198347005E+02 0.  0.
         25    2    1    2    0    0 -0.19192581408E+02 -0.66681245570E+02 -0.29469288356E+03  0.32757486250E+03  0.12508657495E+03 0.  0.
         24    2    1    2    0    0 -0.15802748833E+02 -0.27279277417E+02  0.20813623147E+02  0.88375070045E+02  0.79894056411E+02 0.  0.
        -13    1    5    5    0    0 -0.44560688297E+02 -0.22374304988E+02  0.29500837000E+02  0.57935859784E+02  0.00000000000E+00 0.  1.
         14    1    5    5    0    0  0.28757939464E+02 -0.49049724296E+01 -0.86872138533E+01  0.30439210261E+02  0.00000000000E+00 0. -1.
         11    1    3    3    0    0  0.30573138369E+02  0.69377144511E+01 -0.21679837312E+03  0.21905337993E+03  0.00000000000E+00 0. -1.
        -12    1    3    3    0    0  0.44221918721E+01  0.87022808536E+02 -0.14673596881E+04  0.14699445498E+04  0.00000000000E+00 0.  1.
          5    1    4    4  501    0 -0.38878715243E+02 -0.48304647010E+01 -0.17958854413E+02  0.43299893072E+02  0.41800000000E+01 0. -1.
         -5    1    4    4    0  501  0.19686133836E+02 -0.61850780869E+02 -0.27673402914E+03  0.28427496943E+03  0.41800000000E+01 0. -1.
</event>
<event>
11    1  0.5813833E-009  0.1406689E+03  0.7561462E-02  0.1106814E+00
         22   -1    0    0    0    0  0.00000000000E+00  0.00000000000E+00  0.17916678990E+04  0.17916678990E+04  0.00000000000E+00 0. -1.
         22   -1    0    0    0    0 -0.00000000000E+00 -0.00000000000E+00 -0.10177289187E+03  0.10177289187E+03  0.00000000000E+00 0.  1.
         24    2    1    2    0    0  0.32621232441E+02  0.32010168693E+02 -0.59827580845E+02  0.11014548684E+03  0.80398340375E+02 0.  0.
         25    2    1    2    0    0 -0.93271055967E+02 -0.31546277129E+02  0.41104647911E+03  0.44077942801E+03  0.12503055102E+03 0.  0.
        -24    2    1    2    0    0  0.60649823525E+02 -0.46389156332E+00  0.13386761089E+04  0.13425158760E+04  0.81342096388E+02 0.  0.
        -11    1    3    3    0    0  0.17946915105E+02  0.52740143314E+02 -0.63510202627E+02  0.84481715870E+02  0.00000000000E+00 0.  1.
         12    1    3    3    0    0  0.14674317336E+02 -0.20729974621E+02  0.36826217825E+01  0.25663770967E+02  0.00000000000E+00 0. -1.
         11    1    5    5    0    0  0.44518809501E+02 -0.33443705965E+02  0.10558014589E+04  0.10572687106E+04  0.00000000000E+00 0. -1.
        -12    1    5    5    0    0  0.16131014025E+02  0.32979814402E+02  0.28287464995E+03  0.28524716538E+03  0.00000000000E+00 0.  1.
          5    1    4    4  501    0  0.16270858158E+02 -0.26504313421E+02  0.20447625587E+03  0.20687008259E+03  0.41800000000E+01 0.  1.
         -5    1    4    4    0  501 -0.10954191412E+03 -0.50419637088E+01  0.20657022324E+03  0.23390934542E+03  0.41800000000E+01 0.  1.
</event>
<event>
11    1  0.5813833E-009  0.4218162E+03  0.7561462E-02  0.9587494E-01
         22   -1    0    0    0    0  0.00000000000E+00  0.00000000000E+00  0.92660102478E+03  0.92660102478E+03  0.00000000000E+00 0.  1.
         22   -1    0    0    0    0 -0.00000000000E+00 -0.00000000000E+00 -0.57617662899E+03  0.57617662899E+03  0.00000000000E+00 0. -1.
        -24    2    1    2    0    0  0.25778791479E+03 -0.23319283002E+03 -0.18370914522E+03  0.40173393263E+03  0.82508166921E+02 0.  0.
         25    2    1    2    0    0 -0.46503578710E+03  0.39557888440E+03  0.17244217414E+03  0.64662538933E+03  0.12508858315E+03 0.  0.
         24    2    1    2    0    0  0.20724787231E+03 -0.16238605438E+03  0.36169136687E+03  0.45441833181E+03  0.79714893104E+02 0.  0.
        -11    1    5    5    0    0  0.20696812763E+03 -0.13746415890E+03  0.31215021959E+03  0.39896110139E+03  0.00000000000E+00 0.  1.
         12    1    5    5    0    0  0.27974468087E+00 -0.24921895476E+02  0.49541147288E+02  0.55457230420E+02  0.00000000000E+00 0. -1.
         11    1    3    3    0    0  0.21623147000E+03 -0.14720378311E+03 -0.12883991959E+03  0.29158999857E+03  0.00000000000E+00 0. -1.
        -12    1    3    3    0    0  0.41556444784E+02 -0.85989046909E+02 -0.54869225625E+02  0.11014393407E+03  0.00000000000E+00 0.  1.
          5    1    4    4  501    0 -0.60475627195E+02  0.70705112567E+02  0.72941363532E+02  0.11829805299E+03  0.41800000000E+01 0. -1.
         -5    1    4    4    0  501 -0.40456015991E+03  0.32487377183E+03  0.99500810607E+02  0.52832733633E+03  0.41800000000E+01 0. -1.
</event>
<event>
11    1  0.5813833E-009  0.1605151E+03  0.7561462E-02  0.1086594E+00
         22   -1    0    0    0    0  0.00000000000E+00  0.00000000000E+00  0.16328259024E+04  0.16328259024E+04  0.00000000000E+00 0. -1.
         22   -1    0    0    0    0 -0.00000000000E+00 -0.00000000000E+00 -0.12161836011E+04  0.12161836011E+04  0.00000000000E+00 0.  1.
         24    2    1    2    0    0 -0.58444082443E+02  0.81598183564E+02 -0.11911032862E+04  0.11979473731E+04  0.79226862827E+02 0.  0.
         25    2    1    2    0    0  0.29270760179E+02 -0.13950360501E+03  0.44333839012E+03  0.48219655058E+03  0.12508617840E+03 0.  0.
        -24    2    1    2    0    0  0.29173322264E+02  0.57905421443E+02  0.11644071975E+04  0.11688655799E+04  0.78730564432E+02 0.  0.
        -11    1    3    3    0    0 -0.61190819118E+02  0.95560295969E+02 -0.10765172216E+04  0.10824811384E+04  0.00000000000E+00 0.  1.
         12    1    3    3    0    0  0.27467366748E+01 -0.13962112406E+02 -0.11458606465E+03  0.11546623471E+03  0.00000000000E+00 0. -1.
         11    1    5    5    0    0  0.19342051103E+02  0.69768903881E+02  0.11088599422E+04  0.11112210340E+04  0.00000000000E+00 0. -1.
        -12    1    5    5    0    0  0.98312711610E+01 -0.11863482438E+02  0.55547255229E+02  0.57644545897E+02  0.00000000000E+00 0.  1.
          5    1    4    4  501    0  0.16739311047E+02 -0.49364013965E+02  0.34180897462E+03  0.34578585561E+03  0.41800000000E+01 0. -1.
         -5    1    4    4    0  501  0.12531449132E+02 -0.90139591041E+02  0.10152941549E+03  0.13641069497E+03  0.41800000000E+01 0. -1.
</event>
<event>
11    1  0.5813833E-009  0.1789735E+03  0.7561462E-02  0.1070476E+00
         22   -1    0    0    0    0  0.00000000000E+00  0.00000000000E+00  0.96804044581E+03  0.96804044581E+03  0.00000000000E+00 0.  1.
         22   -1    0    0    0    0 -0.00000000000E+00 -0.00000000000E+00 -0.33497077079E+03  0.33497077079E+03  0.00000000000E+00 0.  1.
        -24    2    1    2    0    0  0.56762876464E+02 -0.50790194255E+02 -0.27197262755E+03  0.29429079126E+03  0.82681870488E+02 0.  0.
         25    2    1    2    0    0 -0.10420116906E+03 -0.71844054636E+02  0.13439149526E+03  0.22299762537E+03  0.12508962827E+03 0.  0.
         24    2    1    2    0    0  0.47438292593E+02  0.12263424889E+03  0.77065080731E+03  0.78572279996E+03  0.78537258501E+02 0.  0.
        -11    1    5    5    0    0  0.57223651014E+02  0.11554642123E+03  0.75509990366E+03  0.76602962488E+03  0.00000000000E+00 0.  1.
         12    1    5    5    0    0 -0.97853584208E+01  0.70878276629E+01  0.15550903648E+02  0.19693175078E+02  0.00000000000E+00 0. -1.
         13    1    3    3    0    0  0.30752772757E+02 -0.12422216685E+01 -0.21254890569E+02  0.37403830285E+02  0.00000000000E+00 0. -1.
        -14    1    3    3    0    0  0.26010103707E+02 -0.49547972587E+02 -0.25071773698E+03  0.25688696098E+03  0.00000000000E+00 0.  1.
          5    1    4    4  501    0 -0.91865806060E+02 -0.34257340346E+01  0.28652001592E+02  0.96381904795E+02  0.41800000000E+01 0.  1.
         -5    1    4    4    0  501 -0.12335362996E+02 -0.68418320601E+02  0.10573949367E+03  0.12661572057E+03  0.41800000000E+01 0.  1.
</event>
<event>
11    1  0.5813833E-009  0.1383736E+03  0.7561462E-02  0.1109388E+00
         22   -1    0    0    0    0  0.00000000000E+00  0.00000000000E+00  0.75126061143E+03  0.75126061143E+03  0.00000000000E+00 0.  1.
         22   -1    0    0    0    0 -0.00000000000E+00 -0.00000000000E+00 -0.16352577166E+03  0.16352577166E+03  0.00000000000E+00 0.  1.
        -24    2    1    2    0    0  0.45132911585E+01  0.24408818955E+02 -0.13237326438E+03  0.15675866531E+03  0.80214947402E+02 0.  0.
         25    2    1    2    0    0  0.95142861071E+01  0.40402621601E+02  0.30845193847E+03  0.33543044863E+03  0.12509234208E+03 0.  0.
         24    2    1    2    0    0 -0.14027577266E+02 -0.64811440556E+02  0.41165616568E+03  0.42259726915E+03  0.68777593742E+02 0.  0.
        -13    1    5    5    0    0  0.16024438304E+02 -0.47543697345E+02  0.33140621087E+03  0.33518243149E+03  0.00000000000E+00 0.  1.
         14    1    5    5    0    0 -0.30052015569E+02 -0.17267743210E+02  0.80249954812E+02  0.87414837658E+02  0.00000000000E+00 0. -1.
         11    1    3    3    0    0  0.53344752963E+01  0.56661604495E+01  0.10270852522E+02  0.12886132564E+02  0.00000000000E+00 0. -1.
        -12    1    3    3    0    0 -0.82118413788E+00  0.18742658506E+02 -0.14264411690E+03  0.14387253274E+03  0.00000000000E+00 0.  1.
          5    1    4    4  501    0 -0.50138561293E+02  0.30197366635E+02  0.80958247471E+02  0.99987331766E+02  0.41800000000E+01 0.  1.
         -5    1    4    4    0  501  0.59652847400E+02  0.10205254966E+02  0.22749369100E+03  0.23544311686E+03  0.41800000000E+01 0.  1.
</event>
<event>
11    1  0.5813833E-009  0.1331744E+03  0.7561462E-02  0.1115429E+00
         22   -1    0    0    0    0  0.00000000000E+00  0.00000000000E+00  0.16588592753E+03  0.16588592753E+03  0.00000000000E+00 0.  1.
         22   -1    0    0    0    0 -0.00000000000E+00 -0.00000000000E+00 -0.31245750433E+03  0.31245750433E+03  0.00000000000E+00 0.  1.
        -24    2    1    2    0    0 -0.34268808750E+02 -0.31953953173E+02 -0.23259080278E+03  0.25009795320E+03  0.79089179290E+02 0.  0.
         25    2    1    2    0    0  0.28824987525E+02  0.19228488652E+02  0.39735321471E+02  0.13574082602E+03  0.12508421720E+03 0.  0.
         24    2    1    2    0    0  0.54438212252E+01  0.12725464521E+02  0.46283904511E+02  0.92504652642E+02  0.78888137935E+02 0.  0.
        -13    1    5    5    0    0 -0.23754393473E+02  0.35476682526E+02  0.29278740865E+02  0.51769787318E+02  0.00000000000E+00 0.  1.
         14    1    5    5    0    0  0.29198214699E+02 -0.22751218005E+02  0.17005163646E+02  0.40734865324E+02  0.00000000000E+00 0. -1.
         11    1    3    3    0    0 -0.44580910119E+01  0.25598163317E+02 -0.50067271067E+02  0.56408086058E+02  0.00000000000E+00 0. -1.
        -12    1    3    3    0    0 -0.29810717738E+02 -0.57552116490E+02 -0.18252353171E+03  0.19368986714E+03  0.00000000000E+00 0.  1.
          5    1    4    4  501    0 -0.48978766353E+02  0.14207732720E+02  0.96694891668E+01  0.52074472088E+02  0.41800000000E+01 0.  1.
         -5    1    4    4    0  501  0.77803753878E+02  0.50207559321E+01  0.30065832305E+02  0.83666353929E+02  0.41800000000E+01 0.  1.
</event>
<event>
11    1  0.5813833E-009  0.1339371E+03  0.7561462E-02  0.1114524E+00
         22   -1    0    0    0    0  0.00000000000E+00  0.00000000000E+00  0.17403283579E+04  0.17403283579E+04  0.00000000000E+00 0.  1.
         22   -1    0    0    0    0 -0.00000000000E+00 -0.00000000000E+00 -0.64932480908E+03  0.64932480908E+03  0.00000000000E+00 0.  1.
        -24    2    1    2    0    0 -0.32842825154E+02 -0.34848329155E+02 -0.56916139002E+03  0.57694443740E+03  0.81407240205E+02 0.  0.
         25    2    1    2    0    0  0.19458179347E+01  0.62110785842E+02 -0.99766675593E+01  0.14003228527E+03  0.12509185064E+03 0.  0.
         24    2    1    2    0    0  0.30897007220E+02 -0.27262456687E+02  0.16701416064E+04  0.16726764443E+04  0.82314247493E+02 0.  0.
        -11    1    5    5    0    0 -0.16959424330E+02 -0.25940725093E+02  0.11278357296E+04  0.11282614840E+04  0.00000000000E+00 0.  1.
         12    1    5    5    0    0  0.47856431549E+02 -0.13217315947E+01  0.54230587680E+03  0.54441496033E+03  0.00000000000E+00 0. -1.
         13    1    3    3    0    0 -0.42895177534E+02 -0.55431312099E+01 -0.13680318083E+03  0.14347763883E+03  0.00000000000E+00 0. -1.
        -14    1    3    3    0    0  0.10052352379E+02 -0.29305197945E+02 -0.43235820919E+03  0.43346679858E+03  0.00000000000E+00 0.  1.
          5    1    4    4  501    0 -0.17737493816E+02 -0.27222972009E+02 -0.32058092485E+02  0.45835603908E+02  0.41800000000E+01 0.  1.
         -5    1    4    4    0  501  0.19683311750E+02  0.89333757851E+02  0.22081424926E+02  0.94196681364E+02  0.41800000000E+01 0.  1.
</event>
<event>
11    1  0.5813833E-009  0.1332180E+03  0.7561462E-02  0.1115377E+00
         22   -1    0    0    0    0  0.00000000000E+00  0.00000000000E+00  0.27148176690E+04  0.27148176690E+04  0.00000000000E+00 0. -1.
         22   -1    0    0    0    0 -0.00000000000E+00 -0.00000000000E+00 -0.73328941091E+02  0.73328941091E+02  0.00000000000E+00 0. -1.
         24    2    1    2    0    0  0.23769618838E+02 -0.31969129117E+02 -0.68569402317E+01  0.90513339141E+02  0.80985350137E+02 0.  0.
         25    2    1    2    0    0  0.44244204162E+01  0.67552069071E+02  0.18887465302E+03  0.23644885372E+03  0.12510622822E+03 0.  0.
        -24    2    1    2    0    0 -0.28194039254E+02 -0.35582939954E+02  0.24594710152E+04  0.24611844173E+04  0.79812354677E+02 0.  0.
        -13    1    3    3    0    0  0.15686036748E+02  0.24989790274E+02  0.89843434664E+01  0.30842499807E+02  0.00000000000E+00 0.  1.
         14    1    3    3    0    0  0.80835820893E+01 -0.56958919392E+02 -0.15841283698E+02  0.59670839334E+02  0.00000000000E+00 0. -1.
         11    1    5    5    0    0 -0.32423078972E+02 -0.63130494654E+01  0.36175603960E+03  0.36326098446E+03  0.00000000000E+00 0. -1.
        -12    1    5    5    0    0  0.42290397182E+01 -0.29269890488E+02  0.20977149756E+04  0.20979234328E+04  0.00000000000E+00 0.  1.
          5    1    4    4  501    0 -0.49777529441E+02  0.60302137596E+02  0.15005060466E+03  0.16925367527E+03  0.41800000000E+01 0.  1.
         -5    1    4    4    0  501  0.54201949857E+02  0.72499314754E+01  0.38824048368E+02  0.67195178446E+02  0.41800000000E+01 0.  1.
</event>
<event>
11    1  0.5813833E-009  0.3194168E+03  0.7561462E-02  0.9922928E-01
         22   -1    0    0    0    0  0.00000000000E+00  0.00000000000E+00  0.19163747434E+04  0.19163747434E+04  0.00000000000E+00 0. -1.
         22   -1    0    0    0    0 -0.00000000000E+00 -0.00000000000E+00 -0.21459983925E+03  0.21459983925E+03  0.00000000000E+00 0. -1.
         24    2    1    2    0    0  0.27751738320E+03 -0.71733427485E+02 -0.38185095341E+02  0.30000893033E+03  0.79910413458E+02 0.  0.
         25    2    1    2    0    0 -0.35950082664E+03 -0.23482298088E+02  0.87893479452E+03  0.95810549835E+03  0.12509000873E+03 0.  0.
        -24    2    1    2    0    0  0.81983443442E+02  0.95215725574E+02  0.86102520499E+03  0.87286015397E+03  0.68797713470E+02 0.  0.
        -13    1    3    3    0    0  0.15534793494E+03 -0.10206248865E+01 -0.32631360872E+02  0.15874138804E+03  0.00000000000E+00 0.  1.
         14    1    3    3    0    0  0.12216944826E+03 -0.70712802599E+02 -0.55537344683E+01  0.14126754229E+03  0.00000000000E+00 0. -1.
         11    1    5    5    0    0  0.69658211351E+02  0.73870228088E+02  0.45972663453E+03  0.47080532654E+03  0.00000000000E+00 0. -1.
        -12    1    5    5    0    0  0.12325232090E+02  0.21345497486E+02  0.40129857046E+03  0.40205482743E+03  0.00000000000E+00 0.  1.
          5    1    4    4  501    0 -0.27867767323E+03 -0.70621135223E+02  0.67577175376E+03  0.73439330463E+03  0.41800000000E+01 0. -1.
         -5    1    4    4    0  501 -0.80823153404E+02  0.47138837134E+02  0.20316304076E+03  0.22371219373E+03  0.41800000000E+01 0. -1.
</event>
<event>
11    1  0.5813833E-009  0.1301644E+03  0.7561462E-02  0.1119067E+00
         22   -1    0    0    0    0  0.00000000000E+00  0.00000000000E+00  0.23818837271E+03  0.23818837271E+03  0.00000000000E+00 0.  1.
         22   -1    0    0    0    0 -0.00000000000E+00 -0.00000000000E+00 -0.37814336727E+03  0.37814336727E+03  0.00000000000E+00 0. -1.
        -24    2    1    2    0    0  0.29886786961E+01  0.32689537028E+02 -0.27718801677E+03  0.29058068027E+03  0.80786119316E+02 0.  0.
         25    2    1    2    0    0  0.13560217101E+02 -0.64260679529E+02 -0.28324007856E+02  0.14409500504E+03  0.12509119328E+03 0.  0.
         24    2    1    2    0    0 -0.16548895797E+02  0.31571142501E+02  0.16555703006E+03  0.18165605467E+03  0.65720537153E+02 0.  0.
        -11    1    5    5    0    0 -0.12974309333E+02 -0.92896086247E+01  0.11704679460E+03  0.11812951222E+03  0.00000000000E+00 0.  1.
         12    1    5    5    0    0 -0.35745864636E+01  0.40860751125E+02  0.48510235464E+02  0.63526542450E+02  0.00000000000E+00 0. -1.
         11    1    3    3    0    0 -0.12138004539E+02  0.23510863753E+02 -0.27030261829E+03  0.27159454583E+03  0.00000000000E+00 0. -1.
        -12    1    3    3    0    0  0.15126683235E+02  0.91786732757E+01 -0.68853984760E+01  0.18986134440E+02  0.00000000000E+00 0.  1.
          5    1    4    4  501    0  0.11762095658E+02  0.32577965374E+02  0.14917388744E+02  0.37943004746E+02  0.41800000000E+01 0.  1.
         -5    1    4    4    0  501  0.17981214425E+01 -0.96838644903E+02 -0.43241396601E+02  0.10615200030E+03  0.41800000000E+01 0.  1.
</event>
<event>
11    1  0.5813833E-009  0.1798276E+03  0.7561462E-02  0.1069782E+00
         22   -1    0    0    0    0  0.00000000000E+00  0.00000000000E+00  0.27593441905E+03  0.27593441905E+03  0.00000000000E+00 0.  1.
         22   -1    0    0    0    0 -0.00000000000E+00 -0.00000000000E+00 -0.20799683885E+04  0.20799683885E+04  0.00000000000E+00 0.  1.
        -24    2    1    2    0    0 -0.88000788969E+02 -0.92896272936E+01 -0.19469211249E+04  0.19505995871E+04  0.80662547191E+02 0.  0.
         25    2    1    2    0    0  0.18455591872E+03  0.59849228541E+02  0.34685312283E+02  0.23343756454E+03  0.12508880189E+03 0.  0.
         24    2    1    2    0    0 -0.96555129753E+02 -0.50559601247E+02  0.10820184319E+03  0.17186565589E+03  0.77142714785E+02 0.  0.
        -11    1    5    5    0    0 -0.90690811784E+02 -0.89584410883E+01  0.80008399190E+02  0.12127003319E+03  0.00000000000E+00 0.  1.
         12    1    5    5    0    0 -0.58643179693E+01 -0.41601160159E+02  0.28193444003E+02  0.50595622702E+02  0.00000000000E+00 0. -1.
         11    1    3    3    0    0 -0.21875465846E+02 -0.17475273983E+02 -0.15962440782E+03  0.16206132413E+03  0.00000000000E+00 0. -1.
        -12    1    3    3    0    0 -0.66125323123E+02  0.81856466896E+01 -0.17872967171E+04  0.17885382630E+04  0.00000000000E+00 0.  1.
          5    1    4    4  501    0  0.50930254995E+02  0.69618345317E+02 -0.20031161960E+02  0.88652832600E+02  0.41800000000E+01 0.  1.
         -5    1    4    4    0  501  0.13362566373E+03 -0.97691167756E+01  0.54716474243E+02  0.14478473194E+03  0.41800000000E+01 0.  1.
</event>
<event>
11    1  0.5813833E-009  0.1280594E+03  0.7561462E-02  0.1121677E+00
         22   -1    0    0    0    0  0.00000000000E+00  0.00000000000E+00  0.19341897688E+04  0.19341897688E+04  0.00000000000E+00 0.  1.
         22   -1    0    0    0    0 -0.00000000000E+00 -0.00000000000E+00 -0.32969657902E+03  0.32969657902E+03  0.00000000000E+00 0.  1.
        -24    2    1    2    0    0 -0.10793374446E+02 -0.13278875853E+02 -0.31428383411E+03  0.32444151571E+03  0.78709232378E+02 0.  0.
         25    2    1    2    0    0 -0.17784032852E+02  0.13849221504E+02  0.43371628342E+03  0.45195871621E+03  0.12509513939E+03 0.  0.
         24    2    1    2    0    0  0.28577407297E+02 -0.57034565084E+00  0.14850607405E+04  0.14874861159E+04  0.79953415008E+02 0.  0.
        -11    1    5    5    0    0  0.46655213616E+02 -0.11643032695E+02  0.13421944120E+04  0.13430555121E+04  0.00000000000E+00 0.  1.
         12    1    5    5    0    0 -0.18077806318E+02  0.11072687044E+02  0.14286632849E+03  0.14443060374E+03  0.00000000000E+00 0. -1.
         11    1    3    3    0    0  0.12030583014E+02  0.29599996141E+02 -0.12838534198E+03  0.13230151448E+03  0.00000000000E+00 0. -1.
        -12    1    3    3    0    0 -0.22823957460E+02 -0.42878871994E+02 -0.18589849213E+03  0.19214000123E+03  0.00000000000E+00 0.  1.
          5    1    4    4  501    0 -0.27111167619E+02 -0.41426246587E+02  0.33240271428E+03  0.33609550157E+03  0.41800000000E+01 0. -1.
         -5    1    4    4    0  501  0.93271347675E+01  0.55275468091E+02  0.10131356914E+03  0.11586321464E+03  0.41800000000E+01 0. -1.
</event>
<event>
11    1  0.5813833E-009  0.2295799E+03  0.7561462E-02  0.1035377E+00
         22   -1    0    0    0    0  0.00000000000E+00  0.00000000000E+00  0.10718978589E+04  0.10718978589E+04  0.00000000000E+00 0.  1.
         22   -1    0    0    0    0 -0.00000000000E+00 -0.00000000000E+00 -0.87473480590E+03  0.87473480590E+03  0.00000000000E+00 0. -1.
         24    2    1    2    0    0 -0.42560530494E+02 -0.36532064326E+02 -0.82162713260E+03  0.82743987340E+03  0.80247171850E+02 0.  0.
         25    2    1    2    0    0  0.25934781028E+02 -0.17879014385E+03  0.63497014249E+03  0.67191756580E+03  0.12509038723E+03 0.  0.
        -24    2    1    2    0    0  0.16625749466E+02  0.21532220818E+03  0.38382004312E+03  0.44727522561E+03  0.78084781240E+02 0.  0.
        -11    1    3    3    0    0 -0.37422503159E+02  0.19032225262E+02 -0.33258708953E+03  0.33522655244E+03  0.00000000000E+00 0.  1.
         12    1    3    3    0    0 -0.51380273348E+01 -0.55564289588E+02 -0.48904004307E+03  0.49221332096E+03  0.00000000000E+00 0. -1.
         13    1    5    5    0    0 -0.53988661377E+01  0.14257560957E+03  0.31029138537E+03  0.34152261423E+03  0.00000000000E+00 0. -1.
        -14    1    5    5    0    0  0.22024615603E+02  0.72746598609E+02  0.73528657757E+02  0.10575261138E+03  0.00000000000E+00 0.  1.
          5    1    4    4  501    0  0.68469512381E+02 -0.15739225597E+03  0.50959259275E+03  0.53773830006E+03  0.41800000000E+01 0. -1.
         -5    1    4    4    0  501 -0.42534731353E+02 -0.21397887881E+02  0.12537754974E+03  0.13417926575E+03  0.41800000000E+01 0. -1.
</event>
<event>
11    1  0.5813833E-009  0.1877890E+03  0.7561462E-02  0.1063511E+00
         22   -1    0    0    0    0  0.00000000000E+00  0.00000000000E+00  0.15250404602E+04  0.15250404602E+04  0.00000000000E+00 0. -1.
         22   -1    0    0    0    0 -0.00000000000E+00 -0.00000000000E+00 -0.37631758517E+02  0.37631758517E+02  0.00000000000E+00 0. -1.
        -24    2    1    2    0    0  0.14807721208E+03  0.22746687893E+02  0.31240166703E+03  0.35571895304E+03  0.80603346334E+02 0.  0.
         25    2    1    2    0    0 -0.12351277028E+03  0.13075975735E+02  0.62960034820E+03  0.65381253848E+03  0.12509137242E+03 0.  0.
         24    2    1    2    0    0 -0.24564441793E+02 -0.35822663627E+02  0.54540668648E+03  0.55314072723E+03  0.81299049392E+02 0.  0.
        -11    1    5    5    0    0 -0.51246194854E+02 -0.84850283471E+01  0.25537984480E+03  0.26060896632E+03  0.00000000000E+00 0.  1.
         12    1    5    5    0    0  0.26681753061E+02 -0.27337635280E+02  0.29002684168E+03  0.29253176091E+03  0.00000000000E+00 0. -1.
         11    1    3    3    0    0  0.69418529881E+02  0.13268965523E+02  0.65290835441E+02  0.96217934552E+02  0.00000000000E+00 0. -1.
        -12    1    3    3    0    0  0.78658682196E+02  0.94777223696E+01  0.24711083159E+03  0.25950101849E+03  0.00000000000E+00 0.  1.
          5    1    4    4  501    0 -0.86527187182E+02  0.57235134255E+02  0.26408261482E+03  0.28376031182E+03  0.41800000000E+01 0. -1.
         -5    1    4    4    0  501 -0.36985583103E+02 -0.44159158521E+02  0.36551773338E+03  0.37005222665E+03  0.41800000000E+01 0. -1.
</event>
<event>
11    1  0.5813833E-009  0.2169885E+03  0.7561462E-02  0.1043120E+00
         22   -1    0    0    0    0  0.00000000000E+00  0.00000000000E+00  0.69385432622E+03  0.69385432622E+03  0.00000000000E+00 0. -1.
         22   -1    0    0    0    0 -0.00000000000E+00 -0.00000000000E+00 -0.52898643609E+03  0.52898643609E+03  0.00000000000E+00 0. -1.
        -24    2    1    2    0    0  0.16566478688E+03 -0.39966022577E+02 -0.34983799857E+03  0.39740445959E+03  0.80632342705E+02 0.  0.
         25    2    1    2    0    0 -0.24066347703E+03 -0.98016003541E+02  0.70725326929E+01  0.28849300750E+03  0.12510854699E+03 0.  0.
         24    2    1    2    0    0  0.74998690149E+02  0.13798202612E+03  0.50763335600E+03  0.53694329521E+03  0.77153322019E+02 0.  0.
        -13    1    5    5    0    0  0.90748102247E+01 -0.13576789023E+01  0.35854210918E+01  0.98514322320E+01  0.00000000000E+00 0.  1.
         14    1    5    5    0    0  0.65923879924E+02  0.13933970502E+03  0.50404793491E+03  0.52709186298E+03  0.00000000000E+00 0. -1.
         13    1    3    3    0    0  0.15162832003E+03 -0.61066387169E+01 -0.28737854455E+03  0.32498440938E+03  0.00000000000E+00 0. -1.
        -14    1    3    3    0    0  0.14036466854E+02 -0.33859383860E+02 -0.62459454014E+02  0.72420050213E+02  0.00000000000E+00 0.  1.
          5    1    4    4  501    0 -0.91578441069E+01 -0.10429528626E+02  0.36425189039E+02  0.39203417869E+02  0.41800000000E+01 0.  1.
         -5    1    4    4    0  501 -0.23150563293E+03 -0.87586474914E+02 -0.29352656346E+02  0.24928958963E+03  0.41800000000E+01 0.  1.
</event>
<event>
11    1  0.5813833E-009  0.1584273E+03  0.7561462E-02  0.1088566E+00
         22   -1    0    0    0    0  0.00000000000E+00  0.00000000000E+00  0.18579909899E+04  0.18579909899E+04  0.00000000000E+00 0. -1.
         22   -1    0    0    0    0 -0.00000000000E+00 -0.00000000000E+00 -0.92224754543E+03  0.92224754543E+03  0.00000000000E+00 0. -1.
        -24    2    1    2    0    0 -0.70270003204E+02 -0.66998560627E+02 -0.89409949226E+03  0.90294933514E+03  0.80479309754E+02 0.  0.
         25    2    1    2    0    0  0.56707345335E+02  0.94745509976E+02  0.28719350207E+03  0.33214357916E+03  0.12508722903E+03 0.  0.
         24    2    1    2    0    0  0.13562657868E+02 -0.27746949349E+02  0.15426494346E+04  0.15451456210E+04  0.82181950969E+02 0.  0.
        -13    1    5    5    0    0 -0.14467118504E+02 -0.20550079880E+02  0.14263532497E+03  0.14483245227E+03  0.00000000000E+00 0.  1.
         14    1    5    5    0    0  0.28029776373E+02 -0.71968694693E+01  0.14000141097E+04  0.14003131687E+04  0.00000000000E+00 0. -1.
         13    1    3    3    0    0 -0.30238092717E+02 -0.54845090366E+02 -0.75755665374E+03  0.76014104600E+03  0.00000000000E+00 0. -1.
        -14    1    3    3    0    0 -0.40031910487E+02 -0.12153470260E+02 -0.13654283851E+03  0.14280828913E+03  0.00000000000E+00 0.  1.
          5    1    4    4  501    0  0.87437060273E+02  0.26579807423E+02  0.14532834761E+03  0.17172514869E+03  0.41800000000E+01 0. -1.
         -5    1    4    4    0  501 -0.30729714938E+02  0.68165702553E+02  0.14186515446E+03  0.16041843047E+03  0.41800000000E+01 0. -1.
</event>
<event>
11    1  0.5813833E-009  0.1357769E+03  0.7561462E-02  0.1112368E+00
         22   -1    0    0    0    0  0.00000000000E+00  0.00000000000E+00  0.27678766865E+03  0.27678766865E+03  0.00000000000E+00 0.  1.
         22   -1    0    0    0    0 -0.00000000000E+00 -0.00000000000E+00 -0.32757843775E+04  0.32757843775E+04  0.00000000000E+00 0. -1.
         24    2    1    2    0    0  0.10842420871E+01  0.40872851812E+02 -0.30391488796E+04  0.30404776736E+04  0.80042522472E+02 0.  0.
         25    2    1    2    0    0  0.43716305077E+02 -0.67351925822E+02 -0.20274947496E+03  0.25139922795E+03  0.12508726945E+03 0.  0.
        -24    2    1    2    0    0 -0.44800547164E+02  0.26479074010E+02  0.24290164568E+03  0.26069514469E+03  0.79072868952E+02 0.  0.
        -13    1    3    3    0    0 -0.36887176016E+02  0.11574884410E+02 -0.96451305072E+03  0.96528755649E+03  0.00000000000E+00 0.  1.
         14    1    3    3    0    0  0.37971418103E+02  0.29297967402E+02 -0.20746358289E+04  0.20751901171E+04  0.00000000000E+00 0. -1.
         11    1    5    5    0    0  0.11373074284E+02 -0.63878127134E+01  0.12783001776E+03  0.12849383024E+03  0.00000000000E+00 0. -1.
        -12    1    5    5    0    0 -0.56173621448E+02  0.32866886723E+02  0.11507162792E+03  0.13220131445E+03  0.00000000000E+00 0.  1.
          5    1    4    4  501    0 -0.20663989390E+02 -0.51156483601E+02 -0.16690777880E+03  0.17583988539E+03  0.41800000000E+01 0.  1.
         -5    1    4    4    0  501  0.64380294467E+02 -0.16195442221E+02 -0.35841696163E+02  0.75559342561E+02  0.41800000000E+01 0.  1.
</event>
<event>
11    1  0.5813833E-009  0.1364092E+03  0.7561462E-02  0.1111636E+00
         22   -1    0    0    0    0  0.00000000000E+00  0.00000000000E+00  0.51862802176E+03  0.51862802176E+03  0.00000000000E+00 0.  1.
         22   -1    0    0    0    0 -0.00000000000E+00 -0.00000000000E+00 -0.54560890679E+03  0.54560890679E+03  0.00000000000E+00 0.  1.
        -24    2    1    2    0    0 -0.13401482864E+02 -0.51139863153E+02 -0.42276034454E+03  0.43356549726E+03  0.80360725182E+02 0.  0.
         25    2    1    2    0    0  0.50963797989E+02  0.55560431751E+02 -0.65901758998E+02  0.16023378063E+03  0.12509017681E+03 0.  0.
         24    2    1    2    0    0 -0.37562315125E+02 -0.44205685978E+01  0.46168121850E+03  0.47043765066E+03  0.82046125447E+02 0.  0.
        -11    1    5    5    0    0 -0.27459697358E+02 -0.40235283407E+02  0.33086221962E+03  0.33442894818E+03  0.00000000000E+00 0.  1.
         12    1    5    5    0    0 -0.10102617768E+02  0.35814714809E+02  0.13081899888E+03  0.13600870248E+03  0.00000000000E+00 0. -1.
         11    1    3    3    0    0  0.33899038691E+02 -0.17527512304E+02 -0.16905519295E+03  0.17330902104E+03  0.00000000000E+00 0. -1.
        -12    1    3    3    0    0 -0.47300521554E+02 -0.33612350849E+02 -0.25370515159E+03  0.26025647621E+03  0.00000000000E+00 0.  1.
          5    1    4    4  501    0 -0.24162756036E+02  0.46077062188E+02 -0.66317753248E+02  0.84394616149E+02  0.41800000000E+01 0. -1.
         -5    1    4    4    0  501  0.75126554025E+02  0.94833695627E+01  0.41599425026E+00  0.75839164481E+02  0.41800000000E+01 0. -1.
</event>
<event>
11    1  0.5813833E-009  0.1704532E+03  0.7561462E-02  0.1077638E+00
         22   -1    0    0    0    0  0.00000000000E+00  0.00000000000E+00  0.56917652676E+03  0.56917652676E+03  0.00000000000E+00 0. -1.
         22   -1    0    0    0    0 -0.00000000000E+00 -0.00000000000E+00 -0.44138513421E+03  0.44138513421E+03  0.00000000000E+00 0. -1.
        -24    2    1    2    0    0 -0.16644384519E+02  0.72265548764E+02 -0.38583231855E+03  0.40100831564E+03  0.80260489050E+02 0.  0.
         25    2    1    2    0    0  0.10198150672E+03 -0.11830832822E+03  0.29020678955E+03  0.35251275496E+03  0.12509265954E+03 0.  0.
         24    2    1    2    0    0 -0.85337122198E+02  0.46042779451E+02  0.22341692156E+03  0.25704059036E+03  0.82172880516E+02 0.  0.
        -11    1    5    5    0    0 -0.12537266002E+02  0.44972004651E+02  0.47265926349E+02  0.66435924278E+02  0.00000000000E+00 0.  1.
         12    1    5    5    0    0 -0.72799856196E+02  0.10707747999E+01  0.17615099521E+03  0.19060466608E+03  0.00000000000E+00 0. -1.
         11    1    3    3    0    0  0.11494073807E+02  0.66553746841E+02 -0.34202820184E+03  0.34863276640E+03  0.00000000000E+00 0. -1.
        -12    1    3    3    0    0 -0.28138458325E+02  0.57118019228E+01 -0.43804116713E+02  0.52375549249E+02  0.00000000000E+00 0.  1.
          5    1    4    4  501    0  0.11309969802E+03 -0.10099783611E+03  0.29432905907E+03  0.33111806354E+03  0.41800000000E+01 0.  1.
         -5    1    4    4    0  501 -0.11118191306E+02 -0.17310492100E+02 -0.41222695210E+01  0.21394691414E+02  0.41800000000E+01 0.  1.
</event>
<event>
11    1  0.5813833E-009  0.1276013E+03  0.7561462E-02  0.1122252E+00
         22   -1    0    0    0    0  0.00000000000E+00  0.00000000000E+00  0.70165500736E+02  0.70165500736E+02  0.00000000000E+00 0.  1.
         22   -1    0    0    0    0 -0.00000000000E+00 -0.00000000000E+00 -0.15071950730E+04  0.15071950730E+04  0.00000000000E+00 0.  1.
        -24    2    1    2    0    0  0.18631651166E+02 -0.41837593701E+01 -0.79035143192E+03  0.79476674030E+03  0.81450250386E+02 0.  0.
         25    2    1    2    0    0 -0.42288273642E+02  0.66710695142E+01 -0.68068693304E+03  0.69340818220E+03  0.12508958817E+03 0.  0.
         24    2    1    2    0    0  0.23656622476E+02 -0.24873101441E+01  0.34008792650E+02  0.89185651282E+02  0.78940863425E+02 0.  0.
        -11    1    5    5    0    0 -0.12239102687E+02  0.24607779750E+02  0.34626153015E+02  0.44207566450E+02  0.00000000000E+00 0.  1.
         12    1    5    5    0    0  0.35895725163E+02 -0.27095089894E+02 -0.61736036455E+00  0.44978084832E+02  0.00000000000E+00 0. -1.
         13    1    3    3    0    0 -0.30498870513E+02  0.87820740463E+01 -0.24350296569E+03  0.24556261977E+03  0.00000000000E+00 0. -1.
        -14    1    3    3    0    0  0.49130521679E+02 -0.12965833416E+02 -0.54684846623E+03  0.54920412053E+03  0.00000000000E+00 0.  1.
          5    1    4    4  501    0 -0.85290061929E+02  0.37539510552E+01 -0.37166769022E+03  0.38136967783E+03  0.41800000000E+01 0. -1.
         -5    1    4    4    0  501  0.43001788287E+02  0.29171184590E+01 -0.30901924282E+03  0.31203850437E+03  0.41800000000E+01 0. -1.
</event>
<event>
11    1  0.5813833E-009  0.1777269E+03  0.7561462E-02  0.1071496E+00
         22   -1    0    0    0    0  0.00000000000E+00  0.00000000000E+00  0.16083959106E+03  0.16083959106E+03  0.00000000000E+00 0.  1.
         22   -1    0    0    0    0 -0.00000000000E+00 -0.00000000000E+00 -0.69082593762E+03  0.69082593762E+03  0.00000000000E+00 0. -1.
         24    2    1    2    0    0  0.21017357095E+02  0.13001914214E+03 -0.56417210859E+03  0.58475812226E+03  0.79405206524E+02 0.  0.
         25    2    1    2    0    0 -0.48546022015E+02 -0.79639588645E+02 -0.78891551526E+01  0.15623086021E+03  0.12508662031E+03 0.  0.
        -24    2    1    2    0    0  0.27528664921E+02 -0.50379553491E+02  0.42074917183E+02  0.11067654620E+03  0.84753008332E+02 0.  0.
        -11    1    3    3    0    0 -0.13003734833E+01  0.10912645253E+03 -0.30790085121E+03  0.32666987585E+03  0.00000000000E+00 0.  1.
         12    1    3    3    0    0  0.22317730578E+02  0.20892689602E+02 -0.25627125738E+03  0.25808824641E+03  0.00000000000E+00 0. -1.
         13    1    5    5    0    0  0.55853810210E+02 -0.47934063828E+02  0.26282221678E+02  0.78154192251E+02  0.00000000000E+00 0. -1.
        -14    1    5    5    0    0 -0.28325145289E+02 -0.24454896623E+01  0.15792695504E+02  0.32522353953E+02  0.00000000000E+00 0.  1.
          5    1    4    4  501    0 -0.81994562447E+02 -0.64397475245E+02  0.24364240598E+02  0.10715050961E+03  0.41800000000E+01 0. -1.
         -5    1    4    4    0  501  0.33448540432E+02 -0.15242113400E+02 -0.32253395751E+02  0.49080350604E+02  0.41800000000E+01 0. -1.
</event>
<event>
11    1  0.5813833E-009  0.1850440E+03  0.7561462E-02  0.1065634E+00
         22   -1    0    0    0    0  0.00000000000E+00  0.00000000000E+00  0.22724410268E+03  0.22724410268E+03  0.00000000000E+00 0.  1.
         22   -1    0    0    0    0 -0.00000000000E+00 -0.00000000000E+00 -0.12754675108E+04  0.12754675108E+04  0.00000000000E+00 0. -1.
         24    2    1    2    0    0  0.19998794844E+02 -0.13489831574E+03 -0.11231503667E+04  0.11338894248E+04  0.75106418522E+02 0.  0.
         25    2    1    2    0    0  0.73838348872E+02  0.14669991258E+03 -0.27131350907E+02  0.20822265530E+03  0.12509035879E+03 0.  0.
        -24    2    1    2    0    0 -0.93837143716E+02 -0.11801596845E+02  0.10205830953E+03  0.16059953332E+03  0.80197408487E+02 0.  0.
        -13    1    3    3    0    0 -0.24747928267E+02 -0.43619834375E+02 -0.49911338368E+03  0.50162667361E+03  0.00000000000E+00 0.  1.
         14    1    3    3    0    0  0.44746723110E+02 -0.91278481360E+02 -0.62403698302E+03  0.63226275121E+03  0.00000000000E+00 0. -1.
         11    1    5    5    0    0 -0.91242766205E+02  0.16734200829E+02  0.90819156698E+02  0.12982062658E+03  0.00000000000E+00 0. -1.
        -12    1    5    5    0    0 -0.25943775103E+01 -0.28535797673E+02  0.11239152836E+02  0.30778906738E+02  0.00000000000E+00 0.  1.
          5    1    4    4  501    0  0.57519780733E+02  0.51684545602E+02  0.43328551493E+02  0.88739242752E+02  0.41800000000E+01 0. -1.
         -5    1    4    4    0  501  0.16318568139E+02  0.95015366978E+02 -0.70459902400E+02  0.11948341255E+03  0.41800000000E+01 0. -1.
</event>
<event>
11    1  0.5813833E-009  0.2286724E+03  0.7561462E-02  0.1035917E+00
         22   -1    0    0    0    0  0.00000000000E+00  0.00000000000E+00  0.46788536274E+03  0.46788536274E+03  0.00000000000E+00 0.  1.
         22   -1    0    0    0    0 -0.00000000000E+00 -0.00000000000E+00 -0.49044219816E+03  0.49044219816E+03  0.00000000000E+00 0.  1.
         24    2    1    2    0    0  0.34509545940E+02  0.82930889230E+02 -0.29663360082E+03  0.31943723889E+03  0.77331851837E+02 0.  0.
         25    2    1    2    0    0  0.10160522021E+02 -0.25675595390E+03 -0.18672290369E+02  0.28639646537E+03  0.12508966736E+03 0.  0.
        -24    2    1    2    0    0 -0.44670067960E+02  0.17382506467E+03  0.29274905577E+03  0.35249385664E+03  0.79619980142E+02 0.  0.
        -13    1    3    3    0    0  0.29027029361E+01  0.53286911422E+02 -0.25058954146E+03  0.25620897507E+03  0.00000000000E+00 0.  1.
         14    1    3    3    0    0  0.31606843003E+02  0.29643977808E+02 -0.46044059354E+02  0.63228263828E+02  0.00000000000E+00 0. -1.
         11    1    5    5    0    0  0.17814111558E+02  0.26720191381E+02  0.81486881293E+02  0.87586660063E+02  0.00000000000E+00 0. -1.
        -12    1    5    5    0    0 -0.62484179518E+02  0.14710487329E+03  0.21126217448E+03  0.26490719658E+03  0.00000000000E+00 0.  1.
          5    1    4    4  501    0  0.64015318860E+02 -0.16119016450E+03  0.71157145065E+01  0.17363276181E+03  0.41800000000E+01 0.  1.
         -5    1    4    4    0  501 -0.53854796839E+02 -0.95565789399E+02 -0.25788004876E+02  0.11276370356E+03  0.41800000000E+01 0.  1.
</event>
<event>
11    1  0.5813833E-009  0.1350489E+03  0.7561462E-02  0.1113217E+00
         22   -1    0    0    0    0  0.00000000000E+00  0.00000000000E+00  0.17261821245E+03  0.17261821245E+03  0.00000000000E+00 0. -1.
         22   -1    0    0    0    0 -0.00000000000E+00 -0.00000000000E+00 -0.56507746736E+03  0.56507746736E+03  0.00000000000E+00 0.  1.
         24    2    1    2    0    0 -0.33383433847E+02  0.25611611929E+02 -0.38638281988E+03  0.39692270800E+03  0.80532877166E+02 0.  0.
         25    2    1    2    0    0  0.12935575728E+02 -0.71003280967E+02 -0.12282246457E+03  0.18958127705E+03  0.12508760041E+03 0.  0.
        -24    2    1    2    0    0  0.20447858119E+02  0.45391669038E+02  0.11674602954E+03  0.15119169477E+03  0.82163097773E+02 0.  0.
        -13    1    3    3    0    0 -0.32909650224E+02 -0.19461768805E+02 -0.10085728151E+03  0.10786100665E+03  0.00000000000E+00 0.  1.
         14    1    3    3    0    0 -0.47378362235E+00  0.45073380734E+02 -0.28552553837E+03  0.28906170135E+03  0.00000000000E+00 0. -1.
         11    1    5    5    0    0 -0.59346458690E+01 -0.53566662396E+01  0.85778086735E+02  0.86149834932E+02  0.00000000000E+00 0. -1.
        -12    1    5    5    0    0  0.26382503988E+02  0.50748335277E+02  0.30967942801E+02  0.65041859840E+02  0.00000000000E+00 0.  1.
          5    1    4    4  501    0 -0.16460516765E+01 -0.91189571262E+02 -0.13385376180E+03  0.16202638470E+03  0.41800000000E+01 0.  1.
         -5    1    4    4    0  501  0.14581627404E+02  0.20186290294E+02  0.11031297226E+02  0.27554892344E+02  0.41800000000E+01 0.  1.
</event>
<event>
11    1  0.5813833E-009  0.1555131E+03  0.7561462E-02  0.1091375E+00
         22   -1    0    0    0    0  0.00000000000E+00  0.00000000000E+00  0.91905689504E+02  0.91905689504E+02  0.00000000000E+00 0.  1.
         22   -1    0    0    0    0 -0.00000000000E+00 -0.00000000000E+00 -0.23179695057E+04  0.23179695057E+04  0.00000000000E+00 0. -1.
        -24    2    1    2    0    0 -0.32755330717E+02 -0.45732792380E+02 -0.17007721521E+04  0.17036569134E+04  0.81587777038E+02 0.  0.
         25    2    1    2    0    0  0.79342308469E+02  0.12053176317E+03 -0.55282457151E+03  0.58488055983E+03  0.12508858682E+03 0.  0.
         24    2    1    2    0    0 -0.46586977752E+02 -0.74798970786E+02  0.27532907385E+02  0.12133772197E+03  0.78737216464E+02 0.  0.
        -11    1    5    5    0    0  0.44940316236E+01 -0.63910234421E+02  0.25836831302E+02  0.69081518771E+02  0.00000000000E+00 0.  1.
         12    1    5    5    0    0 -0.51081009375E+02 -0.10888736365E+02  0.16960760834E+01  0.52256203197E+02  0.00000000000E+00 0. -1.
         11    1    3    3    0    0  0.90230207526E+00 -0.20890130040E+02 -0.13812121477E+04  0.13813704097E+04  0.00000000000E+00 0. -1.
        -12    1    3    3    0    0 -0.33657632793E+02 -0.24842662339E+02 -0.31956000436E+03  0.32228650376E+03  0.00000000000E+00 0.  1.
          5    1    4    4  501    0  0.10398226696E+03  0.59982446558E+02 -0.28736175510E+03  0.31145538434E+03  0.41800000000E+01 0.  1.
         -5    1    4    4    0  501 -0.24639958490E+02  0.60549316608E+02 -0.26546281641E+03  0.27342517549E+03  0.41800000000E+01 0.  1.
</event>
<event>
11    1  0.5813833E-009  0.1585277E+03  0.7561462E-02  0.1088470E+00
         22   -1    0    0    0    0  0.00000000000E+00  0.00000000000E+00  0.20216251232E+04  0.20216251232E+04  0.00000000000E+00 0.  1.
         22   -1    0    0    0    0 -0.00000000000E+00 -0.00000000000E+00 -0.66240082163E+03  0.66240082163E+03  0.00000000000E+00 0.  1.
        -24    2    1    2    0    0  0.91491220040E+02  0.25957340212E+02 -0.58422707505E+03  0.59729164156E+03  0.79947501558E+02 0.  0.
         25    2    1    2    0    0 -0.12628547418E+03 -0.94273003169E+02  0.74644173210E+02  0.21460286000E+03  0.12508882768E+03 0.  0.
         24    2    1    2    0    0  0.34794254140E+02  0.68315662957E+02  0.18688072034E+04  0.18721314432E+04  0.80982143028E+02 0.  0.
        -13    1    5    5    0    0  0.30652352336E+02  0.79183563110E+02  0.18191464997E+04  0.18211270111E+04  0.00000000000E+00 0.  1.
         14    1    5    5    0    0  0.41419018034E+01 -0.10867900153E+02  0.49660703695E+02  0.51004432118E+02  0.00000000000E+00 0. -1.
         13    1    3    3    0    0  0.74062700931E+02 -0.15698774247E+02 -0.29494865289E+03  0.30451016900E+03  0.00000000000E+00 0. -1.
        -14    1    3    3    0    0  0.17428519110E+02  0.41656114459E+02 -0.28927842216E+03  0.29278147256E+03  0.00000000000E+00 0.  1.
          5    1    4    4  501    0 -0.14189673739E+03 -0.59730420764E+02  0.31831121500E+02  0.15726760614E+03  0.41800000000E+01 0. -1.
         -5    1    4    4    0  501  0.15611263207E+02 -0.34542582405E+02  0.42813051710E+02  0.57335253857E+02  0.41800000000E+01 0. -1.
</event>
<event>
11    1  0.5813833E-009  0.1903182E+03  0.7561462E-02  0.1061589E+00
         22   -1    0    0    0    0  0.00000000000E+00  0.00000000000E+00  0.26013030206E+03  0.26013030206E+03  0.00000000000E+00 0.  1.
         22   -1    0    0    0    0 -0.00000000000E+00 -0.00000000000E+00 -0.20762379293E+04  0.20762379293E+04  0.00000000000E+00 0.  1.
         24    2    1    2    0    0  0.12133240810E+03 -0.76897089401E+02 -0.19876637701E+04  0.19944754269E+04  0.80562086685E+02 0.  0.
         25    2    1    2    0    0 -0.96121008158E+02  0.10163284645E+03  0.51388746559E+02  0.19456886356E+03  0.12509098971E+03 0.  0.
        -24    2    1    2    0    0 -0.25211399941E+02 -0.24735757054E+02  0.12016739637E+03  0.14732394085E+03  0.77567183998E+02 0.  0.
        -13    1    3    3    0    0  0.12200484767E+03 -0.86567104076E+02 -0.19440575831E+04  0.19498048448E+04  0.00000000000E+00 0.  1.
         14    1    3    3    0    0 -0.67243956743E+00  0.96700146750E+01 -0.43606187054E+02  0.44670582133E+02  0.00000000000E+00 0. -1.
         13    1    5    5    0    0 -0.20724272910E+02 -0.23446045524E+02  0.45606611822E+01  0.31622969006E+02  0.00000000000E+00 0. -1.
        -14    1    5    5    0    0 -0.44871270310E+01 -0.12897115299E+01  0.11560673519E+03  0.11570097185E+03  0.00000000000E+00 0.  1.
          5    1    4    4  501    0 -0.45130791066E+02  0.64634543495E+02  0.90661267886E+02  0.12021376963E+03  0.41800000000E+01 0.  1.
         -5    1    4    4    0  501 -0.50990217092E+02  0.36998302960E+02 -0.39272521327E+02  0.74355093924E+02  0.41800000000E+01 0.  1.
</event>
<event>
11    1  0.5813833E-009  0.1922098E+03  0.7561462E-02  0.1060173E+00
         22   -1    0    0    0    0  0.00000000000E+00  0.00000000000E+00  0.41958992013E+03  0.41958992013E+03  0.00000000000E+00 0.  1.
         22   -1    0    0    0    0 -0.00000000000E+00 -0.00000000000E+00 -0.12638242119E+04  0.12638242119E+04  0.00000000000E+00 0. -1.
         24    2    1    2    0    0 -0.95855890190E+02  0.10935311123E+03 -0.11458918365E+04  0.11578990852E+04  0.80720108388E+02 0.  0.
         25    2    1    2    0    0  0.13075374844E+03 -0.90188558801E+02 -0.85166815189E+01  0.20236122717E+03  0.12508802312E+03 0.  0.
        -24    2    1    2    0    0 -0.34897858252E+02 -0.19164552431E+02  0.31017422624E+03  0.32315381968E+03  0.81456736795E+02 0.  0.
        -11    1    3    3    0    0 -0.59813530217E+01  0.63389766179E+02 -0.36533452347E+03  0.37084141231E+03  0.00000000000E+00 0.  1.
         12    1    3    3    0    0 -0.89874537168E+02  0.45963345054E+02 -0.78055731299E+03  0.78705767284E+03  0.00000000000E+00 0. -1.
         11    1    5    5    0    0 -0.29051857099E+02 -0.19761895873E+02  0.41335847775E+02  0.54251223403E+02  0.00000000000E+00 0. -1.
        -12    1    5    5    0    0 -0.58460011527E+01  0.59734344151E+00  0.26883837846E+03  0.26890259627E+03  0.00000000000E+00 0.  1.
          5    1    4    4  501    0  0.13857959327E+03 -0.11122604364E+03  0.68332965378E+00  0.17774553663E+03  0.41800000000E+01 0. -1.
         -5    1    4    4    0  501 -0.78258448231E+01  0.21037484834E+02 -0.92000111726E+01  0.24615690543E+02  0.41800000000E+01 0. -1.
</event>
<event>
11    1  0.5813833E-009  0.2134247E+03  0.7561462E-02  0.1045416E+00
         22   -1    0    0    0    0  0.00000000000E+00  0.00000000000E+00  0.18005022941E+04  0.18005022941E+04  0.00000000000E+00 0. -1.
         22   -1    0    0    0    0 -0.00000000000E+00 -0.00000000000E+00 -0.70838611623E+03  0.70838611623E+03  0.00000000000E+00 0. -1.
        -24    2    1    2    0    0 -0.67866907586E+01  0.66841020004E+02 -0.62031654294E+03  0.63037043145E+03  0.89780210928E+02 0.  0.
         25    2    1    2    0    0 -0.16586897245E+03 -0.46214908433E+02  0.69323554894E+02  0.22383543067E+03  0.12509280946E+03 0.  0.
         24    2    1    2    0    0  0.17265566321E+03 -0.20626111571E+02  0.16431091659E+04  0.16546825482E+04  0.89057227531E+02 0.  0.
        -11    1    5    5    0    0 -0.96135105242E+01  0.49847722628E+01  0.68209291887E+02  0.69063557966E+02  0.00000000000E+00 0.  1.
         12    1    5    5    0    0  0.18226917373E+03 -0.25610883834E+02  0.15748998740E+04  0.15856189903E+04  0.00000000000E+00 0. -1.
         13    1    3    3    0    0 -0.32372587610E+02  0.45693207361E+02 -0.54736267132E+03  0.55021972664E+03  0.00000000000E+00 0. -1.
        -14    1    3    3    0    0  0.25585896851E+02  0.21147812643E+02 -0.72953871612E+02  0.80150704803E+02  0.00000000000E+00 0.  1.
          5    1    4    4  501    0  0.11009895093E+02 -0.30915001670E+02  0.23040211107E+02  0.40314747253E+02  0.41800000000E+01 0. -1.
         -5    1    4    4    0  501 -0.17687886754E+03 -0.15299906763E+02  0.46283343786E+02  0.18352068342E+03  0.41800000000E+01 0. -1.
</event>
<event>
11    1  0.5813833E-009  0.1373717E+03  0.7561462E-02  0.1110529E+00
         22   -1    0    0    0    0  0.00000000000E+00  0.00000000000E+00  0.12861680920E+04  0.12861680920E+04  0.00000000000E+00 0.  1.
         22   -1    0    0    0    0 -0.00000000000E+00 -0.00000000000E+00 -0.24488551928E+03  0.24488551928E+03  0.00000000000E+00 0.  1.
         24    2    1    2    0    0  0.38661997159E+02 -0.24502204318E+02 -0.16676694354E+03  0.19118591976E+03  0.81521373985E+02 0.  0.
         25    2    1    2    0    0  0.72554098832E+01  0.58727636234E+02  0.11077275027E+02  0.13882140500E+03  0.12508836970E+03 0.  0.
        -24    2    1    2    0    0 -0.45917407042E+02 -0.34225431916E+02  0.11969722412E+04  0.12010462865E+04  0.80559590430E+02 0.  0.
        -13    1    3    3    0    0  0.55641999416E+02 -0.10105978924E+02 -0.15700270167E+03  0.16687723404E+03  0.00000000000E+00 0.  1.
         14    1    3    3    0    0 -0.16980002257E+02 -0.14396225394E+02 -0.97642418723E+01  0.24308685723E+02  0.00000000000E+00 0. -1.
         13    1    5    5    0    0 -0.47252423129E+02  0.10073252614E+02  0.41185198226E+03  0.41467615943E+03  0.00000000000E+00 0. -1.
        -14    1    5    5    0    0  0.13350160868E+01 -0.44298684530E+02  0.78512025898E+03  0.78637012709E+03  0.00000000000E+00 0.  1.
          5    1    4    4  501    0  0.54175435379E+02 -0.97020527763E+01  0.70984500314E+01  0.55650408978E+02  0.41800000000E+01 0.  1.
         -5    1    4    4    0  501 -0.46920025496E+02  0.68429689010E+02  0.39788249952E+01  0.83170996020E+02  0.41800000000E+01 0.  1.
</event>
<event>
11    1  0.5813833E-009  0.1337719E+03  0.7561462E-02  0.1114719E+00
         22   -1    0    0    0    0  0.00000000000E+00  0.00000000000E+00  0.13081008035E+04  0.13081008035E+04  0.00000000000E+00 0.  1.
         22   -1    0    0    0    0 -0.00000000000E+00 -0.00000000000E+00 -0.17058218259E+03  0.17058218259E+03  0.00000000000E+00 0. -1.
         24    2    1    2    0    0  0.20733939925E+01  0.52335306832E+02 -0.14075631879E+03  0.17068941352E+03  0.81112584123E+02 0.  0.
         25    2    1    2    0    0 -0.34517418673E+01  0.36421596524E+01  0.30324838124E+03  0.32807539315E+03  0.12509477614E+03 0.  0.
        -24    2    1    2    0    0  0.13783478748E+01 -0.55977466485E+02  0.97502655845E+03  0.97991817940E+03  0.80171516378E+02 0.  0.
        -11    1    3    3    0    0 -0.29436492174E+02  0.24198509478E+02 -0.20588041819E+02  0.43312150702E+02  0.00000000000E+00 0.  1.
         12    1    3    3    0    0  0.31509886167E+02  0.28136797354E+02 -0.12016827697E+03  0.12737726282E+03  0.00000000000E+00 0. -1.
         11    1    5    5    0    0  0.64448150345E+01 -0.26081869652E+02  0.80245805864E+02  0.84623808258E+02  0.00000000000E+00 0. -1.
        -12    1    5    5    0    0 -0.50664671596E+01 -0.29895596833E+02  0.89478075258E+03  0.89529437114E+03  0.00000000000E+00 0.  1.
          5    1    4    4  501    0 -0.47959508647E+02  0.43481084891E+02  0.14383516268E+03  0.15778702620E+03  0.41800000000E+01 0.  1.
         -5    1    4    4    0  501  0.44507766780E+02 -0.39838925238E+02  0.15941321856E+03  0.17028836695E+03  0.41800000000E+01 0.  1.
</event>
<event>
11    1  0.8283269E-009  0.1950671E+03  0.7561462E-02  0.1058068E+00
         22   -1    0    0    0    0  0.00000000000E+00  0.00000000000E+00  0.11000117475E+04  0.11000117475E+04  0.00000000000E+00 0.  1.
         22   -1    0    0    0    0 -0.00000000000E+00 -0.00000000000E+00 -0.10601717143E+04  0.10601717143E+04  0.00000000000E+00 0.  1.
        -24    2    1    2    0    0  0.32241315819E+02 -0.63568622956E+01 -0.49857596959E+03  0.50839607927E+03  0.93854482169E+02 0.  0.
         25    2    1    2    0    0 -0.12449783929E+03  0.12386200845E+03 -0.52909297707E+03  0.57133761369E+03  0.12508309763E+03 0.  0.
         24    2    1    2    0    0  0.92256523474E+02 -0.11750514615E+03  0.10675089798E+04  0.10804497689E+04  0.74010509670E+02 0.  0.
        -13    1    5    5    0    0  0.42776161787E+02 -0.10257760729E+03  0.61112725530E+03  0.62115093795E+03  0.00000000000E+00 0.  1.
         14    1    5    5    0    0  0.49480361687E+02 -0.14927538860E+02  0.45638172451E+03  0.45929883091E+03  0.00000000000E+00 0. -1.
         13    1    3    3    0    0 -0.17429676553E+02  0.81279170446E+01 -0.22855461132E+02  0.29870198590E+02  0.00000000000E+00 0. -1.
        -14    1    3    3    0    0  0.49670992372E+02 -0.14484779340E+02 -0.47572050846E+03  0.47852588068E+03  0.00000000000E+00 0.  1.
          5    1    4    4  501    0  0.17369388838E+02  0.52446213694E+02 -0.16604835351E+03  0.17504807654E+03  0.41800000000E+01 0.  1.
         -5    1    4    4    0  501 -0.14186722813E+03  0.71415794754E+02 -0.36304462356E+03  0.39628953715E+03  0.41800000000E+01 0.  1.
</event>
<event>
11    1  0.5813833E-009  0.1296938E+03  0.7561462E-02  0.1119646E+00
         22   -1    0    0    0    0  0.00000000000E+00  0.00000000000E+00  0.15599370669E+03  0.15599370669E+03  0.00000000000E+00 0.  1.
         22   -1    0    0    0    0 -0.00000000000E+00 -0.00000000000E+00 -0.97606663136E+03  0.97606663136E+03  0.00000000000E+00 0. -1.
        -24    2    1    2    0    0 -0.33061392301E+01 -0.21533979764E+02 -0.88931690266E+03  0.89345961072E+03  0.83131701498E+02 0.  0.
         25    2    1    2    0    0  0.36624792209E+02  0.15958907188E+02  0.74357979937E+01  0.13153715906E+03  0.12510264185E+03 0.  0.
         24    2    1    2    0    0 -0.33318652978E+02  0.55750725763E+01  0.61808179992E+02  0.10706356827E+03  0.80629662451E+02 0.  0.
        -13    1    5    5    0    0 -0.45909503716E+02 -0.88324310547E+01  0.71644831014E+02  0.85549261719E+02  0.00000000000E+00 0.  1.
         14    1    5    5    0    0  0.12590850737E+02  0.14407503631E+02 -0.98366510220E+01  0.21514306554E+02  0.00000000000E+00 0. -1.
         11    1    3    3    0    0  0.24207203915E+02  0.68787651435E+01 -0.67839299284E+03  0.67885960173E+03  0.00000000000E+00 0. -1.
        -12    1    3    3    0    0 -0.27513343145E+02 -0.28412744908E+02 -0.21092390982E+03  0.21460000899E+03  0.00000000000E+00 0.  1.
          5    1    4    4  501    0 -0.30177147526E+02 -0.48902576537E+00 -0.38208398742E+02  0.48869760726E+02  0.41800000000E+01 0.  1.
         -5    1    4    4    0  501  0.66801939735E+02  0.16447932953E+02  0.45644196736E+02  0.82667398329E+02  0.41800000000E+01 0.  1.
</event>
<event>
11    1  0.5813833E-009  0.1440964E+03  0.7561462E-02  0.1103068E+00
         22   -1    0    0    0    0  0.00000000000E+00  0.00000000000E+00  0.38179100705E+03  0.38179100705E+03  0.00000000000E+00 0. -1.
         22   -1    0    0    0    0 -0.00000000000E+00 -0.00000000000E+00 -0.42505623340E+03  0.42505623340E+03  0.00000000000E+00 0.  1.
         24    2    1    2    0    0 -0.44807295900E+02  0.55083596918E+02 -0.35155838650E+03  0.36767563766E+03  0.80933176108E+02 0.  0.
         25    2    1    2    0    0  0.48058743683E+02 -0.60708366508E+02  0.33147929176E+02  0.15080495360E+03  0.12509276643E+03 0.  0.
        -24    2    1    2    0    0 -0.32514477828E+01  0.56247695897E+01  0.27514523098E+03  0.28836664919E+03  0.86070995620E+02 0.  0.
        -11    1    3    3    0    0  0.16293628704E+02  0.41202406191E+02 -0.16665936532E+03  0.17244844059E+03  0.00000000000E+00 0.  1.
         12    1    3    3    0    0 -0.61100924604E+02  0.13881190727E+02 -0.18489902118E+03  0.19522719707E+03  0.00000000000E+00 0. -1.
         13    1    5    5    0    0 -0.33478258328E+02  0.14635650512E+00  0.23717398472E+03  0.23952518495E+03  0.00000000000E+00 0. -1.
        -14    1    5    5    0    0  0.30226810545E+02  0.54784130846E+01  0.37971246262E+02  0.48841464232E+02  0.00000000000E+00 0.  1.
          5    1    4    4  501    0  0.46621756867E+02  0.30371645087E+02  0.95044106196E+01  0.56602396238E+02  0.41800000000E+01 0. -1.
         -5    1    4    4    0  501  0.14369868159E+01 -0.91080011594E+02  0.23643518557E+02  0.94202557359E+02  0.41800000000E+01 0. -1.
</event>
<event>
11    1  0.5813833E-009  0.1689059E+03  0.7561462E-02  0.1078988E+00
         22   -1    0    0    0    0  0.00000000000E+00  0.00000000000E+00  0.13404782811E+04  0.13404782811E+04  0.00000000000E+00 0.  1.
         22   -1    0    0    0    0 -0.00000000000E+00 -0.00000000000E+00 -0.13164355787E+04  0.13164355787E+04  0.00000000000E+00 0. -1.
         24    2    1    2    0    0 -0.94445701183E+02  0.26173124802E+02 -0.12842882557E+04  0.12903613016E+04  0.77659138627E+02 0.  0.
         25    2    1    2    0    0  0.15736583831E+03  0.59507634847E+02  0.43310928300E+03  0.48118197954E+03  0.12508909121E+03 0.  0.
        -24    2    1    2    0    0 -0.62920137123E+02 -0.85680759649E+02  0.87522167510E+03  0.88537057871E+03  0.81042858168E+02 0.  0.
        -13    1    3    3    0    0  0.11371111833E+02  0.50699088719E+00 -0.49982041559E+02  0.51261717709E+02  0.00000000000E+00 0.  1.
         14    1    3    3    0    0 -0.10581681302E+03  0.25666133915E+02 -0.12343062142E+04  0.12390995839E+04  0.00000000000E+00 0. -1.
         11    1    5    5    0    0 -0.13764326776E+02 -0.16663011070E+00  0.38908460408E+03  0.38932802826E+03  0.00000000000E+00 0. -1.
        -12    1    5    5    0    0 -0.49155810347E+02 -0.85514129538E+02  0.48613707102E+03  0.49604255045E+03  0.00000000000E+00 0.  1.
          5    1    4    4  501    0 -0.15661459727E+02 -0.14074091419E+02  0.39788447512E+02  0.45210113089E+02  0.41800000000E+01 0.  1.
         -5    1    4    4    0  501  0.17302729803E+03  0.73581726266E+02  0.39332083549E+03  0.43597186645E+03  0.41800000000E+01 0.  1.
</event>
<event>
11    1  0.5813833E-009  0.1416083E+03  0.7561462E-02  0.1105776E+00
         22   -1    0    0    0    0  0.00000000000E+00  0.00000000000E+00  0.10659459909E+04  0.10659459909E+04  0.00000000000E+00 0.  1.
         22   -1    0    0    0    0 -0.00000000000E+00 -0.00000000000E+00 -0.38301289054E+03  0.38301289054E+03  0.00000000000E+00 0.  1.
        -24    2    1    2    0    0  0.11421679404E+02  0.53492195528E+02 -0.28621307694E+03  0.30177857523E+03  0.78488937532E+02 0.  0.
         25    2    1    2    0    0  0.54572836953E+02 -0.42030278475E+02 -0.27172416143E+02  0.14536470149E+03  0.12509123630E+03 0.  0.
         24    2    1    2    0    0 -0.65994516357E+02 -0.11461917053E+02  0.99631859344E+03  0.10018156047E+04  0.80604680137E+02 0.  0.
        -11    1    5    5    0    0 -0.80639157828E+02  0.15964355393E+00  0.64841860812E+03  0.65341364434E+03  0.00000000000E+00 0.  1.
         12    1    5    5    0    0  0.14644641471E+02 -0.11621560607E+02  0.34789998532E+03  0.34840196036E+03  0.00000000000E+00 0. -1.
         11    1    3    3    0    0 -0.24345560230E+02  0.15394156255E+02 -0.35690511118E+02  0.45863917556E+02  0.00000000000E+00 0. -1.
        -12    1    3    3    0    0  0.35767239634E+02  0.38098039273E+02 -0.25052256582E+03  0.25591465768E+03  0.00000000000E+00 0.  1.
          5    1    4    4  501    0  0.94626289749E+02 -0.28681096887E+02 -0.95531974443E+01  0.99425731135E+02  0.41800000000E+01 0.  1.
         -5    1    4    4    0  501 -0.40053452795E+02 -0.13349181588E+02 -0.17619218699E+02  0.45938970357E+02  0.41800000000E+01 0.  1.
</event>
<event>
11    1  0.5813833E-009  0.2573869E+03  0.7561462E-02  0.1020036E+00
         22   -1    0    0    0    0  0.00000000000E+00  0.00000000000E+00  0.10281214771E+04  0.10281214771E+04  0.00000000000E+00 0.  1.
         22   -1    0    0    0    0 -0.00000000000E+00 -0.00000000000E+00 -0.24293299790E+04  0.24293299790E+04  0.00000000000E+00 0.  1.
        -24    2    1    2    0    0 -0.59412413637E+02 -0.53569505811E+01 -0.22702834696E+04  0.22724560960E+04  0.79442709921E+02 0.  0.
         25    2    1    2    0    0  0.27839443323E+03  0.14780279680E+01  0.21630380969E+02  0.30597609930E+03  0.12509138637E+03 0.  0.
         24    2    1    2    0    0 -0.21898201959E+03  0.38789226131E+01  0.84744458665E+03  0.87901926084E+03  0.80897234391E+02 0.  0.
        -13    1    5    5    0    0 -0.12436028703E+03 -0.12705939007E+01  0.62463416675E+03  0.63689476184E+03  0.00000000000E+00 0.  1.
         14    1    5    5    0    0 -0.94621732565E+02  0.51495165138E+01  0.22281041990E+03  0.24212449899E+03  0.00000000000E+00 0. -1.
         11    1    3    3    0    0 -0.23276921004E+02  0.35036337912E+02 -0.72196293523E+03  0.72318727856E+03  0.00000000000E+00 0. -1.
        -12    1    3    3    0    0 -0.36135492633E+02 -0.40393288493E+02 -0.15483205343E+04  0.15492688174E+04  0.00000000000E+00 0.  1.
          5    1    4    4  501    0  0.16249635641E+03  0.39310112504E+02 -0.35989397949E+02  0.17106449063E+03  0.41800000000E+01 0. -1.
         -5    1    4    4    0  501  0.11589807682E+03 -0.37832084536E+02  0.57619778917E+02  0.13491160867E+03  0.41800000000E+01 0. -1.
</event>
<event>
11    1  0.5813833E-009  0.1962447E+03  0.7561462E-02  0.1057211E+00
         22   -1    0    0    0    0  0.00000000000E+00  0.00000000000E+00  0.25608176991E+04  0.25608176991E+04  0.00000000000E+00 0.  1.
         22   -1    0    0    0    0 -0.00000000000E+00 -0.00000000000E+00 -0.67267653216E+02  0.67267653216E+02  0.00000000000E+00 0. -1.
         24    2    1    2    0    0 -0.86297191113E+01 -0.28485014771E+02  0.66400338157E+01  0.85884628192E+02  0.80288300469E+02 0.  0.
         25    2    1    2    0    0  0.70239357313E+02 -0.11270367530E+03  0.32020226834E+03  0.36852745757E+03  0.12508920253E+03 0.  0.
        -24    2    1    2    0    0 -0.61609638202E+02  0.14118869007E+03  0.21667077438E+04  0.21736732666E+04  0.80641362172E+02 0.  0.
        -13    1    3    3    0    0 -0.33980517176E+02 -0.38080848036E+02  0.21024361400E+02  0.55198281739E+02  0.00000000000E+00 0.  1.
         14    1    3    3    0    0  0.25350798065E+02  0.95958332648E+01 -0.14384327584E+02  0.30686346453E+02  0.00000000000E+00 0. -1.
         11    1    5    5    0    0 -0.19528743867E+02  0.40205837017E-01  0.11172026182E+03  0.11341424229E+03  0.00000000000E+00 0. -1.
        -12    1    5    5    0    0 -0.42080894335E+02  0.14114848423E+03  0.20549874819E+04  0.20602590243E+04  0.00000000000E+00 0.  1.
          5    1    4    4  501    0  0.20518673106E+02 -0.12813789830E+03  0.23868545221E+03  0.27171410420E+03  0.41800000000E+01 0.  1.
         -5    1    4    4    0  501  0.49720684207E+02  0.15434222998E+02  0.81516816128E+02  0.96813353362E+02  0.41800000000E+01 0.  1.
</event>
<event>
11    1  0.5813833E-009  0.1272201E+03  0.7561462E-02  0.1122732E+00
         22   -1    0    0    0    0  0.00000000000E+00  0.00000000000E+00  0.18625487826E+03  0.18625487826E+03  0.00000000000E+00 0.  1.
         22   -1    0    0    0    0 -0.00000000000E+00 -0.00000000000E+00 -0.47405971518E+03  0.47405971518E+03  0.00000000000E+00 0. -1.
        -24    2    1    2    0    0 -0.41153919634E+01 -0.21745524903E+02 -0.33339740355E+03  0.34437357176E+03  0.83363804668E+02 0.  0.
         25    2    1    2    0    0 -0.70933245749E+01  0.30966995329E+02 -0.91329016276E+02  0.15810637730E+03  0.12508943711E+03 0.  0.
         24    2    1    2    0    0  0.11208716538E+02 -0.92214704266E+01  0.13692158290E+03  0.15783464437E+03  0.77159472896E+02 0.  0.
        -11    1    5    5    0    0 -0.22214349871E+02 -0.11876685284E+02  0.11511454867E+03  0.11783841610E+03  0.00000000000E+00 0.  1.
         12    1    5    5    0    0  0.33423066410E+02  0.26552148578E+01  0.21807034229E+02  0.39996228272E+02  0.00000000000E+00 0. -1.
         13    1    3    3    0    0  0.35128751941E+01  0.45194045895E+01 -0.30461532113E+03  0.30466909784E+03  0.00000000000E+00 0. -1.
        -14    1    3    3    0    0 -0.76282671575E+01 -0.26264929492E+02 -0.28782082421E+02  0.39704473924E+02  0.00000000000E+00 0.  1.
          5    1    4    4  501    0 -0.16524460048E+02  0.59330057930E+02  0.19951894816E+00  0.61730266172E+02  0.41800000000E+01 0. -1.
         -5    1    4    4    0  501  0.94311354733E+01 -0.28363062601E+02 -0.91528535224E+02  0.96376111131E+02  0.41800000000E+01 0. -1.
</event>
<event>
11    1  0.5813833E-009  0.1489190E+03  0.7561462E-02  0.1097989E+00
         22   -1    0    0    0    0  0.00000000000E+00  0.00000000000E+00  0.13948168631E+04  0.13948168631E+04  0.00000000000E+00 0.  1.
         22   -1    0    0    0    0 -0.00000000000E+00 -0.00000000000E+00 -0.41772069698E+03  0.41772069698E+03  0.00000000000E+00 0.  1.
         24    2    1    2    0    0 -0.57552145744E+02 -0.23130770908E+02 -0.36895716664E+03  0.38280267099E+03  0.81001308984E+02 0.  0.
         25    2    1    2    0    0  0.12562661678E+03 -0.15569138050E+02  0.16279498323E+03  0.24119448347E+03  0.12509247535E+03 0.  0.
        -24    2    1    2    0    0 -0.68074471039E+02  0.38699908958E+02  0.11832583496E+04  0.11885404056E+04  0.79975980528E+02 0.  0.
        -13    1    3    3    0    0 -0.48295985353E+02  0.32716718785E-01 -0.34449968094E+03  0.34786855770E+03  0.00000000000E+00 0.  1.
         14    1    3    3    0    0 -0.92561603911E+01 -0.23163487627E+02 -0.24457485708E+02  0.34934113290E+02  0.00000000000E+00 0. -1.
         13    1    5    5    0    0 -0.20643023214E+02 -0.86486984230E+01  0.75273444332E+02  0.78530413302E+02  0.00000000000E+00 0. -1.
        -14    1    5    5    0    0 -0.47431447825E+02  0.47348607381E+02  0.11079849052E+04  0.11100099923E+04  0.00000000000E+00 0.  1.
          5    1    4    4  501    0  0.95041441406E+02  0.48526879314E+02  0.99886953858E+02  0.14622793697E+03  0.41800000000E+01 0. -1.
         -5    1    4    4    0  501  0.30585175376E+02 -0.64096017364E+02  0.62908029371E+02  0.94966546499E+02  0.41800000000E+01 0. -1.
</event>
<event>
11    1  0.5813833E-009  0.1285328E+03  0.7561462E-02  0.1121085E+00
         22   -1    0    0    0    0  0.00000000000E+00  0.00000000000E+00  0.17506143509E+04  0.17506143509E+04  0.00000000000E+00 0. -1.
         22   -1    0    0    0    0 -0.00000000000E+00 -0.00000000000E+00 -0.18423387252E+03  0.18423387252E+03  0.00000000000E+00 0. -1.
        -24    2    1    2    0    0  0.16823757082E+02  0.24048490038E+02 -0.16733171661E+03  0.18746053679E+03  0.79247591734E+02 0.  0.
         25    2    1    2    0    0 -0.23894834753E+02 -0.44219560793E+02  0.10869287294E+04  0.10952573312E+04  0.12509287014E+03 0.  0.
         24    2    1    2    0    0  0.70710776717E+01  0.20171070755E+02  0.64678346561E+03  0.65213035540E+03  0.80549840598E+02 0.  0.
        -11    1    5    5    0    0 -0.24037470966E+02 -0.20849230181E+02  0.23783721022E+03  0.23995630638E+03  0.00000000000E+00 0.  1.
         12    1    5    5    0    0  0.31108548637E+02  0.41020300936E+02  0.40894625539E+03  0.41217404902E+03  0.00000000000E+00 0. -1.
         11    1    3    3    0    0  0.16704453229E+02  0.52907804709E+02 -0.11554334216E+03  0.12817386034E+03  0.00000000000E+00 0. -1.
        -12    1    3    3    0    0  0.11930385275E+00 -0.28859314672E+02 -0.51788374447E+02  0.59286676451E+02  0.00000000000E+00 0.  1.
          5    1    4    4  501    0 -0.74931615194E+02 -0.26984390891E+02  0.58001369184E+03  0.58547097232E+03  0.41800000000E+01 0. -1.
         -5    1    4    4    0  501  0.51036780441E+02 -0.17235169901E+02  0.50691503753E+03  0.50978635889E+03  0.41800000000E+01 0. -1.
</event>
<event>
11    1  0.5813833E-009  0.1698499E+03  0.7561462E-02  0.1078162E+00
         22   -1    0    0    0    0  0.00000000000E+00  0.00000000000E+00  0.72156088455E+03  0.72156088455E+03  0.00000000000E+00 0. -1.
         22   -1    0    0    0    0 -0.00000000000E+00 -0.00000000000E+00 -0.30800865663E+03  0.30800865663E+03  0.00000000000E+00 0. -1.
         24    2    1    2    0    0 -0.12695725979E+02 -0.13168953548E+03 -0.24005822950E+03  0.29119764600E+03  0.98309716071E+02 0.  0.
         25    2    1    2    0    0 -0.36629327932E+02  0.27209025994E+02  0.99162412291E+02  0.16602181087E+03  0.12509204177E+03 0.  0.
        -24    2    1    2    0    0  0.49325053912E+02  0.10448050949E+03  0.55444804512E+03  0.57235008431E+03  0.82600523390E+02 0.  0.
        -11    1    3    3    0    0  0.18449948159E+01 -0.33091389267E+02 -0.20980412570E+01  0.33209122641E+02  0.00000000000E+00 0.  1.
         12    1    3    3    0    0 -0.14540720795E+02 -0.98598146213E+02 -0.23796018824E+03  0.25798852336E+03  0.00000000000E+00 0. -1.
         11    1    5    5    0    0 -0.11241247864E+02  0.68483617100E+02  0.32504955942E+03  0.33237567231E+03  0.00000000000E+00 0. -1.
        -12    1    5    5    0    0  0.60566301776E+02  0.35996892386E+02  0.22939848570E+03  0.23997441200E+03  0.00000000000E+00 0.  1.
          5    1    4    4  501    0 -0.80446018565E+02  0.24201977340E+02  0.42588693666E+02  0.94279196212E+02  0.41800000000E+01 0.  1.
         -5    1    4    4    0  501  0.43816690633E+02  0.30070486538E+01  0.56573718624E+02  0.71742614663E+02  0.41800000000E+01 0.  1.
</event>
<event>
11    1  0.5813833E-009  0.2023276E+03  0.7561462E-02  0.1052890E+00
         22   -1    0    0    0    0  0.00000000000E+00  0.00000000000E+00  0.13516890213E+04  0.13516890213E+04  0.00000000000E+00 0. -1.
         22   -1    0    0    0    0 -0.00000000000E+00 -0.00000000000E+00 -0.87428707849E+03  0.87428707849E+03  0.00000000000E+00 0.  1.
         24    2    1    2    0    0 -0.32213293774E+02  0.15601116522E+02 -0.78750512511E+03  0.79246011400E+03  0.80917359605E+02 0.  0.
         25    2    1    2    0    0  0.18833533393E+03 -0.25710266789E+02  0.88643240463E+02  0.24421096197E+03  0.12510057570E+03 0.  0.
        -24    2    1    2    0    0 -0.15612204016E+03  0.10109150267E+02  0.11762638274E+04  0.11893050238E+04  0.79834588638E+02 0.  0.
        -13    1    3    3    0    0 -0.35032104995E+02  0.46055889417E+02 -0.52488810633E+03  0.52806809930E+03  0.00000000000E+00 0.  1.
         14    1    3    3    0    0  0.28188112206E+01 -0.30454772895E+02 -0.26261701877E+03  0.26439201470E+03  0.00000000000E+00 0. -1.
         11    1    5    5    0    0 -0.15427885759E+03  0.34488780049E+01  0.11694927988E+04  0.11796301399E+04  0.00000000000E+00 0. -1.
        -12    1    5    5    0    0 -0.18431825614E+01  0.66602722624E+01  0.67710286716E+01  0.96748838668E+01  0.00000000000E+00 0.  1.
          5    1    4    4  501    0  0.59882067042E+02 -0.22248741007E+02 -0.28688289055E+02  0.70152396670E+02  0.41800000000E+01 0. -1.
         -5    1    4    4    0  501  0.12845326689E+03 -0.34615257822E+01  0.11733152952E+03  0.17405856530E+03  0.41800000000E+01 0. -1.
</event>
<event>
11    1  0.5813833E-009  0.1331259E+03  0.7561462E-02  0.1115487E+00
         22   -1    0    0    0    0  0.00000000000E+00  0.00000000000E+00  0.28874026482E+03  0.28874026482E+03  0.00000000000E+00 0. -1.
         22   -1    0    0    0    0 -0.00000000000E+00 -0.00000000000E+00 -0.18788084826E+03  0.18788084826E+03  0.00000000000E+00 0. -1.
         24    2    1    2    0    0 -0.58705110704E+02  0.11696527758E+02 -0.66907627925E+02  0.11887900234E+03  0.77926168501E+02 0.  0.
         25    2    1    2    0    0  0.20973608027E+02  0.14186084026E+02 -0.36262520757E+02  0.13267401295E+03  0.12508511537E+03 0.  0.
        -24    2    1    2    0    0  0.37731502677E+02 -0.25882611784E+02  0.20402956524E+03  0.22506809779E+03  0.83270698720E+02 0.  0.
        -11    1    3    3    0    0 -0.57286238587E+02 -0.24307894949E+02 -0.42217328161E+02  0.75199000561E+02  0.00000000000E+00 0.  1.
         12    1    3    3    0    0 -0.14188721170E+01  0.36004422707E+02 -0.24690299764E+02  0.43680001774E+02  0.00000000000E+00 0. -1.
         13    1    5    5    0    0  0.41149367410E+02  0.90468079239E+01  0.17352881330E+03  0.17857033409E+03  0.00000000000E+00 0. -1.
        -14    1    5    5    0    0 -0.34178647327E+01 -0.34929419708E+02  0.30500751940E+02  0.46497763703E+02  0.00000000000E+00 0.  1.
          5    1    4    4  501    0 -0.16324655433E+02  0.33533472176E+02  0.34038768646E+02  0.50666540262E+02  0.41800000000E+01 0. -1.
         -5    1    4    4    0  501  0.37298263460E+02 -0.19347388150E+02 -0.70301289402E+02  0.82007472690E+02  0.41800000000E+01 0. -1.
</event>
<event>
11    1  0.5813833E-009  0.1456492E+03  0.7561462E-02  0.1101409E+00
         22   -1    0    0    0    0  0.00000000000E+00  0.00000000000E+00  0.14494757388E+03  0.14494757388E+03  0.00000000000E+00 0. -1.
         22   -1    0    0    0    0 -0.00000000000E+00 -0.00000000000E+00 -0.10769921047E+04  0.10769921047E+04  0.00000000000E+00 0.  1.
         24    2    1    2    0    0  0.56643386791E+02 -0.45456013078E+02 -0.93511823595E+03  0.94167362638E+03  0.83835440090E+02 0.  0.
         25    2    1    2    0    0 -0.87409285328E+02  0.94967094979E+02 -0.32008228234E+01  0.17977235198E+03  0.12509484793E+03 0.  0.
        -24    2    1    2    0    0  0.30765898537E+02 -0.49511081901E+02  0.62745279634E+01  0.10049370021E+03  0.81619399267E+02 0.  0.
        -11    1    3    3    0    0  0.68098487998E+02 -0.49568669003E+02 -0.90860015854E+03  0.91249586580E+03  0.00000000000E+00 0.  1.
         12    1    3    3    0    0 -0.11455101207E+02  0.41126559250E+01 -0.26518077414E+02  0.29177760574E+02  0.00000000000E+00 0. -1.
         11    1    5    5    0    0  0.47652122899E+02 -0.61348631745E+02  0.13085996937E+02  0.78775775145E+02  0.00000000000E+00 0. -1.
        -12    1    5    5    0    0 -0.16886224362E+02  0.11837549845E+02 -0.68114689736E+01  0.21717925064E+02  0.00000000000E+00 0.  1.
          5    1    4    4  501    0 -0.10421711231E+03  0.24741914620E+02 -0.62624929416E+01  0.10737811721E+03  0.41800000000E+01 0. -1.
         -5    1    4    4    0  501  0.16807826980E+02  0.70225180358E+02  0.30616701182E+01  0.72394234771E+02  0.41800000000E+01 0. -1.
</event>
<event>
11    1  0.5813833E-009  0.1476596E+03  0.7561462E-02  0.1099294E+00
         22   -1    0    0    0    0  0.00000000000E+00  0.00000000000E+00  0.96026204424E+03  0.96026204424E+03  0.00000000000E+00 0.  1.
         22   -1    0    0    0    0 -0.00000000000E+00 -0.00000000000E+00 -0.61968227893E+03  0.61968227893E+03  0.00000000000E+00 0.  1.
         24    2    1    2    0    0  0.32618615883E+02 -0.46518520885E+02 -0.52153220361E+03  0.53068723652E+03  0.80032223006E+02 0.  0.
         25    2    1    2    0    0 -0.25314438681E+02 -0.33491176393E+02 -0.41876358969E+02  0.13838851700E+03  0.12504108323E+03 0.  0.
        -24    2    1    2    0    0 -0.73041772013E+01  0.80009697278E+02  0.90398832789E+03  0.91086856965E+03  0.77664351899E+02 0.  0.
        -13    1    3    3    0    0  0.37776118988E+02 -0.40041276732E+02 -0.51916556330E+03  0.52207587679E+03  0.00000000000E+00 0.  1.
         14    1    3    3    0    0 -0.51575031057E+01 -0.64772441526E+01 -0.23666403078E+01  0.86113597326E+01  0.00000000000E+00 0. -1.
         11    1    5    5    0    0 -0.80656738645E+01  0.68154547036E+02  0.34531492916E+03  0.35206888201E+03  0.00000000000E+00 0. -1.
        -12    1    5    5    0    0  0.76149666322E+00  0.11855150242E+02  0.55867339873E+03  0.55879968764E+03  0.00000000000E+00 0.  1.
          5    1    4    4  501    0  0.33257846760E+02  0.27126061418E+02 -0.31407168252E+02  0.53345948269E+02  0.41800000000E+01 0. -1.
         -5    1    4    4    0  501 -0.58572285441E+02 -0.60617237811E+02 -0.10469190718E+02  0.85042568728E+02  0.41800000000E+01 0. -1.
</event>
<event>
11    1  0.5813833E-009  0.1658278E+03  0.7561462E-02  0.1081721E+00
         22   -1    0    0    0    0  0.00000000000E+00  0.00000000000E+00  0.24851341045E+03  0.24851341045E+03  0.00000000000E+00 0. -1.
         22   -1    0    0    0    0 -0.00000000000E+00 -0.00000000000E+00 -0.81783010903E+03  0.81783010903E+03  0.00000000000E+00 0. -1.
        -24    2    1    2    0    0 -0.10374523391E+03  0.73115329221E+01 -0.61802604538E+03  0.63190435607E+03  0.80810830878E+02 0.  0.
         25    2    1    2    0    0  0.14793642381E+03  0.29144474647E+02 -0.12538394743E+03  0.23260527130E+03  0.12509792993E+03 0.  0.
         24    2    1    2    0    0 -0.44191189897E+02 -0.36456007569E+02  0.17409329423E+03  0.20183389210E+03  0.84537229400E+02 0.  0.
        -13    1    5    5    0    0  0.19426692417E+02 -0.19231673215E+02  0.18923366005E+02  0.33246765464E+02  0.00000000000E+00 0.  1.
         14    1    5    5    0    0 -0.63617882314E+02 -0.17224334354E+02  0.15516992822E+03  0.16858712664E+03  0.00000000000E+00 0. -1.
         13    1    3    3    0    0 -0.97056843479E+02 -0.23246075226E+02 -0.49526630261E+03  0.50522185362E+03  0.00000000000E+00 0. -1.
        -14    1    3    3    0    0 -0.66883904308E+01  0.30557608148E+02 -0.12275974277E+03  0.12668250245E+03  0.00000000000E+00 0.  1.
          5    1    4    4  501    0  0.97861794232E+02 -0.38061511812E+02 -0.99681814112E+02  0.14484317698E+03  0.41800000000E+01 0. -1.
         -5    1    4    4    0  501  0.50074629575E+02  0.67205986459E+02 -0.25702133320E+02  0.87762094324E+02  0.41800000000E+01 0. -1.
</event>
<event>
11    1  0.5813833E-009  0.1458737E+03  0.7561462E-02  0.1101171E+00
         22   -1    0    0    0    0  0.00000000000E+00  0.00000000000E+00  0.53356239539E+03  0.53356239539E+03  0.00000000000E+00 0. -1.
         22   -1    0    0    0    0 -0.00000000000E+00 -0.00000000000E+00 -0.29716547778E+03  0.29716547778E+03  0.00000000000E+00 0. -1.
        -24    2    1    2    0    0 -0.99021733362E+01  0.73552810590E+02 -0.21301939472E+03  0.23992613810E+03  0.81726496528E+02 0.  0.
         25    2    1    2    0    0 -0.63346840132E+02 -0.86776771522E+02  0.43658698915E+02  0.17057553264E+03  0.12508756979E+03 0.  0.
         24    2    1    2    0    0  0.73249013468E+02  0.13223960933E+02  0.40575761342E+03  0.42022620242E+03  0.80065780678E+02 0.  0.
        -13    1    5    5    0    0 -0.92790196847E+01 -0.18088474044E+02  0.96510229747E+02  0.98628178252E+02  0.00000000000E+00 0.  1.
         14    1    5    5    0    0  0.82528033153E+02  0.31312434977E+02  0.30924738367E+03  0.32159802417E+03  0.00000000000E+00 0. -1.
         13    1    3    3    0    0  0.14516295082E+02  0.42888720624E+02 -0.18810929081E+03  0.19348196419E+03  0.00000000000E+00 0. -1.
        -14    1    3    3    0    0 -0.24418468418E+02  0.30664089966E+02 -0.24910103918E+02  0.46444173914E+02  0.00000000000E+00 0.  1.
          5    1    4    4  501    0 -0.56441315167E+02  0.51833624511E+01 -0.17940024699E+02  0.59597031724E+02  0.41800000000E+01 0.  1.
         -5    1    4    4    0  501 -0.69055249645E+01 -0.91960133974E+02  0.61598723614E+02  0.11097850092E+03  0.41800000000E+01 0.  1.
</event>
<event>
11    1  0.5813833E-009  0.1934783E+03  0.7561462E-02  0.1059234E+00
         22   -1    0    0    0    0  0.00000000000E+00  0.00000000000E+00  0.90342513190E+02  0.90342513190E+02  0.00000000000E+00 0.  1.
         22   -1    0    0    0    0 -0.00000000000E+00 -0.00000000000E+00 -0.16451723653E+04  0.16451723653E+04  0.00000000000E+00 0. -1.
         24    2    1    2    0    0  0.13011054295E+03  0.58100612725E+02 -0.12556007495E+04  0.12679624984E+04  0.10436101050E+03 0.  0.
         25    2    1    2    0    0 -0.13810094622E+03 -0.13599411555E+03 -0.26289114401E+03  0.34975069253E+03  0.12509005760E+03 0.  0.
        -24    2    1    2    0    0  0.79904032700E+01  0.77893502829E+02 -0.36337958521E+02  0.11780168753E+03  0.80159503665E+02 0.  0.
        -13    1    3    3    0    0  0.50772436689E+02  0.77396834167E+02 -0.56193364470E+03  0.56950639269E+03  0.00000000000E+00 0.  1.
         14    1    3    3    0    0  0.79338106258E+02 -0.19296221441E+02 -0.69366710483E+03  0.69845610570E+03  0.00000000000E+00 0. -1.
         13    1    5    5    0    0  0.34029938564E+01 -0.10339614979E+02 -0.26811970770E+02  0.28937342339E+02  0.00000000000E+00 0. -1.
        -14    1    5    5    0    0  0.45874094135E+01  0.88233117808E+02 -0.95259877509E+01  0.88864345189E+02  0.00000000000E+00 0.  1.
          5    1    4    4  501    0 -0.17970683076E+02 -0.21462326574E+02 -0.14091742027E+03  0.14373158542E+03  0.41800000000E+01 0. -1.
         -5    1    4    4    0  501 -0.12013026314E+03 -0.11453178898E+03 -0.12197372375E+03  0.20601910711E+03  0.41800000000E+01 0. -1.
</event>
<event>
11    1  0.5813833E-009  0.2179187E+03  0.7561462E-02  0.1042529E+00
         22   -1    0    0    0    0  0.00000000000E+00  0.00000000000E+00  0.12206379267E+03  0.12206379267E+03  0.00000000000E+00 0. -1.
         22   -1    0    0    0    0 -0.00000000000E+00 -0.00000000000E+00 -0.61140942751E+03  0.61140942751E+03  0.00000000000E+00 0.  1.
         24    2    1    2    0    0  0.18390222659E+03 -0.57955370249E+02 -0.37752944770E+03  0.43098050207E+03  0.77697203279E+02 0.  0.
         25    2    1    2    0    0 -0.13450903044E+03  0.45083740380E+02 -0.63439766156E+02  0.19949241434E+03  0.12508955405E+03 0.  0.
        -24    2    1    2    0    0 -0.49393196148E+02  0.12871629870E+02 -0.48376420982E+02  0.10300030377E+03  0.75255682760E+02 0.  0.
        -11    1    3    3    0    0  0.72718518504E+02 -0.39138850253E+02 -0.23593197476E+03  0.24996745637E+03  0.00000000000E+00 0.  1.
         12    1    3    3    0    0  0.11118370809E+03 -0.18816519997E+02 -0.14159747295E+03  0.18101304570E+03  0.00000000000E+00 0. -1.
         13    1    5    5    0    0 -0.24767968952E+02  0.18602584554E+02  0.15255917737E+02  0.34528994542E+02  0.00000000000E+00 0. -1.
        -14    1    5    5    0    0 -0.24625227196E+02 -0.57309546844E+01 -0.63632338719E+02  0.68471309224E+02  0.00000000000E+00 0.  1.
          5    1    4    4  501    0 -0.12191970421E+03  0.82621537039E+02 -0.37700449048E+02  0.15208395351E+03  0.41800000000E+01 0. -1.
         -5    1    4    4    0  501 -0.12589326233E+02 -0.37537796659E+02 -0.25739317108E+02  0.47408460829E+02  0.41800000000E+01 0. -1.
</event>
<event>
11    1  0.5813833E-009  0.1703797E+03  0.7561462E-02  0.1077702E+00
         22   -1    0    0    0    0  0.00000000000E+00  0.00000000000E+00  0.78424693301E+03  0.78424693301E+03  0.00000000000E+00 0. -1.
         22   -1    0    0    0    0 -0.00000000000E+00 -0.00000000000E+00 -0.10706143170E+04  0.10706143170E+04  0.00000000000E+00 0. -1.
        -24    2    1    2    0    0 -0.14837235476E+02  0.19980672709E+02 -0.97401451461E+03  0.97765307158E+03  0.80510141282E+02 0.  0.
         25    2    1    2    0    0  0.21775090865E+02 -0.13388317374E+03  0.93921819639E+01  0.18475552260E+03  0.12509009256E+03 0.  0.
         24    2    1    2    0    0 -0.69378553888E+01  0.11390250103E+03  0.67825494869E+03  0.69245265581E+03  0.80243326978E+02 0.  0.
        -13    1    5    5    0    0 -0.10448938070E+02  0.66744711989E+00  0.93986719334E+01  0.14069855243E+02  0.00000000000E+00 0.  1.
         14    1    5    5    0    0  0.35110826810E+01  0.11323505391E+03  0.66885627676E+03  0.67838280056E+03  0.00000000000E+00 0. -1.
         13    1    3    3    0    0  0.30352907709E+02  0.15680536407E+02 -0.58544260929E+03  0.58643859610E+03  0.00000000000E+00 0. -1.
        -14    1    3    3    0    0 -0.45190143185E+02  0.43001363018E+01 -0.38857190533E+03  0.39121447548E+03  0.00000000000E+00 0.  1.
          5    1    4    4  501    0 -0.47182669791E+02 -0.92615368406E+02  0.39583340066E+01  0.10410068012E+03  0.41800000000E+01 0.  1.
         -5    1    4    4    0  501  0.68957760656E+02 -0.41267805333E+02  0.54338479573E+01  0.80654842479E+02  0.41800000000E+01 0.  1.
</event>
<event>
11    1  0.5813833E-009  0.1948487E+03  0.7561462E-02  0.1058227E+00
         22   -1    0    0    0    0  0.00000000000E+00  0.00000000000E+00  0.57261592510E+03  0.57261592510E+03  0.00000000000E+00 0.  1.
         22   -1    0    0    0    0 -0.00000000000E+00 -0.00000000000E+00 -0.38775194658E+03  0.38775194658E+03  0.00000000000E+00 0. -1.
         24    2    1    2    0    0 -0.12100327373E+03 -0.99783214679E+02 -0.23496426249E+03  0.29358483925E+03  0.79908516443E+02 0.  0.
         25    2    1    2    0    0  0.62414307887E+02  0.12482736369E+03 -0.43570096384E+02  0.19238905891E+03  0.12505111009E+03 0.  0.
        -24    2    1    2    0    0  0.58588965845E+02 -0.25044149008E+02  0.46339833739E+03  0.47439397353E+03  0.79067987844E+02 0.  0.
        -13    1    3    3    0    0 -0.29266871380E+01  0.11622499811E+02 -0.28685405450E+02  0.31088590919E+02  0.00000000000E+00 0.  1.
         14    1    3    3    0    0 -0.11807658659E+03 -0.11140571449E+03 -0.20627885704E+03  0.26249624833E+03  0.00000000000E+00 0. -1.
         11    1    5    5    0    0 -0.15495728245E+02 -0.23370979670E+00  0.27650320798E+02  0.31697199472E+02  0.00000000000E+00 0. -1.
        -12    1    5    5    0    0  0.74084694091E+02 -0.24810439212E+02  0.43574801659E+03  0.44269677405E+03  0.00000000000E+00 0.  1.
          5    1    4    4  501    0  0.27061320831E+01  0.86523108496E+02  0.28446339115E+02  0.91215338971E+02  0.41800000000E+01 0.  1.
         -5    1    4    4    0  501  0.59708175803E+02  0.38304255192E+02 -0.72016435499E+02  0.10117371994E+03  0.41800000000E+01 0.  1.
</event>
<event>
11    1  0.5813833E-009  0.1557481E+03  0.7561462E-02  0.1091146E+00
         22   -1    0    0    0    0  0.00000000000E+00  0.00000000000E+00  0.97031531178E+03  0.97031531178E+03  0.00000000000E+00 0. -1.
         22   -1    0    0    0    0 -0.00000000000E+00 -0.00000000000E+00 -0.10134596362E+04  0.10134596362E+04  0.00000000000E+00 0. -1.
        -24    2    1    2    0    0 -0.76967337909E+02 -0.47225531365E+00 -0.97827408395E+03  0.98458308356E+03  0.80370834074E+02 0.  0.
         25    2    1    2    0    0  0.15470041215E+03 -0.15931021408E+02  0.35132972807E+03  0.40406142229E+03  0.12508812972E+03 0.  0.
         24    2    1    2    0    0 -0.77733074242E+02  0.16403276721E+02  0.58380003151E+03  0.59513044208E+03  0.83942051304E+02 0.  0.
        -11    1    5    5    0    0  0.41479863427E+01 -0.49386998796E+01  0.13797085525E+01  0.65954638116E+01  0.00000000000E+00 0.  1.
         12    1    5    5    0    0 -0.81881060585E+02  0.21341976601E+02  0.58242032296E+03  0.58853497826E+03  0.00000000000E+00 0. -1.
         11    1    3    3    0    0 -0.33140988681E+02 -0.26006708044E+02 -0.72816375188E+03  0.72938132931E+03  0.00000000000E+00 0. -1.
        -12    1    3    3    0    0 -0.43826349228E+02  0.25534452730E+02 -0.25011033207E+03  0.25520175425E+03  0.00000000000E+00 0.  1.
          5    1    4    4  501    0  0.91835807833E+02 -0.59288432350E+02  0.27522222743E+03  0.29616495519E+03  0.41800000000E+01 0.  1.
         -5    1    4    4    0  501  0.62864604318E+02  0.43357410943E+02  0.76107500637E+02  0.10789646710E+03  0.41800000000E+01 0.  1.
</event>
<event>
11    1  0.5813833E-009  0.1279042E+03  0.7561462E-02  0.1121871E+00
         22   -1    0    0    0    0  0.00000000000E+00  0.00000000000E+00  0.30522044697E+03  0.30522044697E+03  0.00000000000E+00 0.  1.
         22   -1    0    0    0    0 -0.00000000000E+00 -0.00000000000E+00 -0.36588666212E+03  0.36588666212E+03  0.00000000000E+00 0.  1.
        -24    2    1    2    0    0  0.30442296990E+02 -0.65272257317E+01 -0.24345314410E+03  0.25809066421E+03  0.79824930053E+02 0.  0.
         25    2    1    2    0    0 -0.76292655987E+01  0.22695249066E+02 -0.70492423767E+02  0.14556426308E+03  0.12508594187E+03 0.  0.
         24    2    1    2    0    0 -0.22813031391E+02 -0.16168023334E+02  0.25327935272E+03  0.26745218180E+03  0.81230534036E+02 0.  0.
        -11    1    5    5    0    0 -0.22568023173E+02  0.18860142576E+02  0.20867409827E+03  0.21073656526E+03  0.00000000000E+00 0.  1.
         12    1    5    5    0    0 -0.24500821878E+00 -0.35028165911E+02  0.44605254449E+02  0.56715616549E+02  0.00000000000E+00 0. -1.
         13    1    3    3    0    0 -0.21429533684E+02  0.11454172330E+02 -0.35547650998E+02  0.43058779234E+02  0.00000000000E+00 0. -1.
        -14    1    3    3    0    0  0.51871830674E+02 -0.17981398062E+02 -0.20790549310E+03  0.21503188498E+03  0.00000000000E+00 0.  1.
          5    1    4    4  501    0  0.23458070804E+02 -0.32734917282E+02 -0.71158411215E+02  0.81870921468E+02  0.41800000000E+01 0.  1.
         -5    1    4    4    0  501 -0.31087336403E+02  0.55430166348E+02  0.66598744792E+00  0.63693341609E+02  0.41800000000E+01 0.  1.
</event>
<event>
11    1  0.5813833E-009  0.1705673E+03  0.7561462E-02  0.1077539E+00
         22   -1    0    0    0    0  0.00000000000E+00  0.00000000000E+00  0.72732651043E+03  0.72732651043E+03  0.00000000000E+00 0.  1.
         22   -1    0    0    0    0 -0.00000000000E+00 -0.00000000000E+00 -0.16318051932E+04  0.16318051932E+04  0.00000000000E+00 0.  1.
         24    2    1    2    0    0 -0.77199825802E+02  0.95684569290E+02 -0.14092169273E+04  0.14174676117E+04  0.90591015875E+02 0.  0.
         25    2    1    2    0    0  0.89308013229E+02 -0.13748163419E+02 -0.18637429410E+03  0.24196770661E+03  0.12509220725E+03 0.  0.
        -24    2    1    2    0    0 -0.12108187428E+02 -0.81936405871E+02  0.69111253865E+03  0.69969638529E+03  0.71262246011E+02 0.  0.
        -13    1    3    3    0    0 -0.71599776073E+02  0.16785335215E+02 -0.70147034729E+03  0.70531476912E+03  0.00000000000E+00 0.  1.
         14    1    3    3    0    0 -0.56000497290E+01  0.78899234075E+02 -0.70774658005E+03  0.71215284263E+03  0.00000000000E+00 0. -1.
         11    1    5    5    0    0 -0.34906195811E+01  0.37171595552E+00  0.29548204083E+03  0.29550289179E+03  0.00000000000E+00 0. -1.
        -12    1    5    5    0    0 -0.86175678466E+01 -0.82308121827E+02  0.39563049781E+03  0.40419349351E+03  0.00000000000E+00 0.  1.
          5    1    4    4  501    0 -0.28850183271E+02 -0.11403414879E+02 -0.66921565436E+02  0.73880574349E+02  0.41800000000E+01 0. -1.
         -5    1    4    4    0  501  0.11815819650E+03 -0.23447485405E+01 -0.11945272866E+03  0.16808713226E+03  0.41800000000E+01 0. -1.
</event>
<event>
11    1  0.5813833E-009  0.1301283E+03  0.7561462E-02  0.1119111E+00
         22   -1    0    0    0    0  0.00000000000E+00  0.00000000000E+00  0.10915847117E+04  0.10915847117E+04  0.00000000000E+00 0.  1.
         22   -1    0    0    0    0 -0.00000000000E+00 -0.00000000000E+00 -0.25914592621E+03  0.25914592621E+03  0.00000000000E+00 0.  1.
         24    2    1    2    0    0 -0.17869944067E+02  0.15599236331E+01 -0.23730700278E+03  0.25257841642E+03  0.84613678624E+02 0.  0.
         25    2    1    2    0    0 -0.14899168533E+02 -0.21950918912E+02  0.34603163121E+03  0.36890254784E+03  0.12508945575E+03 0.  0.
        -24    2    1    2    0    0  0.32769112600E+02  0.20390995279E+02  0.72371415709E+03  0.72924967369E+03  0.80952442668E+02 0.  0.
        -11    1    3    3    0    0  0.10167275463E+02 -0.78280342620E+01 -0.21539495005E+03  0.21577682016E+03  0.00000000000E+00 0.  1.
         12    1    3    3    0    0 -0.28037219530E+02  0.93879578952E+01 -0.21912052725E+02  0.36801596257E+02  0.00000000000E+00 0. -1.
         11    1    5    5    0    0 -0.81769393367E+01  0.80404383818E+01  0.13350061410E+02  0.17599293337E+02  0.00000000000E+00 0. -1.
        -12    1    5    5    0    0  0.40946051936E+02  0.12350556897E+02  0.71036409568E+03  0.71165038035E+03  0.00000000000E+00 0.  1.
          5    1    4    4  501    0 -0.30249090766E+02  0.13121400459E+02  0.32156065614E+03  0.32327373327E+03  0.41800000000E+01 0. -1.
         -5    1    4    4    0  501  0.15349922233E+02 -0.35072319371E+02  0.24470975072E+02  0.45628814576E+02  0.41800000000E+01 0. -1.
</event>
<event>
11    1  0.5813833E-009  0.1308650E+03  0.7561462E-02  0.1118211E+00
         22   -1    0    0    0    0  0.00000000000E+00  0.00000000000E+00  0.18397469709E+02  0.18397469709E+02  0.00000000000E+00 0.  1.
         22   -1    0    0    0    0 -0.00000000000E+00 -0.00000000000E+00 -0.28922656478E+04  0.28922656478E+04  0.00000000000E+00 0. -1.
        -24    2    1    2    0    0 -0.13897933496E+02 -0.24732385767E+02 -0.15752621482E+04  0.15775479800E+04  0.80012188150E+02 0.  0.
         25    2    1    2    0    0  0.12824072261E+02  0.60247721844E+02 -0.11567124825E+04  0.11650865403E+04  0.12509450134E+03 0.  0.
         24    2    1    2    0    0  0.10738612346E+01 -0.35515336077E+02 -0.14189354740E+03  0.16802859726E+03  0.82688200050E+02 0.  0.
        -11    1    5    5    0    0 -0.34754649394E+02 -0.40593949563E+02 -0.91991441383E+02  0.10638693380E+03  0.00000000000E+00 0.  1.
         12    1    5    5    0    0  0.35828510628E+02  0.50786134854E+01 -0.49902106021E+02  0.61641663460E+02  0.00000000000E+00 0. -1.
         11    1    3    3    0    0 -0.29977115925E+02 -0.21813715789E+02 -0.15031581084E+04  0.15036152315E+04  0.00000000000E+00 0. -1.
        -12    1    3    3    0    0  0.16079182429E+02 -0.29186699776E+01 -0.72104039788E+02  0.73932748466E+02  0.00000000000E+00 0.  1.
          5    1    4    4  501    0  0.55226836774E+02  0.27342885592E+02 -0.93084327341E+03  0.93289029845E+03  0.41800000000E+01 0. -1.
         -5    1    4    4    0  501 -0.42402764513E+02  0.32904836253E+02 -0.22586920914E+03  0.23219624184E+03  0.41800000000E+01 0. -1.
</event>
<event>
11    1  0.5813833E-009  0.1437712E+03  0.7561462E-02  0.1103419E+00
         22   -1    0    0    0    0  0.00000000000E+00  0.00000000000E+00  0.17845662650E+04  0.17845662650E+04  0.00000000000E+00 0.  1.
         22   -1    0    0    0    0 -0.00000000000E+00 -0.00000000000E+00 -0.37040623031E+03  0.37040623031E+03  0.00000000000E+00 0. -1.
         24    2    1    2    0    0  0.20181575718E+02 -0.39428147407E+02 -0.31528180701E+03  0.32816049502E+03  0.79528723450E+02 0.  0.
         25    2    1    2    0    0 -0.90264138727E+02  0.41539561837E+02  0.88790323757E+02  0.18276838680E+03  0.12508961461E+03 0.  0.
        -24    2    1    2    0    0  0.70082563009E+02 -0.21114144303E+01  0.16406515179E+04  0.16440436135E+04  0.78904854315E+02 0.  0.
        -11    1    3    3    0    0  0.26568635652E+01  0.23544558317E+02 -0.11723617765E+03  0.11960654873E+03  0.00000000000E+00 0.  1.
         12    1    3    3    0    0  0.17524712153E+02 -0.62972705724E+02 -0.19804562936E+03  0.20855394628E+03  0.00000000000E+00 0. -1.
         13    1    5    5    0    0 -0.74365545043E+01 -0.22497985412E+02  0.26428983738E+03  0.26534991961E+03  0.00000000000E+00 0. -1.
        -14    1    5    5    0    0  0.77519117513E+02  0.20386570982E+02  0.13763616805E+04  0.13786936938E+04  0.00000000000E+00 0.  1.
          5    1    4    4  501    0  0.31219143160E+02  0.15766201005E+02  0.15278579880E+02  0.38394210461E+02  0.41800000000E+01 0.  1.
         -5    1    4    4    0  501 -0.12148328189E+03  0.25773360832E+02  0.73511743878E+02  0.14437417634E+03  0.41800000000E+01 0.  1.
</event>
<event>
11    1  0.5813833E-009  0.1357429E+03  0.7561462E-02  0.1112408E+00
         22   -1    0    0    0    0  0.00000000000E+00  0.00000000000E+00  0.12190215794E+03  0.12190215794E+03  0.00000000000E+00 0.  1.
         22   -1    0    0    0    0 -0.00000000000E+00 -0.00000000000E+00 -0.42566098145E+03  0.42566098145E+03  0.00000000000E+00 0. -1.
         24    2    1    2    0    0  0.20570212017E+02  0.51547220451E+02 -0.24543162473E+03  0.26397287141E+03  0.79779351120E+02 0.  0.
         25    2    1    2    0    0  0.11797513949E+02  0.94269479443E+00 -0.11527134052E+03  0.17051337176E+03  0.12508900029E+03 0.  0.
        -24    2    1    2    0    0 -0.32367725966E+02 -0.52489915245E+02  0.56944141748E+02  0.11307689622E+03  0.75768649806E+02 0.  0.
        -11    1    3    3    0    0  0.14816783660E+02 -0.79986644622E+01 -0.71444001754E+01  0.18290931225E+02  0.00000000000E+00 0.  1.
         12    1    3    3    0    0  0.57534283573E+01  0.59545884913E+02 -0.23828722456E+03  0.24568194019E+03  0.00000000000E+00 0. -1.
         13    1    5    5    0    0  0.52517756343E+01  0.29744461694E+01 -0.14144120388E+02  0.15378056408E+02  0.00000000000E+00 0. -1.
        -14    1    5    5    0    0 -0.37619501600E+02 -0.55464361415E+02  0.71088262136E+02  0.97698839816E+02  0.00000000000E+00 0.  1.
          5    1    4    4  501    0  0.40654207570E+02 -0.51394352588E+02 -0.63186530640E+02  0.91127131664E+02  0.41800000000E+01 0. -1.
         -5    1    4    4    0  501 -0.28856693621E+02  0.52337047383E+02 -0.52084809885E+02  0.79386240094E+02  0.41800000000E+01 0. -1.
</event>
<event>
11    1  0.5813833E-009  0.1281525E+03  0.7561462E-02  0.1121560E+00
         22   -1    0    0    0    0  0.00000000000E+00  0.00000000000E+00  0.49128549187E+03  0.49128549187E+03  0.00000000000E+00 0.  1.
         22   -1    0    0    0    0 -0.00000000000E+00 -0.00000000000E+00 -0.12299200742E+04  0.12299200742E+04  0.00000000000E+00 0. -1.
        -24    2    1    2    0    0 -0.92147412340E+01  0.13172983599E+02 -0.11983816359E+04  0.12010216693E+04  0.77949123365E+02 0.  0.
         25    2    1    2    0    0  0.16007003746E+02 -0.36770205155E+02  0.15665305881E+03  0.20445313682E+03  0.12511047984E+03 0.  0.
         24    2    1    2    0    0 -0.67922625117E+01  0.23597221555E+02  0.30309399470E+03  0.31573076003E+03  0.84952807530E+02 0.  0.
        -11    1    5    5    0    0 -0.37936944655E+02  0.37429157252E+02  0.20786169019E+03  0.21458479870E+03  0.00000000000E+00 0.  1.
         12    1    5    5    0    0  0.31144682144E+02 -0.13831935697E+02  0.95232304513E+02  0.10114596133E+03  0.00000000000E+00 0. -1.
         13    1    3    3    0    0  0.30975096162E+02  0.86519763085E+01 -0.78698808468E+03  0.78764494457E+03  0.00000000000E+00 0. -1.
        -14    1    3    3    0    0 -0.40189837396E+02  0.45210072910E+01 -0.41139355122E+03  0.41337672470E+03  0.00000000000E+00 0.  1.
          5    1    4    4  501    0  0.56988056390E+02  0.18145346121E+02  0.52383004310E+02  0.79613715511E+02  0.41800000000E+01 0.  1.
         -5    1    4    4    0  501 -0.40981052645E+02 -0.54915551276E+02  0.10427005450E+03  0.12483942131E+03  0.41800000000E+01 0.  1.
</event>
<event>
11    1  0.5813833E-009  0.1303320E+03  0.7561462E-02  0.1118862E+00
         22   -1    0    0    0    0  0.00000000000E+00  0.00000000000E+00  0.84711088785E+03  0.84711088785E+03  0.00000000000E+00 0.  1.
         22   -1    0    0    0    0 -0.00000000000E+00 -0.00000000000E+00 -0.11055352263E+03  0.11055352263E+03  0.00000000000E+00 0.  1.
        -24    2    1    2    0    0 -0.28077323425E+02 -0.29241821568E+02 -0.72578274603E+02  0.11510605206E+03  0.79613925014E+02 0.  0.
         25    2    1    2    0    0  0.33491746413E+02  0.47349406340E+02  0.52003033368E+03  0.53799891787E+03  0.12509046458E+03 0.  0.
         24    2    1    2    0    0 -0.54144229880E+01 -0.18107584772E+02  0.28910530615E+03  0.30455944055E+03  0.93900874243E+02 0.  0.
        -13    1    5    5    0    0 -0.46938003320E+02  0.48643540838E+01  0.16758418543E+03  0.17410139949E+03  0.00000000000E+00 0.  1.
         14    1    5    5    0    0  0.41523580332E+02 -0.22971938856E+02  0.12152112071E+03  0.13045804106E+03  0.00000000000E+00 0. -1.
         11    1    3    3    0    0 -0.39223704483E+02 -0.43234187569E+02 -0.23604453435E+02  0.62967167557E+02  0.00000000000E+00 0. -1.
        -12    1    3    3    0    0  0.11146381058E+02  0.13992366001E+02 -0.48973821168E+02  0.52138884499E+02  0.00000000000E+00 0.  1.
          5    1    4    4  501    0 -0.41353897432E+02  0.45611565607E+02  0.27029870957E+03  0.27725335804E+03  0.41800000000E+01 0. -1.
         -5    1    4    4    0  501  0.74845643844E+02  0.17378407329E+01  0.24973162411E+03  0.26074555984E+03  0.41800000000E+01 0. -1.
</event>
<event>
11    1  0.5813833E-009  0.1373978E+03  0.7561462E-02  0.1110499E+00
         22   -1    0    0    0    0  0.00000000000E+00  0.00000000000E+00  0.25812903481E+03  0.25812903481E+03  0.00000000000E+00 0. -1.
         22   -1    0    0    0    0 -0.00000000000E+00 -0.00000000000E+00 -0.53835805784E+03  0.53835805784E+03  0.00000000000E+00 0.  1.
         24    2    1    2    0    0 -0.36483743658E+02 -0.10354211551E+01 -0.39197228134E+03  0.39982787211E+03  0.69913677708E+02 0.  0.
         25    2    1    2    0    0  0.87131601860E+02  0.16806235175E+02 -0.80911450258E+02  0.17340555631E+03  0.12509379918E+03 0.  0.
        -24    2    1    2    0    0 -0.50647858202E+02 -0.15770814020E+02  0.19265470857E+03  0.22325366423E+03  0.99561226098E+02 0.  0.
        -13    1    3    3    0    0  0.91007212213E+01  0.17996017777E+02 -0.21940027088E+03  0.22032512032E+03  0.00000000000E+00 0.  1.
         14    1    3    3    0    0 -0.45584464879E+02 -0.19031438932E+02 -0.17257201046E+03  0.17950275179E+03  0.00000000000E+00 0. -1.
         13    1    5    5    0    0 -0.64944652030E+02  0.64705598423E+00  0.19062908108E+03  0.20138935688E+03  0.00000000000E+00 0. -1.
        -14    1    5    5    0    0  0.14296793828E+02 -0.16417870004E+02  0.20256274856E+01  0.21864307351E+02  0.00000000000E+00 0.  1.
          5    1    4    4  501    0 -0.60603002962E+01 -0.17983967790E+02 -0.70699346992E+02  0.73321350248E+02  0.41800000000E+01 0.  1.
         -5    1    4    4    0  501  0.93191902156E+02  0.34790202964E+02 -0.10212103266E+02  0.10008420606E+03  0.41800000000E+01 0.  1.
</event>
<event>
11    1  0.5813833E-009  0.1465752E+03  0.7561462E-02  0.1100431E+00
         22   -1    0    0    0    0  0.00000000000E+00  0.00000000000E+00  0.33642556631E+03  0.33642556631E+03  0.00000000000E+00 0. -1.
         22   -1    0    0    0    0 -0.00000000000E+00 -0.00000000000E+00 -0.10052465579E+04  0.10052465579E+04  0.00000000000E+00 0.  1.
        -24    2    1    2    0    0  0.19988663744E+02 -0.63518646691E+02 -0.61685286962E+03  0.62539857646E+03  0.78624115441E+02 0.  0.
         25    2    1    2    0    0 -0.67614140625E+02  0.25921750845E+01 -0.36082399177E+03  0.38784303739E+03  0.12509946935E+03 0.  0.
         24    2    1    2    0    0  0.47625476881E+02  0.60926471607E+02  0.30885586984E+03  0.32843051031E+03  0.80588031257E+02 0.  0.
        -11    1    5    5    0    0 -0.15922069582E+02 -0.70038685279E+01  0.32850121776E+02  0.37171184738E+02  0.00000000000E+00 0.  1.
         12    1    5    5    0    0  0.63547546463E+02  0.67930340135E+02  0.27600574806E+03  0.29125932558E+03  0.00000000000E+00 0. -1.
         13    1    3    3    0    0 -0.13299926919E+02  0.78678308351E+00 -0.19169040390E+02  0.23344361057E+02  0.00000000000E+00 0. -1.
        -14    1    3    3    0    0  0.33288590662E+02 -0.64305429775E+02 -0.59768382923E+03  0.60205421541E+03  0.00000000000E+00 0.  1.
          5    1    4    4  501    0 -0.55733592884E+02 -0.59538317190E+01 -0.36710127638E+03  0.37137918763E+03  0.41800000000E+01 0. -1.
         -5    1    4    4    0  501 -0.11880547741E+02  0.85460068036E+01  0.62772846060E+01  0.16463849761E+02  0.41800000000E+01 0. -1.
</event>
<event>
11    1  0.5813833E-009  0.1991896E+03  0.7561462E-02  0.1055098E+00
         22   -1    0    0    0    0  0.00000000000E+00  0.00000000000E+00  0.86253470515E+03  0.86253470515E+03  0.00000000000E+00 0. -1.
         22   -1    0    0    0    0 -0.00000000000E+00 -0.00000000000E+00 -0.41738629250E+03  0.41738629250E+03  0.00000000000E+00 0. -1.
        -24    2    1    2    0    0  0.95465292042E+02  0.63928315266E+02 -0.16895643070E+03  0.21749671852E+03  0.74552636516E+02 0.  0.
         25    2    1    2    0    0 -0.22731685340E+03  0.13181916678E+02 -0.13566754154E+03  0.29309528296E+03  0.12510974502E+03 0.  0.
         24    2    1    2    0    0  0.13185156136E+03 -0.77110231943E+02  0.74977238489E+03  0.76932899618E+03  0.79860209799E+02 0.  0.
        -13    1    5    5    0    0  0.89639669874E+02 -0.49797308949E+02  0.64520016844E+03  0.65329801756E+03  0.00000000000E+00 0.  1.
         14    1    5    5    0    0  0.42211891482E+02 -0.27312922994E+02  0.10457221646E+03  0.11603097862E+03  0.00000000000E+00 0. -1.
         11    1    3    3    0    0  0.10205143959E+03  0.37158535207E+02 -0.12478520396E+03  0.16542853499E+03  0.00000000000E+00 0. -1.
        -12    1    3    3    0    0 -0.65861475452E+01  0.26769780059E+02 -0.44171226745E+02  0.52068183530E+02  0.00000000000E+00 0.  1.
          5    1    4    4  501    0 -0.24123380032E+03  0.16562294451E+02 -0.13728690238E+03  0.27808851465E+03  0.41800000000E+01 0.  1.
         -5    1    4    4    0  501  0.13916946923E+02 -0.33803777736E+01  0.16193608403E+01  0.15006768309E+02  0.41800000000E+01 0.  1.
</event>
<event>
11    1  0.5813833E-009  0.1359339E+03  0.7561462E-02  0.1112186E+00
         22   -1    0    0    0    0  0.00000000000E+00  0.00000000000E+00  0.23772367595E+03  0.23772367595E+03  0.00000000000E+00 0. -1.
         22   -1    0    0    0    0 -0.00000000000E+00 -0.00000000000E+00 -0.56507567465E+03  0.56507567465E+03  0.00000000000E+00 0.  1.
         24    2    1    2    0    0  0.37999359593E+01  0.51938371721E+02 -0.33448926717E+03  0.34779956896E+03  0.79808748582E+02 0.  0.
         25    2    1    2    0    0  0.54618350706E-01  0.37377910289E+01 -0.19419891940E+03  0.23103525147E+03  0.12510033197E+03 0.  0.
        -24    2    1    2    0    0 -0.38545543100E+01 -0.55676162750E+02  0.20133618787E+03  0.22396453016E+03  0.80679350130E+02 0.  0.
        -11    1    3    3    0    0 -0.32085995583E+02  0.24515220146E+01 -0.15116637023E+03  0.15455352652E+03  0.00000000000E+00 0.  1.
         12    1    3    3    0    0  0.35885931542E+02  0.49486849706E+02 -0.18332289694E+03  0.19324604244E+03  0.00000000000E+00 0. -1.
         11    1    5    5    0    0 -0.13704949200E+02 -0.16092075987E+02  0.17302474191E+03  0.17431104915E+03  0.00000000000E+00 0. -1.
        -12    1    5    5    0    0  0.98503948904E+01 -0.39584086763E+02  0.28311445956E+02  0.49653481011E+02  0.00000000000E+00 0.  1.
          5    1    4    4  501    0  0.12991765273E+02  0.43182885500E+01  0.15382478436E+02  0.21012534919E+02  0.41800000000E+01 0. -1.
         -5    1    4    4    0  501 -0.12937146922E+02 -0.58049752111E+00 -0.20958139784E+03  0.21002271655E+03  0.41800000000E+01 0. -1.
</event>
<event>
11    1  0.5813833E-009  0.1397048E+03  0.7561462E-02  0.1107888E+00
         22   -1    0    0    0    0  0.00000000000E+00  0.00000000000E+00  0.20672518492E+03  0.20672518492E+03  0.00000000000E+00 0.  1.
         22   -1    0    0    0    0 -0.00000000000E+00 -0.00000000000E+00 -0.71276279651E+03  0.71276279651E+03  0.00000000000E+00 0. -1.
        -24    2    1    2    0    0 -0.28085837932E+02  0.18324372254E+02 -0.48186949182E+03  0.48985536918E+03  0.81458447418E+02 0.  0.
         25    2    1    2    0    0 -0.10303263314E+02  0.33656836255E+02 -0.18932004180E+03  0.22962576054E+03  0.12508785638E+03 0.  0.
         24    2    1    2    0    0  0.38389101246E+02 -0.51981208508E+02  0.16515192203E+03  0.20000685170E+03  0.92476019846E+02 0.  0.
        -11    1    5    5    0    0  0.44240760383E+02  0.98587099528E+01  0.10103063500E+03  0.11073223672E+03  0.00000000000E+00 0.  1.
         12    1    5    5    0    0 -0.58516591373E+01 -0.61839918461E+02  0.64121287030E+02  0.89274614983E+02  0.00000000000E+00 0. -1.
         13    1    3    3    0    0 -0.43678895881E+02  0.62355263773E+01 -0.45142820068E+03  0.45357926331E+03  0.00000000000E+00 0. -1.
        -14    1    3    3    0    0  0.15593057949E+02  0.12088845876E+02 -0.30441291140E+02  0.36276105870E+02  0.00000000000E+00 0.  1.
          5    1    4    4  501    0 -0.54579470878E+02  0.33658982942E+02 -0.16885658603E+03  0.18067059755E+03  0.41800000000E+01 0. -1.
         -5    1    4    4    0  501  0.44276207564E+02 -0.21466877138E-02 -0.20463455765E+02  0.48955162983E+02  0.41800000000E+01 0. -1.
</event>
<event>
11    1  0.5813833E-009  0.1401846E+03  0.7561462E-02  0.1107352E+00
         22   -1    0    0    0    0  0.00000000000E+00  0.00000000000E+00  0.58324781907E+03  0.58324781907E+03  0.00000000000E+00 0. -1.
         22   -1    0    0    0    0 -0.00000000000E+00 -0.00000000000E+00 -0.55549907605E+03  0.55549907605E+03  0.00000000000E+00 0. -1.
        -24    2    1    2    0    0  0.45469901466E+02  0.42619505015E+02 -0.50158979306E+03  0.51199293380E+03  0.81611945253E+02 0.  0.
         25    2    1    2    0    0 -0.79914843429E+02 -0.43457278789E+02  0.90934793978E+02  0.17941986443E+03  0.12508970268E+03 0.  0.
         24    2    1    2    0    0  0.34444941964E+02  0.83777377437E+00  0.43840374211E+03  0.44733409689E+03  0.81992665848E+02 0.  0.
        -11    1    5    5    0    0 -0.97648716736E+01 -0.24753941092E+02  0.27116998759E+03  0.27247251694E+03  0.00000000000E+00 0.  1.
         12    1    5    5    0    0  0.44209813637E+02  0.25591714866E+02  0.16723375452E+03  0.17486157995E+03  0.00000000000E+00 0. -1.
         13    1    3    3    0    0  0.61598622659E+02  0.63117923397E+01 -0.26903256067E+03  0.27606656396E+03  0.00000000000E+00 0. -1.
        -14    1    3    3    0    0 -0.16128721193E+02  0.36307712675E+02 -0.23255723239E+03  0.23592636983E+03  0.00000000000E+00 0.  1.
          5    1    4    4  501    0 -0.78996291770E+02  0.47908307959E+01  0.10255446452E+03  0.12960808912E+03  0.41800000000E+01 0.  1.
         -5    1    4    4    0  501 -0.91855165917E+00 -0.48248109585E+02 -0.11619670544E+02  0.49811775307E+02  0.41800000000E+01 0.  1.
</event>
<event>
11    1  0.5813833E-009  0.1410088E+03  0.7561462E-02  0.1106437E+00
         22   -1    0    0    0    0  0.00000000000E+00  0.00000000000E+00  0.37644945820E+03  0.37644945820E+03  0.00000000000E+00 0. -1.
         22   -1    0    0    0    0 -0.00000000000E+00 -0.00000000000E+00 -0.18300443438E+03  0.18300443438E+03  0.00000000000E+00 0. -1.
        -24    2    1    2    0    0  0.49469070088E+02 -0.43001939308E+02 -0.60282741063E+02  0.12000570234E+03  0.80442551202E+02 0.  0.
         25    2    1    2    0    0 -0.39271075091E+02  0.51951017401E+02 -0.29908487098E+02  0.14416392345E+03  0.12509034206E+03 0.  0.
         24    2    1    2    0    0 -0.10197994996E+02 -0.89490780925E+01  0.28363625197E+03  0.29528426679E+03  0.80988824416E+02 0.  0.
        -13    1    5    5    0    0 -0.34836133368E+02 -0.21896246308E+02  0.82083664140E+02  0.91819005163E+02  0.00000000000E+00 0.  1.
         14    1    5    5    0    0  0.24638138372E+02  0.12947168216E+02  0.20155258783E+03  0.20346526163E+03  0.00000000000E+00 0. -1.
         11    1    3    3    0    0  0.63469471893E+02 -0.67797586026E+01 -0.45788509492E+02  0.78555245469E+02  0.00000000000E+00 0. -1.
        -12    1    3    3    0    0 -0.14000401806E+02 -0.36222180706E+02 -0.14494231570E+02  0.41450456868E+02  0.00000000000E+00 0.  1.
          5    1    4    4  501    0 -0.41924126738E+02 -0.24796203876E+02  0.19632431428E+02  0.52681959846E+02  0.41800000000E+01 0.  1.
         -5    1    4    4    0  501  0.26530516469E+01  0.76747221276E+02 -0.49540918526E+02  0.91481963605E+02  0.41800000000E+01 0.  1.
</event>
<event>
11    1  0.1387141E-008  0.1707089E+03  0.7561462E-02  0.1077416E+00
         22   -1    0    0    0    0  0.00000000000E+00  0.00000000000E+00  0.18755647336E+04  0.18755647336E+04  0.00000000000E+00 0.  1.
         22   -1    0    0    0    0 -0.00000000000E+00 -0.00000000000E+00 -0.28460834699E+03  0.28460834699E+03  0.00000000000E+00 0. -1.
         24    2    1    2    0    0  0.49519618907E+02  0.70286766326E+02 -0.11273547367E+03  0.16308888488E+03  0.80599473769E+02 0.  0.
         25    2    1    2    0    0 -0.15771848321E+03 -0.29159931665E+02 -0.72091420237E+02  0.21580230702E+03  0.12509213119E+03 0.  0.
        -24    2    1    2    0    0  0.10819886430E+03 -0.41126834661E+02  0.17757832805E+04  0.17812818886E+04  0.78488832355E+02 0.  0.
        -13    1    3    3    0    0 -0.20787770228E+02  0.25801356527E+02 -0.20921240600E+02  0.39185963021E+02  0.00000000000E+00 0.  1.
         14    1    3    3    0    0  0.70307389134E+02  0.44485409799E+02 -0.91814233070E+02  0.12390292186E+03  0.00000000000E+00 0. -1.
         11    1    5    5    0    0  0.27770314898E+02 -0.34831912037E+02  0.29938075989E+03  0.30267687701E+03  0.00000000000E+00 0. -1.
        -12    1    5    5    0    0  0.80428549405E+02 -0.62949226243E+01  0.14764025206E+04  0.14786050116E+04  0.00000000000E+00 0.  1.
          5    1    4    4  501    0 -0.36446096900E+02 -0.80111493847E+01  0.35931120209E+02  0.51971283352E+02  0.41800000000E+01 0.  1.
         -5    1    4    4    0  501 -0.12127238631E+03 -0.21148782280E+02 -0.10802254045E+03  0.16383102367E+03  0.41800000000E+01 0.  1.
</event>
<event>
11    1  0.5813833E-009  0.1612367E+03  0.7561462E-02  0.1085920E+00
         22   -1    0    0    0    0  0.00000000000E+00  0.00000000000E+00  0.14586076205E+04  0.14586076205E+04  0.00000000000E+00 0. -1.
         22   -1    0    0    0    0 -0.00000000000E+00 -0.00000000000E+00 -0.13871480192E+04  0.13871480192E+04  0.00000000000E+00 0.  1.
        -24    2    1    2    0    0 -0.29879169778E+02 -0.30534475816E+02 -0.12269162018E+04  0.12303063794E+04  0.80655451070E+02 0.  0.
         25    2    1    2    0    0 -0.19927387798E+02  0.11896327888E+03 -0.10675029807E+03  0.20394215775E+03  0.12508962811E+03 0.  0.
         24    2    1    2    0    0  0.49806557576E+02 -0.88428803067E+02  0.14051261012E+04  0.14115071026E+04  0.87593345390E+02 0.  0.
        -11    1    5    5    0    0  0.39918269154E+01 -0.30455584456E+02  0.10813500242E+03  0.11241288207E+03  0.00000000000E+00 0.  1.
         12    1    5    5    0    0  0.45814730660E+02 -0.57973218611E+02  0.12969910987E+04  0.12990942205E+04  0.00000000000E+00 0. -1.
         11    1    3    3    0    0  0.29359687935E+01  0.59053466104E+01 -0.78427062740E+01  0.10247003125E+02  0.00000000000E+00 0. -1.
        -12    1    3    3    0    0 -0.32815138571E+02 -0.36439822427E+02 -0.12190734955E+04  0.12200593762E+04  0.00000000000E+00 0.  1.
          5    1    4    4  501    0 -0.15329445993E+01  0.83568809492E+01  0.27437315860E+02  0.29025266234E+02  0.41800000000E+01 0.  1.
         -5    1    4    4    0  501 -0.18394443199E+02  0.11060639793E+03 -0.13418761393E+03  0.17491689151E+03  0.41800000000E+01 0.  1.
</event>
<event>
11    1  0.5813833E-009  0.2085926E+03  0.7561462E-02  0.1048608E+00
         22   -1    0    0    0    0  0.00000000000E+00  0.00000000000E+00  0.27675363074E+04  0.27675363074E+04  0.00000000000E+00 0. -1.
         22   -1    0    0    0    0 -0.00000000000E+00 -0.00000000000E+00 -0.63273258723E+03  0.63273258723E+03  0.00000000000E+00 0.  1.
         24    2    1    2    0    0 -0.24490512450E+02 -0.40673330876E+02 -0.50593972857E+03  0.51468357546E+03  0.81670489538E+02 0.  0.
         25    2    1    2    0    0  0.16105488521E+03 -0.55461524167E+02 -0.25681461400E+02  0.21288692219E+03  0.12508655989E+03 0.  0.
        -24    2    1    2    0    0 -0.13656437276E+03  0.96134855043E+02  0.26664249102E+04  0.26726983970E+04  0.74854402575E+02 0.  0.
        -11    1    3    3    0    0 -0.61232536563E+00 -0.54869623678E+02 -0.43583100564E+03  0.43927180199E+03  0.00000000000E+00 0.  1.
         12    1    3    3    0    0 -0.23878187084E+02  0.14196292802E+02 -0.70108722929E+02  0.75411773473E+02  0.00000000000E+00 0. -1.
         13    1    5    5    0    0 -0.89506042588E+02  0.49554616587E+02  0.20863077463E+04  0.20888147366E+04  0.00000000000E+00 0. -1.
        -14    1    5    5    0    0 -0.47058330172E+02  0.46580238456E+02  0.58011716389E+03  0.58388366041E+03  0.00000000000E+00 0.  1.
          5    1    4    4  501    0  0.64606365850E+02  0.13558305840E+02 -0.60048313954E+02  0.89336904884E+02  0.41800000000E+01 0.  1.
         -5    1    4    4    0  501  0.96448519359E+02 -0.69019830007E+02  0.34366852554E+02  0.12355001730E+03  0.41800000000E+01 0.  1.
</event>
<event>
11    1  0.5813833E-009  0.1407068E+03  0.7561462E-02  0.1106772E+00
         22   -1    0    0    0    0  0.00000000000E+00  0.00000000000E+00  0.57353116440E+03  0.57353116440E+03  0.00000000000E+00 0. -1.
         22   -1    0    0    0    0 -0.00000000000E+00 -0.00000000000E+00 -0.99222544971E+02  0.99222544971E+02  0.00000000000E+00 0. -1.
         24    2    1    2    0    0 -0.23782324477E+02  0.13082612498E+02 -0.32628998477E+02  0.91308914343E+02  0.80844991122E+02 0.  0.
         25    2    1    2    0    0  0.70645116380E+02  0.28358518728E+02  0.14639732624E+03  0.20706008984E+03  0.12508703220E+03 0.  0.
        -24    2    1    2    0    0 -0.46862791903E+02 -0.41441131227E+02  0.36054029167E+03  0.37438470519E+03  0.79127219948E+02 0.  0.
        -13    1    3    3    0    0 -0.76330406075E+01 -0.32010233596E+02  0.76985169826E+00  0.32916728808E+02  0.00000000000E+00 0.  1.
         14    1    3    3    0    0 -0.16149283870E+02  0.45092846095E+02 -0.33398850175E+02  0.58392185534E+02  0.00000000000E+00 0. -1.
         11    1    5    5    0    0 -0.52983968520E+02 -0.46178150286E+02  0.35981022842E+03  0.36661031485E+03  0.00000000000E+00 0. -1.
        -12    1    5    5    0    0  0.61211766163E+01  0.47370190590E+01  0.73006325801E+00  0.77743903358E+01  0.00000000000E+00 0.  1.
          5    1    4    4  501    0  0.34201356627E+02  0.42458614942E+02 -0.82114293752E+00  0.54686501567E+02  0.41800000000E+01 0. -1.
         -5    1    4    4    0  501  0.36443759753E+02 -0.14100096214E+02  0.14721846917E+03  0.15237358828E+03  0.41800000000E+01 0. -1.
</event>
<event>
11    1  0.5813833E-009  0.1489028E+03  0.7561462E-02  0.1098005E+00
         22   -1    0    0    0    0  0.00000000000E+00  0.00000000000E+00  0.13498072823E+04  0.13498072823E+04  0.00000000000E+00 0. -1.
         22   -1    0    0    0    0 -0.00000000000E+00 -0.00000000000E+00 -0.76098389609E+02  0.76098389609E+02  0.00000000000E+00 0. -1.
        -24    2    1    2    0    0 -0.57028938682E+00 -0.78518305613E+02 -0.10813710214E+02  0.11233259687E+03  0.79600417363E+02 0.  0.
         25    2    1    2    0    0  0.11048001013E+02  0.10518217279E+03  0.54039335767E+03  0.56467496310E+03  0.12508990824E+03 0.  0.
         24    2    1    2    0    0 -0.10477711627E+02 -0.26663867177E+02  0.74412924524E+03  0.74889811194E+03  0.79368156044E+02 0.  0.
        -13    1    5    5    0    0  0.24715821163E+02 -0.27944931400E+02  0.18863891607E+03  0.19229256788E+03  0.00000000000E+00 0.  1.
         14    1    5    5    0    0 -0.35193532789E+02  0.12810642227E+01  0.55549032917E+03  0.55660554406E+03  0.00000000000E+00 0. -1.
         11    1    3    3    0    0 -0.12389923745E+02 -0.84328595079E+02  0.11915941966E+02  0.86062836529E+02  0.00000000000E+00 0. -1.
        -12    1    3    3    0    0  0.11819634359E+02  0.58102894663E+01 -0.22729652180E+02  0.26269760340E+02  0.00000000000E+00 0.  1.
          5    1    4    4  501    0  0.53155204459E+02  0.10882004632E+03  0.41072100400E+03  0.42822481686E+03  0.41800000000E+01 0.  1.
         -5    1    4    4    0  501 -0.42107203446E+02 -0.36378735285E+01  0.12967235366E+03  0.13645014624E+03  0.41800000000E+01 0.  1.
</event>
<event>
11    1  0.5813833E-009  0.1320668E+03  0.7561462E-02  0.1116755E+00
         22   -1    0    0    0    0  0.00000000000E+00  0.00000000000E+00  0.39547397139E+03  0.39547397139E+03  0.00000000000E+00 0.  1.
         22   -1    0    0    0    0 -0.00000000000E+00 -0.00000000000E+00 -0.54913867800E+03  0.54913867800E+03  0.00000000000E+00 0. -1.
        -24    2    1    2    0    0  0.38701069613E+02 -0.14282060217E+01 -0.37711717653E+03  0.38713189965E+03  0.78446990588E+02 0.  0.
         25    2    1    2    0    0 -0.65060440615E+02 -0.28722796281E+02 -0.13044534240E+03  0.19421870646E+03  0.12508820338E+03 0.  0.
         24    2    1    2    0    0  0.26359371002E+02  0.30151002303E+02  0.35389781232E+03  0.36326204329E+03  0.71496511481E+02 0.  0.
        -13    1    5    5    0    0  0.39144476609E+02  0.24632983319E+02  0.11490314983E+03  0.12386205132E+03  0.00000000000E+00 0.  1.
         14    1    5    5    0    0 -0.12785105607E+02  0.55180189843E+01  0.23899466249E+03  0.23939999197E+03  0.00000000000E+00 0. -1.
         11    1    3    3    0    0  0.40900486042E+02 -0.48214973030E+01 -0.37996219826E+03  0.38218760930E+03  0.00000000000E+00 0. -1.
        -12    1    3    3    0    0 -0.21994164287E+01  0.33932912813E+01  0.28450217369E+01  0.49442903464E+01  0.00000000000E+00 0.  1.
          5    1    4    4  501    0 -0.17545736273E+02 -0.74775915552E+02 -0.79341940852E+02  0.11050749471E+03  0.41800000000E+01 0. -1.
         -5    1    4    4    0  501 -0.47514704343E+02  0.46053119270E+02 -0.51103401547E+02  0.83711211752E+02  0.41800000000E+01 0. -1.
</event>
<event>
11    1  0.5813833E-009  0.1373677E+03  0.7561462E-02  0.1110534E+00
         22   -1    0    0    0    0  0.00000000000E+00  0.00000000000E+00  0.53722604434E+03  0.53722604434E+03  0.00000000000E+00 0. -1.
         22   -1    0    0    0    0 -0.00000000000E+00 -0.00000000000E+00 -0.12297471998E+04  0.12297471998E+04  0.00000000000E+00 0. -1.
        -24    2    1    2    0    0 -0.79032082716E+01 -0.32855041945E+02 -0.10498676941E+04  0.10535979612E+04  0.81881464350E+02 0.  0.
         25    2    1    2    0    0  0.36973062706E+02  0.80611678508E+02 -0.13932102785E+03  0.20717776238E+03  0.12508807435E+03 0.  0.
         24    2    1    2    0    0 -0.29069854434E+02 -0.47756636563E+02  0.49666756645E+03  0.50619752062E+03  0.80196667871E+02 0.  0.
        -11    1    5    5    0    0  0.27196089909E+02 -0.19373788248E+02  0.21406668141E+03  0.21665529088E+03  0.00000000000E+00 0.  1.
         12    1    5    5    0    0 -0.56265944344E+02 -0.28382848314E+02  0.28260088505E+03  0.28954222974E+03  0.00000000000E+00 0. -1.
         13    1    3    3    0    0 -0.12385358280E+02 -0.48606183435E+02 -0.35382952689E+03  0.35736716730E+03  0.00000000000E+00 0. -1.
        -14    1    3    3    0    0  0.44821500079E+01  0.15751141490E+02 -0.69603816719E+03  0.69623079385E+03  0.00000000000E+00 0.  1.
          5    1    4    4  501    0  0.27772638642E+01 -0.31600669537E+02 -0.51297304689E+02  0.60458261455E+02  0.41800000000E+01 0. -1.
         -5    1    4    4    0  501  0.34195798842E+02  0.11221234804E+03 -0.88023723162E+02  0.14671950092E+03  0.41800000000E+01 0. -1.
</event>
<event>
11    1  0.5813833E-009  0.1411179E+03  0.7561462E-02  0.1106316E+00
         22   -1    0    0    0    0  0.00000000000E+00  0.00000000000E+00  0.65614524413E+03  0.65614524413E+03  0.00000000000E+00 0.  1.
         22   -1    0    0    0    0 -0.00000000000E+00 -0.00000000000E+00 -0.19855895321E+03  0.19855895321E+03  0.00000000000E+00 0. -1.
        -24    2    1    2    0    0 -0.29409519729E+02  0.13847002069E+02 -0.51280638232E+02  0.99482965482E+02  0.78806708131E+02 0.  0.
         25    2    1    2    0    0  0.16353564141E+02  0.50663504198E+02 -0.81514676498E+02  0.15851181959E+03  0.12508846768E+03 0.  0.
         24    2    1    2    0    0  0.13055955589E+02 -0.64510506267E+02  0.59038160566E+03  0.59670941227E+03  0.56388110488E+02 0.  0.
        -13    1    5    5    0    0  0.23316366671E+02 -0.33836333125E+02  0.47807903136E+03  0.47984175581E+03  0.00000000000E+00 0.  1.
         14    1    5    5    0    0 -0.10260411083E+02 -0.30674173142E+02  0.11230257429E+03  0.11686765646E+03  0.00000000000E+00 0. -1.
         11    1    3    3    0    0 -0.30907322104E+02 -0.10671058315E+02 -0.63964851521E+02  0.71837568691E+02  0.00000000000E+00 0. -1.
        -12    1    3    3    0    0  0.14978023748E+01  0.24518060384E+02  0.12684213289E+02  0.27645396791E+02  0.00000000000E+00 0.  1.
          5    1    4    4  501    0  0.17461342731E+02  0.89887099022E+02 -0.36534654708E+02  0.98675439980E+02  0.41800000000E+01 0.  1.
         -5    1    4    4    0  501 -0.11077785905E+01 -0.39223594825E+02 -0.44980021790E+02  0.59836379608E+02  0.41800000000E+01 0.  1.
</event>
<event>
11    1  0.5813833E-009  0.1310865E+03  0.7561462E-02  0.1117941E+00
         22   -1    0    0    0    0  0.00000000000E+00  0.00000000000E+00  0.19328167306E+04  0.19328167306E+04  0.00000000000E+00 0.  1.
         22   -1    0    0    0    0 -0.00000000000E+00 -0.00000000000E+00 -0.18671188431E+02  0.18671188431E+02  0.00000000000E+00 0. -1.
        -24    2    1    2    0    0  0.30440738947E+02  0.10540761288E+02  0.15975549475E+03  0.18010193393E+03  0.76662521932E+02 0.  0.
         25    2    1    2    0    0  0.37877718210E+01  0.19712757792E+02  0.59956692654E+03  0.61280597344E+03  0.12509085355E+03 0.  0.
         24    2    1    2    0    0 -0.34228510768E+02 -0.30253519080E+02  0.11548231209E+04  0.11585800116E+04  0.81267069163E+02 0.  0.
        -11    1    5    5    0    0 -0.52251527792E+02  0.20221987052E+00  0.48135066261E+03  0.48417840044E+03  0.00000000000E+00 0.  1.
         12    1    5    5    0    0  0.18023017025E+02 -0.30455738951E+02  0.67347245824E+03  0.67440161120E+03  0.00000000000E+00 0. -1.
         13    1    3    3    0    0  0.30904381015E+02  0.36688202130E+02  0.59168535622E+02  0.76170995458E+02  0.00000000000E+00 0. -1.
        -14    1    3    3    0    0 -0.46364206844E+00 -0.26147440842E+02  0.10058695912E+03  0.10393093848E+03  0.00000000000E+00 0.  1.
          5    1    4    4  501    0 -0.97319496153E+01  0.55505655004E+01  0.59084842171E+03  0.59096941499E+03  0.41800000000E+01 0. -1.
         -5    1    4    4    0  501  0.13519721436E+02  0.14162192292E+02  0.87185048351E+01  0.21836558446E+02  0.41800000000E+01 0. -1.
</event>
<event>
11    1  0.5813833E-009  0.1403853E+03  0.7561462E-02  0.1107129E+00
         22   -1    0    0    0    0  0.00000000000E+00  0.00000000000E+00  0.25585582188E+04  0.25585582188E+04  0.00000000000E+00 0.  1.
         22   -1    0    0    0    0 -0.00000000000E+00 -0.00000000000E+00 -0.93254833753E+03  0.93254833753E+03  0.00000000000E+00 0.  1.
        -24    2    1    2    0    0 -0.38770309512E+01  0.53573642424E+02 -0.88398304736E+03  0.88915797922E+03  0.79314043290E+02 0.  0.
         25    2    1    2    0    0  0.13942683846E+02 -0.11520992937E+03  0.11725768294E+03  0.20703903703E+03  0.12509225551E+03 0.  0.
         24    2    1    2    0    0 -0.10065652895E+02  0.61636286947E+02  0.23927352457E+04  0.23949095401E+04  0.80680852437E+02 0.  0.
        -13    1    5    5    0    0  0.25490951371E+02  0.56721850041E+02  0.11740292380E+04  0.11756750438E+04  0.00000000000E+00 0.  1.
         14    1    5    5    0    0 -0.35556604265E+02  0.49144369063E+01  0.12187060077E+04  0.12192344963E+04  0.00000000000E+00 0. -1.
         11    1    3    3    0    0 -0.70565639571E+01  0.29220007997E+01 -0.60084113280E+01  0.97177255693E+01  0.00000000000E+00 0. -1.
        -12    1    3    3    0    0  0.31795330060E+01  0.50651641624E+02 -0.87797463603E+03  0.87944025366E+03  0.00000000000E+00 0.  1.
          5    1    4    4  501    0 -0.67387853511E+01 -0.11640914762E+03  0.34568723090E+02  0.12169211106E+03  0.41800000000E+01 0.  1.
         -5    1    4    4    0  501  0.20681469197E+02  0.11992182479E+01  0.82688959850E+02  0.85346925976E+02  0.41800000000E+01 0.  1.
</event>
<event>
11    1  0.5813833E-009  0.1332137E+03  0.7561462E-02  0.1115382E+00
         22   -1    0    0    0    0  0.00000000000E+00  0.00000000000E+00  0.26097468048E+03  0.26097468048E+03  0.00000000000E+00 0. -1.
         22   -1    0    0    0    0 -0.00000000000E+00 -0.00000000000E+00 -0.43283098237E+03  0.43283098237E+03  0.00000000000E+00 0.  1.
        -24    2    1    2    0    0 -0.62569036386E+00 -0.49958008934E+01 -0.35006656688E+03  0.35891363155E+03  0.79038244843E+02 0.  0.
         25    2    1    2    0    0  0.25976484912E+02 -0.33830178350E+02 -0.18098231337E+01  0.13217180830E+03  0.12508738032E+03 0.  0.
         24    2    1    2    0    0 -0.25350794549E+02  0.38825979244E+02  0.18002008812E+03  0.20272022300E+03  0.80858748679E+02 0.  0.
        -13    1    5    5    0    0 -0.44959961108E+02 -0.29884484048E+01  0.68231863533E+02  0.81767451519E+02  0.00000000000E+00 0.  1.
         14    1    5    5    0    0  0.19609166559E+02  0.41814427649E+02  0.11178822459E+03  0.12095277148E+03  0.00000000000E+00 0. -1.
         13    1    3    3    0    0  0.61744296901E+01 -0.12696078038E+02 -0.71171246548E+01  0.15810358721E+02  0.00000000000E+00 0. -1.
        -14    1    3    3    0    0 -0.68001200539E+01  0.77002771446E+01 -0.34294944223E+03  0.34310327283E+03  0.00000000000E+00 0.  1.
          5    1    4    4  501    0  0.24220491128E+02  0.10448304277E+02  0.54323275180E+02  0.60533378222E+02  0.41800000000E+01 0.  1.
         -5    1    4    4    0  501  0.17559937846E+01 -0.44278482627E+02 -0.56133098313E+02  0.71638430079E+02  0.41800000000E+01 0.  1.
</event>
<event>
11    1  0.5813833E-009  0.1296489E+03  0.7561462E-02  0.1119701E+00
         22   -1    0    0    0    0  0.00000000000E+00  0.00000000000E+00  0.30176470060E+03  0.30176470060E+03  0.00000000000E+00 0. -1.
         22   -1    0    0    0    0 -0.00000000000E+00 -0.00000000000E+00 -0.52232794846E+03  0.52232794846E+03  0.00000000000E+00 0.  1.
        -24    2    1    2    0    0 -0.16646088935E+01 -0.32237728280E+02 -0.38411881170E+03  0.39359562936E+03  0.79550084259E+02 0.  0.
         25    2    1    2    0    0 -0.23149258665E+02  0.69988201317E+01 -0.93864408876E+02  0.15825065189E+03  0.12509144620E+03 0.  0.
         24    2    1    2    0    0  0.24813867558E+02  0.25238908149E+02  0.25741997272E+03  0.27224636780E+03  0.81242303748E+02 0.  0.
        -13    1    5    5    0    0 -0.26364850914E+02  0.24756307074E+02  0.84580091238E+02  0.91987890168E+02  0.00000000000E+00 0.  1.
         14    1    5    5    0    0  0.51178718472E+02  0.48260107441E+00  0.17283988148E+03  0.18025847763E+03  0.00000000000E+00 0. -1.
         11    1    3    3    0    0  0.28541217559E+02  0.12721265145E+02 -0.12190812278E+03  0.12584920376E+03  0.00000000000E+00 0. -1.
        -12    1    3    3    0    0 -0.30205826452E+02 -0.44958993426E+02 -0.26221068892E+03  0.26774642561E+03  0.00000000000E+00 0.  1.
          5    1    4    4  501    0 -0.56542590466E+02 -0.14450113113E+02 -0.10193639431E+03  0.11753455317E+03  0.41800000000E+01 0. -1.
         -5    1    4    4    0  501  0.33393331802E+02  0.21448933245E+02  0.80719854309E+01  0.40716098720E+02  0.41800000000E+01 0. -1.
</event>
<event>
11    1  0.5813833E-009  0.2147658E+03  0.7561462E-02  0.1044547E+00
         22   -1    0    0    0    0  0.00000000000E+00  0.00000000000E+00  0.36318805658E+03  0.36318805658E+03  0.00000000000E+00 0. -1.
         22   -1    0    0    0    0 -0.00000000000E+00 -0.00000000000E+00 -0.42811098728E+03  0.42811098728E+03  0.00000000000E+00 0. -1.
        -24    2    1    2    0    0 -0.15119479991E+03  0.92073095372E+02 -0.11242345386E+03  0.23011419854E+03  0.94742751596E+02 0.  0.
         25    2    1    2    0    0  0.14151870183E+03 -0.99238404100E+02 -0.20513094021E+03  0.29597635898E+03  0.12508996213E+03 0.  0.
         24    2    1    2    0    0  0.96760980718E+01  0.71653087276E+01  0.25263146337E+03  0.26520848635E+03  0.79799225720E+02 0.  0.
        -11    1    5    5    0    0 -0.16211235447E+02 -0.18380724893E+02  0.26205278039E+02  0.35879963760E+02  0.00000000000E+00 0.  1.
         12    1    5    5    0    0  0.25887333519E+02  0.25546033621E+02  0.22642618533E+03  0.22932852259E+03  0.00000000000E+00 0. -1.
         13    1    3    3    0    0 -0.18843337268E+02  0.10549572232E+02 -0.63624944012E+02  0.67190016626E+02  0.00000000000E+00 0. -1.
        -14    1    3    3    0    0 -0.13235146264E+03  0.81523523141E+02 -0.48798509849E+02  0.16292418191E+03  0.00000000000E+00 0.  1.
          5    1    4    4  501    0  0.49507500043E+02  0.10256776710E+02 -0.11802108461E+03  0.12846261262E+03  0.41800000000E+01 0. -1.
         -5    1    4    4    0  501  0.92011201790E+02 -0.10949518081E+03 -0.87109855594E+02  0.16751374635E+03  0.41800000000E+01 0. -1.
</event>
<event>
11    1  0.5813833E-009  0.1781841E+03  0.7561462E-02  0.1071121E+00
         22   -1    0    0    0    0  0.00000000000E+00  0.00000000000E+00  0.11785074650E+03  0.11785074650E+03  0.00000000000E+00 0.  1.
         22   -1    0    0    0    0 -0.00000000000E+00 -0.00000000000E+00 -0.12170598983E+04  0.12170598983E+04  0.00000000000E+00 0.  1.
        -24    2    1    2    0    0  0.30317418065E+02 -0.42890953129E+00 -0.97669176250E+03  0.98050183358E+03  0.80856149551E+02 0.  0.
         25    2    1    2    0    0  0.81729898986E+02 -0.77811735199E+02 -0.94695014054E+02  0.19325933983E+03  0.12509030426E+03 0.  0.
         24    2    1    2    0    0 -0.11204731705E+03  0.78240644730E+02 -0.27822375196E+02  0.16114947135E+03  0.80739505868E+02 0.  0.
        -11    1    5    5    0    0 -0.10424986461E+03  0.71194571632E+02 -0.50647144657E+02  0.13602144891E+03  0.00000000000E+00 0.  1.
         12    1    5    5    0    0 -0.77974524382E+01  0.70460730984E+01  0.22824769462E+02  0.25128022437E+02  0.00000000000E+00 0. -1.
         11    1    3    3    0    0 -0.27346235381E+01 -0.29648843997E+01 -0.88146263445E+00  0.41286416379E+01  0.00000000000E+00 0. -1.
        -12    1    3    3    0    0  0.33052041603E+02  0.25359748684E+01 -0.97581029987E+03  0.97637319195E+03  0.00000000000E+00 0.  1.
          5    1    4    4  501    0 -0.29745739131E+02 -0.32733817848E+02 -0.44531285522E+02  0.62903256017E+02  0.41800000000E+01 0.  1.
         -5    1    4    4    0  501  0.11147563812E+03 -0.45077917351E+02 -0.50163728532E+02  0.13035608381E+03  0.41800000000E+01 0.  1.
</event>
<event>
11    1  0.5813833E-009  0.1512503E+03  0.7561462E-02  0.1095608E+00
         22   -1    0    0    0    0  0.00000000000E+00  0.00000000000E+00  0.61427029055E+03  0.61427029055E+03  0.00000000000E+00 0. -1.
         22   -1    0    0    0    0 -0.00000000000E+00 -0.00000000000E+00 -0.87668914280E+03  0.87668914280E+03  0.00000000000E+00 0.  1.
         24    2    1    2    0    0  0.28652316755E+01  0.19756523629E+02 -0.59941447548E+03  0.60462247558E+03  0.76629594673E+02 0.  0.
         25    2    1    2    0    0  0.12959506537E+02 -0.10289263630E+03 -0.24428438207E+03  0.29338758851E+03  0.12508626764E+03 0.  0.
        -24    2    1    2    0    0 -0.15824738212E+02  0.83136112675E+02  0.58128000531E+03  0.59294936926E+03  0.80873199285E+02 0.  0.
        -11    1    3    3    0    0 -0.38807011177E+01 -0.22099610188E+02 -0.40583185199E+03  0.40645165112E+03  0.00000000000E+00 0.  1.
         12    1    3    3    0    0  0.67459327932E+01  0.41856133817E+02 -0.19358262349E+03  0.19817082446E+03  0.00000000000E+00 0. -1.
         13    1    5    5    0    0  0.31693771869E+02  0.45099724436E+02  0.31642467780E+03  0.32119006373E+03  0.00000000000E+00 0. -1.
        -14    1    5    5    0    0 -0.47518510081E+02  0.38036388240E+02  0.26485532751E+03  0.27175930553E+03  0.00000000000E+00 0.  1.
          5    1    4    4  501    0  0.63020340492E+02 -0.23983681104E+02 -0.83920473323E+02  0.10773531695E+03  0.41800000000E+01 0.  1.
         -5    1    4    4    0  501 -0.50060833955E+02 -0.78908955201E+02 -0.16036390875E+03  0.18565227156E+03  0.41800000000E+01 0.  1.
</event>
<event>
11    1  0.5813833E-009  0.1282956E+03  0.7561462E-02  0.1121381E+00
         22   -1    0    0    0    0  0.00000000000E+00  0.00000000000E+00  0.12565086881E+03  0.12565086881E+03  0.00000000000E+00 0. -1.
         22   -1    0    0    0    0 -0.00000000000E+00 -0.00000000000E+00 -0.73371130589E+03  0.73371130589E+03  0.00000000000E+00 0.  1.
        -24    2    1    2    0    0  0.23589140430E+02  0.13615220304E+02 -0.59434571534E+03  0.60038201934E+03  0.80435800696E+02 0.  0.
         25    2    1    2    0    0 -0.52741114475E+02  0.44487030566E+01 -0.77783016735E+02  0.15652698934E+03  0.12509630124E+03 0.  0.
         24    2    1    2    0    0  0.29151974045E+02 -0.18063923360E+02  0.64068295002E+02  0.10245316602E+03  0.72220231825E+02 0.  0.
        -11    1    5    5    0    0  0.90670196319E+01  0.27002170165E+01 -0.15301226787E+02  0.17989707005E+02  0.00000000000E+00 0.  1.
         12    1    5    5    0    0  0.20084954413E+02 -0.20764140377E+02  0.79369521789E+02  0.84463459012E+02  0.00000000000E+00 0. -1.
         11    1    3    3    0    0 -0.14753813455E+02 -0.23664441690E+02 -0.12940100462E+03  0.13237182785E+03  0.00000000000E+00 0. -1.
        -12    1    3    3    0    0  0.38342953885E+02  0.37279661994E+02 -0.46494471072E+03  0.46801019149E+03  0.00000000000E+00 0.  1.
          5    1    4    4  501    0 -0.84942430652E+02 -0.11961297418E+02 -0.83399958061E+02  0.11971346861E+03  0.41800000000E+01 0. -1.
         -5    1    4    4    0  501  0.32201316177E+02  0.16410000474E+02  0.56169413259E+01  0.36813520736E+02  0.41800000000E+01 0. -1.
</event>
<event>
11    1  0.5813833E-009  0.1665892E+03  0.7561462E-02  0.1081039E+00
         22   -1    0    0    0    0  0.00000000000E+00  0.00000000000E+00  0.20780435922E+03  0.20780435922E+03  0.00000000000E+00 0.  1.
         22   -1    0    0    0    0 -0.00000000000E+00 -0.00000000000E+00 -0.38620013184E+03  0.38620013184E+03  0.00000000000E+00 0. -1.
         24    2    1    2    0    0 -0.36432317831E+01 -0.17258163386E+02 -0.20529246139E+03  0.22091985398E+03  0.79683560645E+02 0.  0.
         25    2    1    2    0    0 -0.38221426923E+02 -0.87731756679E+02 -0.99775659729E+02  0.18644199632E+03  0.12509075550E+03 0.  0.
        -24    2    1    2    0    0  0.41864658706E+02  0.10498992006E+03  0.12667234850E+03  0.18664264076E+03  0.77550361117E+02 0.  0.
        -13    1    3    3    0    0 -0.13684708619E+02  0.23062897016E+02 -0.27792823392E+02  0.38621360681E+02  0.00000000000E+00 0.  1.
         14    1    3    3    0    0  0.10041476836E+02 -0.40321060402E+02 -0.17749963800E+03  0.18229849330E+03  0.00000000000E+00 0. -1.
         13    1    5    5    0    0 -0.81349144664E+01  0.33252689683E+02  0.19076238400E+01  0.34286400120E+02  0.00000000000E+00 0. -1.
        -14    1    5    5    0    0  0.49999573172E+02  0.71737230382E+02  0.12476472466E+03  0.15235624064E+03  0.00000000000E+00 0.  1.
          5    1    4    4  501    0 -0.15623660456E+02 -0.87308367997E+01  0.28580627001E+02  0.33980154753E+02  0.41800000000E+01 0.  1.
         -5    1    4    4    0  501 -0.22597766467E+02 -0.79000919879E+02 -0.12835628673E+03  0.15246184157E+03  0.41800000000E+01 0.  1.
</event>
<event>
11    1  0.5813833E-009  0.1372869E+03  0.7561462E-02  0.1110626E+00
         22   -1    0    0    0    0  0.00000000000E+00  0.00000000000E+00  0.92639344887E+03  0.92639344887E+03  0.00000000000E+00 0.  1.
         22   -1    0    0    0    0 -0.00000000000E+00 -0.00000000000E+00 -0.29131466564E+03  0.29131466564E+03  0.00000000000E+00 0.  1.
        -24    2    1    2    0    0  0.32451414566E+02  0.44990117674E+02 -0.17984677304E+03  0.20548266244E+03  0.82468526075E+02 0.  0.
         25    2    1    2    0    0  0.73782874623E+01 -0.75770489352E+02 -0.40256967454E+02  0.15186782843E+03  0.12509039812E+03 0.  0.
         24    2    1    2    0    0 -0.39829702029E+02  0.30780371677E+02  0.85518252373E+03  0.86035762363E+03  0.79650833122E+02 0.  0.
        -11    1    5    5    0    0 -0.14339239695E+02  0.43017077319E+02  0.22406950807E+03  0.22861152023E+03  0.00000000000E+00 0.  1.
         12    1    5    5    0    0 -0.25490462334E+02 -0.12236705642E+02  0.63111301565E+03  0.63174610340E+03  0.00000000000E+00 0. -1.
         11    1    3    3    0    0  0.39094399240E+02  0.39327300804E+02 -0.47983923471E+02  0.73331204491E+02  0.00000000000E+00 0. -1.
        -12    1    3    3    0    0 -0.66429846741E+01  0.56628168702E+01 -0.13186284957E+03  0.13215145794E+03  0.00000000000E+00 0.  1.
          5    1    4    4  501    0 -0.55718262835E+02 -0.48630000517E+02 -0.37438197440E+02  0.82996944469E+02  0.41800000000E+01 0. -1.
         -5    1    4    4    0  501  0.63096550298E+02 -0.27140488835E+02 -0.28187700138E+01  0.68870883965E+02  0.41800000000E+01 0. -1.
</event>
<event>
11    1  0.5813833E-009  0.1561340E+03  0.7561462E-02  0.1090771E+00
         22   -1    0    0    0    0  0.00000000000E+00  0.00000000000E+00  0.70978994452E+03  0.70978994452E+03  0.00000000000E+00 0. -1.
         22   -1    0    0    0    0 -0.00000000000E+00 -0.00000000000E+00 -0.12581409993E+03  0.12581409993E+03  0.00000000000E+00 0.  1.
        -24    2    1    2    0    0  0.35992498364E+02  0.56837985619E+02 -0.66160639689E+02  0.12378314220E+03  0.80118783704E+02 0.  0.
         25    2    1    2    0    0  0.46922467562E+02 -0.98028899608E+02  0.33784128332E+03  0.37629348243E+03  0.12509464051E+03 0.  0.
         24    2    1    2    0    0 -0.82914965926E+02  0.41190913990E+02  0.31229520096E+03  0.33552741981E+03  0.80490831359E+02 0.  0.
        -11    1    5    5    0    0 -0.20330137833E+02 -0.24315453788E+02  0.93099059175E+02  0.98346279119E+02  0.00000000000E+00 0.  1.
         12    1    5    5    0    0 -0.62584828093E+02  0.65506367778E+02  0.21919614178E+03  0.23718114069E+03  0.00000000000E+00 0. -1.
         13    1    3    3    0    0  0.56253421928E+02  0.15169721579E+02 -0.38129169025E+02  0.69630463606E+02  0.00000000000E+00 0. -1.
        -14    1    3    3    0    0 -0.20260923564E+02  0.41668264040E+02 -0.28031470664E+02  0.54152678598E+02  0.00000000000E+00 0.  1.
          5    1    4    4  501    0  0.48223329742E+02  0.85238528334E+01  0.53686816964E+02  0.72786621808E+02  0.41800000000E+01 0. -1.
         -5    1    4    4    0  501 -0.13008621800E+01 -0.10655275244E+03  0.28415446636E+03  0.30350686063E+03  0.41800000000E+01 0. -1.
</event>
<event>
11    1  0.5813833E-009  0.1381483E+03  0.7561462E-02  0.1109644E+00
         22   -1    0    0    0    0  0.00000000000E+00  0.00000000000E+00  0.46085595574E+03  0.46085595574E+03  0.00000000000E+00 0.  1.
         22   -1    0    0    0    0 -0.00000000000E+00 -0.00000000000E+00 -0.84730205164E+03  0.84730205164E+03  0.00000000000E+00 0.  1.
         24    2    1    2    0    0  0.42150915241E+01 -0.12832401160E+02 -0.69257321523E+03  0.69751004652E+03  0.81732300994E+02 0.  0.
         25    2    1    2    0    0 -0.15874548471E+01 -0.46236962269E+02 -0.11606445300E+03  0.17680156665E+03  0.12508980784E+03 0.  0.
        -24    2    1    2    0    0 -0.26276366770E+01  0.59069363429E+02  0.42219157233E+03  0.43384639422E+03  0.80503887244E+02 0.  0.
        -13    1    3    3    0    0 -0.74364938708E+01 -0.33322882783E+02 -0.62521487758E+03  0.62614643583E+03  0.00000000000E+00 0.  1.
         14    1    3    3    0    0  0.11651585395E+02  0.20490481623E+02 -0.67358337647E+02  0.71363610685E+02  0.00000000000E+00 0. -1.
         13    1    5    5    0    0 -0.19385286435E+02  0.18789180534E+01  0.22595402968E+02  0.29830720717E+02  0.00000000000E+00 0. -1.
        -14    1    5    5    0    0  0.16757649758E+02  0.57190445375E+02  0.39959616936E+03  0.40401567350E+03  0.00000000000E+00 0.  1.
          5    1    4    4  501    0 -0.54552943115E+02  0.19416578330E+01 -0.23187118437E+02  0.59455096493E+02  0.41800000000E+01 0. -1.
         -5    1    4    4    0  501  0.52965488267E+02 -0.48178620102E+02 -0.92877334562E+02  0.11734647015E+03  0.41800000000E+01 0. -1.
</event>
<event>
11    1  0.5813833E-009  0.1683041E+03  0.7561462E-02  0.1079517E+00
         22   -1    0    0    0    0  0.00000000000E+00  0.00000000000E+00  0.26464276182E+03  0.26464276182E+03  0.00000000000E+00 0.  1.
         22   -1    0    0    0    0 -0.00000000000E+00 -0.00000000000E+00 -0.36715541366E+03  0.36715541366E+03  0.00000000000E+00 0. -1.
        -24    2    1    2    0    0  0.47009878821E+02  0.10669479883E+03 -0.28200296762E+03  0.31520675097E+03  0.78967799158E+02 0.  0.
         25    2    1    2    0    0 -0.32786450234E+02 -0.81088745587E+02  0.49082721361E+02  0.16033320842E+03  0.12508912105E+03 0.  0.
         24    2    1    2    0    0 -0.14223428587E+02 -0.25606053246E+02  0.13040759443E+03  0.15625821610E+03  0.80947597428E+02 0.  0.
        -13    1    5    5    0    0  0.31270603465E+02 -0.12247719376E+02  0.81459738991E+02  0.88110988801E+02  0.00000000000E+00 0.  1.
         14    1    5    5    0    0 -0.45494032052E+02 -0.13358333870E+02  0.48947855436E+02  0.68147227294E+02  0.00000000000E+00 0. -1.
         11    1    3    3    0    0  0.62220543332E+02  0.61210736941E+02 -0.22097855406E+03  0.23759139648E+03  0.00000000000E+00 0. -1.
        -12    1    3    3    0    0 -0.15210664512E+02  0.45484061892E+02 -0.61024413567E+02  0.77615354488E+02  0.00000000000E+00 0.  1.
          5    1    4    4  501    0 -0.72532802155E+02 -0.32374859118E+02  0.55511984639E+02  0.96995833570E+02  0.41800000000E+01 0.  1.
         -5    1    4    4    0  501  0.39746351921E+02 -0.48713886470E+02 -0.64292632775E+01  0.63337374846E+02  0.41800000000E+01 0.  1.
</event>
<event>
11    1  0.5813833E-009  0.1945715E+03  0.7561462E-02  0.1058430E+00
         22   -1    0    0    0    0  0.00000000000E+00  0.00000000000E+00  0.12600517628E+04  0.12600517628E+04  0.00000000000E+00 0. -1.
         22   -1    0    0    0    0 -0.00000000000E+00 -0.00000000000E+00 -0.23833105000E+03  0.23833105000E+03  0.00000000000E+00 0.  1.
         24    2    1    2    0    0  0.82032377350E+02  0.18513446419E+02 -0.18631549571E+03  0.21979003797E+03  0.80759756193E+02 0.  0.
         25    2    1    2    0    0 -0.15481600264E+03 -0.13091574323E+03  0.50263768482E+03  0.55623661037E+03  0.12509035941E+03 0.  0.
        -24    2    1    2    0    0  0.72783625287E+02  0.11240229681E+03  0.70539852369E+03  0.72235616447E+03  0.79244045053E+02 0.  0.
        -13    1    3    3    0    0  0.86407850152E+02  0.98253696900E+00 -0.18160714835E+03  0.20111797105E+03  0.00000000000E+00 0.  1.
         14    1    3    3    0    0 -0.43754728022E+01  0.17530909450E+02 -0.47083473534E+01  0.18672066923E+02  0.00000000000E+00 0. -1.
         11    1    5    5    0    0  0.48554521469E+01  0.77381498911E+02  0.40751583796E+03  0.41482602375E+03  0.00000000000E+00 0. -1.
        -12    1    5    5    0    0  0.67928173140E+02  0.35020797901E+02  0.29788268573E+03  0.30753014072E+03  0.00000000000E+00 0.  1.
          5    1    4    4  501    0 -0.13813512310E+03 -0.99376791798E+02  0.25876169302E+03  0.30972914806E+03  0.41800000000E+01 0. -1.
         -5    1    4    4    0  501 -0.16680879537E+02 -0.31538951433E+02  0.24387599180E+03  0.24650746232E+03  0.41800000000E+01 0. -1.
</event>
<event>
11    1  0.5813833E-009  0.2138373E+03  0.7561462E-02  0.1045148E+00
         22   -1    0    0    0    0  0.00000000000E+00  0.00000000000E+00  0.23625509634E+03  0.23625509634E+03  0.00000000000E+00 0. -1.
         22   -1    0    0    0    0 -0.00000000000E+00 -0.00000000000E+00 -0.93668106643E+03  0.93668106643E+03  0.00000000000E+00 0. -1.
        -24    2    1    2    0    0  0.38349673126E+02 -0.16570838525E+03 -0.78186695746E+03  0.80414393041E+03  0.80009719948E+02 0.  0.
         25    2    1    2    0    0 -0.37426002161E+02  0.20619421821E+03 -0.55613206604E+01  0.24411517906E+03  0.12507809999E+03 0.  0.
         24    2    1    2    0    0 -0.92367096408E+00 -0.40485832963E+02  0.87002308020E+02  0.12467705330E+03  0.79592777187E+02 0.  0.
        -13    1    5    5    0    0 -0.33808868863E+02 -0.31112167906E+02  0.21372911145E+02  0.50673542765E+02  0.00000000000E+00 0.  1.
         14    1    5    5    0    0  0.32885197898E+02 -0.93736650569E+01  0.65629396875E+02  0.74003510536E+02  0.00000000000E+00 0. -1.
         11    1    3    3    0    0  0.17090644122E+02 -0.12028860248E+03 -0.67805040587E+03  0.68884961415E+03  0.00000000000E+00 0. -1.
        -12    1    3    3    0    0  0.21259029003E+02 -0.45419782767E+02 -0.10381655158E+03  0.11529431627E+03  0.00000000000E+00 0.  1.
          5    1    4    4  501    0  0.39499949914E+01  0.14499183141E+03  0.47923211529E+02  0.15281472521E+03  0.41800000000E+01 0. -1.
         -5    1    4    4    0  501 -0.41375997153E+02  0.61202386800E+02 -0.53484532189E+02  0.91300453854E+02  0.41800000000E+01 0. -1.
</event>
<event>
11    1  0.5813833E-009  0.2028533E+03  0.7561462E-02  0.1052524E+00
         22   -1    0    0    0    0  0.00000000000E+00  0.00000000000E+00  0.14957513304E+04  0.14957513304E+04  0.00000000000E+00 0. -1.
         22   -1    0    0    0    0 -0.00000000000E+00 -0.00000000000E+00 -0.14845488883E+03  0.14845488883E+03  0.00000000000E+00 0. -1.
        -24    2    1    2    0    0  0.10930504805E+03 -0.11815885327E+03 -0.18843874794E+02  0.18167272972E+03  0.82102259236E+02 0.  0.
         25    2    1    2    0    0 -0.11789313380E+03  0.10359824630E+03  0.16843148873E+03  0.26200861785E+03  0.12509181347E+03 0.  0.
         24    2    1    2    0    0  0.85880857549E+01  0.14560606976E+02  0.11977088276E+04  0.12005248716E+04  0.80422417157E+02 0.  0.
        -13    1    5    5    0    0  0.21447615054E+02  0.40442317187E+02  0.46539085976E+03  0.46763686078E+03  0.00000000000E+00 0.  1.
         14    1    5    5    0    0 -0.12859529300E+02 -0.25881710211E+02  0.73231796786E+03  0.73288801086E+03  0.00000000000E+00 0. -1.
         11    1    3    3    0    0  0.96427728468E+02 -0.12905042646E+03 -0.73536958619E+01  0.16126498761E+03  0.00000000000E+00 0. -1.
        -12    1    3    3    0    0  0.12877319579E+02  0.10891573188E+02 -0.11490178932E+02  0.20407742107E+02  0.00000000000E+00 0.  1.
          5    1    4    4  501    0 -0.54806390516E+02  0.10589100769E+03  0.15784643092E+03  0.19786261421E+03  0.41800000000E+01 0. -1.
         -5    1    4    4    0  501 -0.63086743285E+02 -0.22927613905E+01  0.10585057811E+02  0.64146003632E+02  0.41800000000E+01 0. -1.
</event>
<event>
11    1  0.5813833E-009  0.1356723E+03  0.7561462E-02  0.1112490E+00
         22   -1    0    0    0    0  0.00000000000E+00  0.00000000000E+00  0.57507457071E+03  0.57507457071E+03  0.00000000000E+00 0. -1.
         22   -1    0    0    0    0 -0.00000000000E+00 -0.00000000000E+00 -0.99911144800E+03  0.99911144800E+03  0.00000000000E+00 0. -1.
        -24    2    1    2    0    0  0.44752689224E+02 -0.27660749179E+02 -0.96103412211E+03  0.96611244713E+03  0.83778018698E+02 0.  0.
         25    2    1    2    0    0 -0.85968676717E+01  0.71800618332E+02  0.14776556520E+03  0.20667248895E+03  0.12509844325E+03 0.  0.
         24    2    1    2    0    0 -0.36155821552E+02 -0.44139869153E+02  0.38923167962E+03  0.40140108263E+03  0.79786949032E+02 0.  0.
        -11    1    5    5    0    0  0.19833344434E+01 -0.57538272397E+02  0.22001368468E+03  0.22742165212E+03  0.00000000000E+00 0.  1.
         12    1    5    5    0    0 -0.38139155995E+02  0.13398403244E+02  0.16921799494E+03  0.17397943051E+03  0.00000000000E+00 0. -1.
         11    1    3    3    0    0 -0.93079026016E+01 -0.39091369637E+02 -0.53553887962E+03  0.53704437788E+03  0.00000000000E+00 0. -1.
        -12    1    3    3    0    0  0.54060591825E+02  0.11430620458E+02 -0.42549524249E+03  0.42906806925E+03  0.00000000000E+00 0.  1.
          5    1    4    4  501    0  0.52555178403E+02  0.63668084031E+02  0.84280044911E+02  0.11805198038E+03  0.41800000000E+01 0.  1.
         -5    1    4    4    0  501 -0.61152046074E+02  0.81325343005E+01  0.63485520293E+02  0.88620508575E+02  0.41800000000E+01 0.  1.
</event>
<event>
11    1  0.5813833E-009  0.1748982E+03  0.7561462E-02  0.1073846E+00
         22   -1    0    0    0    0  0.00000000000E+00  0.00000000000E+00  0.56628352811E+03  0.56628352811E+03  0.00000000000E+00 0.  1.
         22   -1    0    0    0    0 -0.00000000000E+00 -0.00000000000E+00 -0.16720443996E+04  0.16720443996E+04  0.00000000000E+00 0.  1.
        -24    2    1    2    0    0 -0.94461936544E+00 -0.98797866745E+02 -0.16148553746E+04  0.16198563029E+04  0.80091512892E+02 0.  0.
         25    2    1    2    0    0  0.93578846640E+02 -0.11144152246E+02  0.12446680571E+03  0.20005054595E+03  0.12508813911E+03 0.  0.
         24    2    1    2    0    0 -0.92634227275E+02  0.10994201899E+03  0.38462769739E+03  0.41842107886E+03  0.80432493619E+02 0.  0.
        -13    1    5    5    0    0 -0.56761569110E+02  0.42327542862E+02  0.27982128894E+03  0.28864069421E+03  0.00000000000E+00 0.  1.
         14    1    5    5    0    0 -0.35872658165E+02  0.67614476129E+02  0.10480640845E+03  0.12978038465E+03  0.00000000000E+00 0. -1.
         11    1    3    3    0    0 -0.17894829032E+02  0.63837607271E+01 -0.16459430612E+03  0.16568724427E+03  0.00000000000E+00 0. -1.
        -12    1    3    3    0    0  0.16950209667E+02 -0.10518162747E+03 -0.14502610685E+04  0.14541690586E+04  0.00000000000E+00 0.  1.
          5    1    4    4  501    0  0.85061429551E+02 -0.52376714565E+02  0.44200634000E+02  0.10931576040E+03  0.41800000000E+01 0. -1.
         -5    1    4    4    0  501  0.85174170892E+01  0.41232562320E+02  0.80266171705E+02  0.90734785554E+02  0.41800000000E+01 0. -1.
</event>
<event>
11    1  0.5813833E-009  0.1560284E+03  0.7561462E-02  0.1090873E+00
         22   -1    0    0    0    0  0.00000000000E+00  0.00000000000E+00  0.75888525527E+03  0.75888525527E+03  0.00000000000E+00 0.  1.
         22   -1    0    0    0    0 -0.00000000000E+00 -0.00000000000E+00 -0.21074878466E+03  0.21074878466E+03  0.00000000000E+00 0.  1.
        -24    2    1    2    0    0 -0.65371146464E+02 -0.13073051289E+02 -0.16132486822E+03  0.20001230716E+03  0.97646907021E+02 0.  0.
         25    2    1    2    0    0 -0.10652334691E+02 -0.65792294222E+02  0.22165892496E+03  0.26310409481E+03  0.12509591311E+03 0.  0.
         24    2    1    2    0    0  0.76023481155E+02  0.78865345511E+02  0.48780241387E+03  0.50651763796E+03  0.81299509121E+02 0.  0.
        -11    1    5    5    0    0  0.99745109394E+01  0.56734501572E+02  0.31463956585E+03  0.31986927163E+03  0.00000000000E+00 0.  1.
         12    1    5    5    0    0  0.66048970215E+02  0.22130843939E+02  0.17316284802E+03  0.18664836633E+03  0.00000000000E+00 0. -1.
         11    1    3    3    0    0 -0.67836053181E+02  0.97891597122E+01 -0.46300771357E+02  0.82712267454E+02  0.00000000000E+00 0. -1.
        -12    1    3    3    0    0  0.24649067168E+01 -0.22862211001E+02 -0.11502409686E+03  0.11730003971E+03  0.00000000000E+00 0.  1.
          5    1    4    4  501    0 -0.18572072314E+02 -0.59916986459E+02  0.23654971689E+03  0.24476153312E+03  0.41800000000E+01 0. -1.
         -5    1    4    4    0  501  0.79197376231E+01 -0.58753077634E+01 -0.14890791923E+02  0.18342561692E+02  0.41800000000E+01 0. -1.
</event>
<event>
11    1  0.5813833E-009  0.1990329E+03  0.7561462E-02  0.1055210E+00
         22   -1    0    0    0    0  0.00000000000E+00  0.00000000000E+00  0.69279869046E+02  0.69279869046E+02  0.00000000000E+00 0. -1.
         22   -1    0    0    0    0 -0.00000000000E+00 -0.00000000000E+00 -0.26852293115E+04  0.26852293115E+04  0.00000000000E+00 0.  1.
        -24    2    1    2    0    0 -0.76145919003E+02 -0.10121024644E+03 -0.20484204603E+04  0.20538934364E+04  0.80063419658E+02 0.  0.
         25    2    1    2    0    0  0.13645051270E+03 -0.60953701646E+02 -0.40703444378E+03  0.45128289090E+03  0.12508042628E+03 0.  0.
         24    2    1    2    0    0 -0.60304593701E+02  0.16216394808E+03 -0.16049453840E+03  0.24933285321E+03  0.80464804455E+02 0.  0.
        -11    1    5    5    0    0  0.11938074315E+02 -0.13718892851E+01 -0.94590842617E+01  0.15292938685E+02  0.00000000000E+00 0.  1.
         12    1    5    5    0    0 -0.72242668016E+02  0.16353583737E+03 -0.15103545414E+03  0.23403991453E+03  0.00000000000E+00 0. -1.
         11    1    3    3    0    0 -0.79549084349E+01 -0.28029336641E+02 -0.14790614743E+03  0.15074864088E+03  0.00000000000E+00 0. -1.
        -12    1    3    3    0    0 -0.68191010568E+02 -0.73180909796E+02 -0.19005143128E+04  0.19031447955E+04  0.00000000000E+00 0.  1.
          5    1    4    4  501    0  0.15304667599E+03 -0.73096623827E+02 -0.38566471396E+03  0.42133258294E+03  0.41800000000E+01 0. -1.
         -5    1    4    4    0  501 -0.16596163287E+02  0.12142922181E+02 -0.21369729812E+02  0.29950307964E+02  0.41800000000E+01 0. -1.
</event>
<event>
11    1  0.5813833E-009  0.1454912E+03  0.7561462E-02  0.1101577E+00
         22   -1    0    0    0    0  0.00000000000E+00  0.00000000000E+00  0.40258888412E+03  0.40258888412E+03  0.00000000000E+00 0. -1.
         22   -1    0    0    0    0 -0.00000000000E+00 -0.00000000000E+00 -0.32505845604E+03  0.32505845604E+03  0.00000000000E+00 0.  1.
        -24    2    1    2    0    0 -0.19725323985E+02 -0.10339553539E+02 -0.22407256677E+03  0.23969101570E+03  0.82141786288E+02 0.  0.
         25    2    1    2    0    0  0.37385988643E+02  0.81009776741E+02 -0.14033166636E+02  0.15428959518E+03  0.12509217937E+03 0.  0.
         24    2    1    2    0    0 -0.17660664659E+02 -0.70670223202E+02  0.31563616148E+03  0.33366672928E+03  0.80007001381E+02 0.  0.
        -13    1    5    5    0    0 -0.19570731445E+02  0.12240581894E+02  0.44500900359E+02  0.50131581933E+02  0.00000000000E+00 0.  1.
         14    1    5    5    0    0  0.19100667869E+01 -0.82910805096E+02  0.27113526112E+03  0.28353514735E+03  0.00000000000E+00 0. -1.
         11    1    3    3    0    0  0.12124284240E+02  0.14753194117E+02 -0.95138279813E+01  0.21334664934E+02  0.00000000000E+00 0. -1.
        -12    1    3    3    0    0 -0.31849608224E+02 -0.25092747657E+02 -0.21455873879E+03  0.21835635077E+03  0.00000000000E+00 0.  1.
          5    1    4    4  501    0 -0.11576502728E+02  0.89076797769E+02  0.22298478882E+02  0.92646564300E+02  0.41800000000E+01 0.  1.
         -5    1    4    4    0  501  0.48962491371E+02 -0.80670210275E+01 -0.36331645518E+02  0.61643030876E+02  0.41800000000E+01 0.  1.
</event>
<event>
11    1  0.5813833E-009  0.1261829E+03  0.7561462E-02  0.1124050E+00
         22   -1    0    0    0    0  0.00000000000E+00  0.00000000000E+00  0.22297597169E+04  0.22297597169E+04  0.00000000000E+00 0. -1.
         22   -1    0    0    0    0 -0.00000000000E+00 -0.00000000000E+00 -0.25732188472E+03  0.25732188472E+03  0.00000000000E+00 0.  1.
        -24    2    1    2    0    0  0.19745668058E+02  0.15317389142E+02 -0.24071092071E+03  0.25484150742E+03  0.79861960537E+02 0.  0.
         25    2    1    2    0    0 -0.16413222127E+02 -0.30181465808E+02  0.48506792278E+03  0.50211496954E+03  0.12509291822E+03 0.  0.
         24    2    1    2    0    0 -0.33324459303E+01  0.14864076665E+02  0.17280808301E+04  0.17301251247E+04  0.82689452906E+02 0.  0.
        -11    1    5    5    0    0 -0.42691444972E+02  0.12558695959E+02  0.96833420565E+03  0.96935618539E+03  0.00000000000E+00 0.  1.
         12    1    5    5    0    0  0.39358999042E+02  0.23053807068E+01  0.75974662445E+03  0.76076893926E+03  0.00000000000E+00 0. -1.
         11    1    3    3    0    0  0.23747746338E+00  0.26271308382E+02 -0.20049484358E+02  0.33048749789E+02  0.00000000000E+00 0. -1.
        -12    1    3    3    0    0  0.19508190594E+02 -0.10953919240E+02 -0.22066143635E+03  0.22179275764E+03  0.00000000000E+00 0.  1.
          5    1    4    4  501    0 -0.23745096313E+02 -0.11784282793E+02  0.48064894227E+03  0.48139752494E+03  0.41800000000E+01 0.  1.
         -5    1    4    4    0  501  0.73318741861E+01 -0.18397183015E+02  0.44189805140E+01  0.20717444600E+02  0.41800000000E+01 0.  1.
</event>
<event>
11    1  0.5813833E-009  0.2459237E+03  0.7561462E-02  0.1026093E+00
         22   -1    0    0    0    0  0.00000000000E+00  0.00000000000E+00  0.10938586801E+03  0.10938586801E+03  0.00000000000E+00 0.  1.
         22   -1    0    0    0    0 -0.00000000000E+00 -0.00000000000E+00 -0.18928518511E+04  0.18928518511E+04  0.00000000000E+00 0. -1.
         24    2    1    2    0    0 -0.11745244391E+03  0.16296449744E+03 -0.12874457295E+04  0.13054589356E+04  0.79712119073E+02 0.  0.
         25    2    1    2    0    0  0.18757209693E+03 -0.18129838892E+03 -0.51032323011E+03  0.58662546398E+03  0.12508892209E+03 0.  0.
        -24    2    1    2    0    0 -0.70119653013E+02  0.18333891474E+02  0.14302976560E+02  0.11015331956E+03  0.81708514588E+02 0.  0.
        -13    1    3    3    0    0 -0.50561476402E+02  0.42280874472E+02 -0.23716160282E+03  0.24614987527E+03  0.00000000000E+00 0.  1.
         14    1    3    3    0    0 -0.66890967512E+02  0.12068362297E+03 -0.10502841267E+04  0.10593090603E+04  0.00000000000E+00 0. -1.
         11    1    5    5    0    0 -0.89647936674E+01 -0.19187675864E+02 -0.21317633162E+02  0.30049557637E+02  0.00000000000E+00 0. -1.
        -12    1    5    5    0    0 -0.61154859346E+02  0.37521567338E+02  0.35620609723E+02  0.80103761922E+02  0.00000000000E+00 0.  1.
          5    1    4    4  501    0  0.17425965356E+03 -0.92605798515E+02 -0.38243749313E+03  0.43036980532E+03  0.41800000000E+01 0. -1.
         -5    1    4    4    0  501  0.13312443362E+02 -0.88692590402E+02 -0.12788573698E+03  0.15625565866E+03  0.41800000000E+01 0. -1.
</event>
<event>
11    1  0.5813833E-009  0.1391488E+03  0.7561462E-02  0.1108513E+00
         22   -1    0    0    0    0  0.00000000000E+00  0.00000000000E+00  0.33297735049E+04  0.33297735049E+04  0.00000000000E+00 0. -1.
         22   -1    0    0    0    0 -0.00000000000E+00 -0.00000000000E+00 -0.65534636566E+02  0.65534636566E+02  0.00000000000E+00 0. -1.
        -24    2    1    2    0    0  0.54507691039E+02  0.33485710250E+02  0.37810384919E+02  0.10913012152E+03  0.79921067577E+02 0.  0.
         25    2    1    2    0    0 -0.64749695293E+02  0.11496389653E+02  0.14211301453E+03  0.20042000355E+03  0.12508948360E+03 0.  0.
         24    2    1    2    0    0  0.10242004253E+02 -0.44982099903E+02  0.30843154689E+04  0.30857580164E+04  0.82294204969E+02 0.  0.
        -11    1    5    5    0    0  0.12368643853E+02 -0.46669766971E+02  0.80815058533E+03  0.80959151371E+03  0.00000000000E+00 0.  1.
         12    1    5    5    0    0 -0.21266395997E+01  0.16876670686E+01  0.22761648835E+04  0.22761665027E+04  0.00000000000E+00 0. -1.
         11    1    3    3    0    0  0.49979042213E+02  0.42374182722E+02 -0.44814566529E+01  0.65677693897E+02  0.00000000000E+00 0. -1.
        -12    1    3    3    0    0  0.45286488258E+01 -0.88884724724E+01  0.42291841572E+02  0.43452427626E+02  0.00000000000E+00 0.  1.
          5    1    4    4  501    0 -0.17584718840E+02 -0.55238233546E+02  0.73006671355E+02  0.93316296778E+02  0.41800000000E+01 0. -1.
         -5    1    4    4    0  501 -0.47164976452E+02  0.66734623199E+02  0.69106343175E+02  0.10710370677E+03  0.41800000000E+01 0. -1.
</event>
<event>
11    1  0.5813833E-009  0.1755613E+03  0.7561462E-02  0.1073291E+00
         22   -1    0    0    0    0  0.00000000000E+00  0.00000000000E+00  0.76859143379E+03  0.76859143379E+03  0.00000000000E+00 0.  1.
         22   -1    0    0    0    0 -0.00000000000E+00 -0.00000000000E+00 -0.93100193695E+03  0.93100193695E+03  0.00000000000E+00 0. -1.
        -24    2    1    2    0    0  0.10470920347E+02 -0.23650130966E+01 -0.74540129647E+03  0.75001155463E+03  0.82334718266E+02 0.  0.
         25    2    1    2    0    0 -0.99254487752E+02  0.87241251339E+02 -0.12872226937E+03  0.22287785098E+03  0.12507047834E+03 0.  0.
         24    2    1    2    0    0  0.88783567405E+02 -0.84876238242E+02  0.71171306267E+03  0.72670396513E+03  0.80477771488E+02 0.  0.
        -13    1    5    5    0    0  0.88740364464E+02 -0.56343744619E+02  0.65321180213E+03  0.66161554416E+03  0.00000000000E+00 0.  1.
         14    1    5    5    0    0  0.43202941417E-01 -0.28532493623E+02  0.58501260546E+02  0.65088420969E+02  0.00000000000E+00 0. -1.
         13    1    3    3    0    0  0.14640204168E+02  0.31481656461E+02 -0.58478720816E+03  0.58581695869E+03  0.00000000000E+00 0. -1.
        -14    1    3    3    0    0 -0.41692838218E+01 -0.33846669558E+02 -0.16061408832E+03  0.16419459593E+03  0.00000000000E+00 0.  1.
          5    1    4    4  501    0  0.13610752024E+02  0.63228413902E+02 -0.61072340414E+02  0.89052726286E+02  0.41800000000E+01 0.  1.
         -5    1    4    4    0  501 -0.11286523978E+03  0.24012837436E+02 -0.67649928951E+02  0.13382512469E+03  0.41800000000E+01 0.  1.
</event>
<event>
11    1  0.5813833E-009  0.1531018E+03  0.7561462E-02  0.1093751E+00
         22   -1    0    0    0    0  0.00000000000E+00  0.00000000000E+00  0.58183545845E+03  0.58183545845E+03  0.00000000000E+00 0.  1.
         22   -1    0    0    0    0 -0.00000000000E+00 -0.00000000000E+00 -0.25415943997E+03  0.25415943997E+03  0.00000000000E+00 0. -1.
         24    2    1    2    0    0  0.20181694429E+02 -0.35350900450E+02 -0.19414409669E+03  0.21431815644E+03  0.81137876168E+02 0.  0.
         25    2    1    2    0    0 -0.31354121160E+02  0.11644321157E+03  0.14038367034E+03  0.22337734480E+03  0.12509101022E+03 0.  0.
        -24    2    1    2    0    0  0.11172426731E+02 -0.81092311120E+02  0.38143644483E+03  0.39829939718E+03  0.80298582220E+02 0.  0.
        -13    1    3    3    0    0 -0.19167344376E+02  0.16319154294E+02 -0.43290463006E+02  0.50077600527E+02  0.00000000000E+00 0.  1.
         14    1    3    3    0    0  0.39349038805E+02 -0.51670054744E+02 -0.15085363368E+03  0.16424055592E+03  0.00000000000E+00 0. -1.
         13    1    5    5    0    0  0.70291502289E+01 -0.62105609188E+02  0.11278198899E+03  0.12894298231E+03  0.00000000000E+00 0. -1.
        -14    1    5    5    0    0  0.41432765023E+01 -0.18986701933E+02  0.26865445584E+03  0.26935641487E+03  0.00000000000E+00 0.  1.
          5    1    4    4  501    0  0.20803648835E+02 -0.13776504830E+02  0.60916008267E+00  0.25306666437E+02  0.41800000000E+01 0.  1.
         -5    1    4    4    0  501 -0.52157769995E+02  0.13021971640E+03  0.13977451026E+03  0.19807067836E+03  0.41800000000E+01 0.  1.
</event>
<event>
11    1  0.5813833E-009  0.1694129E+03  0.7561462E-02  0.1078544E+00
         22   -1    0    0    0    0  0.00000000000E+00  0.00000000000E+00  0.10315206952E+03  0.10315206952E+03  0.00000000000E+00 0.  1.
         22   -1    0    0    0    0 -0.00000000000E+00 -0.00000000000E+00 -0.12465127404E+04  0.12465127404E+04  0.00000000000E+00 0.  1.
         24    2    1    2    0    0 -0.61790372373E+02  0.92753656867E+02 -0.94633946188E+03  0.95627399257E+03  0.80500191208E+02 0.  0.
         25    2    1    2    0    0  0.30333099995E+02  0.76712405715E+02 -0.71936791465E+02  0.16621251206E+03  0.12508719780E+03 0.  0.
        -24    2    1    2    0    0  0.31457272379E+02 -0.16946606258E+03 -0.12508441750E+03  0.22717830524E+03  0.79092126776E+02 0.  0.
        -11    1    3    3    0    0 -0.75071417857E+01  0.27825060592E+02 -0.67846160158E+02  0.73713585063E+02  0.00000000000E+00 0.  1.
         12    1    3    3    0    0 -0.54283230587E+02  0.64928596275E+02 -0.87849330172E+03  0.88256040751E+03  0.00000000000E+00 0. -1.
         13    1    5    5    0    0  0.32343595394E+02 -0.38150987832E+02 -0.68636071894E+01  0.50484801072E+02  0.00000000000E+00 0. -1.
        -14    1    5    5    0    0 -0.88632301543E+00 -0.13131507475E+03 -0.11822081031E+03  0.17669350417E+03  0.00000000000E+00 0.  1.
          5    1    4    4  501    0  0.16197016966E+02  0.81225297652E+02  0.93695749143E+01  0.83457496196E+02  0.41800000000E+01 0.  1.
         -5    1    4    4    0  501  0.14136083029E+02 -0.45128919366E+01 -0.81306366380E+02  0.82755015865E+02  0.41800000000E+01 0.  1.
</event>
<event>
11    1  0.5813833E-009  0.1988912E+03  0.7561462E-02  0.1055311E+00
         22   -1    0    0    0    0  0.00000000000E+00  0.00000000000E+00  0.51909105916E+03  0.51909105916E+03  0.00000000000E+00 0.  1.
         22   -1    0    0    0    0 -0.00000000000E+00 -0.00000000000E+00 -0.56510116188E+03  0.56510116188E+03  0.00000000000E+00 0. -1.
        -24    2    1    2    0    0 -0.18170302990E+02  0.53900328628E+02 -0.47557175729E+03  0.48573104592E+03  0.80813039172E+02 0.  0.
         25    2    1    2    0    0  0.10016987277E+03  0.87948269205E+02  0.70017291454E+02  0.19575267771E+03  0.12509111983E+03 0.  0.
         24    2    1    2    0    0 -0.81999569784E+02 -0.14184859783E+03  0.35954436311E+03  0.40270849741E+03  0.77826927757E+02 0.  0.
        -13    1    5    5    0    0 -0.59928307679E+02 -0.59934738037E+02  0.25113054690E+03  0.26504740420E+03  0.00000000000E+00 0.  1.
         14    1    5    5    0    0 -0.22071262105E+02 -0.81913859795E+02  0.10841381621E+03  0.13766109321E+03  0.00000000000E+00 0. -1.
         11    1    3    3    0    0 -0.58921678299E+01  0.55479696678E+02 -0.46779814791E+03  0.47111338505E+03  0.00000000000E+00 0. -1.
        -12    1    3    3    0    0 -0.12278135160E+02 -0.15793680502E+01 -0.77736093778E+01  0.14617660866E+02  0.00000000000E+00 0.  1.
          5    1    4    4  501    0 -0.11595811370E+02  0.64745125203E+02  0.98189341798E+01  0.66635410611E+02  0.41800000000E+01 0. -1.
         -5    1    4    4    0  501  0.11176568414E+03  0.23203144002E+02  0.60198357275E+02  0.12911726710E+03  0.41800000000E+01 0. -1.
</event>
<event>
11    1  0.5813833E-009  0.1327383E+03  0.7561462E-02  0.1115950E+00
         22   -1    0    0    0    0  0.00000000000E+00  0.00000000000E+00  0.14632163333E+04  0.14632163333E+04  0.00000000000E+00 0. -1.
         22   -1    0    0    0    0 -0.00000000000E+00 -0.00000000000E+00 -0.16941146376E+03  0.16941146376E+03  0.00000000000E+00 0.  1.
        -24    2    1    2    0    0  0.50671991306E+02 -0.35105792401E+02 -0.82648871372E+02  0.13768193904E+03  0.91243701355E+02 0.  0.
         25    2    1    2    0    0 -0.76452263587E+01 -0.96240566370E+01  0.11491567168E+02  0.12621508653E+03  0.12508844870E+03 0.  0.
         24    2    1    2    0    0 -0.43026764948E+02  0.44729849038E+02  0.13649621737E+04  0.13687307715E+04  0.80312683637E+02 0.  0.
        -11    1    5    5    0    0 -0.57533556970E+02  0.37447830295E+01  0.83510244973E+03  0.83709033868E+03  0.00000000000E+00 0.  1.
         12    1    5    5    0    0  0.14506792023E+02  0.40985066009E+02  0.52985972399E+03  0.53164043277E+03  0.00000000000E+00 0. -1.
         11    1    3    3    0    0 -0.23736785353E+02  0.17249469121E+01 -0.33845506267E+02  0.41375460302E+02  0.00000000000E+00 0. -1.
        -12    1    3    3    0    0  0.74408776659E+02 -0.36830739313E+02 -0.48803365105E+02  0.96306478743E+02  0.00000000000E+00 0.  1.
          5    1    4    4  501    0 -0.15222324548E+02 -0.57209337072E+02 -0.26223379943E+02  0.64882705465E+02  0.41800000000E+01 0.  1.
         -5    1    4    4    0  501  0.75770981895E+01  0.47585280435E+02  0.37714947112E+02  0.61332381061E+02  0.41800000000E+01 0.  1.
</event>
<event>
11    1  0.5813833E-009  0.2022818E+03  0.7561462E-02  0.1052922E+00
         22   -1    0    0    0    0  0.00000000000E+00  0.00000000000E+00  0.49128155414E+02  0.49128155414E+02  0.00000000000E+00 0.  1.
         22   -1    0    0    0    0 -0.00000000000E+00 -0.00000000000E+00 -0.17810342234E+04  0.17810342234E+04  0.00000000000E+00 0. -1.
         24    2    1    2    0    0  0.48925876036E+02  0.14335668898E+02 -0.40236465648E+03  0.41332969386E+03  0.79654669046E+02 0.  0.
         25    2    1    2    0    0  0.10895678784E+01 -0.16530082899E+03 -0.11307765015E+04  0.11496208498E+04  0.12508817188E+03 0.  0.
        -24    2    1    2    0    0 -0.50015443914E+02  0.15096516010E+03 -0.19876491003E+03  0.26721183516E+03  0.81256699404E+02 0.  0.
        -11    1    3    3    0    0  0.36411826040E+02  0.45636507290E+02 -0.29769054299E+03  0.30336145315E+03  0.00000000000E+00 0.  1.
         12    1    3    3    0    0  0.12514049996E+02 -0.31300838391E+02 -0.10467411348E+03  0.10996824071E+03  0.00000000000E+00 0. -1.
         13    1    5    5    0    0  0.22014549170E+02  0.35303901455E+02 -0.36699957580E+02  0.55478759174E+02  0.00000000000E+00 0. -1.
        -14    1    5    5    0    0 -0.72029993084E+02  0.11566125864E+03 -0.16206495245E+03  0.21173307598E+03  0.00000000000E+00 0.  1.
          5    1    4    4  501    0 -0.19534664483E+01  0.78729094992E+01 -0.46434838199E+01  0.10238802524E+02  0.41800000000E+01 0. -1.
         -5    1    4    4    0  501  0.30430343267E+01 -0.17317373849E+03 -0.11261330177E+04  0.11393820473E+04  0.41800000000E+01 0. -1.
</event>
<event>
11    1  0.5813833E-009  0.1296125E+03  0.7561462E-02  0.1119746E+00
         22   -1    0    0    0    0  0.00000000000E+00  0.00000000000E+00  0.19624389335E+03  0.19624389335E+03  0.00000000000E+00 0. -1.
         22   -1    0    0    0    0 -0.00000000000E+00 -0.00000000000E+00 -0.39580241725E+03  0.39580241725E+03  0.00000000000E+00 0.  1.
        -24    2    1    2    0    0 -0.70440511670E+01  0.28976796387E+02 -0.25761675265E+03  0.27196398696E+03  0.81906932382E+02 0.  0.
         25    2    1    2    0    0 -0.55352776962E+01 -0.59458659094E+02 -0.77816520436E+02  0.15895968273E+03  0.12508716337E+03 0.  0.
         24    2    1    2    0    0  0.12579328863E+02  0.30481862707E+02  0.13587474918E+03  0.16112264092E+03  0.80069810065E+02 0.  0.
        -11    1    5    5    0    0  0.93189905463E+01 -0.26855543022E+02  0.55263862803E+02  0.62146265437E+02  0.00000000000E+00 0.  1.
         12    1    5    5    0    0  0.32603383169E+01  0.57337405728E+02  0.80610886380E+02  0.98976375487E+02  0.00000000000E+00 0. -1.
         13    1    3    3    0    0  0.15749139272E+02  0.41781449674E+01 -0.49032207018E+01  0.17015694415E+02  0.00000000000E+00 0. -1.
        -14    1    3    3    0    0 -0.22793190439E+02  0.24798651420E+02 -0.25271353194E+03  0.25494829254E+03  0.00000000000E+00 0.  1.
          5    1    4    4  501    0  0.11939557044E+02 -0.10687468281E+02 -0.10078406565E+03  0.10213557309E+03  0.41800000000E+01 0.  1.
         -5    1    4    4    0  501 -0.17474834741E+02 -0.48771190813E+02  0.22967545217E+02  0.56824109635E+02  0.41800000000E+01 0.  1.
</event>
<event>
11    1  0.5813833E-009  0.1555872E+03  0.7561462E-02  0.1091303E+00
         22   -1    0    0    0    0  0.00000000000E+00  0.00000000000E+00  0.92828157479E+03  0.92828157479E+03  0.00000000000E+00 0.  1.
         22   -1    0    0    0    0 -0.00000000000E+00 -0.00000000000E+00 -0.11514001433E+04  0.11514001433E+04  0.00000000000E+00 0. -1.
        -24    2    1    2    0    0 -0.25207975977E+02 -0.88971802417E+02 -0.95734128051E+03  0.96503801390E+03  0.79022890527E+02 0.  0.
         25    2    1    2    0    0 -0.37559126249E+02  0.10507195430E+03 -0.14969013178E+03  0.22473413144E+03  0.12508993059E+03 0.  0.
         24    2    1    2    0    0  0.62767102225E+02 -0.16100151882E+02  0.88391284375E+03  0.88990957278E+03  0.80238446884E+02 0.  0.
        -13    1    5    5    0    0  0.73315567432E+02 -0.17289150032E+02  0.86457095721E+03  0.86784620020E+03  0.00000000000E+00 0.  1.
         14    1    5    5    0    0 -0.10548465207E+02  0.11889981500E+01  0.19341886540E+02  0.22063372583E+02  0.00000000000E+00 0. -1.
         13    1    3    3    0    0  0.14531438319E+02 -0.76430712203E+02 -0.70490621841E+03  0.70918657152E+03  0.00000000000E+00 0. -1.
        -14    1    3    3    0    0 -0.39739414296E+02 -0.12541090214E+02 -0.25243506210E+03  0.25585144238E+03  0.00000000000E+00 0.  1.
          5    1    4    4  501    0 -0.42644266311E+02 -0.12136051058E+02 -0.17257149676E+02  0.47760850070E+02  0.41800000000E+01 0. -1.
         -5    1    4    4    0  501  0.50851400625E+01  0.11720800536E+03 -0.13243298210E+03  0.17697328137E+03  0.41800000000E+01 0. -1.
</event>
<event>
11    1  0.5813833E-009  0.1335930E+03  0.7561462E-02  0.1114931E+00
         22   -1    0    0    0    0  0.00000000000E+00  0.00000000000E+00  0.65126415803E+03  0.65126415803E+03  0.00000000000E+00 0. -1.
         22   -1    0    0    0    0 -0.00000000000E+00 -0.00000000000E+00 -0.10059103742E+04  0.10059103742E+04  0.00000000000E+00 0.  1.
         24    2    1    2    0    0  0.18075278300E+02 -0.36306069006E+02 -0.95540194647E+03  0.95954708693E+03  0.79327715131E+02 0.  0.
         25    2    1    2    0    0  0.11980751572E+02 -0.38752993004E+01  0.44454342984E+02  0.13335084306E+03  0.12509077657E+03 0.  0.
        -24    2    1    2    0    0 -0.30056029871E+02  0.40181368306E+02  0.55630138728E+03  0.56427660227E+03  0.80118306827E+02 0.  0.
        -11    1    3    3    0    0  0.19197769768E+02 -0.58941589130E+02 -0.81227561258E+03  0.81463754891E+03  0.00000000000E+00 0.  1.
         12    1    3    3    0    0 -0.11224914690E+01  0.22635520123E+02 -0.14312633389E+03  0.14490953803E+03  0.00000000000E+00 0. -1.
         11    1    5    5    0    0 -0.79282798406E+01  0.52127850137E+02  0.49799580084E+03  0.50077938060E+03  0.00000000000E+00 0. -1.
        -12    1    5    5    0    0 -0.22127750031E+02 -0.11946481830E+02  0.58305586444E+02  0.63497221672E+02  0.00000000000E+00 0.  1.
          5    1    4    4  501    0  0.17764448096E+02  0.58752374452E+02  0.12893473665E+02  0.62858024015E+02  0.41800000000E+01 0. -1.
         -5    1    4    4    0  501 -0.57836965240E+01 -0.62627673752E+02  0.31560869319E+02  0.70492819048E+02  0.41800000000E+01 0. -1.
</event>
<event>
11    1  0.5813833E-009  0.2366969E+03  0.7561462E-02  0.1031235E+00
         22   -1    0    0    0    0  0.00000000000E+00  0.00000000000E+00  0.10371675966E+04  0.10371675966E+04  0.00000000000E+00 0.  1.
         22   -1    0    0    0    0 -0.00000000000E+00 -0.00000000000E+00 -0.10654815907E+03  0.10654815907E+03  0.00000000000E+00 0. -1.
        -24    2    1    2    0    0  0.30971149851E+02 -0.19643287292E+03  0.10718538590E+03  0.24032132319E+03  0.81978934747E+02 0.  0.
         25    2    1    2    0    0  0.14595812126E+02  0.20941529034E+03  0.39210211236E+03  0.46200186157E+03  0.12503540306E+03 0.  0.
         24    2    1    2    0    0 -0.45566961978E+02 -0.12982417417E+02  0.43133193928E+03  0.44139257093E+03  0.80841008430E+02 0.  0.
        -13    1    5    5    0    0 -0.28775918697E+02 -0.45453201730E+02  0.31142193711E+03  0.31603428605E+03  0.00000000000E+00 0.  1.
         14    1    5    5    0    0 -0.16791043281E+02  0.32470784313E+02  0.11991000216E+03  0.12535828488E+03  0.00000000000E+00 0. -1.
         11    1    3    3    0    0  0.37034918872E+02 -0.28647252004E+02  0.17594901375E+02  0.50018304826E+02  0.00000000000E+00 0. -1.
        -12    1    3    3    0    0 -0.60637690209E+01 -0.16778562092E+03  0.89590484529E+02  0.19030301837E+03  0.00000000000E+00 0.  1.
          5    1    4    4  501    0  0.25202543987E+02  0.17475370688E+03  0.38669234553E+03  0.42511465369E+03  0.41800000000E+01 0.  1.
         -5    1    4    4    0  501 -0.10606731861E+02  0.34661583456E+02  0.54097668389E+01  0.36887207887E+02  0.41800000000E+01 0.  1.
</event>
<event>
11    1  0.5813833E-009  0.1572704E+03  0.7561462E-02  0.1089673E+00
         22   -1    0    0    0    0  0.00000000000E+00  0.00000000000E+00  0.11558865516E+04  0.11558865516E+04  0.00000000000E+00 0. -1.
         22   -1    0    0    0    0 -0.00000000000E+00 -0.00000000000E+00 -0.13079403536E+03  0.13079403536E+03  0.00000000000E+00 0.  1.
         24    2    1    2    0    0  0.37134103907E+01  0.92421394340E+02  0.14504332186E+02  0.12371740417E+03  0.80870989191E+02 0.  0.
         25    2    1    2    0    0  0.43995983122E+02 -0.95579807188E+02  0.16227269889E+02  0.16426635087E+03  0.12509581795E+03 0.  0.
        -24    2    1    2    0    0 -0.47709393513E+02  0.31584128473E+01  0.99436091415E+03  0.99869683190E+03  0.79721845485E+02 0.  0.
        -11    1    3    3    0    0 -0.39792350777E+00  0.54921975109E+01 -0.26818932195E+02  0.27378416694E+02  0.00000000000E+00 0.  1.
         12    1    3    3    0    0  0.41113338985E+01  0.86929196829E+02  0.41323264381E+02  0.96338987471E+02  0.00000000000E+00 0. -1.
         11    1    5    5    0    0 -0.63979783645E+02 -0.13722267604E+02  0.84244210361E+03  0.84497953305E+03  0.00000000000E+00 0. -1.
        -12    1    5    5    0    0  0.16270390133E+02  0.16880680451E+02  0.15191881055E+03  0.15371729885E+03  0.00000000000E+00 0.  1.
          5    1    4    4  501    0 -0.11245811529E+02 -0.10632544242E+03  0.12130584702E+02  0.10768561403E+03  0.41800000000E+01 0.  1.
         -5    1    4    4    0  501  0.55241794651E+02  0.10745635233E+02  0.40966851877E+01  0.56580736849E+02  0.41800000000E+01 0.  1.
</event>
<event>
11    1  0.5813833E-009  0.1294893E+03  0.7561462E-02  0.1119898E+00
         22   -1    0    0    0    0  0.00000000000E+00  0.00000000000E+00  0.47438396524E+03  0.47438396524E+03  0.00000000000E+00 0. -1.
         22   -1    0    0    0    0 -0.00000000000E+00 -0.00000000000E+00 -0.23327865118E+03  0.23327865118E+03  0.00000000000E+00 0.  1.
        -24    2    1    2    0    0 -0.37591785251E+02  0.12442608201E+02 -0.16892383026E+03  0.19154467074E+03  0.81155034599E+02 0.  0.
         25    2    1    2    0    0  0.21239308514E+02  0.20601498137E+02  0.43258500237E+02  0.13562502252E+03  0.12508924390E+03 0.  0.
         24    2    1    2    0    0  0.16352476737E+02 -0.33044106338E+02  0.36677064408E+03  0.38049292317E+03  0.94312474043E+02 0.  0.
        -13    1    5    5    0    0  0.51822206731E+02 -0.10286643449E+02  0.13592292067E+03  0.14583002609E+03  0.00000000000E+00 0.  1.
         14    1    5    5    0    0 -0.35469729994E+02 -0.22757462889E+02  0.23084772341E+03  0.23466289708E+03  0.00000000000E+00 0. -1.
         13    1    3    3    0    0 -0.93220010083E+00 -0.32210042282E+02 -0.53125554381E+02  0.62134373330E+02  0.00000000000E+00 0. -1.
        -14    1    3    3    0    0 -0.36659585150E+02  0.44652650482E+02 -0.11579827588E+03  0.12941029741E+03  0.00000000000E+00 0.  1.
          5    1    4    4  501    0  0.65883384699E+02  0.66818648731E+01 -0.71515924077E+01  0.66737436057E+02  0.41800000000E+01 0. -1.
         -5    1    4    4    0  501 -0.44644076185E+02  0.13919633264E+02  0.50410092645E+02  0.68887586465E+02  0.41800000000E+01 0. -1.
</event>
<event>
11    1  0.5813833E-009  0.1396774E+03  0.7561462E-02  0.1107919E+00
         22   -1    0    0    0    0  0.00000000000E+00  0.00000000000E+00  0.18335008697E+03  0.18335008697E+03  0.00000000000E+00 0. -1.
         22   -1    0    0    0    0 -0.00000000000E+00 -0.00000000000E+00 -0.28200504225E+04  0.28200504225E+04  0.00000000000E+00 0. -1.
         24    2    1    2    0    0  0.20482989667E+01  0.62441262985E+02 -0.26561993349E+04  0.26583096239E+04  0.85510485397E+02 0.  0.
         25    2    1    2    0    0 -0.34221644295E+02 -0.48316627943E+02 -0.11839304810E+03  0.18215435278E+03  0.12513063943E+03 0.  0.
        -24    2    1    2    0    0  0.32173345329E+02 -0.14124635042E+02  0.13789204753E+03  0.16293653269E+03  0.79369184506E+02 0.  0.
        -13    1    3    3    0    0  0.66550832544E+01  0.34649787687E+02 -0.31980311848E+03  0.32174358192E+03  0.00000000000E+00 0.  1.
         14    1    3    3    0    0 -0.46067842877E+01  0.27791475298E+02 -0.23363962164E+04  0.23365660420E+04  0.00000000000E+00 0. -1.
         11    1    5    5    0    0 -0.69422605015E+01  0.19988700305E+02  0.89526231186E+02  0.91992875763E+02  0.00000000000E+00 0. -1.
        -12    1    5    5    0    0  0.39115605830E+02 -0.34113335347E+02  0.48365816344E+02  0.70943656930E+02  0.00000000000E+00 0.  1.
          5    1    4    4  501    0 -0.47361693031E+02  0.30572269661E+02 -0.34749695547E+02  0.66353653852E+02  0.41800000000E+01 0. -1.
         -5    1    4    4    0  501  0.13140048735E+02 -0.78888897604E+02 -0.83643352557E+02  0.11580069893E+03  0.41800000000E+01 0. -1.
</event>
<event>
11    1  0.5813833E-009  0.1564205E+03  0.7561462E-02  0.1090493E+00
         22   -1    0    0    0    0  0.00000000000E+00  0.00000000000E+00  0.51275568128E+03  0.51275568128E+03  0.00000000000E+00 0.  1.
         22   -1    0    0    0    0 -0.00000000000E+00 -0.00000000000E+00 -0.10171726590E+04  0.10171726590E+04  0.00000000000E+00 0.  1.
        -24    2    1    2    0    0  0.92847872476E+02  0.13030586550E+02 -0.97728476093E+03  0.98506398310E+03  0.80467529117E+02 0.  0.
         25    2    1    2    0    0 -0.98124654099E+02 -0.44930707074E+02  0.20535873982E+03  0.26356484715E+03  0.12508797086E+03 0.  0.
         24    2    1    2    0    0  0.52767816227E+01  0.31900120524E+02  0.26750904336E+03  0.28129951006E+03  0.80764249331E+02 0.  0.
        -13    1    5    5    0    0  0.23426545444E+02  0.41853667602E+02  0.24885302958E+03  0.25343315264E+03  0.00000000000E+00 0.  1.
         14    1    5    5    0    0 -0.18149763822E+02 -0.99535470779E+01  0.18656013774E+02  0.27866357425E+02  0.00000000000E+00 0. -1.
         11    1    3    3    0    0  0.84896722028E+02  0.29748574808E+02 -0.54430537716E+03  0.55168901994E+03  0.00000000000E+00 0. -1.
        -12    1    3    3    0    0  0.79511504476E+01 -0.16717988258E+02 -0.43297938377E+03  0.43337496316E+03  0.00000000000E+00 0.  1.
          5    1    4    4  501    0 -0.70376410507E+02 -0.40232542546E+02  0.21785769174E+03  0.23248858657E+03  0.41800000000E+01 0.  1.
         -5    1    4    4    0  501 -0.27748243592E+02 -0.46981645278E+01 -0.12498951922E+02  0.31076260578E+02  0.41800000000E+01 0.  1.
</event>
<event>
11    1  0.5813833E-009  0.1341298E+03  0.7561462E-02  0.1114296E+00
         22   -1    0    0    0    0  0.00000000000E+00  0.00000000000E+00  0.10268482851E+04  0.10268482851E+04  0.00000000000E+00 0.  1.
         22   -1    0    0    0    0 -0.00000000000E+00 -0.00000000000E+00 -0.12816640455E+03  0.12816640455E+03  0.00000000000E+00 0. -1.
         24    2    1    2    0    0  0.44333675866E+02 -0.21890690573E+02 -0.93155819429E+02  0.13177356661E+03  0.79003727854E+02 0.  0.
         25    2    1    2    0    0 -0.40123463156E+02 -0.14025724707E+02  0.32868587057E+03  0.35424219867E+03  0.12508605260E+03 0.  0.
        -24    2    1    2    0    0 -0.42102127102E+01  0.35916415280E+02  0.66315182937E+03  0.66899892434E+03  0.80507746113E+02 0.  0.
        -13    1    3    3    0    0  0.59407740394E+02 -0.35502895381E+02 -0.54440207723E+02  0.88053798419E+02  0.00000000000E+00 0.  1.
         14    1    3    3    0    0 -0.15074064528E+02  0.13612204808E+02 -0.38715611706E+02  0.43719768194E+02  0.00000000000E+00 0. -1.
         11    1    5    5    0    0 -0.12942390570E+02 -0.21059655537E+02  0.10461400316E+03  0.10749467067E+03  0.00000000000E+00 0. -1.
        -12    1    5    5    0    0  0.87321778593E+01  0.56976070817E+02  0.55853782621E+03  0.56150425366E+03  0.00000000000E+00 0.  1.
          5    1    4    4  501    0 -0.50435712902E+02 -0.62333952057E+02  0.23353280642E+03  0.24695004918E+03  0.41800000000E+01 0.  1.
         -5    1    4    4    0  501  0.10312249746E+02  0.48308227350E+02  0.95153064153E+02  0.10729214949E+03  0.41800000000E+01 0.  1.
</event>
<event>
11    1  0.5813833E-009  0.1486261E+03  0.7561462E-02  0.1098291E+00
         22   -1    0    0    0    0  0.00000000000E+00  0.00000000000E+00  0.61118192041E+03  0.61118192041E+03  0.00000000000E+00 0. -1.
         22   -1    0    0    0    0 -0.00000000000E+00 -0.00000000000E+00 -0.10212662906E+03  0.10212662906E+03  0.00000000000E+00 0. -1.
        -24    2    1    2    0    0  0.23736025147E+02 -0.87034158290E+02 -0.10594705328E+02  0.12122914571E+03  0.80286452094E+02 0.  0.
         25    2    1    2    0    0  0.17570681418E+02  0.56936404070E+02  0.12716591254E+03  0.18806173662E+03  0.12508223101E+03 0.  0.
         24    2    1    2    0    0 -0.41306706565E+02  0.30097754220E+02  0.39248408414E+03  0.40401766714E+03  0.81082675388E+02 0.  0.
        -13    1    5    5    0    0 -0.86954621118E+01  0.36136219149E+02  0.65139707668E+02  0.74997459363E+02  0.00000000000E+00 0.  1.
         14    1    5    5    0    0 -0.32611244453E+02 -0.60384649294E+01  0.32734437647E+03  0.32902020778E+03  0.00000000000E+00 0. -1.
         11    1    3    3    0    0 -0.13181451218E+02 -0.82495504342E+02 -0.61263371076E+01  0.83766287367E+02  0.00000000000E+00 0. -1.
        -12    1    3    3    0    0  0.36917476365E+02 -0.45386539478E+01 -0.44683682206E+01  0.37462858345E+02  0.00000000000E+00 0.  1.
          5    1    4    4  501    0 -0.52408840940E+02  0.32675674029E+02  0.40460597549E+02  0.73952137467E+02  0.41800000000E+01 0. -1.
         -5    1    4    4    0  501  0.69979522358E+02  0.24260730041E+02  0.86705314992E+02  0.11410959916E+03  0.41800000000E+01 0. -1.
</event>
<event>
11    1  0.5813833E-009  0.1397844E+03  0.7561462E-02  0.1107799E+00
         22   -1    0    0    0    0  0.00000000000E+00  0.00000000000E+00  0.11776832309E+03  0.11776832309E+03  0.00000000000E+00 0. -1.
         22   -1    0    0    0    0 -0.00000000000E+00 -0.00000000000E+00 -0.33618717352E+04  0.33618717352E+04  0.00000000000E+00 0. -1.
         24    2    1    2    0    0 -0.31380836825E+02  0.33256162571E+02 -0.29219388590E+04  0.29230829205E+04  0.67796278742E+02 0.  0.
         25    2    1    2    0    0  0.82589190288E+02  0.16560708920E+01 -0.40210696623E+03  0.42913628098E+03  0.12507685015E+03 0.  0.
        -24    2    1    2    0    0 -0.51208353462E+02 -0.34912233463E+02  0.79942413134E+02  0.12742085674E+03  0.77486294309E+02 0.  0.
        -11    1    3    3    0    0  0.37606015345E+01  0.44718873475E+00 -0.92220307818E+01  0.99693507013E+01  0.00000000000E+00 0.  1.
         12    1    3    3    0    0 -0.35141438360E+02  0.32808973837E+02 -0.29127168282E+04  0.29131135698E+04  0.00000000000E+00 0. -1.
         13    1    5    5    0    0 -0.71974854741E+02 -0.29104904858E+02  0.63695339227E+02  0.10042196692E+03  0.00000000000E+00 0. -1.
        -14    1    5    5    0    0  0.20766501278E+02 -0.58073286059E+01  0.16247073907E+02  0.26998889818E+02  0.00000000000E+00 0.  1.
          5    1    4    4  501    0  0.38628506955E+02  0.29079727600E+02 -0.35708615727E+03  0.36036896123E+03  0.41800000000E+01 0.  1.
         -5    1    4    4    0  501  0.43960683333E+02 -0.27423656708E+02 -0.45020808961E+02  0.68767319752E+02  0.41800000000E+01 0.  1.
</event>
<event>
11    1  0.5813833E-009  0.1379406E+03  0.7561462E-02  0.1109880E+00
         22   -1    0    0    0    0  0.00000000000E+00  0.00000000000E+00  0.85586837435E+03  0.85586837435E+03  0.00000000000E+00 0.  1.
         22   -1    0    0    0    0 -0.00000000000E+00 -0.00000000000E+00 -0.18904643300E+03  0.18904643300E+03  0.00000000000E+00 0.  1.
         24    2    1    2    0    0  0.39425083340E+01 -0.48195300611E+01 -0.14667901326E+03  0.16686113048E+03  0.79304052186E+02 0.  0.
         25    2    1    2    0    0  0.13162781943E+02  0.59972097305E+02  0.14113758303E+03  0.19833615218E+03  0.12508997015E+03 0.  0.
        -24    2    1    2    0    0 -0.17105290277E+02 -0.55152567244E+02  0.67236337158E+03  0.67971752469E+03  0.81295838143E+02 0.  0.
        -11    1    3    3    0    0 -0.11716232547E+02  0.27411879135E+01 -0.14885183658E+03  0.14933738135E+03  0.00000000000E+00 0.  1.
         12    1    3    3    0    0  0.15658740881E+02 -0.75607179746E+01  0.21728233231E+01  0.17523749127E+02  0.00000000000E+00 0. -1.
         13    1    5    5    0    0  0.51420334358E+01 -0.12192779387E+02  0.12893693998E+02  0.18475706264E+02  0.00000000000E+00 0. -1.
        -14    1    5    5    0    0 -0.22247323712E+02 -0.42959787856E+02  0.65946967758E+03  0.66124181843E+03  0.00000000000E+00 0.  1.
          5    1    4    4  501    0  0.46472798048E+02  0.62252589996E+01  0.39737775208E+01  0.47241275552E+02  0.41800000000E+01 0. -1.
         -5    1    4    4    0  501 -0.33310016105E+02  0.53746838305E+02  0.13716380551E+03  0.15109487663E+03  0.41800000000E+01 0. -1.
</event>
<event>
11    1  0.5813833E-009  0.1659071E+03  0.7561462E-02  0.1081649E+00
         22   -1    0    0    0    0  0.00000000000E+00  0.00000000000E+00  0.35011711918E+03  0.35011711918E+03  0.00000000000E+00 0.  1.
         22   -1    0    0    0    0 -0.00000000000E+00 -0.00000000000E+00 -0.85544538996E+03  0.85544538996E+03  0.00000000000E+00 0. -1.
        -24    2    1    2    0    0 -0.16880167890E+02 -0.41427036045E+02 -0.47082308302E+03  0.48014715857E+03  0.82859996317E+02 0.  0.
         25    2    1    2    0    0  0.84365271318E+02 -0.45175421206E+02 -0.34877422696E+03  0.38269213213E+03  0.12510591080E+03 0.  0.
         24    2    1    2    0    0 -0.67485103427E+02  0.86602457252E+02  0.31426903919E+03  0.34272321844E+03  0.81485892514E+02 0.  0.
        -13    1    5    5    0    0 -0.90599238982E+01  0.66681209402E+02  0.21983533554E+03  0.22990441635E+03  0.00000000000E+00 0.  1.
         14    1    5    5    0    0 -0.58425179529E+02  0.19921247849E+02  0.94433703657E+02  0.11281880209E+03  0.00000000000E+00 0. -1.
         13    1    3    3    0    0 -0.41397515797E+02 -0.25253502388E+02 -0.40713406902E+03  0.41001176063E+03  0.00000000000E+00 0. -1.
        -14    1    3    3    0    0  0.24517347906E+02 -0.16173533657E+02 -0.63689014000E+02  0.70135397936E+02  0.00000000000E+00 0.  1.
          5    1    4    4  501    0 -0.14911185003E+02  0.72968150472E+01 -0.17446464884E+03  0.17530251865E+03  0.41800000000E+01 0. -1.
         -5    1    4    4    0  501  0.99276456320E+02 -0.52472236254E+02 -0.17430957811E+03  0.20738961348E+03  0.41800000000E+01 0. -1.
</event>
<event>
11    1  0.5813833E-009  0.1517382E+03  0.7561462E-02  0.1095116E+00
         22   -1    0    0    0    0  0.00000000000E+00  0.00000000000E+00  0.33536425298E+02  0.33536425298E+02  0.00000000000E+00 0.  1.
         22   -1    0    0    0    0 -0.00000000000E+00 -0.00000000000E+00 -0.26585963136E+04  0.26585963136E+04  0.00000000000E+00 0. -1.
        -24    2    1    2    0    0  0.59541153779E+01  0.83757626572E+02 -0.17090225462E+04  0.17129393044E+04  0.79700724315E+02 0.  0.
         25    2    1    2    0    0  0.71731032988E+02 -0.94113347272E+02 -0.80148799482E+03  0.81977150515E+03  0.12505859258E+03 0.  0.
         24    2    1    2    0    0 -0.77685148366E+02  0.10355720701E+02 -0.11454934722E+03  0.15942192934E+03  0.78431979315E+02 0.  0.
        -11    1    5    5    0    0 -0.82326088349E+02  0.16575404836E+02 -0.57335671850E+02  0.10168435541E+03  0.00000000000E+00 0.  1.
         12    1    5    5    0    0  0.46409399833E+01 -0.62196841350E+01 -0.57213675368E+02  0.57737573934E+02  0.00000000000E+00 0. -1.
         13    1    3    3    0    0 -0.22482393693E+02  0.47094977941E+02 -0.13393628909E+04  0.13403791809E+04  0.00000000000E+00 0. -1.
        -14    1    3    3    0    0  0.28436509071E+02  0.36662648631E+02 -0.36965965530E+03  0.37256012348E+03  0.00000000000E+00 0.  1.
          5    1    4    4  501    0  0.89931036441E+02 -0.37370184968E+02 -0.31792145511E+03  0.33252916572E+03  0.41800000000E+01 0.  1.
         -5    1    4    4    0  501 -0.18200003453E+02 -0.56743162305E+02 -0.48356653972E+03  0.48724233943E+03  0.41800000000E+01 0.  1.
</event>
<event>
11    1  0.5813833E-009  0.1294597E+03  0.7561462E-02  0.1119935E+00
         22   -1    0    0    0    0  0.00000000000E+00  0.00000000000E+00  0.12147145297E+04  0.12147145297E+04  0.00000000000E+00 0.  1.
         22   -1    0    0    0    0 -0.00000000000E+00 -0.00000000000E+00 -0.87837876881E+02  0.87837876881E+02  0.00000000000E+00 0. -1.
         24    2    1    2    0    0 -0.25951921655E+01 -0.40269732338E+02 -0.21073934435E+02  0.94374057380E+02  0.82667802855E+02 0.  0.
         25    2    1    2    0    0  0.15956557706E+02  0.46372736958E+01  0.11296070997E+03  0.16936160731E+03  0.12508843268E+03 0.  0.
        -24    2    1    2    0    0 -0.13361365540E+02  0.35632458642E+02  0.10349898773E+04  0.10388167419E+04  0.80547991686E+02 0.  0.
        -13    1    3    3    0    0  0.37322430345E+02 -0.29283077522E+02 -0.23420965915E+02  0.52905614829E+02  0.00000000000E+00 0.  1.
         14    1    3    3    0    0 -0.39917622510E+02 -0.10986654815E+02  0.23470314802E+01  0.41468442552E+02  0.00000000000E+00 0. -1.
         11    1    5    5    0    0 -0.25528836406E+02  0.31995557498E+01  0.10236635726E+03  0.10555012905E+03  0.00000000000E+00 0. -1.
        -12    1    5    5    0    0  0.12167470866E+02  0.32432902892E+02  0.93262352007E+03  0.93326661288E+03  0.00000000000E+00 0.  1.
          5    1    4    4  501    0 -0.54765047412E+02 -0.21847328907E+01  0.46943160366E+02  0.72284965110E+02  0.41800000000E+01 0. -1.
         -5    1    4    4    0  501  0.70721605118E+02  0.68220065865E+01  0.66017549608E+02  0.97076642199E+02  0.41800000000E+01 0. -1.
</event>
<event>
11    1  0.5813833E-009  0.2136420E+03  0.7561462E-02  0.1045275E+00
         22   -1    0    0    0    0  0.00000000000E+00  0.00000000000E+00  0.44716611710E+03  0.44716611710E+03  0.00000000000E+00 0.  1.
         22   -1    0    0    0    0 -0.00000000000E+00 -0.00000000000E+00 -0.18227849261E+04  0.18227849261E+04  0.00000000000E+00 0. -1.
        -24    2    1    2    0    0  0.16123057688E+03 -0.64819302577E+02 -0.17551962703E+04  0.17655786935E+04  0.79732896386E+02 0.  0.
         25    2    1    2    0    0 -0.14749086380E+03  0.44708627315E+02  0.12040994630E+03  0.23215914980E+03  0.12508756696E+03 0.  0.
         24    2    1    2    0    0 -0.13739713082E+02  0.20110675262E+02  0.25916751502E+03  0.27221319989E+03  0.79617877238E+02 0.  0.
        -13    1    5    5    0    0 -0.44367493122E+02  0.64663729358E+01  0.19169792866E+03  0.19687149179E+03  0.00000000000E+00 0.  1.
         14    1    5    5    0    0  0.30627780041E+02  0.13644302326E+02  0.67469586361E+02  0.75341708103E+02  0.00000000000E+00 0. -1.
         11    1    3    3    0    0  0.10021990547E+03 -0.14664586600E+02 -0.12662678174E+04  0.12703122707E+04  0.00000000000E+00 0. -1.
        -12    1    3    3    0    0  0.61010671406E+02 -0.50154715977E+02 -0.48892845288E+03  0.49526642284E+03  0.00000000000E+00 0.  1.
          5    1    4    4  501    0 -0.14640366445E+03 -0.59272223793E+01  0.99731018713E+02  0.17729329773E+03  0.41800000000E+01 0.  1.
         -5    1    4    4    0  501 -0.10871993531E+01  0.50635849694E+02  0.20678927583E+02  0.54865852064E+02  0.41800000000E+01 0.  1.
</event>
<event>
11    1  0.5813833E-009  0.1746637E+03  0.7561462E-02  0.1074043E+00
         22   -1    0    0    0    0  0.00000000000E+00  0.00000000000E+00  0.71378674145E+03  0.71378674145E+03  0.00000000000E+00 0. -1.
         22   -1    0    0    0    0 -0.00000000000E+00 -0.00000000000E+00 -0.68230258520E+03  0.68230258520E+03  0.00000000000E+00 0. -1.
        -24    2    1    2    0    0  0.11361311103E+03 -0.44462302042E+02 -0.59552065989E+03  0.61312831744E+03  0.79979009697E+02 0.  0.
         25    2    1    2    0    0 -0.12062144360E+03  0.22720664722E+02  0.27143455635E+02  0.17733818880E+03  0.12508519002E+03 0.  0.
         24    2    1    2    0    0  0.70083325727E+01  0.21741637321E+02  0.59986136051E+03  0.60562282042E+03  0.80146947909E+02 0.  0.
        -11    1    5    5    0    0  0.12149441874E+02 -0.10556095597E+02  0.24383100079E+02  0.29216017210E+02  0.00000000000E+00 0.  1.
         12    1    5    5    0    0 -0.51411093017E+01  0.32297732918E+02  0.57547826043E+03  0.57640680321E+03  0.00000000000E+00 0. -1.
         13    1    3    3    0    0  0.83560174066E+02 -0.10320430175E+02 -0.50337892780E+03  0.51037158906E+03  0.00000000000E+00 0. -1.
        -14    1    3    3    0    0  0.30052936959E+02 -0.34141871867E+02 -0.92141732089E+02  0.10275672838E+03  0.00000000000E+00 0.  1.
          5    1    4    4  501    0 -0.63935463472E+02  0.66917242345E+02  0.45235888449E+02  0.10309907282E+03  0.41800000000E+01 0. -1.
         -5    1    4    4    0  501 -0.56685980126E+02 -0.44196577623E+02 -0.18092432814E+02  0.74239115981E+02  0.41800000000E+01 0. -1.
</event>
<event>
11    1  0.5813833E-009  0.1543221E+03  0.7561462E-02  0.1092542E+00
         22   -1    0    0    0    0  0.00000000000E+00  0.00000000000E+00  0.47804452884E+03  0.47804452884E+03  0.00000000000E+00 0.  1.
         22   -1    0    0    0    0 -0.00000000000E+00 -0.00000000000E+00 -0.70695130051E+03  0.70695130051E+03  0.00000000000E+00 0.  1.
         24    2    1    2    0    0 -0.21726888316E+02  0.14555087985E+02 -0.52190115323E+03  0.52856235904E+03  0.79457192152E+02 0.  0.
         25    2    1    2    0    0  0.11107043982E+03 -0.11561394497E+02 -0.13277240032E+03  0.21388358303E+03  0.12508944145E+03 0.  0.
        -24    2    1    2    0    0 -0.89343551502E+02 -0.29936934878E+01  0.42576678188E+03  0.44254988729E+03  0.81128403095E+02 0.  0.
        -13    1    3    3    0    0  0.36545460306E+01 -0.30166799744E+02 -0.14341406175E+03  0.14659803758E+03  0.00000000000E+00 0.  1.
         14    1    3    3    0    0 -0.25381434347E+02  0.44721887729E+02 -0.37848709148E+03  0.38196432146E+03  0.00000000000E+00 0. -1.
         13    1    5    5    0    0 -0.66343738201E+01 -0.99853488215E+01  0.39177395769E+01  0.12612326925E+02  0.00000000000E+00 0. -1.
        -14    1    5    5    0    0 -0.82709177682E+02  0.69916553337E+01  0.42184904230E+03  0.42993756036E+03  0.00000000000E+00 0.  1.
          5    1    4    4  501    0  0.59999884465E+02 -0.21319780808E+01  0.10804750435E+02  0.61145290075E+02  0.41800000000E+01 0. -1.
         -5    1    4    4    0  501  0.51070555353E+02 -0.94294164167E+01 -0.14357715075E+03  0.15273829296E+03  0.41800000000E+01 0. -1.
</event>
<event>
11    1  0.8603495E-009  0.2019950E+03  0.7561462E-02  0.1053122E+00
         22   -1    0    0    0    0  0.00000000000E+00  0.00000000000E+00  0.69089588050E+03  0.69089588050E+03  0.00000000000E+00 0. -1.
         22   -1    0    0    0    0 -0.00000000000E+00 -0.00000000000E+00 -0.24163832042E+04  0.24163832042E+04  0.00000000000E+00 0.  1.
        -24    2    1    2    0    0  0.96552583869E+02 -0.41529092585E+02 -0.17742232055E+04  0.17792222393E+04  0.81955639310E+02 0.  0.
         25    2    1    2    0    0 -0.22810275279E+02  0.18209885756E+03 -0.60816283888E+03  0.64744905148E+03  0.12509169872E+03 0.  0.
         24    2    1    2    0    0 -0.73742308589E+02 -0.14056976498E+03  0.65689872075E+03  0.68060779388E+03  0.80704726448E+02 0.  0.
        -13    1    5    5    0    0  0.49665657288E+01 -0.56751591062E+01  0.26768422428E+01  0.80024802663E+01  0.00000000000E+00 0.  1.
         14    1    5    5    0    0 -0.78708874318E+02 -0.13489460587E+03  0.65422187850E+03  0.67260531361E+03  0.00000000000E+00 0. -1.
         11    1    3    3    0    0  0.59645860070E+02  0.18337066373E+02 -0.75384980844E+03  0.75642806023E+03  0.00000000000E+00 0. -1.
        -12    1    3    3    0    0  0.36906723798E+02 -0.59866158958E+02 -0.10203733971E+04  0.10227941791E+04  0.00000000000E+00 0.  1.
          5    1    4    4  501    0 -0.30798554847E+02  0.40083720049E+02 -0.34100194895E+03  0.34475361809E+03  0.41800000000E+01 0. -1.
         -5    1    4    4    0  501  0.79882795675E+01  0.14201513752E+03 -0.26716088992E+03  0.30269543340E+03  0.41800000000E+01 0. -1.
</event>
<event>
11    1  0.5813833E-009  0.1406732E+03  0.7561462E-02  0.1106809E+00
         22   -1    0    0    0    0  0.00000000000E+00  0.00000000000E+00  0.84526730665E+03  0.84526730665E+03  0.00000000000E+00 0.  1.
         22   -1    0    0    0    0 -0.00000000000E+00 -0.00000000000E+00 -0.93116690047E+02  0.93116690047E+02  0.00000000000E+00 0.  1.
        -24    2    1    2    0    0 -0.42619441455E+01 -0.70965246703E+02 -0.69934302338E+01  0.10669306700E+03  0.79248167619E+02 0.  0.
         25    2    1    2    0    0 -0.39294571295E+02  0.43568403440E+02  0.11353657394E+03  0.17882826886E+03  0.12508687784E+03 0.  0.
         24    2    1    2    0    0  0.43556515440E+02  0.27396843263E+02  0.64560747290E+03  0.65286266085E+03  0.82297556537E+02 0.  0.
        -13    1    5    5    0    0  0.55973685263E+02  0.47118064929E+02  0.45679218603E+03  0.46261459846E+03  0.00000000000E+00 0.  1.
         14    1    5    5    0    0 -0.12417169822E+02 -0.19721221666E+02  0.18881528686E+03  0.19024806239E+03  0.00000000000E+00 0. -1.
         13    1    3    3    0    0 -0.27225795814E+02 -0.46469917523E+02 -0.33923465780E+02  0.63651384296E+02  0.00000000000E+00 0. -1.
        -14    1    3    3    0    0  0.22963851668E+02 -0.24495329179E+02  0.26930035546E+02  0.43041682699E+02  0.00000000000E+00 0.  1.
          5    1    4    4  501    0 -0.69726739725E+02 -0.11896378040E+02  0.80814771229E+02  0.10747949429E+03  0.41800000000E+01 0.  1.
         -5    1    4    4    0  501  0.30432168431E+02  0.55464781480E+02  0.32721802715E+02  0.71348774572E+02  0.41800000000E+01 0.  1.
</event>
<event>
11    1  0.5813833E-009  0.3007211E+03  0.7561462E-02  0.9998865E-01
         22   -1    0    0    0    0  0.00000000000E+00  0.00000000000E+00  0.16571852895E+03  0.16571852895E+03  0.00000000000E+00 0.  1.
         22   -1    0    0    0    0 -0.00000000000E+00 -0.00000000000E+00 -0.26976775985E+04  0.26976775985E+04  0.00000000000E+00 0.  1.
        -24    2    1    2    0    0  0.18112770721E+02 -0.11018319876E+02 -0.18712674008E+04  0.18731532941E+04  0.81314831218E+02 0.  0.
         25    2    1    2    0    0  0.17061840294E+02  0.28056134485E+03 -0.63448984252E+03  0.70514528488E+03  0.12508692144E+03 0.  0.
         24    2    1    2    0    0 -0.35174611015E+02 -0.26954302497E+03 -0.26201826223E+02  0.28509754854E+03  0.81874177324E+02 0.  0.
        -13    1    5    5    0    0 -0.36331037883E+02 -0.10443830963E+03  0.22733039753E+02  0.11288975121E+03  0.00000000000E+00 0.  1.
         14    1    5    5    0    0  0.11564268679E+01 -0.16510471534E+03 -0.48934865977E+02  0.17220779732E+03  0.00000000000E+00 0. -1.
         11    1    3    3    0    0 -0.56994745154E+01 -0.23829583609E+02 -0.17891729162E+03  0.18058718200E+03  0.00000000000E+00 0. -1.
        -12    1    3    3    0    0  0.23812245237E+02  0.12811263733E+02 -0.16923501092E+04  0.16925661121E+04  0.00000000000E+00 0.  1.
          5    1    4    4  501    0  0.24598143606E+02  0.19882104411E+03 -0.30044117551E+03  0.36113328370E+03  0.41800000000E+01 0. -1.
         -5    1    4    4    0  501 -0.75363033119E+01  0.81740300741E+02 -0.33404866700E+03  0.34401200119E+03  0.41800000000E+01 0. -1.
</event>
<event>
11    1  0.5813833E-009  0.1558940E+03  0.7561462E-02  0.1091004E+00
         22   -1    0    0    0    0  0.00000000000E+00  0.00000000000E+00  0.53213802396E+03  0.53213802396E+03  0.00000000000E+00 0.  1.
         22   -1    0    0    0    0 -0.00000000000E+00 -0.00000000000E+00 -0.36325130673E+03  0.36325130673E+03  0.00000000000E+00 0. -1.
         24    2    1    2    0    0 -0.97217025160E+02  0.53966622281E+02 -0.21924678370E+03  0.26189353610E+03  0.90307949743E+02 0.  0.
         25    2    1    2    0    0  0.34328428414E+02 -0.52975832050E+02 -0.75126560559E+02  0.15898686476E+03  0.12509173948E+03 0.  0.
        -24    2    1    2    0    0  0.62888596746E+02 -0.99079023107E+00  0.46326006149E+03  0.47450892982E+03  0.81196567903E+02 0.  0.
        -11    1    3    3    0    0 -0.87670777985E+02  0.35221263735E+02 -0.88470650066E+02  0.12943631119E+03  0.00000000000E+00 0.  1.
         12    1    3    3    0    0 -0.95462471742E+01  0.18745358545E+02 -0.13077613364E+03  0.13245722491E+03  0.00000000000E+00 0. -1.
         13    1    5    5    0    0  0.28714003832E+02 -0.15354862365E+01  0.36899536436E+02  0.46780631925E+02  0.00000000000E+00 0. -1.
        -14    1    5    5    0    0  0.34174592913E+02  0.54469600540E+00  0.42636052505E+03  0.42772829789E+03  0.00000000000E+00 0.  1.
          5    1    4    4  501    0 -0.36781676151E+02  0.11254270754E+02 -0.26754865094E+01  0.38783771590E+02  0.41800000000E+01 0.  1.
         -5    1    4    4    0  501  0.71110104565E+02 -0.64230102804E+02 -0.72451074050E+02  0.12020309317E+03  0.41800000000E+01 0.  1.
</event>
<event>
11    1  0.5813833E-009  0.1385383E+03  0.7561462E-02  0.1109202E+00
         22   -1    0    0    0    0  0.00000000000E+00  0.00000000000E+00  0.29855337214E+03  0.29855337214E+03  0.00000000000E+00 0. -1.
         22   -1    0    0    0    0 -0.00000000000E+00 -0.00000000000E+00 -0.82290298537E+03  0.82290298537E+03  0.00000000000E+00 0.  1.
         24    2    1    2    0    0 -0.61751172131E+02 -0.47549342741E+01 -0.64626145110E+03  0.65411605065E+03  0.79863182254E+02 0.  0.
         25    2    1    2    0    0  0.44075953849E+02 -0.14572730848E+02 -0.13912936301E+03  0.19276976926E+03  0.12509256611E+03 0.  0.
        -24    2    1    2    0    0  0.17675218282E+02  0.19327665122E+02  0.26104120089E+03  0.27457053760E+03  0.80996910928E+02 0.  0.
        -11    1    3    3    0    0 -0.40053088778E+02 -0.24406225834E+02 -0.57724928485E+03  0.57915166463E+03  0.00000000000E+00 0.  1.
         12    1    3    3    0    0 -0.21698083353E+02  0.19651291560E+02 -0.69012166246E+02  0.74964386018E+02  0.00000000000E+00 0. -1.
         13    1    5    5    0    0  0.20978697474E+02  0.42531249746E+01  0.25794387613E+03  0.25883051994E+03  0.00000000000E+00 0. -1.
        -14    1    5    5    0    0 -0.33034791925E+01  0.15074540148E+02  0.30973247571E+01  0.15740017665E+02  0.00000000000E+00 0.  1.
          5    1    4    4  501    0  0.78070551554E+01 -0.12126467965E+02  0.22499951957E+02  0.27050352559E+02  0.41800000000E+01 0.  1.
         -5    1    4    4    0  501  0.36268898694E+02 -0.24462628833E+01 -0.16162931497E+03  0.16571941670E+03  0.41800000000E+01 0.  1.
</event>
<event>
11    1  0.5813833E-009  0.1438168E+03  0.7561462E-02  0.1103370E+00
         22   -1    0    0    0    0  0.00000000000E+00  0.00000000000E+00  0.91559550439E+03  0.91559550439E+03  0.00000000000E+00 0. -1.
         22   -1    0    0    0    0 -0.00000000000E+00 -0.00000000000E+00 -0.12971156909E+04  0.12971156909E+04  0.00000000000E+00 0.  1.
        -24    2    1    2    0    0 -0.21892918841E+02 -0.15782420044E+02 -0.12709330737E+04  0.12739326319E+04  0.83096859480E+02 0.  0.
         25    2    1    2    0    0  0.49103091616E+02 -0.50735627072E+02  0.22910751299E+03  0.27041186699E+03  0.12508840010E+03 0.  0.
         24    2    1    2    0    0 -0.27210172775E+02  0.66518047115E+02  0.66030537420E+03  0.66836669643E+03  0.74470192712E+02 0.  0.
        -13    1    5    5    0    0  0.64595672865E+01 -0.83970958630E+01  0.18431532507E+02  0.21259318404E+02  0.00000000000E+00 0.  1.
         14    1    5    5    0    0 -0.33669740062E+02  0.74915142978E+02  0.64187384169E+03  0.64710737802E+03  0.00000000000E+00 0. -1.
         11    1    3    3    0    0  0.27194897924E+02 -0.18054590876E+01 -0.20842908058E+03  0.21020348186E+03  0.00000000000E+00 0. -1.
        -12    1    3    3    0    0 -0.49087816765E+02 -0.13976960956E+02 -0.10625039931E+04  0.10637291500E+04  0.00000000000E+00 0.  1.
          5    1    4    4  501    0  0.96588245560E+01 -0.83406541889E+02  0.18293748940E+03  0.20132943538E+03  0.41800000000E+01 0. -1.
         -5    1    4    4    0  501  0.39444267060E+02  0.32670914817E+02  0.46170023589E+02  0.69082431610E+02  0.41800000000E+01 0. -1.
</event>
<event>
11    1  0.5813833E-009  0.1329729E+03  0.7561462E-02  0.1115669E+00
         22   -1    0    0    0    0  0.00000000000E+00  0.00000000000E+00  0.25265147224E+04  0.25265147224E+04  0.00000000000E+00 0.  1.
         22   -1    0    0    0    0 -0.00000000000E+00 -0.00000000000E+00 -0.58201016865E+03  0.58201016865E+03  0.00000000000E+00 0. -1.
         24    2    1    2    0    0 -0.20526666256E+01  0.45962274355E+02 -0.52981964341E+03  0.53833404382E+03  0.83534089383E+02 0.  0.
         25    2    1    2    0    0 -0.25218540166E+02 -0.26907687892E+02  0.42500456354E+02  0.13716189374E+03  0.12508836024E+03 0.  0.
        -24    2    1    2    0    0  0.27271206791E+02 -0.19054586464E+02  0.24318237408E+04  0.24330289535E+04  0.68966558760E+02 0.  0.
        -11    1    3    3    0    0 -0.30682231616E+02  0.38589555192E+02 -0.16218483578E+03  0.16951245991E+03  0.00000000000E+00 0.  1.
         12    1    3    3    0    0  0.28629564990E+02  0.73727191637E+01 -0.36763480762E+03  0.36882158391E+03  0.00000000000E+00 0. -1.
         13    1    5    5    0    0  0.44680918928E+01 -0.37739922563E+01  0.15775428110E+02  0.16824713809E+02  0.00000000000E+00 0. -1.
        -14    1    5    5    0    0  0.22803114899E+02 -0.15280594208E+02  0.24160483127E+04  0.24162042397E+04  0.00000000000E+00 0.  1.
          5    1    4    4  501    0  0.72459344306E-01 -0.24261863269E+01  0.83114546191E+02  0.83254980746E+02  0.41800000000E+01 0.  1.
         -5    1    4    4    0  501 -0.25290999510E+02 -0.24481501565E+02 -0.40614089836E+02  0.53906912992E+02  0.41800000000E+01 0.  1.
</event>
<event>
11    1  0.5813833E-009  0.1329281E+03  0.7561462E-02  0.1115723E+00
         22   -1    0    0    0    0  0.00000000000E+00  0.00000000000E+00  0.32258234370E+03  0.32258234370E+03  0.00000000000E+00 0.  1.
         22   -1    0    0    0    0 -0.00000000000E+00 -0.00000000000E+00 -0.14585391221E+03  0.14585391221E+03  0.00000000000E+00 0. -1.
        -24    2    1    2    0    0  0.10466957650E+03 -0.31155946609E+02  0.82671585742E+02  0.15993525042E+03  0.82572876806E+02 0.  0.
         25    2    1    2    0    0  0.21348791809E+01  0.33302778902E+02 -0.22477309778E+02  0.13139684221E+03  0.12508504266E+03 0.  0.
         24    2    1    2    0    0 -0.10680445568E+03 -0.21468322938E+01  0.11653415553E+03  0.17710416329E+03  0.79836549314E+02 0.  0.
        -13    1    5    5    0    0 -0.63245074720E+02  0.32682066651E+02  0.37757161247E+02  0.80583250011E+02  0.00000000000E+00 0.  1.
         14    1    5    5    0    0 -0.43559380960E+02 -0.34828898945E+02  0.78776994281E+02  0.96520913274E+02  0.00000000000E+00 0. -1.
         13    1    3    3    0    0  0.86433236753E+02 -0.21567548242E+02  0.16459075905E+02  0.90591195667E+02  0.00000000000E+00 0. -1.
        -14    1    3    3    0    0  0.18236339746E+02 -0.95883983665E+01  0.66212509837E+02  0.69344054752E+02  0.00000000000E+00 0.  1.
          5    1    4    4  501    0 -0.51145732241E+02 -0.18288528650E+02 -0.27895392419E+01  0.54549153392E+02  0.41800000000E+01 0.  1.
         -5    1    4    4    0  501  0.53280611422E+02  0.51591307553E+02 -0.19687770536E+02  0.76847688821E+02  0.41800000000E+01 0.  1.
</event>
<event>
11    1  0.5813833E-009  0.1582547E+03  0.7561462E-02  0.1088730E+00
         22   -1    0    0    0    0  0.00000000000E+00  0.00000000000E+00  0.13022436102E+04  0.13022436102E+04  0.00000000000E+00 0.  1.
         22   -1    0    0    0    0 -0.00000000000E+00 -0.00000000000E+00 -0.40065965146E+03  0.40065965146E+03  0.00000000000E+00 0. -1.
        -24    2    1    2    0    0 -0.32033237336E+02 -0.92305081877E+02 -0.36428579385E+03  0.38541605204E+03  0.79341270029E+02 0.  0.
         25    2    1    2    0    0  0.30136131947E+02  0.74541167815E+02  0.20475682648E+03  0.25305639161E+03  0.12509039611E+03 0.  0.
         24    2    1    2    0    0  0.18971053890E+01  0.17763914063E+02  0.10611129262E+04  0.10644308180E+04  0.82055887653E+02 0.  0.
        -13    1    5    5    0    0 -0.14161470804E+02  0.22768469227E+02  0.10148640401E+04  0.10152181886E+04  0.00000000000E+00 0.  1.
         14    1    5    5    0    0  0.16058576193E+02 -0.50045551639E+01  0.46248886038E+02  0.49212629492E+02  0.00000000000E+00 0. -1.
         11    1    3    3    0    0  0.91519767550E+01 -0.44208474543E+02 -0.25620753332E+03  0.26015466175E+03  0.00000000000E+00 0. -1.
        -12    1    3    3    0    0 -0.41185214091E+02 -0.48096607334E+02 -0.10807826053E+03  0.12526139028E+03  0.00000000000E+00 0.  1.
          5    1    4    4  501    0 -0.64482297014E+01  0.80078513472E+02  0.19993076688E+03  0.21550854260E+03  0.41800000000E+01 0.  1.
         -5    1    4    4    0  501  0.36584361648E+02 -0.55373456576E+01  0.48260595921E+01  0.37547849011E+02  0.41800000000E+01 0.  1.
</event>
<event>
11    1  0.5813833E-009  0.1432896E+03  0.7561462E-02  0.1103940E+00
         22   -1    0    0    0    0  0.00000000000E+00  0.00000000000E+00  0.64220893862E+03  0.64220893862E+03  0.00000000000E+00 0. -1.
         22   -1    0    0    0    0 -0.00000000000E+00 -0.00000000000E+00 -0.22038065724E+03  0.22038065724E+03  0.00000000000E+00 0. -1.
        -24    2    1    2    0    0 -0.20579961631E+02  0.62696583251E+02 -0.12782466377E+03  0.16593004292E+03  0.82699686223E+02 0.  0.
         25    2    1    2    0    0  0.30551763356E+02  0.10765785488E+02 -0.69579502362E+01  0.12941209581E+03  0.12509902114E+03 0.  0.
         24    2    1    2    0    0 -0.99718017249E+01 -0.73462368739E+02  0.55661089539E+03  0.56724745713E+03  0.80360639043E+02 0.  0.
        -13    1    5    5    0    0  0.26933354460E+02 -0.35911513570E+02  0.13286478466E+03  0.14024297983E+03  0.00000000000E+00 0.  1.
         14    1    5    5    0    0 -0.36905156185E+02 -0.37550855169E+02  0.42374611073E+03  0.42700447730E+03  0.00000000000E+00 0. -1.
         13    1    3    3    0    0 -0.37898894646E+02  0.47297049526E+02 -0.12920479801E+03  0.14271375875E+03  0.00000000000E+00 0. -1.
        -14    1    3    3    0    0  0.17318933015E+02  0.15399533725E+02  0.13801342372E+01  0.23216284161E+02  0.00000000000E+00 0.  1.
          5    1    4    4  501    0 -0.43717998521E+02  0.28249239387E+02 -0.89092237748E+01  0.52972913729E+02  0.41800000000E+01 0. -1.
         -5    1    4    4    0  501  0.74269761877E+02 -0.17483453899E+02  0.19512735386E+01  0.76439182086E+02  0.41800000000E+01 0. -1.
</event>
<event>
11    1  0.5813833E-009  0.2667395E+03  0.7561462E-02  0.1015341E+00
         22   -1    0    0    0    0  0.00000000000E+00  0.00000000000E+00  0.20651557066E+04  0.20651557066E+04  0.00000000000E+00 0.  1.
         22   -1    0    0    0    0 -0.00000000000E+00 -0.00000000000E+00 -0.57636851014E+03  0.57636851014E+03  0.00000000000E+00 0. -1.
         24    2    1    2    0    0 -0.83205886063E+01 -0.12085908626E+03 -0.32673467956E+03  0.35721299390E+03  0.78545663530E+02 0.  0.
         25    2    1    2    0    0 -0.13661720561E+03  0.30275609512E+03 -0.87521291565E+02  0.36555834417E+03  0.12508961791E+03 0.  0.
        -24    2    1    2    0    0  0.14493779422E+03 -0.18189700887E+03  0.19030431676E+04  0.19187528787E+04  0.77109180282E+02 0.  0.
        -11    1    3    3    0    0 -0.17683560064E+02 -0.89315188155E+00 -0.89176943973E+02  0.90917728487E+02  0.00000000000E+00 0.  1.
         12    1    3    3    0    0  0.93629714580E+01 -0.11996593438E+03 -0.23755773558E+03  0.26629526541E+03  0.00000000000E+00 0. -1.
         11    1    5    5    0    0  0.38032612037E+02 -0.62873357128E+01  0.36496830350E+03  0.36699846421E+03  0.00000000000E+00 0. -1.
        -12    1    5    5    0    0  0.10690518218E+03 -0.17560967315E+03  0.15380748641E+04  0.15517544145E+04  0.00000000000E+00 0.  1.
          5    1    4    4  501    0 -0.94669658777E+02  0.15538644817E+03 -0.10687383625E+03  0.21106108557E+03  0.41800000000E+01 0. -1.
         -5    1    4    4    0  501 -0.41947546836E+02  0.14736964695E+03  0.19352544681E+02  0.15449725860E+03  0.41800000000E+01 0. -1.
</event>
<event>
11    1  0.5813833E-009  0.1446530E+03  0.7561462E-02  0.1102471E+00
         22   -1    0    0    0    0  0.00000000000E+00  0.00000000000E+00  0.10898522115E+03  0.10898522115E+03  0.00000000000E+00 0.  1.
         22   -1    0    0    0    0 -0.00000000000E+00 -0.00000000000E+00 -0.50379973210E+03  0.50379973210E+03  0.00000000000E+00 0.  1.
         24    2    1    2    0    0  0.50642265926E+02 -0.71967143415E+01 -0.31573143632E+03  0.32974844334E+03  0.80195163225E+02 0.  0.
         25    2    1    2    0    0 -0.10722199711E+03 -0.60389702081E+01 -0.72877806211E+02  0.18024318320E+03  0.12507359684E+03 0.  0.
        -24    2    1    2    0    0  0.56579731183E+02  0.13235684550E+02 -0.62052684164E+01  0.10279332672E+03  0.84566620692E+02 0.  0.
        -13    1    3    3    0    0  0.36827901849E+02 -0.37947248415E+02 -0.25366235560E+03  0.25911557009E+03  0.00000000000E+00 0.  1.
         14    1    3    3    0    0  0.13814364077E+02  0.30750534073E+02 -0.62069080727E+02  0.70632873245E+02  0.00000000000E+00 0. -1.
         11    1    5    5    0    0 -0.20877819233E+02  0.13394642560E+02  0.20877040944E+01  0.24892936621E+02  0.00000000000E+00 0. -1.
        -12    1    5    5    0    0  0.77457550416E+02 -0.15895801010E+00 -0.82929725108E+01  0.77900390096E+02  0.00000000000E+00 0.  1.
          5    1    4    4  501    0 -0.13169443022E+03  0.14534134429E+02 -0.56851945511E+02  0.14423688891E+03  0.41800000000E+01 0. -1.
         -5    1    4    4    0  501  0.24472433114E+02 -0.20573104637E+02 -0.16025860700E+02  0.36006294284E+02  0.41800000000E+01 0. -1.
</event>
<event>
11    1  0.5813833E-009  0.1816567E+03  0.7561462E-02  0.1068311E+00
         22   -1    0    0    0    0  0.00000000000E+00  0.00000000000E+00  0.12003617993E+03  0.12003617993E+03  0.00000000000E+00 0. -1.
         22   -1    0    0    0    0 -0.00000000000E+00 -0.00000000000E+00 -0.26890450826E+04  0.26890450826E+04  0.00000000000E+00 0. -1.
        -24    2    1    2    0    0 -0.71339568177E+02 -0.34787462069E+01 -0.24156854210E+04  0.24181056812E+04  0.81225590847E+02 0.  0.
         25    2    1    2    0    0  0.98148176139E+02 -0.11990438196E+03 -0.13505598494E+03  0.24062137327E+03  0.12509356864E+03 0.  0.
         24    2    1    2    0    0 -0.26808607961E+02  0.12338312816E+03 -0.18267496755E+02  0.15035420808E+03  0.79564996529E+02 0.  0.
        -13    1    5    5    0    0  0.14938577462E+02  0.50021224507E+02 -0.36880885167E+02  0.63917788513E+02  0.00000000000E+00 0.  1.
         14    1    5    5    0    0 -0.41747185423E+02  0.73361903657E+02  0.18613388412E+02  0.86436419565E+02  0.00000000000E+00 0. -1.
         13    1    3    3    0    0 -0.16254904126E+02  0.17572793916E+02 -0.16426031471E+04  0.16427775638E+04  0.00000000000E+00 0. -1.
        -14    1    3    3    0    0 -0.55084664051E+02 -0.21051540123E+02 -0.77308227382E+03  0.77532811742E+03  0.00000000000E+00 0.  1.
          5    1    4    4  501    0  0.93631251865E+02 -0.16153704139E+02 -0.60633144566E+02  0.11279008867E+03  0.41800000000E+01 0. -1.
         -5    1    4    4    0  501  0.45169242736E+01 -0.10375067782E+03 -0.74422840371E+02  0.12783128460E+03  0.41800000000E+01 0. -1.
</event>
<event>
11    1  0.5813833E-009  0.1269137E+03  0.7561462E-02  0.1123120E+00
         22   -1    0    0    0    0  0.00000000000E+00  0.00000000000E+00  0.94627192617E+03  0.94627192617E+03  0.00000000000E+00 0.  1.
         22   -1    0    0    0    0 -0.00000000000E+00 -0.00000000000E+00 -0.81607651284E+03  0.81607651284E+03  0.00000000000E+00 0.  1.
         24    2    1    2    0    0 -0.51681021387E+02  0.66769208299E+01 -0.77970334071E+03  0.78546124274E+03  0.79350835411E+02 0.  0.
         25    2    1    2    0    0  0.25102948895E+02 -0.27288934004E+00  0.10758470251E+03  0.16689348063E+03  0.12509489659E+03 0.  0.
        -24    2    1    2    0    0  0.26578072493E+02 -0.64040314899E+01  0.80231405153E+03  0.80999371564E+03  0.10786369426E+03 0.  0.
        -11    1    3    3    0    0 -0.69607731411E+02  0.19916687197E+02 -0.61907481467E+03  0.62329410142E+03  0.00000000000E+00 0.  1.
         12    1    3    3    0    0  0.17926710024E+02 -0.13239766367E+02 -0.16062852604E+03  0.16216714132E+03  0.00000000000E+00 0. -1.
         13    1    5    5    0    0 -0.16289230233E+02 -0.44252921740E+02  0.22710013444E+03  0.23194424150E+03  0.00000000000E+00 0. -1.
        -14    1    5    5    0    0  0.42867302725E+02  0.37848890251E+02  0.57521391709E+03  0.57804947414E+03  0.00000000000E+00 0.  1.
          5    1    4    4  501    0  0.45595774532E+02 -0.14241035754E+02  0.12659172028E+03  0.13536882137E+03  0.41800000000E+01 0.  1.
         -5    1    4    4    0  501 -0.20492825638E+02  0.13968146414E+02 -0.19007017776E+02  0.31524659262E+02  0.41800000000E+01 0.  1.
</event>
<event>
11    1  0.5813833E-009  0.1400545E+03  0.7561462E-02  0.1107498E+00
         22   -1    0    0    0    0  0.00000000000E+00  0.00000000000E+00  0.38965322540E+03  0.38965322540E+03  0.00000000000E+00 0. -1.
         22   -1    0    0    0    0 -0.00000000000E+00 -0.00000000000E+00 -0.36137681155E+03  0.36137681155E+03  0.00000000000E+00 0.  1.
        -24    2    1    2    0    0 -0.18133565131E+01  0.18919480808E+02 -0.28713267610E+03  0.29871941651E+03  0.80167830854E+02 0.  0.
         25    2    1    2    0    0 -0.48523464245E+02 -0.54711777079E+02  0.28009380989E+02  0.14757591663E+03  0.12508485365E+03 0.  0.
         24    2    1    2    0    0  0.50336820759E+02  0.35792296271E+02  0.28739970895E+03  0.30473470380E+03  0.80310416515E+02 0.  0.
        -13    1    5    5    0    0  0.25221543032E+02  0.86459887060E+01  0.16570315884E+02  0.31391953143E+02  0.00000000000E+00 0.  1.
         14    1    5    5    0    0  0.25115277726E+02  0.27146307565E+02  0.27082939307E+03  0.27334275066E+03  0.00000000000E+00 0. -1.
         13    1    3    3    0    0 -0.17966848280E+02  0.35597210513E+02 -0.71721794827E+02  0.82060860869E+02  0.00000000000E+00 0. -1.
        -14    1    3    3    0    0  0.16153491767E+02 -0.16677729705E+02 -0.21541088127E+03  0.21665855565E+03  0.00000000000E+00 0.  1.
          5    1    4    4  501    0 -0.75501095832E+02  0.82569168899E+01  0.18549351622E+02  0.78295229701E+02  0.41800000000E+01 0. -1.
         -5    1    4    4    0  501  0.26977631586E+02 -0.62968693968E+02  0.94600293668E+01  0.69280686932E+02  0.41800000000E+01 0. -1.
</event>
<event>
11    1  0.5813833E-009  0.1453587E+03  0.7561462E-02  0.1101718E+00
         22   -1    0    0    0    0  0.00000000000E+00  0.00000000000E+00  0.20071328433E+03  0.20071328433E+03  0.00000000000E+00 0. -1.
         22   -1    0    0    0    0 -0.00000000000E+00 -0.00000000000E+00 -0.63143239393E+03  0.63143239393E+03  0.00000000000E+00 0.  1.
         24    2    1    2    0    0 -0.44582507675E+02 -0.78132743131E+02 -0.45855683785E+03  0.47326879735E+03  0.74944349098E+02 0.  0.
         25    2    1    2    0    0 -0.40429365230E+01  0.19503082606E+02 -0.12031697147E+03  0.17470139724E+03  0.12509072311E+03 0.  0.
        -24    2    1    2    0    0  0.48625444198E+02  0.58629660525E+02  0.14815469971E+03  0.18417548367E+03  0.78542490541E+02 0.  0.
        -11    1    3    3    0    0 -0.53798664881E+02 -0.36662185639E+02 -0.36159215601E+03  0.36740617780E+03  0.00000000000E+00 0.  1.
         12    1    3    3    0    0  0.92161572055E+01 -0.41470557492E+02 -0.96964681842E+02  0.10586261955E+03  0.00000000000E+00 0. -1.
         13    1    5    5    0    0  0.15605411118E+02  0.47233065840E+02  0.13961954623E+03  0.14821642639E+03  0.00000000000E+00 0. -1.
        -14    1    5    5    0    0  0.33020033080E+02  0.11396594685E+02  0.85351534893E+01  0.35959057275E+02  0.00000000000E+00 0.  1.
          5    1    4    4  501    0  0.40058693352E+01  0.72539561107E+02 -0.65905032858E+02  0.98178310592E+02  0.41800000000E+01 0. -1.
         -5    1    4    4    0  501 -0.80488058582E+01 -0.53036478501E+02 -0.54411938610E+02  0.76523086653E+02  0.41800000000E+01 0. -1.
</event>
<event>
11    1  0.5813833E-009  0.2126423E+03  0.7561462E-02  0.1045927E+00
         22   -1    0    0    0    0  0.00000000000E+00  0.00000000000E+00  0.12857629228E+04  0.12857629228E+04  0.00000000000E+00 0. -1.
         22   -1    0    0    0    0 -0.00000000000E+00 -0.00000000000E+00 -0.70388766271E+03  0.70388766271E+03  0.00000000000E+00 0.  1.
         24    2    1    2    0    0 -0.13873725925E+03 -0.98711529891E+02 -0.62390100592E+03  0.65178639528E+03  0.81123650288E+02 0.  0.
         25    2    1    2    0    0  0.15815636775E+03  0.11880521192E+03  0.14880639539E+03  0.27734220005E+03  0.12508891869E+03 0.  0.
        -24    2    1    2    0    0 -0.19419108496E+02 -0.20093682034E+02  0.10569698706E+04  0.10605219901E+04  0.82101927096E+02 0.  0.
        -11    1    3    3    0    0 -0.97285907008E+02 -0.19954007676E+02 -0.31071772016E+03  0.32620271572E+03  0.00000000000E+00 0.  1.
         12    1    3    3    0    0 -0.41451352243E+02 -0.78757522215E+02 -0.31318328577E+03  0.32558367955E+03  0.00000000000E+00 0. -1.
         11    1    5    5    0    0 -0.82967610970E+00 -0.36241419322E+00  0.95528935877E+03  0.95528978781E+03  0.00000000000E+00 0. -1.
        -12    1    5    5    0    0 -0.18589432386E+02 -0.19731267840E+02  0.10168051180E+03  0.10523220233E+03  0.00000000000E+00 0.  1.
          5    1    4    4  501    0 -0.14386503614E+01  0.48454856021E+02  0.71580445387E+02  0.86551576235E+02  0.41800000000E+01 0. -1.
         -5    1    4    4    0  501  0.15959501811E+03  0.70350355903E+02  0.77225950007E+02  0.19079062381E+03  0.41800000000E+01 0. -1.
</event>
<event>
11    1  0.5813833E-009  0.1289965E+03  0.7561462E-02  0.1120508E+00
         22   -1    0    0    0    0  0.00000000000E+00  0.00000000000E+00  0.10944876948E+04  0.10944876948E+04  0.00000000000E+00 0. -1.
         22   -1    0    0    0    0 -0.00000000000E+00 -0.00000000000E+00 -0.60645149696E+03  0.60645149696E+03  0.00000000000E+00 0.  1.
        -24    2    1    2    0    0 -0.17999899247E+02  0.24471636892E+02 -0.53991433177E+03  0.54805682579E+03  0.89083900092E+02 0.  0.
         25    2    1    2    0    0  0.11849210035E+02 -0.56290217937E+02  0.17028785838E+02  0.13873451172E+03  0.12509313643E+03 0.  0.
         24    2    1    2    0    0  0.61506892120E+01  0.31818581045E+02  0.10109217438E+04  0.10141478543E+04  0.74046236712E+02 0.  0.
        -13    1    5    5    0    0  0.35141290712E+02  0.17055580970E+01  0.31203381869E+03  0.31401102408E+03  0.00000000000E+00 0.  1.
         14    1    5    5    0    0 -0.28990601500E+02  0.30113022948E+02  0.69888792510E+03  0.70013683018E+03  0.00000000000E+00 0. -1.
         13    1    3    3    0    0  0.86209217449E+01  0.19823233937E+02 -0.27730144511E+02  0.35160230518E+02  0.00000000000E+00 0. -1.
        -14    1    3    3    0    0 -0.26620820992E+02  0.46484029552E+01 -0.51218418726E+03  0.51289659527E+03  0.00000000000E+00 0.  1.
          5    1    4    4  501    0  0.57204058246E+02  0.50199835765E+01 -0.85084624938E+01  0.58201124121E+02  0.41800000000E+01 0. -1.
         -5    1    4    4    0  501 -0.45354848212E+02 -0.61310201514E+02  0.25537248332E+02  0.80533387600E+02  0.41800000000E+01 0. -1.
</event>
<event>
11    1  0.5813833E-009  0.2824276E+03  0.7561462E-02  0.1007915E+00
         22   -1    0    0    0    0  0.00000000000E+00  0.00000000000E+00  0.21817841451E+03  0.21817841451E+03  0.00000000000E+00 0.  1.
         22   -1    0    0    0    0 -0.00000000000E+00 -0.00000000000E+00 -0.10190485716E+04  0.10190485716E+04  0.00000000000E+00 0.  1.
         24    2    1    2    0    0  0.18634548619E+03 -0.19130138594E+03 -0.79733874679E+03  0.84467545062E+03  0.80041734499E+02 0.  0.
         25    2    1    2    0    0 -0.13171019412E+03  0.15742062998E+03 -0.91620848466E+02  0.25723756393E+03  0.12509178409E+03 0.  0.
        -24    2    1    2    0    0 -0.54635292073E+02  0.33880755964E+02  0.88089438187E+02  0.13531397155E+03  0.80107434179E+02 0.  0.
        -13    1    3    3    0    0  0.10637909748E+03 -0.57840223438E+02 -0.40136558194E+03  0.41923303089E+03  0.00000000000E+00 0.  1.
         14    1    3    3    0    0  0.79966388714E+02 -0.13346116250E+03 -0.39597316485E+03  0.42544241973E+03  0.00000000000E+00 0. -1.
         13    1    5    5    0    0  0.89091081258E+01 -0.10971165942E+02 -0.40820648365E+01  0.14710606481E+02  0.00000000000E+00 0. -1.
        -14    1    5    5    0    0 -0.63544400199E+02  0.44851921905E+02  0.92171503024E+02  0.12060336506E+03  0.00000000000E+00 0.  1.
          5    1    4    4  501    0 -0.44271743626E+02 -0.15213530450E+01 -0.57332186495E+02  0.72572403895E+02  0.41800000000E+01 0.  1.
         -5    1    4    4    0  501 -0.87438450494E+02  0.15894198302E+03 -0.34288661971E+02  0.18466516004E+03  0.41800000000E+01 0.  1.
</event>
<event>
11    1  0.5813833E-009  0.1343799E+03  0.7561462E-02  0.1114002E+00
         22   -1    0    0    0    0  0.00000000000E+00  0.00000000000E+00  0.17708082074E+04  0.17708082074E+04  0.00000000000E+00 0.  1.
         22   -1    0    0    0    0 -0.00000000000E+00 -0.00000000000E+00 -0.47347269090E+03  0.47347269090E+03  0.00000000000E+00 0.  1.
        -24    2    1    2    0    0  0.30510427543E+02 -0.30594286642E+02 -0.43830774640E+03  0.44718050443E+03  0.77393968937E+02 0.  0.
         25    2    1    2    0    0  0.19960583428E+02  0.31198097742E+02  0.11589724661E+03  0.17450311960E+03  0.12508965099E+03 0.  0.
         24    2    1    2    0    0 -0.50471010971E+02 -0.60381109966E+00  0.16197460163E+04  0.16225972742E+04  0.81835625549E+02 0.  0.
        -13    1    5    5    0    0 -0.60448199004E+02  0.23929615876E+01  0.15886742655E+04  0.15898256612E+04  0.00000000000E+00 0.  1.
         14    1    5    5    0    0  0.99771880327E+01 -0.29967726873E+01  0.31071750722E+02  0.32771613029E+02  0.00000000000E+00 0. -1.
         13    1    3    3    0    0 -0.22558944336E+02  0.69511193809E+01 -0.11214554225E+03  0.11460299594E+03  0.00000000000E+00 0. -1.
        -14    1    3    3    0    0  0.53069371879E+02 -0.37545406023E+02 -0.32616220415E+03  0.33257750850E+03  0.00000000000E+00 0.  1.
          5    1    4    4  501    0 -0.26454717346E+02 -0.25831302560E+02  0.88358123494E+02  0.95873555526E+02  0.41800000000E+01 0.  1.
         -5    1    4    4    0  501  0.46415300774E+02  0.57029400302E+02  0.27539123112E+02  0.78629564074E+02  0.41800000000E+01 0.  1.
</event>
<event>
11    1  0.5813833E-009  0.1321658E+03  0.7561462E-02  0.1116636E+00
         22   -1    0    0    0    0  0.00000000000E+00  0.00000000000E+00  0.55015281235E+03  0.55015281235E+03  0.00000000000E+00 0. -1.
         22   -1    0    0    0    0 -0.00000000000E+00 -0.00000000000E+00 -0.51871359489E+03  0.51871359489E+03  0.00000000000E+00 0. -1.
         24    2    1    2    0    0  0.13427713233E+02 -0.24289574749E+02 -0.46987592000E+03  0.47767629692E+03  0.81369389338E+02 0.  0.
         25    2    1    2    0    0 -0.45321414078E+02  0.48307685638E+02  0.84694153833E+02  0.16495201404E+03  0.12509358168E+03 0.  0.
        -24    2    1    2    0    0  0.31893700845E+02 -0.24018110889E+02  0.41662098363E+03  0.42623809627E+03  0.80695680874E+02 0.  0.
        -11    1    3    3    0    0  0.45176093468E+02 -0.13537935482E+02 -0.18846529281E+03  0.19427640544E+03  0.00000000000E+00 0.  1.
         12    1    3    3    0    0 -0.31748380236E+02 -0.10751639267E+02 -0.28141062719E+03  0.28339989148E+03  0.00000000000E+00 0. -1.
         13    1    5    5    0    0 -0.61206139921E+01 -0.27083616736E+02  0.33497667552E+03  0.33612550833E+03  0.00000000000E+00 0. -1.
        -14    1    5    5    0    0  0.38014314837E+02  0.30655058471E+01  0.81644308111E+02  0.90112587942E+02  0.00000000000E+00 0.  1.
          5    1    4    4  501    0 -0.64946476168E+02  0.76723898608E+02  0.82478186656E+02  0.13009506162E+03  0.41800000000E+01 0.  1.
         -5    1    4    4    0  501  0.19625062091E+02 -0.28416212971E+02  0.22159671767E+01  0.34856952422E+02  0.41800000000E+01 0.  1.
</event>
<event>
11    1  0.5813833E-009  0.1585479E+03  0.7561462E-02  0.1088451E+00
         22   -1    0    0    0    0  0.00000000000E+00  0.00000000000E+00  0.10023076964E+04  0.10023076964E+04  0.00000000000E+00 0. -1.
         22   -1    0    0    0    0 -0.00000000000E+00 -0.00000000000E+00 -0.79742232640E+03  0.79742232640E+03  0.00000000000E+00 0.  1.
         24    2    1    2    0    0  0.23300859972E+02  0.39086707074E+02 -0.67654765836E+03  0.68294586454E+03  0.81410190455E+02 0.  0.
         25    2    1    2    0    0  0.33038291941E+02 -0.11773332316E+03 -0.45951995441E+02  0.18086407302E+03  0.12509021908E+03 0.  0.
        -24    2    1    2    0    0 -0.56339151913E+02  0.78646616083E+02  0.92738502382E+03  0.93592008526E+03  0.80895199585E+02 0.  0.
        -11    1    3    3    0    0  0.49674690085E+02  0.34834156245E+02 -0.34254137303E+03  0.34787294450E+03  0.00000000000E+00 0.  1.
         12    1    3    3    0    0 -0.26373830113E+02  0.42525508294E+01 -0.33400628533E+03  0.33507292004E+03  0.00000000000E+00 0. -1.
         13    1    5    5    0    0 -0.68908782873E+02  0.69323916432E+02  0.89055449337E+03  0.89590263500E+03  0.00000000000E+00 0. -1.
        -14    1    5    5    0    0  0.12569630960E+02  0.93226996513E+01  0.36830530459E+02  0.40017450258E+02  0.00000000000E+00 0.  1.
          5    1    4    4  501    0  0.53327179747E+01 -0.12734408582E+03 -0.67450090360E+02  0.14426344362E+03  0.41800000000E+01 0. -1.
         -5    1    4    4    0  501  0.27705573966E+02  0.96107626631E+01  0.21498094920E+02  0.36600629406E+02  0.41800000000E+01 0. -1.
</event>
<event>
11    1  0.5813833E-009  0.1430817E+03  0.7561462E-02  0.1104165E+00
         22   -1    0    0    0    0  0.00000000000E+00  0.00000000000E+00  0.98751184577E+02  0.98751184577E+02  0.00000000000E+00 0. -1.
         22   -1    0    0    0    0 -0.00000000000E+00 -0.00000000000E+00 -0.14952363659E+04  0.14952363659E+04  0.00000000000E+00 0.  1.
        -24    2    1    2    0    0 -0.31665546798E+02  0.60228345647E+02 -0.12936502682E+04  0.12979050192E+04  0.79976633346E+02 0.  0.
         25    2    1    2    0    0  0.79159421919E+02 -0.67492012985E+02 -0.11957506803E+03  0.20190446469E+03  0.12508329253E+03 0.  0.
         24    2    1    2    0    0 -0.47493875121E+02  0.72636673380E+01  0.16740154975E+02  0.94178066560E+02  0.79251791117E+02 0.  0.
        -13    1    5    5    0    0  0.13035939073E+02  0.16448053424E+02  0.24731119781E+02  0.32436128847E+02  0.00000000000E+00 0.  1.
         14    1    5    5    0    0 -0.60529814194E+02 -0.91843860856E+01 -0.79909648059E+01  0.61741937714E+02  0.00000000000E+00 0. -1.
         11    1    3    3    0    0 -0.62238178626E+01 -0.18702533480E+02 -0.37555525647E+03  0.37607216240E+03  0.00000000000E+00 0. -1.
        -12    1    3    3    0    0 -0.25441728936E+02  0.78930879127E+02 -0.91809501178E+03  0.92183285681E+03  0.00000000000E+00 0.  1.
          5    1    4    4  501    0  0.95842195547E+02 -0.46717588194E+01 -0.57577519567E+02  0.11198301182E+03  0.41800000000E+01 0.  1.
         -5    1    4    4    0  501 -0.16682773628E+02 -0.62820254166E+02 -0.61997548467E+02  0.89921452864E+02  0.41800000000E+01 0.  1.
</event>
<event>
11    1  0.5813833E-009  0.2188655E+03  0.7561462E-02  0.1041930E+00
         22   -1    0    0    0    0  0.00000000000E+00  0.00000000000E+00  0.51582333211E+03  0.51582333211E+03  0.00000000000E+00 0. -1.
         22   -1    0    0    0    0 -0.00000000000E+00 -0.00000000000E+00 -0.23531603328E+03  0.23531603328E+03  0.00000000000E+00 0. -1.
         24    2    1    2    0    0 -0.14994397093E+02 -0.97089827118E+02 -0.76858658383E+02  0.14940718062E+03  0.82243454328E+02 0.  0.
         25    2    1    2    0    0  0.10627814195E+03 -0.78620729642E+02 -0.38914423798E+01  0.18204092809E+03  0.12508994201E+03 0.  0.
        -24    2    1    2    0    0 -0.91283744853E+02  0.17571055676E+03  0.36125739960E+03  0.41969125667E+03  0.80168075503E+02 0.  0.
        -13    1    3    3    0    0  0.30646052249E+02 -0.65286666931E+02 -0.49005059610E+02  0.87195328228E+02  0.00000000000E+00 0.  1.
         14    1    3    3    0    0 -0.45640449342E+02 -0.31803160187E+02 -0.27853598773E+02  0.62211852397E+02  0.00000000000E+00 0. -1.
         11    1    5    5    0    0 -0.79022219302E+02  0.16015602404E+03  0.35736668156E+03  0.39950645586E+03  0.00000000000E+00 0. -1.
        -12    1    5    5    0    0 -0.12261525550E+02  0.15554532723E+02  0.38907180335E+01  0.20184800814E+02  0.00000000000E+00 0.  1.
          5    1    4    4  501    0  0.32626329556E+02 -0.50518480466E+02 -0.60106868042E+02  0.85128739182E+02  0.41800000000E+01 0.  1.
         -5    1    4    4    0  501  0.73651812390E+02 -0.28102249175E+02  0.56215425662E+02  0.96912188910E+02  0.41800000000E+01 0.  1.
</event>
<event>
11    1  0.5813833E-009  0.1991299E+03  0.7561462E-02  0.1055141E+00
         22   -1    0    0    0    0  0.00000000000E+00  0.00000000000E+00  0.76425388921E+03  0.76425388921E+03  0.00000000000E+00 0. -1.
         22   -1    0    0    0    0 -0.00000000000E+00 -0.00000000000E+00 -0.10169171793E+04  0.10169171793E+04  0.00000000000E+00 0. -1.
         24    2    1    2    0    0  0.13477132223E+03  0.68730123028E+02 -0.89407075681E+03  0.91049743293E+03  0.82194391983E+02 0.  0.
         25    2    1    2    0    0 -0.17501229254E+03 -0.16056387858E+03  0.59532476698E+02  0.27495285667E+03  0.12507955853E+03 0.  0.
        -24    2    1    2    0    0  0.40240970313E+02  0.91833755554E+02  0.58187498999E+03  0.59572077894E+03  0.79069388038E+02 0.  0.
        -13    1    3    3    0    0 -0.11534163420E+02  0.44159383986E+01 -0.65664126231E+02  0.66815528969E+02  0.00000000000E+00 0.  1.
         14    1    3    3    0    0  0.14630548565E+03  0.64314184629E+02 -0.82840663058E+03  0.84368190396E+03  0.00000000000E+00 0. -1.
         11    1    5    5    0    0  0.25767625813E+02  0.10396021889E+03  0.52431469164E+03  0.53514259176E+03  0.00000000000E+00 0. -1.
        -12    1    5    5    0    0  0.14473344500E+02 -0.12126463341E+02  0.57560298356E+02  0.60578187172E+02  0.00000000000E+00 0.  1.
          5    1    4    4  501    0 -0.95982391646E+01 -0.86496013683E+02  0.17950275508E+02  0.88957132199E+02  0.41800000000E+01 0. -1.
         -5    1    4    4    0  501 -0.16541405338E+03 -0.74067864899E+02  0.41582201190E+02  0.18599572447E+03  0.41800000000E+01 0. -1.
</event>
<event>
11    1  0.5813833E-009  0.1290203E+03  0.7561462E-02  0.1120479E+00
         22   -1    0    0    0    0  0.00000000000E+00  0.00000000000E+00  0.20462359596E+03  0.20462359596E+03  0.00000000000E+00 0. -1.
         22   -1    0    0    0    0 -0.00000000000E+00 -0.00000000000E+00 -0.66370569581E+03  0.66370569581E+03  0.00000000000E+00 0.  1.
         24    2    1    2    0    0 -0.80051271879E+01 -0.24535879252E+01 -0.36933239790E+03  0.37812958047E+03  0.80656415355E+02 0.  0.
         25    2    1    2    0    0  0.18401886596E+02  0.32135172545E+02 -0.26505423357E+03  0.29541773636E+03  0.12508634408E+03 0.  0.
        -24    2    1    2    0    0 -0.10396759408E+02 -0.29681584620E+02  0.17530453161E+03  0.19478197494E+03  0.78862220889E+02 0.  0.
        -13    1    3    3    0    0 -0.41046452050E+02  0.11919082747E+01 -0.27633900605E+03  0.27937336690E+03  0.00000000000E+00 0.  1.
         14    1    3    3    0    0  0.33041324862E+02 -0.36454961999E+01 -0.92993391847E+02  0.98756213569E+02  0.00000000000E+00 0. -1.
         11    1    5    5    0    0 -0.22034576776E+02 -0.24254026385E+02  0.17855400646E+03  0.18153598429E+03  0.00000000000E+00 0. -1.
        -12    1    5    5    0    0  0.11637817368E+02 -0.54275582356E+01 -0.32494748427E+01  0.13245990648E+02  0.00000000000E+00 0.  1.
          5    1    4    4  501    0 -0.50372980726E+02  0.34960061188E+02 -0.12831151163E+03  0.14227072602E+03  0.41800000000E+01 0. -1.
         -5    1    4    4    0  501  0.68774867322E+02 -0.28248886423E+01 -0.13674272195E+03  0.15314701034E+03  0.41800000000E+01 0. -1.
</event>
<event>
11    1  0.5813833E-009  0.1593788E+03  0.7561462E-02  0.1087663E+00
         22   -1    0    0    0    0  0.00000000000E+00  0.00000000000E+00  0.73414787180E+03  0.73414787180E+03  0.00000000000E+00 0.  1.
         22   -1    0    0    0    0 -0.00000000000E+00 -0.00000000000E+00 -0.21578068305E+04  0.21578068305E+04  0.00000000000E+00 0. -1.
        -24    2    1    2    0    0  0.10966633533E+02 -0.31846700594E+02 -0.20675056151E+04  0.20694012972E+04  0.81901044036E+02 0.  0.
         25    2    1    2    0    0  0.99888943044E+01  0.12617795320E+03  0.12928059757E+02  0.17842513584E+03  0.12509092887E+03 0.  0.
         24    2    1    2    0    0 -0.20955527838E+02 -0.94331252608E+02  0.63091859658E+03  0.64412826931E+03  0.86633898958E+02 0.  0.
        -13    1    5    5    0    0  0.18584978755E+02 -0.29932677807E+02  0.39113427621E+03  0.39271795052E+03  0.00000000000E+00 0.  1.
         14    1    5    5    0    0 -0.39540506593E+02 -0.64398574801E+02  0.23978432038E+03  0.25141031879E+03  0.00000000000E+00 0. -1.
         11    1    3    3    0    0 -0.10357828499E+02 -0.29602252204E+02 -0.19282075521E+04  0.19284625850E+04  0.00000000000E+00 0. -1.
        -12    1    3    3    0    0  0.21324462032E+02 -0.22444483899E+01 -0.13929806300E+03  0.14093871216E+03  0.00000000000E+00 0.  1.
          5    1    4    4  501    0  0.55309864433E+02  0.10473213691E+03  0.34868299744E+02  0.12353652226E+03  0.41800000000E+01 0. -1.
         -5    1    4    4    0  501 -0.45320970128E+02  0.21445816295E+02 -0.21940239987E+02  0.54888613579E+02  0.41800000000E+01 0. -1.
</event>
<event>
11    1  0.5813833E-009  0.1423624E+03  0.7561462E-02  0.1104949E+00
         22   -1    0    0    0    0  0.00000000000E+00  0.00000000000E+00  0.14842403158E+04  0.14842403158E+04  0.00000000000E+00 0. -1.
         22   -1    0    0    0    0 -0.00000000000E+00 -0.00000000000E+00 -0.46414130623E+03  0.46414130623E+03  0.00000000000E+00 0.  1.
         24    2    1    2    0    0 -0.57423447770E+02 -0.32748220378E+02 -0.40943243889E+03  0.42236378970E+03  0.79914645350E+02 0.  0.
         25    2    1    2    0    0  0.92623143028E+02  0.62096472037E+02  0.10398164013E+03  0.19721882980E+03  0.12509223350E+03 0.  0.
        -24    2    1    2    0    0 -0.35199695257E+02 -0.29348251659E+02  0.13255498083E+04  0.13287990025E+04  0.80772249727E+02 0.  0.
        -13    1    3    3    0    0  0.46814599318E+01 -0.28877256443E+02 -0.24164795025E+03  0.24341229194E+03  0.00000000000E+00 0.  1.
         14    1    3    3    0    0 -0.62104907702E+02 -0.38709639351E+01 -0.16778448865E+03  0.17895149777E+03  0.00000000000E+00 0. -1.
         13    1    5    5    0    0 -0.58630954469E+02 -0.35562197743E+02  0.95908479360E+03  0.96153309878E+03  0.00000000000E+00 0. -1.
        -14    1    5    5    0    0  0.23431259212E+02  0.62139460845E+01  0.36646501474E+03  0.36726590376E+03  0.00000000000E+00 0.  1.
          5    1    4    4  501    0  0.95806502605E+02  0.81395229733E+02  0.42824216195E+02  0.13287383210E+03  0.41800000000E+01 0.  1.
         -5    1    4    4    0  501 -0.31833595772E+01 -0.19298757696E+02  0.61157423936E+02  0.64344997702E+02  0.41800000000E+01 0.  1.
</event>
<event>
11    1  0.5813833E-009  0.1284692E+03  0.7561462E-02  0.1121164E+00
         22   -1    0    0    0    0  0.00000000000E+00  0.00000000000E+00  0.60430825755E+03  0.60430825755E+03  0.00000000000E+00 0. -1.
         22   -1    0    0    0    0 -0.00000000000E+00 -0.00000000000E+00 -0.33745032521E+03  0.33745032521E+03  0.00000000000E+00 0.  1.
         24    2    1    2    0    0  0.10924946699E+02 -0.12580996434E+01 -0.22300021833E+03  0.23756362477E+03  0.81156892256E+02 0.  0.
         25    2    1    2    0    0  0.18457746309E+02  0.52300085902E+01 -0.65300309523E+02  0.14239678823E+03  0.12507866919E+03 0.  0.
        -24    2    1    2    0    0 -0.29382693008E+02 -0.39719089468E+01  0.55515846020E+03  0.56179816975E+03  0.80852636943E+02 0.  0.
        -13    1    3    3    0    0  0.53539505693E+01  0.26071268517E+02 -0.19898742660E+03  0.20075948738E+03  0.00000000000E+00 0.  1.
         14    1    3    3    0    0  0.55709961301E+01 -0.27329368161E+02 -0.24012791736E+02  0.36804137389E+02  0.00000000000E+00 0. -1.
         13    1    5    5    0    0 -0.40284923530E+02 -0.22677124536E+02  0.50569838459E+03  0.50780703345E+03  0.00000000000E+00 0. -1.
        -14    1    5    5    0    0  0.10902230521E+02  0.18705215589E+02  0.49460075602E+02  0.53991136302E+02  0.00000000000E+00 0.  1.
          5    1    4    4  501    0  0.33171599613E+02 -0.36496857502E+02 -0.81283863023E+02  0.95167822379E+02  0.41800000000E+01 0. -1.
         -5    1    4    4    0  501 -0.14713853304E+02  0.41726866092E+02  0.15983553500E+02  0.47228965852E+02  0.41800000000E+01 0. -1.
</event>
<event>
11    1  0.5813833E-009  0.1591810E+03  0.7561462E-02  0.1087850E+00
         22   -1    0    0    0    0  0.00000000000E+00  0.00000000000E+00  0.88095477371E+03  0.88095477371E+03  0.00000000000E+00 0.  1.
         22   -1    0    0    0    0 -0.00000000000E+00 -0.00000000000E+00 -0.37631475998E+03  0.37631475998E+03  0.00000000000E+00 0. -1.
         24    2    1    2    0    0  0.12406461105E+02  0.20818233385E+02 -0.33103403083E+03  0.34170385673E+03  0.81182984802E+02 0.  0.
         25    2    1    2    0    0  0.87452154794E+02 -0.27081868689E+02  0.14276200464E+03  0.21073128801E+03  0.12508148859E+03 0.  0.
        -24    2    1    2    0    0 -0.99858615899E+02  0.62636353034E+01  0.69291203991E+03  0.70483438895E+03  0.81568648950E+02 0.  0.
        -11    1    3    3    0    0  0.25252729032E+02  0.30800997067E+02 -0.73012002244E+02  0.83169430776E+02  0.00000000000E+00 0.  1.
         12    1    3    3    0    0 -0.12846267926E+02 -0.99827636818E+01 -0.25802202858E+03  0.25853442596E+03  0.00000000000E+00 0. -1.
         11    1    5    5    0    0 -0.18948995498E+02 -0.20082028957E+02  0.57897083472E+02  0.64143780618E+02  0.00000000000E+00 0. -1.
        -12    1    5    5    0    0 -0.80909620401E+02  0.26345664261E+02  0.63501495644E+03  0.64069060833E+03  0.00000000000E+00 0.  1.
          5    1    4    4  501    0 -0.30125156984E+02  0.64698772207E+01  0.17698272113E+02  0.35778284341E+02  0.41800000000E+01 0. -1.
         -5    1    4    4    0  501  0.11757731178E+03 -0.33551745910E+02  0.12506373253E+03  0.17495300367E+03  0.41800000000E+01 0. -1.
</event>
<event>
11    1  0.5813833E-009  0.1614917E+03  0.7561462E-02  0.1085683E+00
         22   -1    0    0    0    0  0.00000000000E+00  0.00000000000E+00  0.34662420908E+02  0.34662420908E+02  0.00000000000E+00 0. -1.
         22   -1    0    0    0    0 -0.00000000000E+00 -0.00000000000E+00 -0.10387722852E+04  0.10387722852E+04  0.00000000000E+00 0.  1.
        -24    2    1    2    0    0  0.25445056568E+02  0.33839424159E+02 -0.25632829086E+03  0.27170318846E+03  0.79535353106E+02 0.  0.
         25    2    1    2    0    0  0.47071194322E+01 -0.11926344947E+03 -0.41524086535E+03  0.44979800681E+03  0.12508934136E+03 0.  0.
         24    2    1    2    0    0 -0.30152176000E+02  0.85424025308E+02 -0.33254070805E+03  0.35193351081E+03  0.71186063937E+02 0.  0.
        -13    1    5    5    0    0 -0.12059041866E+02  0.94219504618E+02 -0.27997052970E+03  0.29564545158E+03  0.00000000000E+00 0.  1.
         14    1    5    5    0    0 -0.18093134135E+02 -0.87954793098E+01 -0.52570178350E+02  0.56288059221E+02  0.00000000000E+00 0. -1.
         11    1    3    3    0    0  0.35461510208E+02  0.25707385950E+02 -0.56644321012E+02  0.71602845625E+02  0.00000000000E+00 0. -1.
        -12    1    3    3    0    0 -0.10016453640E+02  0.81320382084E+01 -0.19968396985E+03  0.20010034284E+03  0.00000000000E+00 0.  1.
          5    1    4    4  501    0 -0.12505593448E+02 -0.11520618065E+03 -0.18168311319E+03  0.21553440548E+03  0.41800000000E+01 0.  1.
         -5    1    4    4    0  501  0.17212712880E+02 -0.40572688184E+01 -0.23355775216E+03  0.23426360133E+03  0.41800000000E+01 0.  1.
</event>
<event>
11    1  0.5813833E-009  0.1792764E+03  0.7561462E-02  0.1070230E+00
         22   -1    0    0    0    0  0.00000000000E+00  0.00000000000E+00  0.52906436556E+02  0.52906436556E+02  0.00000000000E+00 0.  1.
         22   -1    0    0    0    0 -0.00000000000E+00 -0.00000000000E+00 -0.20280345332E+04  0.20280345332E+04  0.00000000000E+00 0. -1.
         24    2    1    2    0    0  0.21355319208E+02  0.49933801147E+02 -0.10959947805E+04  0.11005025261E+04  0.83377555598E+02 0.  0.
         25    2    1    2    0    0 -0.21082813688E+02 -0.17056258750E+03 -0.77095597491E+03  0.79972302944E+03  0.12509087610E+03 0.  0.
        -24    2    1    2    0    0 -0.27250551971E+00  0.12062878635E+03 -0.10817734117E+03  0.18071541421E+03  0.80027154363E+02 0.  0.
        -13    1    3    3    0    0 -0.30325425604E+02  0.33689298933E+02 -0.50400312957E+03  0.50603730586E+03  0.00000000000E+00 0.  1.
         14    1    3    3    0    0  0.51680744811E+02  0.16244502213E+02 -0.59199165097E+03  0.59446522022E+03  0.00000000000E+00 0. -1.
         11    1    5    5    0    0 -0.32065711714E+02  0.58233787678E+02 -0.22771440142E+02  0.70270352078E+02  0.00000000000E+00 0. -1.
        -12    1    5    5    0    0  0.31793206194E+02  0.62394998671E+02 -0.85405901023E+02  0.11044506213E+03  0.00000000000E+00 0.  1.
          5    1    4    4  501    0 -0.62454573248E+02 -0.10484660943E+03 -0.59417901247E+03  0.60659670003E+03  0.41800000000E+01 0. -1.
         -5    1    4    4    0  501  0.41371759560E+02 -0.65715978065E+02 -0.17677696244E+03  0.19312632941E+03  0.41800000000E+01 0. -1.
</event>
<event>
11    1  0.5813833E-009  0.1430416E+03  0.7561462E-02  0.1104209E+00
         22   -1    0    0    0    0  0.00000000000E+00  0.00000000000E+00  0.27812610862E+03  0.27812610862E+03  0.00000000000E+00 0. -1.
         22   -1    0    0    0    0 -0.00000000000E+00 -0.00000000000E+00 -0.11102398711E+04  0.11102398711E+04  0.00000000000E+00 0. -1.
         24    2    1    2    0    0 -0.24769286170E+02 -0.27387903115E+02 -0.78443656422E+03  0.78937081252E+03  0.80012134050E+02 0.  0.
         25    2    1    2    0    0  0.74694863337E+02  0.73762782650E+02 -0.29112271148E+03  0.33379665990E+03  0.12508999283E+03 0.  0.
        -24    2    1    2    0    0 -0.49925577168E+02 -0.46374879535E+02  0.24344551318E+03  0.26519850735E+03  0.80133249692E+02 0.  0.
        -13    1    3    3    0    0  0.62147817952E+01 -0.24225047916E+02 -0.71382368290E+02  0.75636756686E+02  0.00000000000E+00 0.  1.
         14    1    3    3    0    0 -0.30984067965E+02 -0.31628551992E+01 -0.71305419593E+03  0.71373405583E+03  0.00000000000E+00 0. -1.
         11    1    5    5    0    0 -0.51639456526E+02 -0.64276600696E+02  0.22409483070E+03  0.23878150685E+03  0.00000000000E+00 0. -1.
        -12    1    5    5    0    0  0.17138793578E+01  0.17901721161E+02  0.19350682477E+02  0.26417000497E+02  0.00000000000E+00 0.  1.
          5    1    4    4  501    0  0.72436241713E+02 -0.15084624547E+02 -0.12370085702E+03  0.14420100360E+03  0.41800000000E+01 0.  1.
         -5    1    4    4    0  501  0.22586216246E+01  0.88847407197E+02 -0.16742185445E+03  0.18959565629E+03  0.41800000000E+01 0.  1.
</event>
<event>
11    1  0.5813833E-009  0.1897022E+03  0.7561462E-02  0.1062054E+00
         22   -1    0    0    0    0  0.00000000000E+00  0.00000000000E+00  0.41159885448E+03  0.41159885448E+03  0.00000000000E+00 0.  1.
         22   -1    0    0    0    0 -0.00000000000E+00 -0.00000000000E+00 -0.42949304445E+03  0.42949304445E+03  0.00000000000E+00 0.  1.
         24    2    1    2    0    0  0.21049030648E+02  0.64463043735E+02 -0.19005652257E+03  0.21701345226E+03  0.79842413504E+02 0.  0.
         25    2    1    2    0    0 -0.14659033330E+03  0.52539767375E+01 -0.16182508667E+03  0.25169617525E+03  0.12508907175E+03 0.  0.
        -24    2    1    2    0    0  0.12554130266E+03 -0.69717020473E+02  0.33398741926E+03  0.37238227141E+03  0.80621822234E+02 0.  0.
        -11    1    3    3    0    0  0.47937392434E+02  0.18702684967E+02 -0.86506433770E+02  0.10065359955E+03  0.00000000000E+00 0.  1.
         12    1    3    3    0    0 -0.26888361786E+02  0.45760358768E+02 -0.10355008880E+03  0.11635985272E+03  0.00000000000E+00 0. -1.
         13    1    5    5    0    0  0.43360919124E+02  0.15559760764E+02  0.10164502946E+03  0.11159743490E+03  0.00000000000E+00 0. -1.
        -14    1    5    5    0    0  0.82180383532E+02 -0.85276781237E+02  0.23234238980E+03  0.26078483651E+03  0.00000000000E+00 0.  1.
          5    1    4    4  501    0 -0.21059418051E+02 -0.19196474670E+02  0.15746435592E+02  0.32824173444E+02  0.41800000000E+01 0. -1.
         -5    1    4    4    0  501 -0.12553091525E+03  0.24450451407E+02 -0.17757152226E+03  0.21887200181E+03  0.41800000000E+01 0. -1.
</event>
<event>
11    1  0.5813833E-009  0.1517568E+03  0.7561462E-02  0.1095097E+00
         22   -1    0    0    0    0  0.00000000000E+00  0.00000000000E+00  0.88866171572E+03  0.88866171572E+03  0.00000000000E+00 0. -1.
         22   -1    0    0    0    0 -0.00000000000E+00 -0.00000000000E+00 -0.30471645941E+04  0.30471645941E+04  0.00000000000E+00 0. -1.
         24    2    1    2    0    0  0.12173355611E+02  0.71014330649E+02 -0.28692688082E+04  0.28713068499E+04  0.80674076093E+02 0.  0.
         25    2    1    2    0    0 -0.85378931270E+02 -0.11391589599E+03 -0.12087426048E+03  0.22477632521E+03  0.12508963293E+03 0.  0.
        -24    2    1    2    0    0  0.73205575659E+02  0.42901565342E+02  0.83164019028E+03  0.83974313478E+03  0.79646253485E+02 0.  0.
        -11    1    3    3    0    0 -0.45404376814E+01 -0.14327012912E+02 -0.89200214033E+03  0.89212874476E+03  0.00000000000E+00 0.  1.
         12    1    3    3    0    0  0.16713793293E+02  0.85341343561E+02 -0.19772666679E+04  0.19791781051E+04  0.00000000000E+00 0. -1.
         11    1    5    5    0    0  0.50829205139E+02  0.58698120351E+02  0.74093889210E+03  0.74499632164E+03  0.00000000000E+00 0. -1.
        -12    1    5    5    0    0  0.22376370521E+02 -0.15796555009E+02  0.90701298179E+02  0.94746813135E+02  0.00000000000E+00 0.  1.
          5    1    4    4  501    0 -0.64440065955E+02 -0.11050372734E+03 -0.14430968582E+03  0.19288948566E+03  0.41800000000E+01 0. -1.
         -5    1    4    4    0  501 -0.20938865316E+02 -0.34121686531E+01  0.23435425347E+02  0.31886839555E+02  0.41800000000E+01 0. -1.
</event>
<event>
11    1  0.9406204E-009  0.1626484E+03  0.7561462E-02  0.1084612E+00
         22   -1    0    0    0    0  0.00000000000E+00  0.00000000000E+00  0.14900096770E+03  0.14900096770E+03  0.00000000000E+00 0. -1.
         22   -1    0    0    0    0 -0.00000000000E+00 -0.00000000000E+00 -0.19813610268E+04  0.19813610268E+04  0.00000000000E+00 0. -1.
         24    2    1    2    0    0 -0.34985350364E+02  0.55415630102E+02 -0.15255076987E+04  0.15290674791E+04  0.81109494528E+02 0.  0.
         25    2    1    2    0    0  0.51608673797E+02  0.50863772800E+02 -0.40791969139E+03  0.43277786101E+03  0.12509046232E+03 0.  0.
        -24    2    1    2    0    0 -0.16623323433E+02 -0.10627940290E+03  0.10106733099E+03  0.16851665436E+03  0.81311813661E+02 0.  0.
        -11    1    3    3    0    0  0.79748982450E+00  0.31708187156E+02 -0.17330168787E+03  0.17618036253E+03  0.00000000000E+00 0.  1.
         12    1    3    3    0    0 -0.35782840189E+02  0.23707442946E+02 -0.13522060108E+04  0.13528871166E+04  0.00000000000E+00 0. -1.
         13    1    5    5    0    0 -0.31610118358E+02 -0.10570255012E+02  0.46865189100E+02  0.57508919508E+02  0.00000000000E+00 0. -1.
        -14    1    5    5    0    0  0.14986794926E+02 -0.95709147891E+02  0.54202141892E+02  0.11100773486E+03  0.00000000000E+00 0.  1.
          5    1    4    4  501    0  0.36589506731E+02  0.87064193937E+02 -0.20077587095E+03  0.22191752663E+03  0.41800000000E+01 0. -1.
         -5    1    4    4    0  501  0.15019167066E+02 -0.36200421136E+02 -0.20714382043E+03  0.21086033438E+03  0.41800000000E+01 0. -1.
</event>
<event>
11    1  0.5813833E-009  0.1394192E+03  0.7561462E-02  0.1108209E+00
         22   -1    0    0    0    0  0.00000000000E+00  0.00000000000E+00  0.98430766975E+03  0.98430766975E+03  0.00000000000E+00 0. -1.
         22   -1    0    0    0    0 -0.00000000000E+00 -0.00000000000E+00 -0.92955255667E+03  0.92955255667E+03  0.00000000000E+00 0. -1.
         24    2    1    2    0    0 -0.11616029820E+02  0.46527220464E+02 -0.81216323788E+03  0.81770014423E+03  0.82004185926E+02 0.  0.
         25    2    1    2    0    0 -0.50183341625E+02 -0.44128435386E+02 -0.66877290571E+02  0.15681167776E+03  0.12510652942E+03 0.  0.
        -24    2    1    2    0    0  0.61799371445E+02 -0.23987850783E+01  0.93379564154E+03  0.93934840442E+03  0.81093823812E+02 0.  0.
        -11    1    3    3    0    0 -0.31251502246E+02  0.94499125904E+01 -0.12295051917E+03  0.12721158518E+03  0.00000000000E+00 0.  1.
         12    1    3    3    0    0  0.19635472426E+02  0.37077307873E+02 -0.68921271871E+03  0.69048855905E+03  0.00000000000E+00 0. -1.
         11    1    5    5    0    0  0.81556664687E+02 -0.34157001108E+01  0.78801012291E+03  0.79222667866E+03  0.00000000000E+00 0. -1.
        -12    1    5    5    0    0 -0.19757293242E+02  0.10169150325E+01  0.14578551862E+03  0.14712172577E+03  0.00000000000E+00 0.  1.
          5    1    4    4  501    0 -0.71052797327E+02 -0.43046159857E+02 -0.91893151892E+02  0.12394876220E+03  0.41800000000E+01 0. -1.
         -5    1    4    4    0  501  0.20869455702E+02 -0.10822755290E+01  0.25015861321E+02  0.32862915562E+02  0.41800000000E+01 0. -1.
</event>
<event>
11    1  0.5813833E-009  0.1339180E+03  0.7561462E-02  0.1114547E+00
         22   -1    0    0    0    0  0.00000000000E+00  0.00000000000E+00  0.29722914178E+03  0.29722914178E+03  0.00000000000E+00 0.  1.
         22   -1    0    0    0    0 -0.00000000000E+00 -0.00000000000E+00 -0.16186688145E+03  0.16186688145E+03  0.00000000000E+00 0.  1.
        -24    2    1    2    0    0 -0.21085339990E+02  0.13783363566E+02 -0.70607312523E+02  0.11093912649E+03  0.81777286152E+02 0.  0.
         25    2    1    2    0    0  0.28288619571E+02 -0.58387099517E+02  0.21898052825E+02  0.14260195651E+03  0.12508594604E+03 0.  0.
         24    2    1    2    0    0 -0.72032795811E+01  0.44603735952E+02  0.18407152003E+03  0.20555494023E+03  0.79555819825E+02 0.  0.
        -13    1    5    5    0    0 -0.15945084880E+01  0.67701489396E+02  0.13671759107E+03  0.15257042253E+03  0.00000000000E+00 0.  1.
         14    1    5    5    0    0 -0.56087710930E+01 -0.23097753445E+02  0.47353928960E+02  0.52984517694E+02  0.00000000000E+00 0. -1.
         11    1    3    3    0    0 -0.89379153818E+01  0.17405536610E+02  0.14839577975E+02  0.24557119345E+02  0.00000000000E+00 0. -1.
        -12    1    3    3    0    0 -0.12147424608E+02 -0.36221730439E+01 -0.85446890498E+02  0.86382007142E+02  0.00000000000E+00 0.  1.
          5    1    4    4  501    0 -0.48367066476E+02 -0.84422279889E+01  0.58815001718E+01  0.49625686668E+02  0.41800000000E+01 0.  1.
         -5    1    4    4    0  501  0.76655686048E+02 -0.49944871528E+02  0.16016552653E+02  0.92976269845E+02  0.41800000000E+01 0.  1.
</event>
<event>
11    1  0.5813833E-009  0.1478849E+03  0.7561462E-02  0.1099060E+00
         22   -1    0    0    0    0  0.00000000000E+00  0.00000000000E+00  0.20887675846E+04  0.20887675846E+04  0.00000000000E+00 0. -1.
         22   -1    0    0    0    0 -0.00000000000E+00 -0.00000000000E+00 -0.65046786327E+03  0.65046786327E+03  0.00000000000E+00 0. -1.
         24    2    1    2    0    0  0.77669567213E+02 -0.54641089680E+01 -0.59752571566E+03  0.60783517135E+03  0.79775914241E+02 0.  0.
         25    2    1    2    0    0 -0.10682868441E+03  0.19566707123E+02  0.10023337250E+03  0.19362212582E+03  0.12509026663E+03 0.  0.
        -24    2    1    2    0    0  0.29159117196E+02 -0.14102598155E+02  0.19355920645E+04  0.19377781507E+04  0.86130040115E+02 0.  0.
        -13    1    3    3    0    0  0.48825708615E+02 -0.25595235442E+02 -0.16676263687E+03  0.17563838690E+03  0.00000000000E+00 0.  1.
         14    1    3    3    0    0  0.28843858598E+02  0.20131126474E+02 -0.43076307879E+03  0.43219678444E+03  0.00000000000E+00 0. -1.
         13    1    5    5    0    0  0.27944464765E+02 -0.29652876689E+02  0.18666103838E+04  0.18670550370E+04  0.00000000000E+00 0. -1.
        -14    1    5    5    0    0  0.12146524317E+01  0.15550278534E+02  0.68981680759E+02  0.70723113785E+02  0.00000000000E+00 0.  1.
          5    1    4    4  501    0 -0.33390196687E+02 -0.52521818988E+02  0.32309039479E+02  0.70248082796E+02  0.41800000000E+01 0. -1.
         -5    1    4    4    0  501 -0.73438487723E+02  0.72088526110E+02  0.67924333023E+02  0.12337404303E+03  0.41800000000E+01 0. -1.
</event>
<event>
11    1  0.5813833E-009  0.1519292E+03  0.7561462E-02  0.1094924E+00
         22   -1    0    0    0    0  0.00000000000E+00  0.00000000000E+00  0.45549478196E+03  0.45549478196E+03  0.00000000000E+00 0.  1.
         22   -1    0    0    0    0 -0.00000000000E+00 -0.00000000000E+00 -0.38828296028E+03  0.38828296028E+03  0.00000000000E+00 0. -1.
         24    2    1    2    0    0 -0.85071529672E+02  0.10632634726E+02 -0.32423090430E+03  0.34490339227E+03  0.80513679681E+02 0.  0.
         25    2    1    2    0    0  0.94115920022E+02  0.15427202953E+02  0.85608053117E+02  0.17911307724E+03  0.12512773748E+03 0.  0.
        -24    2    1    2    0    0 -0.90443903497E+01 -0.26059837678E+02  0.30583467286E+03  0.31976127274E+03  0.89171230157E+02 0.  0.
        -11    1    3    3    0    0 -0.22922320128E+02  0.36976928852E+01 -0.11368469455E+02  0.25852423300E+02  0.00000000000E+00 0.  1.
         12    1    3    3    0    0 -0.62149209544E+02  0.69349418406E+01 -0.31286243484E+03  0.31905096897E+03  0.00000000000E+00 0. -1.
         13    1    5    5    0    0 -0.23607901789E+02 -0.25905323456E+02  0.38631233315E+02  0.52161202034E+02  0.00000000000E+00 0. -1.
        -14    1    5    5    0    0  0.14563511439E+02 -0.15451422255E+00  0.26720343954E+03  0.26760007071E+03  0.00000000000E+00 0.  1.
          5    1    4    4  501    0 -0.28867977478E+02  0.17772442212E+02  0.16046777455E+02  0.37738459064E+02  0.41800000000E+01 0. -1.
         -5    1    4    4    0  501  0.12298389750E+03 -0.23452392591E+01  0.69561275662E+02  0.14137461817E+03  0.41800000000E+01 0. -1.
</event>
<event>
11    1  0.5813833E-009  0.2385985E+03  0.7561462E-02  0.1030155E+00
         22   -1    0    0    0    0  0.00000000000E+00  0.00000000000E+00  0.60671518615E+03  0.60671518615E+03  0.00000000000E+00 0. -1.
         22   -1    0    0    0    0 -0.00000000000E+00 -0.00000000000E+00 -0.52428981703E+03  0.52428981703E+03  0.00000000000E+00 0.  1.
         24    2    1    2    0    0 -0.64328177872E+02 -0.16533887956E+02 -0.32531081526E+03  0.34192974972E+03  0.81715012692E+02 0.  0.
         25    2    1    2    0    0 -0.13901186573E+03 -0.41038820221E+02 -0.11245071014E+03  0.22204109041E+03  0.12509436455E+03 0.  0.
        -24    2    1    2    0    0  0.20334004360E+03  0.57572708177E+02  0.52018689452E+03  0.56703416304E+03  0.79193097946E+02 0.  0.
        -13    1    3    3    0    0 -0.40071996088E+02  0.10952178589E+02 -0.28263149290E+03  0.28566812189E+03  0.00000000000E+00 0.  1.
         14    1    3    3    0    0 -0.24256181784E+02 -0.27486066545E+02 -0.42679322362E+02  0.56261627831E+02  0.00000000000E+00 0. -1.
         13    1    5    5    0    0  0.81239011427E+02  0.56074627597E+02  0.29192365258E+03  0.30816158063E+03  0.00000000000E+00 0. -1.
        -14    1    5    5    0    0  0.12210103218E+03  0.14980805802E+01  0.22826324194E+03  0.25887258241E+03  0.00000000000E+00 0.  1.
          5    1    4    4  501    0 -0.57367671141E+02 -0.53301578600E+02 -0.11516716569E+03  0.13933074473E+03  0.41800000000E+01 0.  1.
         -5    1    4    4    0  501 -0.81644194589E+02  0.12262758379E+02  0.27164555471E+01  0.82710345688E+02  0.41800000000E+01 0.  1.
</event>
<event>
11    1  0.5813833E-009  0.1453986E+03  0.7561462E-02  0.1101675E+00
         22   -1    0    0    0    0  0.00000000000E+00  0.00000000000E+00  0.31466724417E+03  0.31466724417E+03  0.00000000000E+00 0.  1.
         22   -1    0    0    0    0 -0.00000000000E+00 -0.00000000000E+00 -0.54437872002E+03  0.54437872002E+03  0.00000000000E+00 0.  1.
        -24    2    1    2    0    0 -0.72235144810E+02 -0.17397737879E+02 -0.43961365927E+03  0.45069215570E+03  0.65898803971E+02 0.  0.
         25    2    1    2    0    0  0.64903817466E+02  0.37751923667E+02 -0.34831852429E+02  0.14999441136E+03  0.12508937698E+03 0.  0.
         24    2    1    2    0    0  0.73313273446E+01 -0.20354185788E+02  0.24473403585E+03  0.25835939713E+03  0.79917385716E+02 0.  0.
        -13    1    5    5    0    0 -0.25287858862E+02  0.65561219979E+01  0.17399083251E+03  0.17594109337E+03  0.00000000000E+00 0.  1.
         14    1    5    5    0    0  0.32619186206E+02 -0.26910307786E+02  0.70743203348E+02  0.82418303755E+02  0.00000000000E+00 0. -1.
         13    1    3    3    0    0 -0.22223977026E+02  0.77083986817E+01 -0.34648091665E+02  0.41878572339E+02  0.00000000000E+00 0. -1.
        -14    1    3    3    0    0 -0.50011167784E+02 -0.25106136561E+02 -0.40496556761E+03  0.40881358336E+03  0.00000000000E+00 0.  1.
          5    1    4    4  501    0  0.42323999640E+02  0.70864438987E+02  0.16963698202E+02  0.84370190916E+02  0.41800000000E+01 0.  1.
         -5    1    4    4    0  501  0.22579817825E+02 -0.33112515320E+02 -0.51795550631E+02  0.65624220445E+02  0.41800000000E+01 0.  1.
</event>
<event>
11    1  0.5813833E-009  0.1277616E+03  0.7561462E-02  0.1122050E+00
         22   -1    0    0    0    0  0.00000000000E+00  0.00000000000E+00  0.26073945333E+03  0.26073945333E+03  0.00000000000E+00 0.  1.
         22   -1    0    0    0    0 -0.00000000000E+00 -0.00000000000E+00 -0.48706796051E+03  0.48706796051E+03  0.00000000000E+00 0. -1.
         24    2    1    2    0    0  0.18480638501E+01 -0.98597772993E+00 -0.38665814359E+03  0.39515144003E+03  0.81460131738E+02 0.  0.
         25    2    1    2    0    0 -0.27614169998E+02 -0.96707360830E+00 -0.40424884587E+02  0.13433013265E+03  0.12508771174E+03 0.  0.
        -24    2    1    2    0    0  0.25766106148E+02  0.19530513382E+01  0.20075452100E+03  0.21832584116E+03  0.81829631453E+02 0.  0.
        -11    1    3    3    0    0  0.74068088210E+01  0.37895828063E+02 -0.13377090810E+03  0.13923221773E+03  0.00000000000E+00 0.  1.
         12    1    3    3    0    0 -0.55587449709E+01 -0.38881805793E+02 -0.25288723549E+03  0.25591922230E+03  0.00000000000E+00 0. -1.
         11    1    5    5    0    0 -0.26592437126E+02 -0.13934835936E+02  0.55363315618E+02  0.62979632272E+02  0.00000000000E+00 0. -1.
        -12    1    5    5    0    0  0.52358543274E+02  0.15887887274E+02  0.14539120538E+03  0.15534620889E+03  0.00000000000E+00 0.  1.
          5    1    4    4  501    0  0.18309586384E+02  0.53337749936E+02 -0.22562092092E+02  0.60882484520E+02  0.41800000000E+01 0. -1.
         -5    1    4    4    0  501 -0.45923756382E+02 -0.54304823544E+02 -0.17862792495E+02  0.73447648132E+02  0.41800000000E+01 0. -1.
</event>
<event>
11    1  0.5813833E-009  0.1380471E+03  0.7561462E-02  0.1109759E+00
         22   -1    0    0    0    0  0.00000000000E+00  0.00000000000E+00  0.16199459648E+03  0.16199459648E+03  0.00000000000E+00 0.  1.
         22   -1    0    0    0    0 -0.00000000000E+00 -0.00000000000E+00 -0.19386636561E+04  0.19386636561E+04  0.00000000000E+00 0. -1.
        -24    2    1    2    0    0  0.53987191580E+02  0.23201246068E+02 -0.18021437529E+04  0.18049201885E+04  0.81005344402E+02 0.  0.
         25    2    1    2    0    0 -0.52160997109E+02  0.86998372354E-01 -0.82848788913E+02  0.15884942763E+03  0.12509373144E+03 0.  0.
         24    2    1    2    0    0 -0.18261944712E+01 -0.23288244441E+02  0.10832348227E+03  0.13688863643E+03  0.80366937593E+02 0.  0.
        -13    1    5    5    0    0 -0.16615559733E+02 -0.20910353835E+02  0.11670621613E+03  0.11972326677E+03  0.00000000000E+00 0.  1.
         14    1    5    5    0    0  0.14789365261E+02 -0.23778906059E+01 -0.83827338623E+01  0.17165369660E+02  0.00000000000E+00 0. -1.
         13    1    3    3    0    0  0.41403379227E+02  0.40243590338E+02 -0.16771716063E+04  0.16781651836E+04  0.00000000000E+00 0. -1.
        -14    1    3    3    0    0  0.12583812353E+02 -0.17042344270E+02 -0.12497214665E+03  0.12675500491E+03  0.00000000000E+00 0.  1.
          5    1    4    4  501    0 -0.36659541206E+02 -0.60834869640E+02 -0.32598403637E+02  0.78261942509E+02  0.41800000000E+01 0. -1.
         -5    1    4    4    0  501 -0.15501455903E+02  0.60921868012E+02 -0.50250385276E+02  0.80587485117E+02  0.41800000000E+01 0. -1.
</event>
<event>
11    1  0.5813833E-009  0.8662850E+03  0.7561462E-02  0.8817760E-01
         22   -1    0    0    0    0  0.00000000000E+00  0.00000000000E+00  0.18347942318E+04  0.18347942318E+04  0.00000000000E+00 0.  1.
         22   -1    0    0    0    0 -0.00000000000E+00 -0.00000000000E+00 -0.76960043322E+03  0.76960043322E+03  0.00000000000E+00 0.  1.
        -24    2    1    2    0    0  0.44090183091E+03  0.75774213998E+03 -0.15923562890E+03  0.89468220673E+03  0.80825060075E+02 0.  0.
         25    2    1    2    0    0 -0.49227457669E+03 -0.65847613762E+03  0.49548974881E+03  0.96803018634E+03  0.12508903957E+03 0.  0.
         24    2    1    2    0    0  0.51372745777E+02 -0.99266002360E+02  0.72893967866E+03  0.74168227194E+03  0.79035682762E+02 0.  0.
        -13    1    5    5    0    0  0.63516960138E+00 -0.33245163906E+02  0.43233618633E+03  0.43361298686E+03  0.00000000000E+00 0.  1.
         14    1    5    5    0    0  0.50737576175E+02 -0.66020838453E+02  0.29660349233E+03  0.30806928508E+03  0.00000000000E+00 0. -1.
         11    1    3    3    0    0  0.25051762204E+02  0.77731894664E+02  0.88121757552E+00  0.81673831685E+02  0.00000000000E+00 0. -1.
        -12    1    3    3    0    0  0.41585006871E+03  0.68001024531E+03 -0.16011684647E+03  0.81300837505E+03  0.00000000000E+00 0.  1.
          5    1    4    4  501    0 -0.13756590211E+03 -0.12866892874E+03  0.67626649979E+02  0.20017718860E+03  0.41800000000E+01 0.  1.
         -5    1    4    4    0  501 -0.35470867457E+03 -0.52980720888E+03  0.42786309883E+03  0.76785299774E+03  0.41800000000E+01 0.  1.
</event>
<event>
11    1  0.5813833E-009  0.2804096E+03  0.7561462E-02  0.1008841E+00
         22   -1    0    0    0    0  0.00000000000E+00  0.00000000000E+00  0.22948657072E+03  0.22948657072E+03  0.00000000000E+00 0. -1.
         22   -1    0    0    0    0 -0.00000000000E+00 -0.00000000000E+00 -0.73603573710E+03  0.73603573710E+03  0.00000000000E+00 0. -1.
        -24    2    1    2    0    0  0.10859624468E+02 -0.55775712432E+02 -0.30918887241E+03  0.32444638167E+03  0.80242346782E+02 0.  0.
         25    2    1    2    0    0  0.12741718967E+03 -0.17030760317E+03 -0.25872240315E+03  0.35752614910E+03  0.12509134854E+03 0.  0.
         24    2    1    2    0    0 -0.13827681414E+03  0.22608331560E+03  0.61362109177E+02  0.28354977705E+03  0.80006404112E+02 0.  0.
        -13    1    5    5    0    0  0.79836921979E+01  0.14884511473E+02 -0.60703535759E+01  0.17948181397E+02  0.00000000000E+00 0.  1.
         14    1    5    5    0    0 -0.14626050634E+03  0.21119880413E+03  0.67432462752E+02  0.26560159565E+03  0.00000000000E+00 0. -1.
         13    1    3    3    0    0 -0.20051587379E+02  0.45151354307E+00 -0.20373022417E+02  0.28588985000E+02  0.00000000000E+00 0. -1.
        -14    1    3    3    0    0  0.30911211848E+02 -0.56227225975E+02 -0.28881584999E+03  0.29585739667E+03  0.00000000000E+00 0.  1.
          5    1    4    4  501    0  0.11317479834E+03 -0.13803621519E+03 -0.12196307576E+03  0.21622903582E+03  0.41800000000E+01 0. -1.
         -5    1    4    4    0  501  0.14242391328E+02 -0.32271387982E+02 -0.13675932739E+03  0.14129711328E+03  0.41800000000E+01 0. -1.
</event>
<event>
11    1  0.5813833E-009  0.1325358E+03  0.7561462E-02  0.1116192E+00
         22   -1    0    0    0    0  0.00000000000E+00  0.00000000000E+00  0.14533601613E+04  0.14533601613E+04  0.00000000000E+00 0. -1.
         22   -1    0    0    0    0 -0.00000000000E+00 -0.00000000000E+00 -0.12174523664E+03  0.12174523664E+03  0.00000000000E+00 0.  1.
         24    2    1    2    0    0  0.21493552083E+02  0.35029106207E+02 -0.69064786545E+02  0.11323779022E+03  0.79773688205E+02 0.  0.
         25    2    1    2    0    0 -0.46752787071E+02 -0.47042294445E+02  0.14308398289E+03  0.20129414102E+03  0.12508998554E+03 0.  0.
        -24    2    1    2    0    0  0.25259234988E+02  0.12013188239E+02  0.12575957283E+04  0.12605734667E+04  0.81951836048E+02 0.  0.
        -11    1    3    3    0    0 -0.56198459131E+01  0.85819477659E+01 -0.74297265994E+02  0.75002108168E+02  0.00000000000E+00 0.  1.
         12    1    3    3    0    0  0.27113397996E+02  0.26447158441E+02  0.52324794492E+01  0.38235682048E+02  0.00000000000E+00 0. -1.
         13    1    5    5    0    0  0.14676165690E+02 -0.81733219858E+01  0.11681062932E+04  0.11682270778E+04  0.00000000000E+00 0. -1.
        -14    1    5    5    0    0  0.10583069297E+02  0.20186510225E+02  0.89489435136E+02  0.92346388948E+02  0.00000000000E+00 0.  1.
          5    1    4    4  501    0 -0.70677752182E+02  0.54602482140E+01  0.11911725383E+03  0.13867786962E+03  0.41800000000E+01 0.  1.
         -5    1    4    4    0  501  0.23924965111E+02 -0.52502542659E+02  0.23966729067E+02  0.62616271395E+02  0.41800000000E+01 0.  1.
</event>
<event>
11    1  0.5813833E-009  0.1440530E+03  0.7561462E-02  0.1103115E+00
         22   -1    0    0    0    0  0.00000000000E+00  0.00000000000E+00  0.52926473121E+03  0.52926473121E+03  0.00000000000E+00 0. -1.
         22   -1    0    0    0    0 -0.00000000000E+00 -0.00000000000E+00 -0.81124147103E+03  0.81124147103E+03  0.00000000000E+00 0.  1.
        -24    2    1    2    0    0 -0.94586701753E+00 -0.19411141420E+02 -0.63280534268E+03  0.63806104251E+03  0.79382650321E+02 0.  0.
         25    2    1    2    0    0  0.37266984227E+02 -0.42722385244E+02 -0.14236250334E+03  0.19780914487E+03  0.12508934856E+03 0.  0.
         24    2    1    2    0    0 -0.36321117209E+02  0.62133526664E+02  0.49319110620E+03  0.50463601485E+03  0.78995199593E+02 0.  0.
        -13    1    5    5    0    0  0.50471174675E+01  0.13106542965E+01 -0.73197982733E+00  0.52656437293E+01  0.00000000000E+00 0.  1.
         14    1    5    5    0    0 -0.41368234677E+02  0.60822872368E+02  0.49392308603E+03  0.49937037112E+03  0.00000000000E+00 0. -1.
         13    1    3    3    0    0  0.10016166448E+02  0.19172139986E+02 -0.58740720384E+02  0.62596859132E+02  0.00000000000E+00 0. -1.
        -14    1    3    3    0    0 -0.10962033465E+02 -0.38583281407E+02 -0.57406462230E+03  0.57546418338E+03  0.00000000000E+00 0.  1.
          5    1    4    4  501    0  0.67200512735E+02 -0.11476045912E+01 -0.12768565618E+03  0.14435485826E+03  0.41800000000E+01 0. -1.
         -5    1    4    4    0  501 -0.29933528508E+02 -0.41574780653E+02 -0.14676847161E+02  0.53454286618E+02  0.41800000000E+01 0. -1.
</event>
<event>
11    1  0.5813833E-009  0.1481070E+03  0.7561462E-02  0.1098829E+00
         22   -1    0    0    0    0  0.00000000000E+00  0.00000000000E+00  0.12821172025E+03  0.12821172025E+03  0.00000000000E+00 0. -1.
         22   -1    0    0    0    0 -0.00000000000E+00 -0.00000000000E+00 -0.26106487533E+04  0.26106487533E+04  0.00000000000E+00 0.  1.
         24    2    1    2    0    0 -0.63068644895E+02  0.97275528156E+01 -0.20597151283E+04  0.20623667525E+04  0.82812638609E+02 0.  0.
         25    2    1    2    0    0  0.39302679954E+02 -0.85791544318E+02 -0.51117298575E+03  0.53465126331E+03  0.12509701146E+03 0.  0.
        -24    2    1    2    0    0  0.23765964941E+02  0.76063991502E+02  0.88451081001E+02  0.14184245765E+03  0.77104715617E+02 0.  0.
        -11    1    3    3    0    0 -0.35846678242E+02  0.26790458440E+02 -0.18150082982E+04  0.18155599234E+04  0.00000000000E+00 0.  1.
         12    1    3    3    0    0 -0.27221966654E+02 -0.17062905625E+02 -0.24470683006E+03  0.24680682910E+03  0.00000000000E+00 0. -1.
         13    1    5    5    0    0 -0.69931060405E+01  0.69563285082E+01  0.60345035750E+02  0.61145869673E+02  0.00000000000E+00 0. -1.
        -14    1    5    5    0    0  0.30759070982E+02  0.69107662994E+02  0.28106045250E+02  0.80696587981E+02  0.00000000000E+00 0.  1.
          5    1    4    4  501    0 -0.36569338946E+01  0.19306164980E+02 -0.23727110618E+03  0.23812003570E+03  0.41800000000E+01 0.  1.
         -5    1    4    4    0  501  0.42959613849E+02 -0.10509770930E+03 -0.27390187957E+03  0.29653122762E+03  0.41800000000E+01 0.  1.
</event>
<event>
11    1  0.5813833E-009  0.2548718E+03  0.7561462E-02  0.1021335E+00
         22   -1    0    0    0    0  0.00000000000E+00  0.00000000000E+00  0.39607437956E+03  0.39607437956E+03  0.00000000000E+00 0. -1.
         22   -1    0    0    0    0 -0.00000000000E+00 -0.00000000000E+00 -0.53636010714E+03  0.53636010714E+03  0.00000000000E+00 0. -1.
         24    2    1    2    0    0 -0.13687227475E+03  0.16748212864E+03 -0.37356532098E+03  0.43875308764E+03  0.78542599008E+02 0.  0.
         25    2    1    2    0    0  0.16566826041E+03 -0.18817931914E+03  0.39419372382E+02  0.28294711401E+03  0.12509098189E+03 0.  0.
        -24    2    1    2    0    0 -0.28795985660E+02  0.20697190494E+02  0.19386022102E+03  0.21073428505E+03  0.74629559277E+02 0.  0.
        -11    1    3    3    0    0 -0.12484958960E+03  0.98797157356E+02 -0.23864597412E+03  0.28688011309E+03  0.00000000000E+00 0.  1.
         12    1    3    3    0    0 -0.12022685155E+02  0.68684971289E+02 -0.13491934686E+03  0.15187297454E+03  0.00000000000E+00 0. -1.
         13    1    5    5    0    0 -0.33398550491E+02  0.43229396092E+02  0.16514100891E+03  0.17394193481E+03  0.00000000000E+00 0. -1.
        -14    1    5    5    0    0  0.46025648309E+01 -0.22532205598E+02  0.28719212111E+02  0.36792350243E+02  0.00000000000E+00 0.  1.
          5    1    4    4  501    0  0.14340831482E+03 -0.77141216254E+02  0.46504235968E+02  0.16940138243E+03  0.41800000000E+01 0.  1.
         -5    1    4    4    0  501  0.22259945590E+02 -0.11103810288E+03 -0.70848635856E+01  0.11354573159E+03  0.41800000000E+01 0.  1.
</event>
<event>
11    1  0.5813833E-009  0.1370464E+03  0.7561462E-02  0.1110902E+00
         22   -1    0    0    0    0  0.00000000000E+00  0.00000000000E+00  0.75137963054E+03  0.75137963054E+03  0.00000000000E+00 0.  1.
         22   -1    0    0    0    0 -0.00000000000E+00 -0.00000000000E+00 -0.25144267398E+03  0.25144267398E+03  0.00000000000E+00 0. -1.
         24    2    1    2    0    0 -0.45072671322E+02  0.14850927210E+02 -0.21221230764E+03  0.23108631954E+03  0.78196725179E+02 0.  0.
         25    2    1    2    0    0  0.35825960295E+02  0.43299913872E+02  0.16036294271E+03  0.21100475215E+03  0.12509336538E+03 0.  0.
        -24    2    1    2    0    0  0.92467110272E+01 -0.58150841082E+02  0.55178632149E+03  0.56073123282E+03  0.80525454977E+02 0.  0.
        -11    1    3    3    0    0 -0.36122875310E+02 -0.18834997352E+02 -0.46824535662E+02  0.62065742450E+02  0.00000000000E+00 0.  1.
         12    1    3    3    0    0 -0.89497960122E+01  0.33685924562E+02 -0.16538777197E+03  0.16902057709E+03  0.00000000000E+00 0. -1.
         11    1    5    5    0    0  0.34939146533E+02 -0.33981490139E+02  0.15746684594E+03  0.16483717178E+03  0.00000000000E+00 0. -1.
        -12    1    5    5    0    0 -0.25692435506E+02 -0.24169350943E+02  0.39431947555E+03  0.39589406104E+03  0.00000000000E+00 0.  1.
          5    1    4    4  501    0  0.65345491287E+02  0.70725151835E+02  0.11855692065E+03  0.15279167572E+03  0.41800000000E+01 0.  1.
         -5    1    4    4    0  501 -0.29519530991E+02 -0.27425237963E+02  0.41806022057E+02  0.58213076431E+02  0.41800000000E+01 0.  1.
</event>
<event>
11    1  0.5813833E-009  0.1308896E+03  0.7561462E-02  0.1118181E+00
         22   -1    0    0    0    0  0.00000000000E+00  0.00000000000E+00  0.28513731879E+04  0.28513731879E+04  0.00000000000E+00 0.  1.
         22   -1    0    0    0    0 -0.00000000000E+00 -0.00000000000E+00 -0.24334316469E+02  0.24334316469E+02  0.00000000000E+00 0. -1.
         24    2    1    2    0    0 -0.62147236409E+00  0.39498494738E+01  0.73285392202E+02  0.10912106231E+03  0.80750665572E+02 0.  0.
         25    2    1    2    0    0 -0.36796720520E+02  0.61147795817E+01  0.77175069273E+03  0.78271273490E+03  0.12509478195E+03 0.  0.
        -24    2    1    2    0    0  0.37418192884E+02 -0.10064629056E+02  0.19820027865E+04  0.19838737072E+04  0.76931283420E+02 0.  0.
        -13    1    3    3    0    0  0.10115521741E+02  0.21965719967E+02  0.82677286874E+02  0.86141455750E+02  0.00000000000E+00 0.  1.
         14    1    3    3    0    0 -0.10736994105E+02 -0.18015870493E+02 -0.93918946722E+01  0.22979606559E+02  0.00000000000E+00 0. -1.
         11    1    5    5    0    0  0.35453575645E+01 -0.94652076805E+01  0.31608062291E+02  0.33184775402E+02  0.00000000000E+00 0. -1.
        -12    1    5    5    0    0  0.33872835320E+02 -0.59942137501E+00  0.19503947242E+04  0.19506889318E+04  0.00000000000E+00 0.  1.
          5    1    4    4  501    0  0.32533550351E+02 -0.11395968969E+02  0.79329369268E+02  0.86596311905E+02  0.41800000000E+01 0.  1.
         -5    1    4    4    0  501 -0.69330270871E+02  0.17510748551E+02  0.69242132346E+03  0.69611642299E+03  0.41800000000E+01 0.  1.
</event>
<event>
11    1  0.5813833E-009  0.1281034E+03  0.7561462E-02  0.1121621E+00
         22   -1    0    0    0    0  0.00000000000E+00  0.00000000000E+00  0.21589882395E+03  0.21589882395E+03  0.00000000000E+00 0. -1.
         22   -1    0    0    0    0 -0.00000000000E+00 -0.00000000000E+00 -0.11065644612E+04  0.11065644612E+04  0.00000000000E+00 0.  1.
        -24    2    1    2    0    0 -0.13872782392E+02 -0.23026944907E+02 -0.98122784359E+03  0.98527810050E+03  0.85100881354E+02 0.  0.
         25    2    1    2    0    0 -0.78557569037E+01  0.53129451747E+02 -0.70923844577E+02  0.15350174589E+03  0.12509253656E+03 0.  0.
         24    2    1    2    0    0  0.21728539296E+02 -0.30102506840E+02  0.16148605093E+03  0.18368343874E+03  0.79268976799E+02 0.  0.
        -11    1    5    5    0    0  0.69476800370E+00  0.12937156166E+01 -0.89695166027E+01  0.90889290217E+01  0.00000000000E+00 0.  1.
         12    1    5    5    0    0  0.21033771292E+02 -0.31396222456E+02  0.17045556753E+03  0.17459450971E+03  0.00000000000E+00 0. -1.
         11    1    3    3    0    0 -0.33894981369E+02  0.18346736880E+02 -0.29410807524E+03  0.29662271059E+03  0.00000000000E+00 0. -1.
        -12    1    3    3    0    0  0.20022198977E+02 -0.41373681787E+02 -0.68711976835E+03  0.68865538991E+03  0.00000000000E+00 0.  1.
          5    1    4    4  501    0  0.23051836937E+02  0.86217764135E+02 -0.56871793670E+02  0.10590922223E+03  0.41800000000E+01 0. -1.
         -5    1    4    4    0  501 -0.30907593841E+02 -0.33088312388E+02 -0.14052050907E+02  0.47592523661E+02  0.41800000000E+01 0. -1.
</event>
<event>
11    1  0.5813833E-009  0.1476148E+03  0.7561462E-02  0.1099341E+00
         22   -1    0    0    0    0  0.00000000000E+00  0.00000000000E+00  0.25352116744E+03  0.25352116744E+03  0.00000000000E+00 0.  1.
         22   -1    0    0    0    0 -0.00000000000E+00 -0.00000000000E+00 -0.68294469597E+03  0.68294469597E+03  0.00000000000E+00 0.  1.
         24    2    1    2    0    0 -0.26079179083E+02  0.74104442029E+02 -0.61809392102E+03  0.62895012112E+03  0.85828711673E+02 0.  0.
         25    2    1    2    0    0  0.36416006425E+02 -0.65731503411E+02  0.76116421340E+02  0.16458725690E+03  0.12509396257E+03 0.  0.
        -24    2    1    2    0    0 -0.10336827341E+02 -0.83729386184E+01  0.11255397115E+03  0.14292848539E+03  0.87081567591E+02 0.  0.
        -11    1    3    3    0    0 -0.12371252281E+02  0.42709090884E+02 -0.96712396064E+02  0.10644436049E+03  0.00000000000E+00 0.  1.
         12    1    3    3    0    0 -0.13707926802E+02  0.31395351145E+02 -0.52138152496E+03  0.52250576064E+03  0.00000000000E+00 0. -1.
         11    1    5    5    0    0 -0.28023412566E+02 -0.32071028191E+02  0.22549165024E+02  0.48190531688E+02  0.00000000000E+00 0. -1.
        -12    1    5    5    0    0  0.17686585225E+02  0.23698089573E+02  0.90004806121E+02  0.94737953700E+02  0.00000000000E+00 0.  1.
          5    1    4    4  501    0  0.23989946367E+02 -0.81194332754E+01 -0.32214611568E+02  0.41190973791E+02  0.41800000000E+01 0. -1.
         -5    1    4    4    0  501  0.12426060058E+02 -0.57612070135E+02  0.10833103291E+03  0.12339628311E+03  0.41800000000E+01 0. -1.
</event>
<event>
11    1  0.5813833E-009  0.1461485E+03  0.7561462E-02  0.1100880E+00
         22   -1    0    0    0    0  0.00000000000E+00  0.00000000000E+00  0.43229535907E+03  0.43229535907E+03  0.00000000000E+00 0. -1.
         22   -1    0    0    0    0 -0.00000000000E+00 -0.00000000000E+00 -0.10898733995E+04  0.10898733995E+04  0.00000000000E+00 0.  1.
         24    2    1    2    0    0 -0.29579170151E+02 -0.94720204368E+01 -0.10367046674E+04  0.10401592770E+04  0.78804235761E+02 0.  0.
         25    2    1    2    0    0  0.26759447723E+02 -0.67944142626E+02  0.86524245384E+02  0.16872026617E+03  0.12509040177E+03 0.  0.
        -24    2    1    2    0    0  0.28197224273E+01  0.77416163062E+02  0.29260238159E+03  0.31328921543E+03  0.80825525995E+02 0.  0.
        -11    1    3    3    0    0  0.13720531404E+02  0.25480231716E+02 -0.38118658455E+03  0.38228354324E+03  0.00000000000E+00 0.  1.
         12    1    3    3    0    0 -0.43299701555E+02 -0.34952252153E+02 -0.65551808287E+03  0.65787573374E+03  0.00000000000E+00 0. -1.
         13    1    5    5    0    0 -0.92025966690E+01  0.54107527896E+02  0.27780807933E+03  0.28317775566E+03  0.00000000000E+00 0. -1.
        -14    1    5    5    0    0  0.12022319096E+02  0.23308635167E+02  0.14794302259E+02  0.30111459764E+02  0.00000000000E+00 0.  1.
          5    1    4    4  501    0 -0.37911426407E+02 -0.67227386063E+02  0.63195765356E+02  0.99839745834E+02  0.41800000000E+01 0. -1.
         -5    1    4    4    0  501  0.64670874131E+02 -0.71675656230E+00  0.23328480028E+02  0.68880520332E+02  0.41800000000E+01 0. -1.
</event>
<event>
11    1  0.5813833E-009  0.1463479E+03  0.7561462E-02  0.1100670E+00
         22   -1    0    0    0    0  0.00000000000E+00  0.00000000000E+00  0.18339003035E+04  0.18339003035E+04  0.00000000000E+00 0.  1.
         22   -1    0    0    0    0 -0.00000000000E+00 -0.00000000000E+00 -0.94772275073E+03  0.94772275073E+03  0.00000000000E+00 0.  1.
        -24    2    1    2    0    0 -0.35281093267E+02 -0.66826613317E+02 -0.92099011375E+03  0.92759028112E+03  0.80562945709E+02 0.  0.
         25    2    1    2    0    0  0.73073604387E+02  0.92262936833E+02  0.31317993022E+03  0.35718579576E+03  0.12509125800E+03 0.  0.
         24    2    1    2    0    0 -0.37792511119E+02 -0.25436323516E+02  0.14939877363E+04  0.14968469774E+04  0.80475070298E+02 0.  0.
        -13    1    5    5    0    0 -0.48572923059E+02 -0.15339644028E+02  0.14392610030E+04  0.14401620980E+04  0.00000000000E+00 0.  1.
         14    1    5    5    0    0  0.10780411940E+02 -0.10096679488E+02  0.54726733309E+02  0.56684879438E+02  0.00000000000E+00 0. -1.
         11    1    3    3    0    0 -0.15697577642E+01  0.17989389628E+02 -0.20794999579E+03  0.20873256341E+03  0.00000000000E+00 0. -1.
        -12    1    3    3    0    0 -0.33711335503E+02 -0.84816002945E+02 -0.71304011796E+03  0.71885771772E+03  0.00000000000E+00 0.  1.
          5    1    4    4  501    0  0.98466227035E+02  0.29168851229E+02  0.20524008353E+03  0.22953732602E+03  0.41800000000E+01 0. -1.
         -5    1    4    4    0  501 -0.25392622649E+02  0.63094085604E+02  0.10793984669E+03  0.12764846973E+03  0.41800000000E+01 0. -1.
</event>
<event>
11    1  0.5813833E-009  0.1428111E+03  0.7561462E-02  0.1104459E+00
         22   -1    0    0    0    0  0.00000000000E+00  0.00000000000E+00  0.10381085225E+03  0.10381085225E+03  0.00000000000E+00 0. -1.
         22   -1    0    0    0    0 -0.00000000000E+00 -0.00000000000E+00 -0.74058401057E+03  0.74058401057E+03  0.00000000000E+00 0.  1.
         24    2    1    2    0    0  0.21181851820E+02 -0.67789139002E+01 -0.41432700835E+03  0.42207758268E+03  0.77382113125E+02 0.  0.
         25    2    1    2    0    0 -0.12998962092E+02 -0.62580586823E+02 -0.27128898527E+03  0.30550041261E+03  0.12508991050E+03 0.  0.
        -24    2    1    2    0    0 -0.81828897284E+01  0.69359500723E+02  0.48842835301E+02  0.11681686753E+03  0.79892790376E+02 0.  0.
        -11    1    3    3    0    0  0.27570739217E+02 -0.38900181252E+02 -0.25502655541E+03  0.25944539643E+03  0.00000000000E+00 0.  1.
         12    1    3    3    0    0 -0.63888873971E+01  0.32121267352E+02 -0.15930045294E+03  0.16263218625E+03  0.00000000000E+00 0. -1.
         11    1    5    5    0    0 -0.43051148788E+02  0.49280944342E+02  0.25020437722E+02  0.70057370711E+02  0.00000000000E+00 0. -1.
        -12    1    5    5    0    0  0.34868259059E+02  0.20078556381E+02  0.23822397579E+02  0.46759496817E+02  0.00000000000E+00 0.  1.
          5    1    4    4  501    0 -0.18816976188E+02 -0.36876168480E+02 -0.99245145407E+01  0.42777316226E+02  0.41800000000E+01 0. -1.
         -5    1    4    4    0  501  0.58180140965E+01 -0.25704418343E+02 -0.26136447073E+03  0.26272309638E+03  0.41800000000E+01 0. -1.
</event>
<event>
11    1  0.5813833E-009  0.1796720E+03  0.7561462E-02  0.1069908E+00
         22   -1    0    0    0    0  0.00000000000E+00  0.00000000000E+00  0.99271719152E+03  0.99271719152E+03  0.00000000000E+00 0. -1.
         22   -1    0    0    0    0 -0.00000000000E+00 -0.00000000000E+00 -0.10379495306E+04  0.10379495306E+04  0.00000000000E+00 0. -1.
         24    2    1    2    0    0 -0.98102903603E+02 -0.83111860759E+02 -0.99252601801E+03  0.10037277914E+04  0.76353268856E+02 0.  0.
         25    2    1    2    0    0  0.11866486909E+03  0.87080007516E+02  0.21255195739E+03  0.28721029772E+03  0.12508853529E+03 0.  0.
        -24    2    1    2    0    0 -0.20561965484E+02 -0.39681467570E+01  0.73474172151E+03  0.73972863304E+03  0.83153548343E+02 0.  0.
        -13    1    3    3    0    0 -0.58487510199E+02 -0.33243841797E+02 -0.26450938704E+03  0.27293068296E+03  0.00000000000E+00 0.  1.
         14    1    3    3    0    0 -0.39615393405E+02 -0.49868018962E+02 -0.72801663097E+03  0.73079710842E+03  0.00000000000E+00 0. -1.
         11    1    5    5    0    0  0.23560250571E+02 -0.13376639982E+02  0.49739804278E+03  0.49813535597E+03  0.00000000000E+00 0. -1.
        -12    1    5    5    0    0 -0.44122216055E+02  0.94084932254E+01  0.23734367873E+03  0.24159327708E+03  0.00000000000E+00 0.  1.
          5    1    4    4  501    0  0.21820261986E+02  0.68130399067E+02  0.26198270309E+02  0.76300045068E+02  0.41800000000E+01 0.  1.
         -5    1    4    4    0  501  0.96844607102E+02  0.18949608449E+02  0.18635368709E+03  0.21091025266E+03  0.41800000000E+01 0.  1.
</event>
<event>
11    1  0.5813833E-009  0.1326301E+03  0.7561462E-02  0.1116079E+00
         22   -1    0    0    0    0  0.00000000000E+00  0.00000000000E+00  0.64085770446E+03  0.64085770446E+03  0.00000000000E+00 0. -1.
         22   -1    0    0    0    0 -0.00000000000E+00 -0.00000000000E+00 -0.14249110905E+04  0.14249110905E+04  0.00000000000E+00 0.  1.
         24    2    1    2    0    0  0.24110392156E+02 -0.36693090336E+02 -0.13938419916E+04  0.13968520942E+04  0.80452356150E+02 0.  0.
         25    2    1    2    0    0 -0.10860876344E+02  0.75679038612E+02  0.19342403750E+03  0.24270531670E+03  0.12509091475E+03 0.  0.
        -24    2    1    2    0    0 -0.13249515812E+02 -0.38985948276E+02  0.41636456808E+03  0.42621138406E+03  0.81247993917E+02 0.  0.
        -13    1    3    3    0    0 -0.14083727168E+01 -0.57970584614E+02 -0.95009997450E+03  0.95186791823E+03  0.00000000000E+00 0.  1.
         14    1    3    3    0    0  0.25518764873E+02  0.21277494278E+02 -0.44374201707E+03  0.44498417594E+03  0.00000000000E+00 0. -1.
         11    1    5    5    0    0  0.13678040213E+02 -0.49616981141E+02  0.15665096412E+03  0.16488922998E+03  0.00000000000E+00 0. -1.
        -12    1    5    5    0    0 -0.26927556025E+02  0.10631032864E+02  0.25971360396E+03  0.26132215408E+03  0.00000000000E+00 0.  1.
          5    1    4    4  501    0 -0.57174506110E+02  0.51156903978E+02  0.54593287906E+02  0.94254190665E+02  0.41800000000E+01 0.  1.
         -5    1    4    4    0  501  0.46313629766E+02  0.24522134634E+02  0.13883074959E+03  0.14845112604E+03  0.41800000000E+01 0.  1.
</event>
<event>
11    1  0.5813833E-009  0.1447942E+03  0.7561462E-02  0.1102320E+00
         22   -1    0    0    0    0  0.00000000000E+00  0.00000000000E+00  0.55860092338E+03  0.55860092338E+03  0.00000000000E+00 0. -1.
         22   -1    0    0    0    0 -0.00000000000E+00 -0.00000000000E+00 -0.32189065224E+03  0.32189065224E+03  0.00000000000E+00 0. -1.
        -24    2    1    2    0    0 -0.39164700796E+02 -0.53890945556E+02 -0.21824637032E+03  0.24225998823E+03  0.81365323910E+02 0.  0.
         25    2    1    2    0    0  0.77168720727E+02  0.89704120581E+02 -0.10093845214E+01  0.17218514789E+03  0.12507943711E+03 0.  0.
         24    2    1    2    0    0 -0.38004019932E+02 -0.35813175025E+02  0.45596602599E+03  0.46604643951E+03  0.81039360110E+02 0.  0.
        -13    1    5    5    0    0 -0.29123950739E+02 -0.43775473228E+02  0.13527664126E+03  0.14513533765E+03  0.00000000000E+00 0.  1.
         14    1    5    5    0    0 -0.88800691929E+01  0.79622982035E+01  0.32068938473E+03  0.32091110186E+03  0.00000000000E+00 0. -1.
         11    1    3    3    0    0 -0.55184912573E+02 -0.55382062014E+02 -0.21020344405E+03  0.22427223471E+03  0.00000000000E+00 0. -1.
        -12    1    3    3    0    0  0.16020211778E+02  0.14911164578E+01 -0.80429262696E+01  0.17987753519E+02  0.00000000000E+00 0.  1.
          5    1    4    4  501    0  0.94699087618E+02  0.35574591755E+02  0.32111382857E+02  0.10621714590E+03  0.41800000000E+01 0. -1.
         -5    1    4    4    0  501 -0.17530366891E+02  0.54129528825E+02 -0.33120767378E+02  0.65968001985E+02  0.41800000000E+01 0. -1.
</event>
<event>
11    1  0.5813833E-009  0.2376260E+03  0.7561462E-02  0.1030706E+00
         22   -1    0    0    0    0  0.00000000000E+00  0.00000000000E+00  0.12660155744E+03  0.12660155744E+03  0.00000000000E+00 0.  1.
         22   -1    0    0    0    0 -0.00000000000E+00 -0.00000000000E+00 -0.22417854500E+04  0.22417854500E+04  0.00000000000E+00 0. -1.
        -24    2    1    2    0    0  0.85375970401E+01 -0.59592703640E+02 -0.17299207879E+04  0.17321233314E+04  0.63254420810E+02 0.  0.
         25    2    1    2    0    0 -0.20669739776E+03  0.18343291866E+02 -0.33409506668E+03  0.41270715256E+03  0.12508952633E+03 0.  0.
         24    2    1    2    0    0  0.19815980072E+03  0.41249411774E+02 -0.51168037993E+02  0.22355652353E+03  0.79940793777E+02 0.  0.
        -11    1    5    5    0    0  0.12847823449E+03  0.39633150999E+02  0.42353400212E+01  0.13451907486E+03  0.00000000000E+00 0.  1.
         12    1    5    5    0    0  0.69681566225E+02  0.16162607745E+01 -0.55403378014E+02  0.89037448671E+02  0.00000000000E+00 0. -1.
         11    1    3    3    0    0  0.30512089129E+02 -0.53496005617E+02 -0.14356081604E+04  0.14369285300E+04  0.00000000000E+00 0. -1.
        -12    1    3    3    0    0 -0.21974492089E+02 -0.60966980226E+01 -0.29431262754E+03  0.29519480137E+03  0.00000000000E+00 0.  1.
          5    1    4    4  501    0 -0.13113909084E+03  0.32124794084E+02 -0.10513858504E+03  0.17117551813E+03  0.41800000000E+01 0.  1.
         -5    1    4    4    0  501 -0.75558306918E+02 -0.13781502218E+02 -0.22895648164E+03  0.24153163443E+03  0.41800000000E+01 0.  1.
</event>
<event>
11    1  0.5813833E-009  0.1341191E+03  0.7561462E-02  0.1114309E+00
         22   -1    0    0    0    0  0.00000000000E+00  0.00000000000E+00  0.12489597877E+03  0.12489597877E+03  0.00000000000E+00 0.  1.
         22   -1    0    0    0    0 -0.00000000000E+00 -0.00000000000E+00 -0.28354295963E+03  0.28354295963E+03  0.00000000000E+00 0.  1.
         24    2    1    2    0    0  0.24247132546E+02  0.34059256165E+02 -0.12398889095E+03  0.15415049682E+03  0.81493399885E+02 0.  0.
         25    2    1    2    0    0 -0.64928858186E+02 -0.35335621610E+02 -0.64733668947E+02  0.15905491492E+03  0.12507459888E+03 0.  0.
        -24    2    1    2    0    0  0.40681725640E+02  0.12763654447E+01  0.30075579029E+02  0.95233526656E+02  0.80673739443E+02 0.  0.
        -11    1    3    3    0    0 -0.34259439152E+01  0.11068093877E+02 -0.11691039029E+03  0.11748310155E+03  0.00000000000E+00 0.  1.
         12    1    3    3    0    0  0.27673076461E+02  0.22991162288E+02 -0.70785006623E+01  0.36667395269E+02  0.00000000000E+00 0. -1.
         13    1    5    5    0    0 -0.23785792829E+02  0.62278070131E+01  0.17682972499E+01  0.24651093198E+02  0.00000000000E+00 0. -1.
        -14    1    5    5    0    0  0.64467518469E+02 -0.49514415684E+01  0.28307281779E+02  0.70582433458E+02  0.00000000000E+00 0.  1.
          5    1    4    4  501    0 -0.21479013621E+02 -0.72383204417E+02 -0.41999997256E+01  0.75734989968E+02  0.41800000000E+01 0.  1.
         -5    1    4    4    0  501 -0.43449844565E+02  0.37047582807E+02 -0.60533669221E+02  0.83319924952E+02  0.41800000000E+01 0.  1.
</event>
<event>
11    1  0.5813833E-009  0.1454929E+03  0.7561462E-02  0.1101575E+00
         22   -1    0    0    0    0  0.00000000000E+00  0.00000000000E+00  0.50778176122E+02  0.50778176122E+02  0.00000000000E+00 0. -1.
         22   -1    0    0    0    0 -0.00000000000E+00 -0.00000000000E+00 -0.37634048906E+04  0.37634048906E+04  0.00000000000E+00 0.  1.
         24    2    1    2    0    0 -0.39037424047E+02 -0.62089202779E+02 -0.34309687354E+04  0.34327127633E+04  0.81187822566E+02 0.  0.
         25    2    1    2    0    0  0.40586958287E+02  0.92624039604E+02 -0.25162457535E+03  0.29864613240E+03  0.12509225228E+03 0.  0.
        -24    2    1    2    0    0 -0.15495342404E+01 -0.30534836824E+02 -0.30033403659E+02  0.82824170947E+02  0.70873553893E+02 0.  0.
        -13    1    3    3    0    0 -0.42588823914E+02 -0.55957237325E+02 -0.34068236677E+04  0.34075493427E+04  0.00000000000E+00 0.  1.
         14    1    3    3    0    0  0.35513998670E+01 -0.61319654542E+01 -0.24145067778E+02  0.25163420660E+02  0.00000000000E+00 0. -1.
         11    1    5    5    0    0 -0.12590528814E+02 -0.49318415110E+02 -0.33252679879E+02  0.60799409569E+02  0.00000000000E+00 0. -1.
        -12    1    5    5    0    0  0.11040994574E+02  0.18783578285E+02  0.32192762197E+01  0.22024761378E+02  0.00000000000E+00 0.  1.
          5    1    4    4  501    0  0.12012167219E+02  0.47703895351E+02 -0.89622196692E+01  0.50177161880E+02  0.41800000000E+01 0. -1.
         -5    1    4    4    0  501  0.28574791068E+02  0.44920144252E+02 -0.24266235568E+03  0.24846897052E+03  0.41800000000E+01 0. -1.
</event>
<event>
11    1  0.5813833E-009  0.1709550E+03  0.7561462E-02  0.1077204E+00
         22   -1    0    0    0    0  0.00000000000E+00  0.00000000000E+00  0.30886816104E+03  0.30886816104E+03  0.00000000000E+00 0.  1.
         22   -1    0    0    0    0 -0.00000000000E+00 -0.00000000000E+00 -0.43223173457E+03  0.43223173457E+03  0.00000000000E+00 0. -1.
         24    2    1    2    0    0 -0.24828366006E+01  0.36166174709E+01 -0.31343571514E+03  0.32360950313E+03  0.80386059673E+02 0.  0.
         25    2    1    2    0    0 -0.10116178737E+02  0.11299112804E+03 -0.13311948747E+02  0.16939138902E+03  0.12508757975E+03 0.  0.
        -24    2    1    2    0    0  0.12599015338E+02 -0.11660774551E+03  0.20338409036E+03  0.24809900345E+03  0.80199288038E+02 0.  0.
        -11    1    3    3    0    0  0.21998867949E+02 -0.29824384975E+02 -0.11259630551E+03  0.11853848381E+03  0.00000000000E+00 0.  1.
         12    1    3    3    0    0 -0.24481704550E+02  0.33441002446E+02 -0.20083940963E+03  0.20507101932E+03  0.00000000000E+00 0. -1.
         13    1    5    5    0    0 -0.25591488383E+02 -0.14898121975E+02  0.22880977848E+02  0.37422152040E+02  0.00000000000E+00 0. -1.
        -14    1    5    5    0    0  0.38190503721E+02 -0.10170962354E+03  0.18050311251E+03  0.21067685141E+03  0.00000000000E+00 0.  1.
          5    1    4    4  501    0 -0.37654245570E+00 -0.22899476073E+02  0.18131258947E+02  0.29508350338E+02  0.41800000000E+01 0.  1.
         -5    1    4    4    0  501 -0.97396362817E+01  0.13589060412E+03 -0.31443207694E+02  0.13988303869E+03  0.41800000000E+01 0.  1.
</event>
<event>
11    1  0.5813833E-009  0.1319529E+03  0.7561462E-02  0.1116892E+00
         22   -1    0    0    0    0  0.00000000000E+00  0.00000000000E+00  0.44975139782E+03  0.44975139782E+03  0.00000000000E+00 0. -1.
         22   -1    0    0    0    0 -0.00000000000E+00 -0.00000000000E+00 -0.11233296508E+04  0.11233296508E+04  0.00000000000E+00 0.  1.
         24    2    1    2    0    0 -0.34789087705E+02 -0.21661349163E+02 -0.10100326634E+04  0.10141861862E+04  0.82025267311E+02 0.  0.
         25    2    1    2    0    0  0.65927242893E+02  0.17078686159E+02 -0.61336489617E+02  0.15507107696E+03  0.12508713393E+03 0.  0.
        -24    2    1    2    0    0 -0.31138155188E+02  0.45826630035E+01  0.39779090003E+03  0.40382378546E+03  0.62011805747E+02 0.  0.
        -11    1    3    3    0    0 -0.51473523646E+01 -0.19672993069E+02 -0.89952582375E+03  0.89975564988E+03  0.00000000000E+00 0.  1.
         12    1    3    3    0    0 -0.29641735341E+02 -0.19883560942E+01 -0.11050683962E+03  0.11443053629E+03  0.00000000000E+00 0. -1.
         11    1    5    5    0    0 -0.20964096570E+02 -0.13382662864E+02  0.35917473115E+03  0.36003482679E+03  0.00000000000E+00 0. -1.
        -12    1    5    5    0    0 -0.10174058617E+02  0.17965325867E+02  0.38616168883E+02  0.43788958671E+02  0.00000000000E+00 0.  1.
          5    1    4    4  501    0  0.14123026186E+02 -0.51433514254E+01  0.37833349501E+02  0.40923693223E+02  0.41800000000E+01 0.  1.
         -5    1    4    4    0  501  0.51804216707E+02  0.22222037585E+02 -0.99169839118E+02  0.11414738374E+03  0.41800000000E+01 0.  1.
</event>
<event>
11    1  0.5813833E-009  0.1573615E+03  0.7561462E-02  0.1089585E+00
         22   -1    0    0    0    0  0.00000000000E+00  0.00000000000E+00  0.16149320487E+04  0.16149320487E+04  0.00000000000E+00 0. -1.
         22   -1    0    0    0    0 -0.00000000000E+00 -0.00000000000E+00 -0.10387517530E+03  0.10387517530E+03  0.00000000000E+00 0.  1.
        -24    2    1    2    0    0 -0.11410801118E+02 -0.92898397577E+02 -0.45398360962E+02  0.12803621062E+03  0.74645437884E+02 0.  0.
         25    2    1    2    0    0  0.16603269753E+02  0.11628125091E+03  0.46810274768E+03  0.49856239813E+03  0.12508910650E+03 0.  0.
         24    2    1    2    0    0 -0.51924686351E+01 -0.23382853331E+02  0.10883524867E+04  0.10922086152E+04  0.88514430466E+02 0.  0.
        -13    1    5    5    0    0  0.24676449567E+02  0.18638883674E+02  0.20153867812E+03  0.20389745935E+03  0.00000000000E+00 0.  1.
         14    1    5    5    0    0 -0.29868918202E+02 -0.42021737005E+02  0.88681380854E+03  0.88831115589E+03  0.00000000000E+00 0. -1.
         13    1    3    3    0    0  0.98297772600E+01 -0.11331519008E+02  0.17365548852E+02  0.22947551742E+02  0.00000000000E+00 0. -1.
        -14    1    3    3    0    0 -0.21240578378E+02 -0.81566878569E+02 -0.62763909814E+02  0.10508865888E+03  0.00000000000E+00 0.  1.
          5    1    4    4  501    0 -0.83259467968E+01  0.89878453253E+02  0.12902065007E+03  0.15751589854E+03  0.41800000000E+01 0. -1.
         -5    1    4    4    0  501  0.24929216550E+02  0.26402797655E+02  0.33908209761E+03  0.34104649959E+03  0.41800000000E+01 0. -1.
</event>
<event>
11    1  0.5813833E-009  0.1344607E+03  0.7561462E-02  0.1113907E+00
         22   -1    0    0    0    0  0.00000000000E+00  0.00000000000E+00  0.13184361827E+03  0.13184361827E+03  0.00000000000E+00 0. -1.
         22   -1    0    0    0    0 -0.00000000000E+00 -0.00000000000E+00 -0.63889094756E+03  0.63889094756E+03  0.00000000000E+00 0. -1.
        -24    2    1    2    0    0 -0.14804883944E+02 -0.15151727076E+02 -0.50151941502E+03  0.50794589387E+03  0.77708095009E+02 0.  0.
         25    2    1    2    0    0 -0.18799026934E+02 -0.26489574519E+02 -0.68602005848E+02  0.14631865743E+03  0.12509122005E+03 0.  0.
         24    2    1    2    0    0  0.33603910878E+02  0.41641301594E+02  0.63074091586E+02  0.11647001453E+03  0.81998185525E+02 0.  0.
        -11    1    5    5    0    0  0.10746679435E+02  0.11393561123E+02 -0.19853038080E+02  0.25287298688E+02  0.00000000000E+00 0.  1.
         12    1    5    5    0    0  0.22857231443E+02  0.30247740472E+02  0.82927129666E+02  0.91182715837E+02  0.00000000000E+00 0. -1.
         11    1    3    3    0    0 -0.45214448734E+02 -0.15993456308E+02 -0.36095486206E+03  0.36412710619E+03  0.00000000000E+00 0. -1.
        -12    1    3    3    0    0  0.30409564790E+02  0.84172923214E+00 -0.14056455296E+03  0.14381878767E+03  0.00000000000E+00 0.  1.
          5    1    4    4  501    0  0.23803879729E+02 -0.65921779669E+02 -0.29245167255E+02  0.76059568318E+02  0.41800000000E+01 0. -1.
         -5    1    4    4    0  501 -0.42602906663E+02  0.39432205150E+02 -0.39356838593E+02  0.70259089114E+02  0.41800000000E+01 0. -1.
</event>
<event>
11    1  0.5813833E-009  0.1580310E+03  0.7561462E-02  0.1088944E+00
         22   -1    0    0    0    0  0.00000000000E+00  0.00000000000E+00  0.75079368592E+03  0.75079368592E+03  0.00000000000E+00 0.  1.
         22   -1    0    0    0    0 -0.00000000000E+00 -0.00000000000E+00 -0.58184089150E+03  0.58184089150E+03  0.00000000000E+00 0.  1.
        -24    2    1    2    0    0  0.79177317492E+02  0.15709585047E+02 -0.54686384851E+03  0.55843939383E+03  0.79237927172E+02 0.  0.
         25    2    1    2    0    0 -0.26966388557E+02  0.83835587917E+02  0.29853177570E+03  0.33544646867E+03  0.12509004888E+03 0.  0.
         24    2    1    2    0    0 -0.52210928935E+02 -0.99545172964E+02  0.41728486724E+03  0.43874871492E+03  0.75753230013E+02 0.  0.
        -11    1    5    5    0    0 -0.72810915272E+01 -0.25379233497E+02  0.23942593734E+03  0.24087735314E+03  0.00000000000E+00 0.  1.
         12    1    5    5    0    0 -0.44929837408E+02 -0.74165939467E+02  0.17785892990E+03  0.19787136178E+03  0.00000000000E+00 0. -1.
         11    1    3    3    0    0  0.38237202760E+02 -0.54336331253E+01 -0.75272327366E+02  0.84602194481E+02  0.00000000000E+00 0. -1.
        -12    1    3    3    0    0  0.40940114732E+02  0.21143218172E+02 -0.47159152114E+03  0.47383719935E+03  0.00000000000E+00 0.  1.
          5    1    4    4  501    0  0.27964125563E+01  0.11134486610E+03  0.20292603030E+03  0.23152093923E+03  0.41800000000E+01 0.  1.
         -5    1    4    4    0  501 -0.29762801113E+02 -0.27509278182E+02  0.95605745400E+02  0.10392552944E+03  0.41800000000E+01 0.  1.
</event>
<event>
11    1  0.5813833E-009  0.2406619E+03  0.7561462E-02  0.1028995E+00
         22   -1    0    0    0    0  0.00000000000E+00  0.00000000000E+00  0.38270985997E+03  0.38270985997E+03  0.00000000000E+00 0.  1.
         22   -1    0    0    0    0 -0.00000000000E+00 -0.00000000000E+00 -0.14230998617E+04  0.14230998617E+04  0.00000000000E+00 0.  1.
        -24    2    1    2    0    0 -0.39666890865E+02 -0.55331247939E+02 -0.11639176551E+04  0.11686963206E+04  0.80695556336E+02 0.  0.
         25    2    1    2    0    0  0.34112770437E+01 -0.15650049001E+03 -0.17137128451E+03  0.26366619417E+03  0.12509078547E+03 0.  0.
         24    2    1    2    0    0  0.36255613822E+02  0.21183173794E+03  0.29489893787E+03  0.37344720686E+03  0.79437258385E+02 0.  0.
        -11    1    5    5    0    0 -0.10154024632E+02  0.13346517185E+03  0.13953196237E+03  0.19335259200E+03  0.00000000000E+00 0.  1.
         12    1    5    5    0    0  0.46409638453E+02  0.78366566098E+02  0.15536697550E+03  0.18009461485E+03  0.00000000000E+00 0. -1.
         11    1    3    3    0    0  0.18309580378E+02 -0.19439539952E+02 -0.14087209802E+03  0.14338090685E+03  0.00000000000E+00 0. -1.
        -12    1    3    3    0    0 -0.57976471244E+02 -0.35891707988E+02 -0.10230455570E+04  0.10253154138E+04  0.00000000000E+00 0.  1.
          5    1    4    4  501    0  0.12637198332E+01 -0.76092207936E+02 -0.16633235779E+03  0.18296323878E+03  0.41800000000E+01 0. -1.
         -5    1    4    4    0  501  0.21475572104E+01 -0.80408282069E+02 -0.50389267275E+01  0.80702955397E+02  0.41800000000E+01 0. -1.
</event>
<event>
11    1  0.5813833E-009  0.1958496E+03  0.7561462E-02  0.1057498E+00
         22   -1    0    0    0    0  0.00000000000E+00  0.00000000000E+00  0.75456295618E+03  0.75456295618E+03  0.00000000000E+00 0. -1.
         22   -1    0    0    0    0 -0.00000000000E+00 -0.00000000000E+00 -0.65625205918E+03  0.65625205918E+03  0.00000000000E+00 0.  1.
         24    2    1    2    0    0  0.18379261890E+02 -0.14912349433E+03 -0.57244448758E+03  0.59719245763E+03  0.79815576556E+02 0.  0.
         25    2    1    2    0    0 -0.10837341788E+03  0.14339835912E+03  0.11554072804E+03  0.24759602463E+03  0.12508494903E+03 0.  0.
        -24    2    1    2    0    0  0.89994155991E+02  0.57251352085E+01  0.55521465654E+03  0.56602653309E+03  0.63174330544E+02 0.  0.
        -11    1    3    3    0    0 -0.96765240570E+01 -0.13693638852E+03 -0.50117626543E+03  0.51963723755E+03  0.00000000000E+00 0.  1.
         12    1    3    3    0    0  0.28055785948E+02 -0.12187105804E+02 -0.71268222154E+02  0.77555220083E+02  0.00000000000E+00 0. -1.
         13    1    5    5    0    0  0.36326494191E+02  0.88875854281E+01  0.40040651309E+03  0.40214920003E+03  0.00000000000E+00 0. -1.
        -14    1    5    5    0    0  0.53667661800E+02 -0.31624502197E+01  0.15480814345E+03  0.16387733307E+03  0.00000000000E+00 0.  1.
          5    1    4    4  501    0  0.25863174279E+02  0.17175450692E+02  0.33465228947E+02  0.45839871714E+02  0.41800000000E+01 0. -1.
         -5    1    4    4    0  501 -0.13423659216E+03  0.12622290843E+03  0.82075499098E+02  0.20175615292E+03  0.41800000000E+01 0. -1.
</event>
<event>
11    1  0.5813833E-009  0.1278469E+03  0.7561462E-02  0.1121943E+00
         22   -1    0    0    0    0  0.00000000000E+00  0.00000000000E+00  0.23663181104E+03  0.23663181104E+03  0.00000000000E+00 0.  1.
         22   -1    0    0    0    0 -0.00000000000E+00 -0.00000000000E+00 -0.40161666809E+03  0.40161666809E+03  0.00000000000E+00 0.  1.
         24    2    1    2    0    0 -0.30185111249E+02 -0.74604269528E+01 -0.28197135145E+03  0.29492909469E+03  0.80675454402E+02 0.  0.
         25    2    1    2    0    0 -0.25758389769E+01  0.55321695375E+01 -0.65652287264E+02  0.14140583211E+03  0.12509255248E+03 0.  0.
        -24    2    1    2    0    0  0.32760950226E+02  0.19282574152E+01  0.18263878166E+03  0.20191355233E+03  0.79593718417E+02 0.  0.
        -13    1    3    3    0    0 -0.21378570986E+02  0.23229737243E+02 -0.24063735579E+03  0.24269940460E+03  0.00000000000E+00 0.  1.
         14    1    3    3    0    0 -0.88065402626E+01 -0.30690164196E+02 -0.41333995660E+02  0.52229690091E+02  0.00000000000E+00 0. -1.
         11    1    5    5    0    0  0.39715864471E+02 -0.24824418474E+02  0.59562186871E+02  0.75771074614E+02  0.00000000000E+00 0. -1.
        -12    1    5    5    0    0 -0.69549142450E+01  0.26752675889E+02  0.12307659479E+03  0.12614247772E+03  0.00000000000E+00 0.  1.
          5    1    4    4  501    0 -0.53753300103E+02 -0.10849722517E+02 -0.68000766118E+02  0.87456905635E+02  0.41800000000E+01 0.  1.
         -5    1    4    4    0  501  0.51177461126E+02  0.16381892055E+02  0.23484788543E+01  0.53948926472E+02  0.41800000000E+01 0.  1.
</event>
<event>
11    1  0.5813833E-009  0.1457138E+03  0.7561462E-02  0.1101341E+00
         22   -1    0    0    0    0  0.00000000000E+00  0.00000000000E+00  0.51241505712E+03  0.51241505712E+03  0.00000000000E+00 0.  1.
         22   -1    0    0    0    0 -0.00000000000E+00 -0.00000000000E+00 -0.11290886587E+04  0.11290886587E+04  0.00000000000E+00 0.  1.
         24    2    1    2    0    0  0.74431176876E+02 -0.11320722800E+02 -0.10984066770E+04  0.11039534939E+04  0.80919279533E+02 0.  0.
         25    2    1    2    0    0 -0.35612951765E+02 -0.71616758059E+01  0.18150239644E+03  0.22340644783E+03  0.12509096324E+03 0.  0.
        -24    2    1    2    0    0 -0.38818225111E+02  0.18482398606E+02  0.30023067902E+03  0.31414377404E+03  0.81849841082E+02 0.  0.
        -11    1    3    3    0    0  0.82613084363E+02  0.13459671528E+02 -0.88753569474E+03  0.89147388852E+03  0.00000000000E+00 0.  1.
         12    1    3    3    0    0 -0.81819074873E+01 -0.24780394328E+02 -0.21087098224E+03  0.21247960539E+03  0.00000000000E+00 0. -1.
         11    1    5    5    0    0  0.18727474029E+02 -0.11302476818E+02  0.36349448537E+02  0.42423421298E+02  0.00000000000E+00 0. -1.
        -12    1    5    5    0    0 -0.57545699139E+02  0.29784875424E+02  0.26388123048E+03  0.27172035274E+03  0.00000000000E+00 0.  1.
          5    1    4    4  501    0 -0.29047244573E+02  0.50034004429E+02  0.39657091157E+02  0.70265932681E+02  0.41800000000E+01 0.  1.
         -5    1    4    4    0  501 -0.65657071921E+01 -0.57195680234E+02  0.14184530528E+03  0.15314051515E+03  0.41800000000E+01 0.  1.
</event>
<event>
11    1  0.5813833E-009  0.1806769E+03  0.7561462E-02  0.1069097E+00
         22   -1    0    0    0    0  0.00000000000E+00  0.00000000000E+00  0.15698054612E+03  0.15698054612E+03  0.00000000000E+00 0.  1.
         22   -1    0    0    0    0 -0.00000000000E+00 -0.00000000000E+00 -0.28964184471E+04  0.28964184471E+04  0.00000000000E+00 0.  1.
        -24    2    1    2    0    0 -0.11422980758E+02 -0.54390628030E+02 -0.26989739303E+04  0.27007560957E+04  0.80835555639E+02 0.  0.
         25    2    1    2    0    0  0.94626238870E+02 -0.60800331580E+02 -0.77361921556E+02  0.18514485433E+03  0.12507175850E+03 0.  0.
         24    2    1    2    0    0 -0.83203258112E+02  0.11519095961E+03  0.36897950878E+02  0.16749804320E+03  0.80637437701E+02 0.  0.
        -11    1    5    5    0    0 -0.97235173276E+02  0.11134623767E+03  0.38777921751E+02  0.15282797774E+03  0.00000000000E+00 0.  1.
         12    1    5    5    0    0  0.14031915164E+02  0.38447219422E+01 -0.18799708735E+01  0.14670065455E+02  0.00000000000E+00 0. -1.
         13    1    3    3    0    0  0.20921365460E+02 -0.42597859903E+02 -0.76211418892E+03  0.76359041256E+03  0.00000000000E+00 0. -1.
        -14    1    3    3    0    0 -0.32344346219E+02 -0.11792768127E+02 -0.19368597414E+04  0.19371656831E+04  0.00000000000E+00 0.  1.
          5    1    4    4  501    0  0.58786905825E+02  0.11816073602E+02  0.15288744302E+02  0.62022076667E+02  0.41800000000E+01 0.  1.
         -5    1    4    4    0  501  0.35839333046E+02 -0.72616405182E+02 -0.92650665858E+02  0.12312277766E+03  0.41800000000E+01 0.  1.
</event>
<event>
11    1  0.5813833E-009  0.2282302E+03  0.7561462E-02  0.1036181E+00
         22   -1    0    0    0    0  0.00000000000E+00  0.00000000000E+00  0.49394070870E+03  0.49394070870E+03  0.00000000000E+00 0.  1.
         22   -1    0    0    0    0 -0.00000000000E+00 -0.00000000000E+00 -0.13230350989E+04  0.13230350989E+04  0.00000000000E+00 0.  1.
        -24    2    1    2    0    0  0.67039169727E+02 -0.28313118630E+02 -0.11082061005E+04  0.11135043502E+04  0.80469210110E+02 0.  0.
         25    2    1    2    0    0  0.99205047703E+02  0.13187204230E+03 -0.12883899872E+03  0.24388333938E+03  0.12509084141E+03 0.  0.
         24    2    1    2    0    0 -0.16624421743E+03 -0.10355892367E+03  0.40795070907E+03  0.45958811796E+03  0.80223853271E+02 0.  0.
        -13    1    5    5    0    0 -0.12645833407E+03 -0.11028655775E+03  0.35802980098E+03  0.39539875248E+03  0.00000000000E+00 0.  1.
         14    1    5    5    0    0 -0.39785883363E+02  0.67276340779E+01  0.49920908098E+02  0.64189365479E+02  0.00000000000E+00 0. -1.
         13    1    3    3    0    0  0.76821412699E+02 -0.70491445293E+00 -0.89580442297E+03  0.89909264849E+03  0.00000000000E+00 0. -1.
        -14    1    3    3    0    0 -0.97822429718E+01 -0.27608204177E+02 -0.21240167756E+03  0.21441170174E+03  0.00000000000E+00 0.  1.
          5    1    4    4  501    0  0.96973704224E+02  0.34167020709E+02 -0.95914881536E+02  0.14067132442E+03  0.41800000000E+01 0.  1.
         -5    1    4    4    0  501  0.22313434785E+01  0.97705021595E+02 -0.32924117186E+02  0.10321201495E+03  0.41800000000E+01 0.  1.
</event>
<event>
11    1  0.5813833E-009  0.2159538E+03  0.7561462E-02  0.1043782E+00
         22   -1    0    0    0    0  0.00000000000E+00  0.00000000000E+00  0.15789136269E+03  0.15789136269E+03  0.00000000000E+00 0.  1.
         22   -1    0    0    0    0 -0.00000000000E+00 -0.00000000000E+00 -0.80711556677E+03  0.80711556677E+03  0.00000000000E+00 0. -1.
        -24    2    1    2    0    0  0.18406146958E+02  0.89001776632E+01 -0.41856751697E+03  0.42667204210E+03  0.80201407931E+02 0.  0.
         25    2    1    2    0    0 -0.18860807281E+03 -0.32483937398E+02 -0.25805770015E+03  0.34477396105E+03  0.12508835394E+03 0.  0.
         24    2    1    2    0    0  0.17020192585E+03  0.23583759734E+02  0.27401013049E+02  0.19356092630E+03  0.84794618861E+02 0.  0.
        -11    1    5    5    0    0  0.77198385908E+02  0.18840303085E+02  0.54755083686E+02  0.96502160580E+02  0.00000000000E+00 0.  1.
         12    1    5    5    0    0  0.93003539947E+02  0.47434566490E+01 -0.27354070636E+02  0.97058765724E+02  0.00000000000E+00 0. -1.
         13    1    3    3    0    0  0.50018514002E+02  0.11026744411E+01 -0.26695208648E+03  0.27159986029E+03  0.00000000000E+00 0. -1.
        -14    1    3    3    0    0 -0.31612367044E+02  0.77975032220E+01 -0.15161543050E+03  0.15507218181E+03  0.00000000000E+00 0.  1.
          5    1    4    4  501    0  0.82973963769E+01 -0.25871760444E+02 -0.13276498803E+02  0.30527571073E+02  0.41800000000E+01 0.  1.
         -5    1    4    4    0  501 -0.19690546919E+03 -0.66121769532E+01 -0.24478120135E+03  0.31424638998E+03  0.41800000000E+01 0.  1.
</event>
<event>
11    1  0.5813833E-009  0.1426723E+03  0.7561462E-02  0.1104611E+00
         22   -1    0    0    0    0  0.00000000000E+00  0.00000000000E+00  0.10337948054E+04  0.10337948054E+04  0.00000000000E+00 0. -1.
         22   -1    0    0    0    0 -0.00000000000E+00 -0.00000000000E+00 -0.11470841457E+04  0.11470841457E+04  0.00000000000E+00 0. -1.
         24    2    1    2    0    0 -0.67301683821E+02  0.18079041171E+02 -0.11042161209E+04  0.11093523049E+04  0.80702703647E+02 0.  0.
         25    2    1    2    0    0  0.19705336215E+02 -0.16764610449E+02  0.69561283334E+02  0.14545267167E+03  0.12509338559E+03 0.  0.
        -24    2    1    2    0    0  0.47596347606E+02 -0.13144307218E+01  0.92136549728E+03  0.92607397460E+03  0.80196551197E+02 0.  0.
        -13    1    3    3    0    0 -0.40333506192E+02 -0.27268929083E+02 -0.70268370014E+03  0.70436834729E+03  0.00000000000E+00 0.  1.
         14    1    3    3    0    0 -0.26968177629E+02  0.45347970254E+02 -0.40153242074E+03  0.40498395760E+03  0.00000000000E+00 0. -1.
         13    1    5    5    0    0  0.46866692775E+02  0.13329693483E+02  0.89122860043E+03  0.89255956991E+03  0.00000000000E+00 0. -1.
        -14    1    5    5    0    0  0.72965483119E+00 -0.14644124205E+02  0.30136896852E+02  0.33514404691E+02  0.00000000000E+00 0.  1.
          5    1    4    4  501    0  0.97640647409E+01 -0.69058459127E+02  0.20185680923E+02  0.72727861590E+02  0.41800000000E+01 0. -1.
         -5    1    4    4    0  501  0.99412714739E+01  0.52293848678E+02  0.49375602411E+02  0.72724810082E+02  0.41800000000E+01 0. -1.
</event>
<event>
11    1  0.5813833E-009  0.1659218E+03  0.7561462E-02  0.1081636E+00
         22   -1    0    0    0    0  0.00000000000E+00  0.00000000000E+00  0.26331130970E+03  0.26331130970E+03  0.00000000000E+00 0. -1.
         22   -1    0    0    0    0 -0.00000000000E+00 -0.00000000000E+00 -0.11761508406E+04  0.11761508406E+04  0.00000000000E+00 0.  1.
        -24    2    1    2    0    0 -0.19476383753E+02  0.98283855609E+02 -0.86601714972E+03  0.87552760010E+03  0.80770224307E+02 0.  0.
         25    2    1    2    0    0  0.32002089020E+02 -0.19468208913E+03 -0.23887845379E+03  0.33412068754E+03  0.12509383929E+03 0.  0.
         24    2    1    2    0    0 -0.12525705267E+02  0.96398233523E+02  0.19205607258E+03  0.22981386268E+03  0.80494495149E+02 0.  0.
        -13    1    5    5    0    0  0.14009147592E+02  0.11837020657E+02  0.50114940021E-01  0.18340495790E+02  0.00000000000E+00 0.  1.
         14    1    5    5    0    0 -0.26534852859E+02  0.84561212866E+02  0.19200595764E+03  0.21147336689E+03  0.00000000000E+00 0. -1.
         13    1    3    3    0    0  0.45946624650E+01 -0.73066344177E+01 -0.12639218192E+02  0.15305151623E+02  0.00000000000E+00 0. -1.
        -14    1    3    3    0    0 -0.24071046218E+02  0.10559049003E+03 -0.85337793153E+03  0.86022244848E+03  0.00000000000E+00 0.  1.
          5    1    4    4  501    0  0.41197440611E+02 -0.16475583785E+03 -0.11225690227E+03  0.20361925186E+03  0.41800000000E+01 0.  1.
         -5    1    4    4    0  501 -0.91953515911E+01 -0.29926251278E+02 -0.12662155152E+03  0.13050143568E+03  0.41800000000E+01 0.  1.
</event>
<event>
11    1  0.5813833E-009  0.1656142E+03  0.7561462E-02  0.1081913E+00
         22   -1    0    0    0    0  0.00000000000E+00  0.00000000000E+00  0.17665658800E+03  0.17665658800E+03  0.00000000000E+00 0.  1.
         22   -1    0    0    0    0 -0.00000000000E+00 -0.00000000000E+00 -0.12382972444E+04  0.12382972444E+04  0.00000000000E+00 0.  1.
        -24    2    1    2    0    0  0.10016802935E+03  0.49079362519E+02 -0.67684122633E+03  0.69088498837E+03  0.82253289044E+02 0.  0.
         25    2    1    2    0    0 -0.36470035604E+02 -0.12585068815E+03 -0.51340315611E+03  0.54442523796E+03  0.12509028670E+03 0.  0.
         24    2    1    2    0    0 -0.63697993750E+02  0.76771325629E+02  0.12860372606E+03  0.17964360604E+03  0.76037069842E+02 0.  0.
        -11    1    5    5    0    0 -0.61493243313E+02  0.77501277101E+02  0.13809254054E+03  0.16987470877E+03  0.00000000000E+00 0.  1.
         12    1    5    5    0    0 -0.22047504367E+01 -0.72995147246E+00 -0.94888144857E+01  0.97688972758E+01  0.00000000000E+00 0. -1.
         11    1    3    3    0    0 -0.10528094369E+02  0.59295787453E+01 -0.16473478754E+03  0.16517733168E+03  0.00000000000E+00 0. -1.
        -12    1    3    3    0    0  0.11069612372E+03  0.43149783773E+02 -0.51210643879E+03  0.52570765669E+03  0.00000000000E+00 0.  1.
          5    1    4    4  501    0 -0.57783566239E+02 -0.28279914020E+02 -0.32307872259E+03  0.32944806489E+03  0.41800000000E+01 0. -1.
         -5    1    4    4    0  501  0.21313530636E+02 -0.97570774127E+02 -0.19032443351E+03  0.21497717307E+03  0.41800000000E+01 0. -1.
</event>
<event>
11    1  0.5813833E-009  0.1751219E+03  0.7561462E-02  0.1073658E+00
         22   -1    0    0    0    0  0.00000000000E+00  0.00000000000E+00  0.13053747136E+04  0.13053747136E+04  0.00000000000E+00 0.  1.
         22   -1    0    0    0    0 -0.00000000000E+00 -0.00000000000E+00 -0.34799905267E+03  0.34799905267E+03  0.00000000000E+00 0.  1.
         24    2    1    2    0    0  0.11841098205E+03  0.29455743604E+02 -0.29499737754E+03  0.32932366542E+03  0.80881532810E+02 0.  0.
         25    2    1    2    0    0 -0.14556854117E+03  0.44530948262E+02  0.26613325003E+03  0.33113136439E+03  0.12509143926E+03 0.  0.
        -24    2    1    2    0    0  0.27157559125E+02 -0.73986691866E+02  0.98623978840E+03  0.99291873641E+03  0.83708621443E+02 0.  0.
        -13    1    3    3    0    0  0.74063888341E+02  0.56041590566E+02 -0.21323629753E+03  0.23258511993E+03  0.00000000000E+00 0.  1.
         14    1    3    3    0    0  0.44347093709E+02 -0.26585846961E+02 -0.81761080014E+02  0.96738545493E+02  0.00000000000E+00 0. -1.
         13    1    5    5    0    0 -0.25398710876E+02 -0.11295487743E+02  0.13992636788E+03  0.14266068479E+03  0.00000000000E+00 0. -1.
        -14    1    5    5    0    0  0.52556270001E+02 -0.62691204123E+02  0.84631342052E+03  0.85025805162E+03  0.00000000000E+00 0.  1.
          5    1    4    4  501    0 -0.12370001864E+03  0.53851244174E+02  0.11278868116E+03  0.17589886329E+03  0.41800000000E+01 0.  1.
         -5    1    4    4    0  501 -0.21868522535E+02 -0.93202959117E+01  0.15334456887E+03  0.15523250109E+03  0.41800000000E+01 0.  1.
</event>
<event>
11    1  0.5813833E-009  0.1697875E+03  0.7561462E-02  0.1078217E+00
         22   -1    0    0    0    0  0.00000000000E+00  0.00000000000E+00  0.75080787779E+03  0.75080787779E+03  0.00000000000E+00 0.  1.
         22   -1    0    0    0    0 -0.00000000000E+00 -0.00000000000E+00 -0.12511852627E+04  0.12511852627E+04  0.00000000000E+00 0. -1.
        -24    2    1    2    0    0  0.10110364763E+03 -0.45020634344E+02 -0.99902721859E+03  0.10085830175E+04  0.83279736884E+02 0.  0.
         25    2    1    2    0    0 -0.15341367539E+03  0.22114648347E+02 -0.20323400220E+03  0.28456374139E+03  0.12509056639E+03 0.  0.
         24    2    1    2    0    0  0.52310027755E+02  0.22905985997E+02  0.70188383590E+03  0.70884638160E+03  0.81001545751E+02 0.  0.
        -11    1    5    5    0    0  0.65480985536E+02  0.21037180830E+02  0.67823044920E+03  0.68170878289E+03  0.00000000000E+00 0.  1.
         12    1    5    5    0    0 -0.13170957781E+02  0.18688051670E+01  0.23653386702E+02  0.27137598716E+02  0.00000000000E+00 0. -1.
         11    1    3    3    0    0  0.81606945152E+02  0.77079485781E+01 -0.55852849780E+03  0.56451146031E+03  0.00000000000E+00 0. -1.
        -12    1    3    3    0    0  0.19496702480E+02 -0.52728582922E+02 -0.44049872079E+03  0.44407155716E+03  0.00000000000E+00 0.  1.
          5    1    4    4  501    0 -0.75519555480E+02  0.56586766983E+02 -0.44604239784E+02  0.10446184023E+03  0.41800000000E+01 0. -1.
         -5    1    4    4    0  501 -0.77894119908E+02 -0.34472118637E+02 -0.15862976241E+03  0.18010190116E+03  0.41800000000E+01 0. -1.
</event>
<event>
11    1  0.5813833E-009  0.2102158E+03  0.7561462E-02  0.1047526E+00
         22   -1    0    0    0    0  0.00000000000E+00  0.00000000000E+00  0.16200610927E+03  0.16200610927E+03  0.00000000000E+00 0. -1.
         22   -1    0    0    0    0 -0.00000000000E+00 -0.00000000000E+00 -0.21941937109E+04  0.21941937109E+04  0.00000000000E+00 0. -1.
        -24    2    1    2    0    0  0.77791052897E+02  0.15364325183E+03 -0.19614105733E+04  0.19706163680E+04  0.80868633441E+02 0.  0.
         25    2    1    2    0    0 -0.10769690967E+03 -0.98216234919E+02 -0.16008022637E+03  0.25003752318E+03  0.12509208994E+03 0.  0.
         24    2    1    2    0    0  0.29905856774E+02 -0.55427016909E+02  0.89303198063E+02  0.13554592902E+03  0.80194284190E+02 0.  0.
        -13    1    5    5    0    0  0.50466946073E+02 -0.45616156804E+02  0.34669553937E+02  0.76352631766E+02  0.00000000000E+00 0.  1.
         14    1    5    5    0    0 -0.20561089300E+02 -0.98108601054E+01  0.54633644126E+02  0.59193297253E+02  0.00000000000E+00 0. -1.
         13    1    3    3    0    0  0.43756867878E+02  0.37812404728E+02 -0.99746752563E+03  0.99914258548E+03  0.00000000000E+00 0. -1.
        -14    1    3    3    0    0  0.34034185019E+02  0.11583084710E+03 -0.96394304769E+03  0.97147378249E+03  0.00000000000E+00 0.  1.
          5    1    4    4  501    0 -0.24279978925E+02 -0.10297311937E+03 -0.10930364592E+03  0.15217667397E+03  0.41800000000E+01 0.  1.
         -5    1    4    4    0  501 -0.83416930745E+02  0.47568844506E+01 -0.50776580449E+02  0.97860849203E+02  0.41800000000E+01 0.  1.
</event>
<event>
11    1  0.5813833E-009  0.1802543E+03  0.7561462E-02  0.1069437E+00
         22   -1    0    0    0    0  0.00000000000E+00  0.00000000000E+00  0.79373885155E+03  0.79373885155E+03  0.00000000000E+00 0.  1.
         22   -1    0    0    0    0 -0.00000000000E+00 -0.00000000000E+00 -0.37069890992E+03  0.37069890992E+03  0.00000000000E+00 0.  1.
         24    2    1    2    0    0  0.17996623559E+02  0.14588829069E+03 -0.23963438523E+03  0.29277233075E+03  0.81754065645E+02 0.  0.
         25    2    1    2    0    0 -0.44509744203E+02 -0.83656853565E+02 -0.38117907721E+02  0.16149638159E+03  0.12509404423E+03 0.  0.
        -24    2    1    2    0    0  0.26513120644E+02 -0.62231437124E+02  0.70079223459E+03  0.71016904912E+03  0.93030236656E+02 0.  0.
        -11    1    3    3    0    0  0.26159771808E+02  0.11878698640E+03 -0.23427030587E+03  0.26396450142E+03  0.00000000000E+00 0.  1.
         12    1    3    3    0    0 -0.81631482489E+01  0.27101304287E+02 -0.53640793650E+01  0.28807829332E+02  0.00000000000E+00 0. -1.
         11    1    5    5    0    0  0.19752230418E+02 -0.51734200287E+02  0.16146260098E+03  0.17069490209E+03  0.00000000000E+00 0. -1.
        -12    1    5    5    0    0  0.67608902262E+01 -0.10497236836E+02  0.53932963361E+03  0.53947414702E+03  0.00000000000E+00 0.  1.
          5    1    4    4  501    0  0.56894429531E+01 -0.19372862192E+01  0.38177411362E+02  0.38872998049E+02  0.41800000000E+01 0. -1.
         -5    1    4    4    0  501 -0.50199187156E+02 -0.81719567345E+02 -0.76295319083E+02  0.12262338355E+03  0.41800000000E+01 0. -1.
</event>
<event>
11    1  0.5813833E-009  0.1294186E+03  0.7561462E-02  0.1119985E+00
         22   -1    0    0    0    0  0.00000000000E+00  0.00000000000E+00  0.28026559012E+03  0.28026559012E+03  0.00000000000E+00 0.  1.
         22   -1    0    0    0    0 -0.00000000000E+00 -0.00000000000E+00 -0.85930213734E+03  0.85930213734E+03  0.00000000000E+00 0.  1.
        -24    2    1    2    0    0 -0.87654345660E+00 -0.35815101950E+02 -0.73185691163E+03  0.73736903097E+03  0.82553369883E+02 0.  0.
         25    2    1    2    0    0  0.15442834228E+02 -0.20304500419E-01 -0.82413737042E+02  0.15059188108E+03  0.12508960410E+03 0.  0.
         24    2    1    2    0    0 -0.14566290772E+02  0.35835406450E+02  0.23523410146E+03  0.25160681541E+03  0.80464612677E+02 0.  0.
        -11    1    5    5    0    0  0.29076903756E+02  0.18973780868E+02  0.15397253400E+03  0.15783856284E+03  0.00000000000E+00 0.  1.
         12    1    5    5    0    0 -0.43643194528E+02  0.16861625582E+02  0.81261567452E+02  0.93768252573E+02  0.00000000000E+00 0. -1.
         11    1    3    3    0    0  0.20397694118E+02 -0.11229038326E+02 -0.54922875055E+02  0.59654668144E+02  0.00000000000E+00 0. -1.
        -12    1    3    3    0    0 -0.21274237575E+02 -0.24586063624E+02 -0.67693403657E+03  0.67771436282E+03  0.00000000000E+00 0.  1.
          5    1    4    4  501    0 -0.40910019785E+02  0.29923338840E+02 -0.64060753702E+01  0.51259595470E+02  0.41800000000E+01 0. -1.
         -5    1    4    4    0  501  0.56352854013E+02 -0.29943643340E+02 -0.76007661672E+02  0.99332285611E+02  0.41800000000E+01 0. -1.
</event>
<event>
11    1  0.5813833E-009  0.1417120E+03  0.7561462E-02  0.1105662E+00
         22   -1    0    0    0    0  0.00000000000E+00  0.00000000000E+00  0.31114824157E+03  0.31114824157E+03  0.00000000000E+00 0. -1.
         22   -1    0    0    0    0 -0.00000000000E+00 -0.00000000000E+00 -0.46011499253E+03  0.46011499253E+03  0.00000000000E+00 0. -1.
        -24    2    1    2    0    0  0.24072992906E+02 -0.89213683876E+01 -0.25041903508E+03  0.26452897509E+03  0.81282136630E+02 0.  0.
         25    2    1    2    0    0 -0.86815973197E+02 -0.10266570025E+02 -0.16264918689E+03  0.22303254514E+03  0.12508534100E+03 0.  0.
         24    2    1    2    0    0  0.62742980291E+02  0.19187938413E+02  0.26410147101E+03  0.28370171387E+03  0.80201102902E+02 0.  0.
        -11    1    5    5    0    0 -0.62759223449E+01  0.21887341145E+02  0.20988619390E+02  0.30967160793E+02  0.00000000000E+00 0.  1.
         12    1    5    5    0    0  0.69018902636E+02 -0.26994027327E+01  0.24311285162E+03  0.25273455307E+03  0.00000000000E+00 0. -1.
         11    1    3    3    0    0  0.36912898990E+02  0.25814912368E+02 -0.10100379468E+03  0.11059266862E+03  0.00000000000E+00 0. -1.
        -12    1    3    3    0    0 -0.12839906085E+02 -0.34736280756E+02 -0.14941524040E+03  0.15393630648E+03  0.00000000000E+00 0.  1.
          5    1    4    4  501    0 -0.10244824766E+03  0.59142993589E+01 -0.62333192019E+02  0.12013959219E+03  0.41800000000E+01 0.  1.
         -5    1    4    4    0  501  0.15632274462E+02 -0.16180869384E+02 -0.10031599487E+03  0.10289295294E+03  0.41800000000E+01 0.  1.
</event>
<event>
11    1  0.5813833E-009  0.1892086E+03  0.7561462E-02  0.1062428E+00
         22   -1    0    0    0    0  0.00000000000E+00  0.00000000000E+00  0.18191700809E+04  0.18191700809E+04  0.00000000000E+00 0.  1.
         22   -1    0    0    0    0 -0.00000000000E+00 -0.00000000000E+00 -0.17106820764E+03  0.17106820764E+03  0.00000000000E+00 0.  1.
        -24    2    1    2    0    0  0.26432845917E+02 -0.66387926648E+02 -0.12196097282E+03  0.16183162712E+03  0.78796855893E+02 0.  0.
         25    2    1    2    0    0  0.98049793143E+02  0.13146479719E+03  0.40352097312E+03  0.45318359231E+03  0.12509771282E+03 0.  0.
         24    2    1    2    0    0 -0.12448263906E+03 -0.65076870538E+02  0.13665418729E+04  0.13752230691E+04  0.63803391228E+02 0.  0.
        -13    1    5    5    0    0 -0.93424220133E+02 -0.35909046516E+02  0.11613113604E+04  0.11656164121E+04  0.00000000000E+00 0.  1.
         14    1    5    5    0    0 -0.31058418926E+02 -0.29167824022E+02  0.20523051258E+03  0.20960665696E+03  0.00000000000E+00 0. -1.
         13    1    3    3    0    0  0.42915081843E+02 -0.45108803814E+02 -0.36365093906E+02  0.72103595513E+02  0.00000000000E+00 0. -1.
        -14    1    3    3    0    0 -0.16482235927E+02 -0.21279122834E+02 -0.85595878915E+02  0.89728031612E+02  0.00000000000E+00 0.  1.
          5    1    4    4  501    0  0.24090534269E+02  0.45519029117E+02  0.23827980318E+02  0.56899744280E+02  0.41800000000E+01 0. -1.
         -5    1    4    4    0  501  0.73959258874E+02  0.85945768070E+02  0.37969299280E+03  0.39628384803E+03  0.41800000000E+01 0. -1.
</event>
<event>
11    1  0.5813833E-009  0.1285145E+03  0.7561462E-02  0.1121108E+00
         22   -1    0    0    0    0  0.00000000000E+00  0.00000000000E+00  0.40653443885E+03  0.40653443885E+03  0.00000000000E+00 0.  1.
         22   -1    0    0    0    0 -0.00000000000E+00 -0.00000000000E+00 -0.63306778035E+03  0.63306778035E+03  0.00000000000E+00 0. -1.
        -24    2    1    2    0    0  0.17355081683E+02 -0.18732719013E+01 -0.48374078749E+03  0.49060589595E+03  0.79901737499E+02 0.  0.
         25    2    1    2    0    0  0.13051555757E+02  0.62951829207E+00 -0.10943467051E+03  0.16671087925E+03  0.12508329525E+03 0.  0.
         24    2    1    2    0    0 -0.30406637440E+02  0.12437536093E+01  0.36664211649E+03  0.38228544400E+03  0.10387304071E+03 0.  0.
        -13    1    5    5    0    0 -0.19934601421E+02 -0.45838208087E+02  0.26632949478E+03  0.27097957385E+03  0.00000000000E+00 0.  1.
         14    1    5    5    0    0 -0.10472036019E+02  0.47081961696E+02  0.10031262171E+03  0.11130587015E+03  0.00000000000E+00 0. -1.
         11    1    3    3    0    0 -0.23826932011E+02  0.15959853121E+02 -0.30390722337E+03  0.30525733409E+03  0.00000000000E+00 0. -1.
        -12    1    3    3    0    0  0.41182013695E+02 -0.17833125022E+02 -0.17983356412E+03  0.18534856186E+03  0.00000000000E+00 0.  1.
          5    1    4    4  501    0  0.44131240523E+02  0.33879823825E+02 -0.91989622783E+01  0.56546460186E+02  0.41800000000E+01 0.  1.
         -5    1    4    4    0  501 -0.31079684766E+02 -0.33250305533E+02 -0.10023570823E+03  0.11016441906E+03  0.41800000000E+01 0.  1.
</event>
<event>
11    1  0.5813833E-009  0.1589056E+03  0.7561462E-02  0.1088111E+00
         22   -1    0    0    0    0  0.00000000000E+00  0.00000000000E+00  0.26309788823E+03  0.26309788823E+03  0.00000000000E+00 0. -1.
         22   -1    0    0    0    0 -0.00000000000E+00 -0.00000000000E+00 -0.21686351073E+03  0.21686351073E+03  0.00000000000E+00 0.  1.
         24    2    1    2    0    0  0.32935708182E+02  0.14100512473E+02 -0.10961101112E+03  0.14076603099E+03  0.80727420338E+02 0.  0.
         25    2    1    2    0    0  0.51495653342E+02  0.65482801971E+02  0.92801561622E+02  0.17663379058E+03  0.12509023331E+03 0.  0.
        -24    2    1    2    0    0 -0.84431361524E+02 -0.79583314444E+02  0.63043826999E+02  0.16256157739E+03  0.94813414529E+02 0.  0.
        -11    1    3    3    0    0  0.32598522047E+02 -0.11899739898E+02 -0.10939012446E+03  0.11476265411E+03  0.00000000000E+00 0.  1.
         12    1    3    3    0    0  0.33718613487E+00  0.26000252371E+02 -0.22088666202E+00  0.26003376873E+02  0.00000000000E+00 0. -1.
         11    1    5    5    0    0 -0.66924956882E+02 -0.38804854367E+01  0.83806576286E+01  0.67559184744E+02  0.00000000000E+00 0. -1.
        -12    1    5    5    0    0 -0.17506404642E+02 -0.75702829007E+02  0.54663169370E+02  0.95002392648E+02  0.00000000000E+00 0.  1.
          5    1    4    4  501    0 -0.19087890998E+02 -0.19714440220E+02  0.51426004180E+02  0.58438968521E+02  0.41800000000E+01 0.  1.
         -5    1    4    4    0  501  0.70583544340E+02  0.85197242191E+02  0.41375557442E+02  0.11819482206E+03  0.41800000000E+01 0.  1.
</event>
<event>
11    1  0.5813833E-009  0.1485070E+03  0.7561462E-02  0.1098414E+00
         22   -1    0    0    0    0  0.00000000000E+00  0.00000000000E+00  0.12357153683E+03  0.12357153683E+03  0.00000000000E+00 0. -1.
         22   -1    0    0    0    0 -0.00000000000E+00 -0.00000000000E+00 -0.10675050543E+04  0.10675050543E+04  0.00000000000E+00 0.  1.
        -24    2    1    2    0    0 -0.65641703350E+02 -0.37065832123E+02 -0.65480344555E+03  0.66401364983E+03  0.80398169970E+02 0.  0.
         25    2    1    2    0    0  0.52910068303E+02  0.97782749319E+02 -0.36400145682E+03  0.40063166638E+03  0.12509088754E+03 0.  0.
         24    2    1    2    0    0  0.12731635046E+02 -0.60716917195E+02  0.74871384937E+02  0.12643127488E+03  0.80811536437E+02 0.  0.
        -11    1    5    5    0    0 -0.17793034312E+02 -0.59213431581E+02  0.22501635285E+02  0.65796247159E+02  0.00000000000E+00 0.  1.
         12    1    5    5    0    0  0.30524669359E+02 -0.15034856145E+01  0.52369749652E+02  0.60635027724E+02  0.00000000000E+00 0. -1.
         13    1    3    3    0    0  0.10129473222E+02  0.97250753338E+01 -0.20493254490E+03  0.20541307475E+03  0.00000000000E+00 0. -1.
        -14    1    3    3    0    0 -0.75771176572E+02 -0.46790907457E+02 -0.44987090065E+03  0.45860057509E+03  0.00000000000E+00 0.  1.
          5    1    4    4  501    0 -0.22708858134E+02  0.55596929400E+02 -0.61937363169E+02  0.86373723741E+02  0.41800000000E+01 0.  1.
         -5    1    4    4    0  501  0.75618926437E+02  0.42185819919E+02 -0.30206409365E+03  0.31425794264E+03  0.41800000000E+01 0.  1.
</event>
<event>
11    1  0.5813833E-009  0.1558561E+03  0.7561462E-02  0.1091041E+00
         22   -1    0    0    0    0  0.00000000000E+00  0.00000000000E+00  0.88023376027E+02  0.88023376027E+02  0.00000000000E+00 0. -1.
         22   -1    0    0    0    0 -0.00000000000E+00 -0.00000000000E+00 -0.10376552269E+04  0.10376552269E+04  0.00000000000E+00 0. -1.
        -24    2    1    2    0    0  0.50199924306E+02 -0.18036646131E+02 -0.73296283925E+03  0.73923995833E+03  0.79973991146E+02 0.  0.
         25    2    1    2    0    0  0.53794029239E+02  0.11156968048E+02 -0.21524702182E+03  0.25494344306E+03  0.12508638311E+03 0.  0.
         24    2    1    2    0    0 -0.10399395355E+03  0.68796780826E+01 -0.14219898145E+01  0.13149520155E+03  0.80167908985E+02 0.  0.
        -11    1    5    5    0    0 -0.12533242840E+02  0.50176639822E+01 -0.32249244224E+02  0.34961019450E+02  0.00000000000E+00 0.  1.
         12    1    5    5    0    0 -0.91460710705E+02  0.18620141004E+01  0.30827254410E+02  0.96534182100E+02  0.00000000000E+00 0. -1.
         11    1    3    3    0    0  0.53320292007E+02 -0.41061172479E+02 -0.63514517547E+03  0.63870060854E+03  0.00000000000E+00 0. -1.
        -12    1    3    3    0    0 -0.31203677012E+01  0.23024526348E+02 -0.97817663780E+02  0.10053934979E+03  0.00000000000E+00 0.  1.
          5    1    4    4  501    0  0.72100966831E+02 -0.31646614022E+02 -0.82111485466E+02  0.11384123173E+03  0.41800000000E+01 0.  1.
         -5    1    4    4    0  501 -0.18306937592E+02  0.42803582070E+02 -0.13313553636E+03  0.14110221133E+03  0.41800000000E+01 0.  1.
</event>
<event>
11    1  0.5813833E-009  0.2825480E+03  0.7561462E-02  0.1007860E+00
         22   -1    0    0    0    0  0.00000000000E+00  0.00000000000E+00  0.57484562340E+03  0.57484562340E+03  0.00000000000E+00 0. -1.
         22   -1    0    0    0    0 -0.00000000000E+00 -0.00000000000E+00 -0.63854899897E+03  0.63854899897E+03  0.00000000000E+00 0. -1.
         24    2    1    2    0    0  0.29758683798E+02 -0.13240446389E+02 -0.33460203443E+03  0.34528326977E+03  0.78747230175E+02 0.  0.
         25    2    1    2    0    0  0.13005845765E+03  0.21107651450E+03 -0.18963213521E+03  0.33626874183E+03  0.12509125729E+03 0.  0.
        -24    2    1    2    0    0 -0.15981714145E+03 -0.19783606811E+03  0.46053079407E+03  0.53184261076E+03  0.78021290608E+02 0.  0.
        -13    1    3    3    0    0  0.42006916319E+01 -0.29393548308E+02 -0.43811626213E+02  0.52925278306E+02  0.00000000000E+00 0.  1.
         14    1    3    3    0    0  0.25557992166E+02  0.16153101919E+02 -0.29079040821E+03  0.29235799147E+03  0.00000000000E+00 0. -1.
         13    1    5    5    0    0 -0.16389450834E+03 -0.20195206091E+03  0.45279907028E+03  0.52218104410E+03  0.00000000000E+00 0. -1.
        -14    1    5    5    0    0  0.40773668955E+01  0.41159928030E+01  0.77317237935E+01  0.96615666625E+01  0.00000000000E+00 0.  1.
          5    1    4    4  501    0  0.46636011620E+02  0.85791431188E+02 -0.47853650511E+01  0.97854276165E+02  0.41800000000E+01 0.  1.
         -5    1    4    4    0  501  0.83422446028E+02  0.12528508331E+03 -0.18484677016E+03  0.23841446567E+03  0.41800000000E+01 0.  1.
</event>
<event>
11    1  0.5813833E-009  0.1598699E+03  0.7561462E-02  0.1087200E+00
         22   -1    0    0    0    0  0.00000000000E+00  0.00000000000E+00  0.90176704415E+03  0.90176704415E+03  0.00000000000E+00 0.  1.
         22   -1    0    0    0    0 -0.00000000000E+00 -0.00000000000E+00 -0.17097843928E+04  0.17097843928E+04  0.00000000000E+00 0.  1.
        -24    2    1    2    0    0  0.39822185469E+02 -0.94201072475E+02 -0.15824064979E+04  0.15877129478E+04  0.79764851101E+02 0.  0.
         25    2    1    2    0    0 -0.86216628008E+02  0.31023085712E+01 -0.71264145760E+02  0.16783681034E+03  0.12509070777E+03 0.  0.
         24    2    1    2    0    0  0.46394442539E+02  0.91098763904E+02  0.84565329494E+03  0.85600167889E+03  0.84604668576E+02 0.  0.
        -11    1    5    5    0    0  0.51970206808E+02  0.77529718222E+02  0.42658437920E+03  0.43667607237E+03  0.00000000000E+00 0.  1.
         12    1    5    5    0    0 -0.55757642687E+01  0.13569045682E+02  0.41906891574E+03  0.41932560652E+03  0.00000000000E+00 0. -1.
         13    1    3    3    0    0  0.30409371800E+02 -0.67817643117E-01 -0.22998221871E+03  0.23198395508E+03  0.00000000000E+00 0. -1.
        -14    1    3    3    0    0  0.94128136696E+01 -0.94133254832E+02 -0.13524242792E+04  0.13557289927E+04  0.00000000000E+00 0.  1.
          5    1    4    4  501    0 -0.80502406819E+02  0.45048365221E+02 -0.82510024838E+02  0.12383605820E+03  0.41800000000E+01 0.  1.
         -5    1    4    4    0  501 -0.57142211896E+01 -0.41946056650E+02  0.11245879078E+02  0.44000752136E+02  0.41800000000E+01 0.  1.
</event>
<event>
11    1  0.5813833E-009  0.1489341E+03  0.7561462E-02  0.1097973E+00
         22   -1    0    0    0    0  0.00000000000E+00  0.00000000000E+00  0.25214567897E+03  0.25214567897E+03  0.00000000000E+00 0. -1.
         22   -1    0    0    0    0 -0.00000000000E+00 -0.00000000000E+00 -0.25516882927E+04  0.25516882927E+04  0.00000000000E+00 0. -1.
         24    2    1    2    0    0  0.51091309047E+02  0.33069433503E+02 -0.22009111098E+04  0.22032598425E+04  0.81488101821E+02 0.  0.
         25    2    1    2    0    0 -0.83264182067E+02 -0.10491604045E+03 -0.31017626857E+03  0.36027360522E+03  0.12508978165E+03 0.  0.
        -24    2    1    2    0    0  0.32172873020E+02  0.71846606950E+02  0.21154476471E+03  0.24030052395E+03  0.82438617447E+02 0.  0.
        -13    1    3    3    0    0  0.43742377460E+02  0.13664620072E+02 -0.47097390579E+03  0.47319820092E+03  0.00000000000E+00 0.  1.
         14    1    3    3    0    0  0.73489315868E+01  0.19404813431E+02 -0.17299372040E+04  0.17300616415E+04  0.00000000000E+00 0. -1.
         13    1    5    5    0    0  0.41318205518E+02  0.85840852027E+02  0.19362988577E+03  0.21579707747E+03  0.00000000000E+00 0. -1.
        -14    1    5    5    0    0 -0.91453324976E+01 -0.13994245077E+02  0.17914878947E+02  0.24503446481E+02  0.00000000000E+00 0.  1.
          5    1    4    4  501    0 -0.14071558664E+02 -0.10776149339E+03 -0.22883518058E+03  0.25336448151E+03  0.41800000000E+01 0. -1.
         -5    1    4    4    0  501 -0.69192623403E+02  0.28454529387E+01 -0.81341087993E+02  0.10690912371E+03  0.41800000000E+01 0. -1.
</event>
<event>
11    1  0.5813833E-009  0.1322377E+03  0.7561462E-02  0.1116550E+00
         22   -1    0    0    0    0  0.00000000000E+00  0.00000000000E+00  0.83865136585E+03  0.83865136585E+03  0.00000000000E+00 0. -1.
         22   -1    0    0    0    0 -0.00000000000E+00 -0.00000000000E+00 -0.23727275688E+03  0.23727275688E+03  0.00000000000E+00 0.  1.
         24    2    1    2    0    0  0.31176753863E+01 -0.95541848492E+01 -0.14890144106E+03  0.16971215697E+03  0.80805784002E+02 0.  0.
         25    2    1    2    0    0 -0.31869472591E+02  0.40921288215E+02 -0.14326050222E+02  0.13617810112E+03  0.12509606068E+03 0.  0.
        -24    2    1    2    0    0  0.28751797205E+02 -0.31367103366E+02  0.76460610025E+03  0.77003386464E+03  0.80740963227E+02 0.  0.
        -13    1    3    3    0    0  0.10910484005E+02  0.34738275029E+02 -0.63845989620E+02  0.73498957842E+02  0.00000000000E+00 0.  1.
         14    1    3    3    0    0 -0.77928086182E+01 -0.44292459879E+02 -0.85055451436E+02  0.96213199132E+02  0.00000000000E+00 0. -1.
         13    1    5    5    0    0  0.49642329845E+02 -0.38401470845E+02  0.66814182369E+03  0.67108310248E+03  0.00000000000E+00 0. -1.
        -14    1    5    5    0    0 -0.20890532640E+02  0.70343674797E+01  0.96464276558E+02  0.98950762158E+02  0.00000000000E+00 0.  1.
          5    1    4    4  501    0 -0.31540548970E+02  0.19440361656E+01 -0.64831382558E+02  0.72243796068E+02  0.41800000000E+01 0.  1.
         -5    1    4    4    0  501 -0.32892362152E+00  0.38977252049E+02  0.50505332337E+02  0.63934305052E+02  0.41800000000E+01 0.  1.
</event>
<event>
11    1  0.5813833E-009  0.1525874E+03  0.7561462E-02  0.1094264E+00
         22   -1    0    0    0    0  0.00000000000E+00  0.00000000000E+00  0.66355342644E+03  0.66355342644E+03  0.00000000000E+00 0.  1.
         22   -1    0    0    0    0 -0.00000000000E+00 -0.00000000000E+00 -0.56165877011E+03  0.56165877011E+03  0.00000000000E+00 0. -1.
         24    2    1    2    0    0  0.15977818313E+02  0.20085885080E+02 -0.52922463770E+03  0.53584215062E+03  0.79933470912E+02 0.  0.
         25    2    1    2    0    0 -0.94338199054E+02  0.11548271318E+02  0.30139807035E+03  0.33988440486E+03  0.12509018140E+03 0.  0.
        -24    2    1    2    0    0  0.78360380741E+02 -0.31634156398E+02  0.32972122368E+03  0.34948564108E+03  0.79265748302E+02 0.  0.
        -13    1    3    3    0    0 -0.75439679721E+01  0.37566150759E+00 -0.21203562139E+01  0.78452842400E+01  0.00000000000E+00 0.  1.
         14    1    3    3    0    0  0.23521786285E+02  0.19710223572E+02 -0.52710428149E+03  0.52799686638E+03  0.00000000000E+00 0. -1.
         11    1    5    5    0    0 -0.24931696622E+01 -0.10972023509E+02  0.21549411025E+01  0.11456219533E+02  0.00000000000E+00 0. -1.
        -12    1    5    5    0    0  0.80853550403E+02 -0.20662132890E+02  0.32756628258E+03  0.33802942155E+03  0.00000000000E+00 0.  1.
          5    1    4    4  501    0  0.10741348357E+02 -0.11028608714E+02 -0.37053395067E+01  0.16377078969E+02  0.41800000000E+01 0.  1.
         -5    1    4    4    0  501 -0.10507954741E+03  0.22576880033E+02  0.30510340986E+03  0.32350732589E+03  0.41800000000E+01 0.  1.
</event>
<event>
11    1  0.5813833E-009  0.1279996E+03  0.7561462E-02  0.1121752E+00
         22   -1    0    0    0    0  0.00000000000E+00  0.00000000000E+00  0.28818583349E+03  0.28818583349E+03  0.00000000000E+00 0. -1.
         22   -1    0    0    0    0 -0.00000000000E+00 -0.00000000000E+00 -0.48053676227E+03  0.48053676227E+03  0.00000000000E+00 0. -1.
         24    2    1    2    0    0  0.93377744552E+01 -0.29331463364E+02 -0.38551870832E+03  0.39817034301E+03  0.94696456177E+02 0.  0.
         25    2    1    2    0    0 -0.29075026328E+01 -0.17588765825E+01 -0.31989952952E+02  0.12915821916E+03  0.12508773428E+03 0.  0.
        -24    2    1    2    0    0 -0.64302718224E+01  0.31090339947E+02  0.22515773249E+03  0.24139403360E+03  0.81037752446E+02 0.  0.
        -13    1    3    3    0    0 -0.19122960782E+02 -0.28985738196E+02 -0.46894306453E+02  0.58351834809E+02  0.00000000000E+00 0.  1.
         14    1    3    3    0    0  0.28460735237E+02 -0.34572516845E+00 -0.33862440187E+03  0.33981850820E+03  0.00000000000E+00 0. -1.
         13    1    5    5    0    0  0.18087834316E+02  0.22380818225E+02  0.20855103265E+03  0.21052696738E+03  0.00000000000E+00 0. -1.
        -14    1    5    5    0    0 -0.24518106138E+02  0.87095217215E+01  0.16606699842E+02  0.30867066217E+02  0.00000000000E+00 0.  1.
          5    1    4    4  501    0  0.53188586956E+02  0.26852827409E+02 -0.27876980995E+02  0.65914327666E+02  0.41800000000E+01 0. -1.
         -5    1    4    4    0  501 -0.56096089589E+02 -0.28611703991E+02 -0.41129719570E+01  0.63243891490E+02  0.41800000000E+01 0. -1.
</event>
<event>
11    1  0.5813833E-009  0.2284791E+03  0.7561462E-02  0.1036032E+00
         22   -1    0    0    0    0  0.00000000000E+00  0.00000000000E+00  0.12828455556E+04  0.12828455556E+04  0.00000000000E+00 0.  1.
         22   -1    0    0    0    0 -0.00000000000E+00 -0.00000000000E+00 -0.23836671821E+03  0.23836671821E+03  0.00000000000E+00 0. -1.
        -24    2    1    2    0    0 -0.13501502764E+02  0.16561294133E+03 -0.79129997876E+01  0.18439857116E+03  0.79563060319E+02 0.  0.
         25    2    1    2    0    0  0.18303490671E+02 -0.22396785348E+03 -0.21755365207E+02  0.25810411473E+03  0.12509125054E+03 0.  0.
         24    2    1    2    0    0 -0.48019879062E+01  0.58354912151E+02  0.10741472024E+04  0.10787095879E+04  0.79961289414E+02 0.  0.
        -11    1    5    5    0    0  0.19390529959E+02  0.42546048012E+02  0.95363819116E+03  0.95478372341E+03  0.00000000000E+00 0.  1.
         12    1    5    5    0    0 -0.24192517866E+02  0.15808864139E+02  0.12050901123E+03  0.12392586451E+03  0.00000000000E+00 0. -1.
         11    1    3    3    0    0 -0.24801215999E+02  0.16399922173E+03 -0.20823292282E+02  0.16716594912E+03  0.00000000000E+00 0. -1.
        -12    1    3    3    0    0  0.11299713235E+02  0.16137195998E+01  0.12910292494E+02  0.17232622041E+02  0.00000000000E+00 0.  1.
          5    1    4    4  501    0  0.32672869229E+02 -0.74457048589E+02 -0.62246132069E+02  0.10248620310E+03  0.41800000000E+01 0.  1.
         -5    1    4    4    0  501 -0.14369378559E+02 -0.14951080489E+03  0.40490766861E+02  0.15561791163E+03  0.41800000000E+01 0.  1.
</event>
<event>
11    1  0.5813833E-009  0.1398358E+03  0.7561462E-02  0.1107742E+00
         22   -1    0    0    0    0  0.00000000000E+00  0.00000000000E+00  0.12826491270E+04  0.12826491270E+04  0.00000000000E+00 0.  1.
         22   -1    0    0    0    0 -0.00000000000E+00 -0.00000000000E+00 -0.32032386348E+03  0.32032386348E+03  0.00000000000E+00 0.  1.
        -24    2    1    2    0    0  0.26005564227E+02 -0.48408452174E+02 -0.16231056053E+03  0.18948388845E+03  0.80868772162E+02 0.  0.
         25    2    1    2    0    0 -0.74776555593E+02  0.86310302242E+02 -0.91920760785E+02  0.19271224367E+03  0.12509029162E+03 0.  0.
         24    2    1    2    0    0  0.48770991366E+02 -0.37901850068E+02  0.12165565848E+04  0.12207768584E+04  0.80442861369E+02 0.  0.
        -11    1    5    5    0    0  0.58269587785E+02 -0.46152543519E+02  0.11752077279E+04  0.11775562008E+04  0.00000000000E+00 0.  1.
         12    1    5    5    0    0 -0.94985964185E+01  0.82506934517E+01  0.41348856900E+02  0.43220657599E+02  0.00000000000E+00 0. -1.
         13    1    3    3    0    0  0.18420204353E+02 -0.20191014161E+02 -0.29761895104E+01  0.27492520533E+02  0.00000000000E+00 0. -1.
        -14    1    3    3    0    0  0.75853598742E+01 -0.28217438013E+02 -0.15933437102E+03  0.16199136792E+03  0.00000000000E+00 0.  1.
          5    1    4    4  501    0  0.77116385607E+01 -0.85609076878E+01 -0.62287532056E+02  0.63482025483E+02  0.41800000000E+01 0.  1.
         -5    1    4    4    0  501 -0.82488194154E+02  0.94871209929E+02 -0.29633228729E+02  0.12923021819E+03  0.41800000000E+01 0.  1.
</event>
<event>
11    1  0.5813833E-009  0.1348492E+03  0.7561462E-02  0.1113450E+00
         22   -1    0    0    0    0  0.00000000000E+00  0.00000000000E+00  0.71858809525E+03  0.71858809525E+03  0.00000000000E+00 0. -1.
         22   -1    0    0    0    0 -0.00000000000E+00 -0.00000000000E+00 -0.73867918361E+03  0.73867918361E+03  0.00000000000E+00 0. -1.
        -24    2    1    2    0    0  0.45749979347E+02  0.18405803422E+02 -0.65070502106E+03  0.65747115982E+03  0.80121578551E+02 0.  0.
         25    2    1    2    0    0 -0.58272323976E+02 -0.41890772946E+02 -0.17808099460E+02  0.14531686241E+03  0.12509740803E+03 0.  0.
         24    2    1    2    0    0  0.12522344629E+02  0.23484969524E+02  0.64842203217E+03  0.65447925662E+03  0.84756195288E+02 0.  0.
        -11    1    5    5    0    0 -0.12536376742E+02 -0.17008172512E+02  0.51570810281E+02  0.55731383861E+02  0.00000000000E+00 0.  1.
         12    1    5    5    0    0  0.25058721371E+02  0.40493142035E+02  0.59685122188E+03  0.59874787276E+03  0.00000000000E+00 0. -1.
         13    1    3    3    0    0 -0.50341715229E+01  0.15198889525E+02 -0.45427992984E+03  0.45456199113E+03  0.00000000000E+00 0. -1.
        -14    1    3    3    0    0  0.50784150869E+02  0.32069138966E+01 -0.19642509122E+03  0.20290916869E+03  0.00000000000E+00 0.  1.
          5    1    4    4  501    0  0.93570562898E+01 -0.30492433311E+02 -0.57557629509E+02  0.65937061705E+02  0.41800000000E+01 0.  1.
         -5    1    4    4    0  501 -0.67629380266E+02 -0.11398339635E+02  0.39749530049E+02  0.79379800709E+02  0.41800000000E+01 0.  1.
</event>
<event>
11    1  0.5813833E-009  0.1366983E+03  0.7561462E-02  0.1111302E+00
         22   -1    0    0    0    0  0.00000000000E+00  0.00000000000E+00  0.10637362409E+04  0.10637362409E+04  0.00000000000E+00 0.  1.
         22   -1    0    0    0    0 -0.00000000000E+00 -0.00000000000E+00 -0.95030971136E+02  0.95030971136E+02  0.00000000000E+00 0.  1.
        -24    2    1    2    0    0  0.11866875874E+02 -0.16126504756E+00 -0.25257561417E+02  0.82706642887E+02  0.77856249714E+02 0.  0.
         25    2    1    2    0    0 -0.60557827350E+02  0.24657907566E+02  0.90124312796E+02  0.16746738335E+03  0.12509064661E+03 0.  0.
         24    2    1    2    0    0  0.48690951476E+02 -0.24496642518E+02  0.90383851833E+03  0.90859318575E+03  0.75143966602E+02 0.  0.
        -13    1    5    5    0    0  0.66279555630E+02 -0.28559438868E+02  0.62110328716E+03  0.62528226776E+03  0.00000000000E+00 0.  1.
         14    1    5    5    0    0 -0.17588604154E+02  0.40627963504E+01  0.28273523117E+03  0.28331091799E+03  0.00000000000E+00 0. -1.
         13    1    3    3    0    0  0.35293438750E+01 -0.73364999564E+01  0.27569531599E+02  0.28746470608E+02  0.00000000000E+00 0. -1.
        -14    1    3    3    0    0  0.83375319992E+01  0.71752349088E+01 -0.52827093016E+02  0.53960172279E+02  0.00000000000E+00 0.  1.
          5    1    4    4  501    0 -0.95040876574E+02  0.31725211217E+02  0.85376398295E+02  0.13170367889E+03  0.41800000000E+01 0. -1.
         -5    1    4    4    0  501  0.34483049225E+02 -0.70673036516E+01  0.47479145013E+01  0.35763704462E+02  0.41800000000E+01 0. -1.
</event>
<event>
11    1  0.5813833E-009  0.1598153E+03  0.7561462E-02  0.1087251E+00
         22   -1    0    0    0    0  0.00000000000E+00  0.00000000000E+00  0.11581562653E+04  0.11581562653E+04  0.00000000000E+00 0. -1.
         22   -1    0    0    0    0 -0.00000000000E+00 -0.00000000000E+00 -0.26231805305E+03  0.26231805305E+03  0.00000000000E+00 0.  1.
         24    2    1    2    0    0  0.72256893373E+02 -0.66911169390E+02 -0.21829744360E+03  0.25244273228E+03  0.79846076718E+02 0.  0.
         25    2    1    2    0    0 -0.54249768674E+02  0.11513318887E+03  0.30667261946E+03  0.35481566781E+03  0.12508946406E+03 0.  0.
        -24    2    1    2    0    0 -0.18007124698E+02 -0.48222019476E+02  0.80746303643E+03  0.81321591831E+03  0.81694276956E+02 0.  0.
        -11    1    3    3    0    0  0.17395041181E+02 -0.49406173426E+02 -0.16802375015E+03  0.17599868763E+03  0.00000000000E+00 0.  1.
         12    1    3    3    0    0  0.54861852192E+02 -0.17504995964E+02 -0.50273693447E+02  0.76444044650E+02  0.00000000000E+00 0. -1.
         13    1    5    5    0    0 -0.22003653999E+02 -0.14955703105E+02  0.70316647987E+03  0.70366961869E+03  0.00000000000E+00 0. -1.
        -14    1    5    5    0    0  0.39965293002E+01 -0.33266316372E+02  0.10429655656E+03  0.10954629963E+03  0.00000000000E+00 0.  1.
          5    1    4    4  501    0 -0.27908699582E+02  0.55950085390E+02  0.27916991255E+02  0.68601300048E+02  0.41800000000E+01 0.  1.
         -5    1    4    4    0  501 -0.26341069092E+02  0.59183103476E+02  0.27875562821E+03  0.28621436776E+03  0.41800000000E+01 0.  1.
</event>
<event>
11    1  0.5813833E-009  0.1476690E+03  0.7561462E-02  0.1099285E+00
         22   -1    0    0    0    0  0.00000000000E+00  0.00000000000E+00  0.78212619327E+03  0.78212619327E+03  0.00000000000E+00 0.  1.
         22   -1    0    0    0    0 -0.00000000000E+00 -0.00000000000E+00 -0.49616506343E+03  0.49616506343E+03  0.00000000000E+00 0. -1.
        -24    2    1    2    0    0 -0.65512825582E+02  0.51827357462E+02 -0.24907226261E+03  0.27478460213E+03  0.80570343605E+02 0.  0.
         25    2    1    2    0    0  0.18630751473E+02 -0.78633357146E+02 -0.20712478594E+03  0.25510366996E+03  0.12508755222E+03 0.  0.
         24    2    1    2    0    0  0.46882074110E+02  0.26805999684E+02  0.74215817839E+03  0.74840298461E+03  0.79948578040E+02 0.  0.
        -13    1    5    5    0    0  0.48787309292E+02  0.37488962682E+02  0.72784671897E+03  0.73044265360E+03  0.00000000000E+00 0.  1.
         14    1    5    5    0    0 -0.19052351826E+01 -0.10682962998E+02  0.14311459412E+02  0.17960331011E+02  0.00000000000E+00 0. -1.
         11    1    3    3    0    0 -0.80246938268E+02  0.53310069898E+02 -0.18018550634E+03  0.20432413306E+03  0.00000000000E+00 0. -1.
        -12    1    3    3    0    0  0.14734112685E+02 -0.14827124362E+01 -0.68886756267E+02  0.70460469071E+02  0.00000000000E+00 0.  1.
          5    1    4    4  501    0 -0.49373560703E+02 -0.58151964749E+02 -0.89893433533E+02  0.11797330754E+03  0.41800000000E+01 0.  1.
         -5    1    4    4    0  501  0.68004312176E+02 -0.20481392397E+02 -0.11723135241E+03  0.13713036242E+03  0.41800000000E+01 0.  1.
</event>
<event>
11    1  0.5813833E-009  0.1662019E+03  0.7561462E-02  0.1081385E+00
         22   -1    0    0    0    0  0.00000000000E+00  0.00000000000E+00  0.27418270944E+03  0.27418270944E+03  0.00000000000E+00 0.  1.
         22   -1    0    0    0    0 -0.00000000000E+00 -0.00000000000E+00 -0.44299844012E+03  0.44299844012E+03  0.00000000000E+00 0. -1.
        -24    2    1    2    0    0 -0.23771328111E+02 -0.17569389257E+02 -0.30252890506E+03  0.31406658695E+03  0.78995716134E+02 0.  0.
         25    2    1    2    0    0  0.12818940518E+03 -0.10209573527E+01 -0.40989113880E+02  0.18370780133E+03  0.12503952519E+03 0.  0.
         24    2    1    2    0    0 -0.10441807707E+03  0.18590346610E+02  0.17470228826E+03  0.21940676127E+03  0.79810410109E+02 0.  0.
        -13    1    5    5    0    0 -0.98241465006E+02  0.25817013234E+02  0.18131301278E+03  0.20782760216E+03  0.00000000000E+00 0.  1.
         14    1    5    5    0    0 -0.61766120634E+01 -0.72266666243E+01 -0.66107245134E+01  0.11579159109E+02  0.00000000000E+00 0. -1.
         13    1    3    3    0    0  0.61476842003E+01 -0.11798187097E+02 -0.26670558230E+03  0.26703718631E+03  0.00000000000E+00 0. -1.
        -14    1    3    3    0    0 -0.29919012311E+02 -0.57712021598E+01 -0.35823322753E+02  0.47029400646E+02  0.00000000000E+00 0.  1.
          5    1    4    4  501    0  0.91236264117E+02  0.48639351652E+02  0.92321671297E+01  0.10388718751E+03  0.41800000000E+01 0.  1.
         -5    1    4    4    0  501  0.36953141063E+02 -0.49660309004E+02 -0.50221281009E+02  0.79820613823E+02  0.41800000000E+01 0.  1.
</event>
<event>
11    1  0.5813833E-009  0.1669284E+03  0.7561462E-02  0.1080736E+00
         22   -1    0    0    0    0  0.00000000000E+00  0.00000000000E+00  0.10641161539E+04  0.10641161539E+04  0.00000000000E+00 0.  1.
         22   -1    0    0    0    0 -0.00000000000E+00 -0.00000000000E+00 -0.84994793609E+03  0.84994793609E+03  0.00000000000E+00 0. -1.
        -24    2    1    2    0    0  0.55704143129E+02  0.96946876536E+02 -0.79197372285E+03  0.80399055314E+03  0.81711586832E+02 0.  0.
         25    2    1    2    0    0 -0.90111621926E+01 -0.91797404640E+02  0.71857663878E+02  0.17123700558E+03  0.12510245273E+03 0.  0.
         24    2    1    2    0    0 -0.46692980937E+02 -0.51494718956E+01  0.93428427683E+03  0.93883653132E+03  0.79499503613E+02 0.  0.
        -11    1    5    5    0    0  0.50985620598E+01 -0.47741609610E+01  0.63941658074E+03  0.63945472996E+03  0.00000000000E+00 0.  1.
         12    1    5    5    0    0 -0.51791542997E+02 -0.37531093456E+00  0.29486769609E+03  0.29938180136E+03  0.00000000000E+00 0. -1.
         13    1    3    3    0    0  0.57259689027E+02  0.63751887921E+02 -0.71544011987E+03  0.72055363459E+03  0.00000000000E+00 0. -1.
        -14    1    3    3    0    0 -0.15555458971E+01  0.33194988614E+02 -0.76533602979E+02  0.83436918550E+02  0.00000000000E+00 0.  1.
          5    1    4    4  501    0 -0.27395116497E+02  0.15907152750E+02 -0.11271446476E+02  0.33882854398E+02  0.41800000000E+01 0. -1.
         -5    1    4    4    0  501  0.18383954305E+02 -0.10770455739E+03  0.83129110353E+02  0.13735415118E+03  0.41800000000E+01 0. -1.
</event>
<event>
11    1  0.5813833E-009  0.1872049E+03  0.7561462E-02  0.1063959E+00
         22   -1    0    0    0    0  0.00000000000E+00  0.00000000000E+00  0.14436767800E+04  0.14436767800E+04  0.00000000000E+00 0.  1.
         22   -1    0    0    0    0 -0.00000000000E+00 -0.00000000000E+00 -0.19643501723E+03  0.19643501723E+03  0.00000000000E+00 0.  1.
         24    2    1    2    0    0  0.41968403791E+02  0.48544420731E+02 -0.98835126987E+02  0.14290949290E+03  0.80850684182E+02 0.  0.
         25    2    1    2    0    0  0.83229726754E+02 -0.11176856935E+03  0.53803460333E+02  0.19483714497E+03  0.12508916902E+03 0.  0.
        -24    2    1    2    0    0 -0.12519813054E+03  0.63224148623E+02  0.12922734294E+04  0.13023651593E+04  0.80700229668E+02 0.  0.
        -11    1    3    3    0    0 -0.30128718210E+01  0.48794597249E+02 -0.80816930720E+02  0.94452985174E+02  0.00000000000E+00 0.  1.
         12    1    3    3    0    0  0.44981275612E+02 -0.25017651818E+00 -0.18018196267E+02  0.48456507723E+02  0.00000000000E+00 0. -1.
         13    1    5    5    0    0 -0.47974283830E+02 -0.15568687733E+02  0.33966518527E+03  0.34338950774E+03  0.00000000000E+00 0. -1.
        -14    1    5    5    0    0 -0.77223846715E+02  0.78792836355E+02  0.95260824413E+03  0.95897565159E+03  0.00000000000E+00 0.  1.
          5    1    4    4  501    0 -0.22913277302E+02 -0.36151400001E+02 -0.17259432313E+02  0.46338994406E+02  0.41800000000E+01 0.  1.
         -5    1    4    4    0  501  0.10614300406E+03 -0.75617169352E+02  0.71062892646E+02  0.14849815057E+03  0.41800000000E+01 0.  1.
</event>
<event>
11    1  0.5813833E-009  0.1723342E+03  0.7561462E-02  0.1076018E+00
         22   -1    0    0    0    0  0.00000000000E+00  0.00000000000E+00  0.83380940467E+03  0.83380940467E+03  0.00000000000E+00 0.  1.
         22   -1    0    0    0    0 -0.00000000000E+00 -0.00000000000E+00 -0.15117678255E+04  0.15117678255E+04  0.00000000000E+00 0. -1.
        -24    2    1    2    0    0  0.16956634950E+02  0.58488879744E+01 -0.13326596359E+04  0.13352148567E+04  0.80593247702E+02 0.  0.
         25    2    1    2    0    0 -0.10393651386E+03 -0.85499047780E+02 -0.12209500567E+03  0.22060746419E+03  0.12509027445E+03 0.  0.
         24    2    1    2    0    0  0.86979878908E+02  0.79650159806E+02  0.77679622075E+03  0.78975490922E+03  0.79942484092E+02 0.  0.
        -11    1    5    5    0    0  0.10207448193E+03  0.69412002844E+02  0.64535472815E+03  0.65705399409E+03  0.00000000000E+00 0.  1.
         12    1    5    5    0    0 -0.15094603022E+02  0.10238156962E+02  0.13144149260E+03  0.13270091512E+03  0.00000000000E+00 0. -1.
         13    1    3    3    0    0 -0.22992059100E+02 -0.23533025760E+02 -0.55952349601E+03  0.56048994698E+03  0.00000000000E+00 0. -1.
        -14    1    3    3    0    0  0.39948694050E+02  0.29381913734E+02 -0.77313613987E+03  0.77472490974E+03  0.00000000000E+00 0.  1.
          5    1    4    4  501    0 -0.12329900020E+02  0.25879187890E+02 -0.53542246882E+02  0.60876952958E+02  0.41800000000E+01 0. -1.
         -5    1    4    4    0  501 -0.91606613839E+02 -0.11137823567E+03 -0.68552758785E+02  0.15973051123E+03  0.41800000000E+01 0. -1.
</event>
<event>
11    1  0.5813833E-009  0.1489541E+03  0.7561462E-02  0.1097952E+00
         22   -1    0    0    0    0  0.00000000000E+00  0.00000000000E+00  0.11745066503E+04  0.11745066503E+04  0.00000000000E+00 0. -1.
         22   -1    0    0    0    0 -0.00000000000E+00 -0.00000000000E+00 -0.36410512622E+03  0.36410512622E+03  0.00000000000E+00 0. -1.
        -24    2    1    2    0    0 -0.57920053505E+02 -0.56884070012E+02 -0.32380319932E+03  0.34324219283E+03  0.79850867435E+02 0.  0.
         25    2    1    2    0    0  0.10141595698E+03 -0.61529041202E+00  0.20866775870E+03  0.26358281613E+03  0.12509233600E+03 0.  0.
         24    2    1    2    0    0 -0.43495903478E+02  0.57499360424E+02  0.92553696471E+03  0.93178676756E+03  0.80061458126E+02 0.  0.
        -13    1    5    5    0    0 -0.14585609536E+02  0.17584005257E+02  0.51246995508E+02  0.56108749719E+02  0.00000000000E+00 0.  1.
         14    1    5    5    0    0 -0.28910293942E+02  0.39915355167E+02  0.87428996920E+03  0.87567801784E+03  0.00000000000E+00 0. -1.
         11    1    3    3    0    0 -0.59235352200E+02 -0.46353316415E+02 -0.32401179158E+03  0.33262756647E+03  0.00000000000E+00 0. -1.
        -12    1    3    3    0    0  0.13152986946E+01 -0.10530753597E+02  0.20859226291E+00  0.10614626358E+02  0.00000000000E+00 0.  1.
          5    1    4    4  501    0  0.12755870217E+03  0.12703734981E+02  0.18747116431E+03  0.22714646647E+03  0.41800000000E+01 0. -1.
         -5    1    4    4    0  501 -0.26142745183E+02 -0.13319025393E+02  0.21196594389E+02  0.36436349664E+02  0.41800000000E+01 0. -1.
</event>
<event>
11    1  0.7175796E-009  0.1663845E+03  0.7561462E-02  0.1081222E+00
         22   -1    0    0    0    0  0.00000000000E+00  0.00000000000E+00  0.13906148566E+04  0.13906148566E+04  0.00000000000E+00 0.  1.
         22   -1    0    0    0    0 -0.00000000000E+00 -0.00000000000E+00 -0.16727688695E+03  0.16727688695E+03  0.00000000000E+00 0. -1.
         24    2    1    2    0    0  0.13172721295E+02  0.26824865875E+02 -0.10375495289E+03  0.13453405917E+03  0.80257266411E+02 0.  0.
         25    2    1    2    0    0  0.93540526527E+02 -0.54243674409E+02  0.11026158242E+03  0.19873780948E+03  0.12508754551E+03 0.  0.
        -24    2    1    2    0    0 -0.10671324782E+03  0.27418808533E+02  0.12168313402E+04  0.12246198749E+04  0.82920560774E+02 0.  0.
        -11    1    3    3    0    0 -0.27757932883E+02  0.19180230024E+02 -0.15873508774E+02  0.37287428746E+02  0.00000000000E+00 0.  1.
         12    1    3    3    0    0  0.40930654178E+02  0.76446358516E+01 -0.87881444114E+02  0.97246630422E+02  0.00000000000E+00 0. -1.
         11    1    5    5    0    0 -0.40223961330E+02 -0.15240215793E+02  0.19251891682E+03  0.19726572073E+03  0.00000000000E+00 0. -1.
        -12    1    5    5    0    0 -0.66489286492E+02  0.42659024327E+02  0.10243124233E+04  0.10273541542E+04  0.00000000000E+00 0.  1.
          5    1    4    4  501    0 -0.25257977356E+02 -0.31204518787E+02  0.10129977193E+02  0.41614615831E+02  0.41800000000E+01 0.  1.
         -5    1    4    4    0  501  0.11879850388E+03 -0.23039155622E+02  0.10013160523E+03  0.15712319365E+03  0.41800000000E+01 0.  1.
</event>
<event>
11    1  0.5813833E-009  0.1612073E+03  0.7561462E-02  0.1085947E+00
         22   -1    0    0    0    0  0.00000000000E+00  0.00000000000E+00  0.46979193169E+04  0.46979193169E+04  0.00000000000E+00 0. -1.
         22   -1    0    0    0    0 -0.00000000000E+00 -0.00000000000E+00 -0.10543043664E+04  0.10543043664E+04  0.00000000000E+00 0. -1.
        -24    2    1    2    0    0 -0.10091719619E+03  0.17645883514E+02 -0.10033732625E+04  0.10118549497E+04  0.81221164456E+02 0.  0.
         25    2    1    2    0    0  0.83995020179E+02  0.20819199784E+02  0.78908525083E+02  0.17135301409E+03  0.12508676034E+03 0.  0.
         24    2    1    2    0    0  0.16922176011E+02 -0.38465083298E+02  0.45680796880E+04  0.45690157196E+04  0.82381351912E+02 0.  0.
        -11    1    5    5    0    0  0.32411681621E+02  0.40853110928E+01  0.80365827893E+03  0.80432197295E+03  0.00000000000E+00 0.  1.
         12    1    5    5    0    0 -0.15489505610E+02 -0.42550394391E+02  0.37644214091E+04  0.37646937466E+04  0.00000000000E+00 0. -1.
         13    1    3    3    0    0 -0.92673330016E+02  0.14592843890E+02 -0.99592197794E+03  0.10003308869E+04  0.00000000000E+00 0. -1.
        -14    1    3    3    0    0 -0.82438661745E+01  0.30530396233E+01 -0.74512845759E+01  0.11524062750E+02  0.00000000000E+00 0.  1.
          5    1    4    4  501    0  0.73750703640E+02  0.59007436434E+02  0.14482510287E+02  0.95646533373E+02  0.41800000000E+01 0. -1.
         -5    1    4    4    0  501  0.10244316539E+02 -0.38188236650E+02  0.64426014796E+02  0.75706480715E+02  0.41800000000E+01 0. -1.
</event>
<event>
11    1  0.5813833E-009  0.1857673E+03  0.7561462E-02  0.1065071E+00
         22   -1    0    0    0    0  0.00000000000E+00  0.00000000000E+00  0.11074678889E+03  0.11074678889E+03  0.00000000000E+00 0.  1.
         22   -1    0    0    0    0 -0.00000000000E+00 -0.00000000000E+00 -0.23392967532E+04  0.23392967532E+04  0.00000000000E+00 0. -1.
        -24    2    1    2    0    0  0.13918729081E+03 -0.29710983943E+02 -0.19389690009E+04  0.19458731356E+04  0.81028568405E+02 0.  0.
         25    2    1    2    0    0 -0.10206335665E+03  0.46345056935E+02 -0.35199008792E+03  0.39001606635E+03  0.12510282550E+03 0.  0.
         24    2    1    2    0    0 -0.37123934161E+02 -0.16634072992E+02  0.62409124542E+02  0.11415434011E+03  0.86495292756E+02 0.  0.
        -13    1    5    5    0    0 -0.62882898869E+02 -0.23827888675E+02  0.53607005627E+02  0.85998478482E+02  0.00000000000E+00 0.  1.
         14    1    5    5    0    0  0.25758964708E+02  0.71938156827E+01  0.88021189146E+01  0.28155861633E+02  0.00000000000E+00 0. -1.
         11    1    3    3    0    0  0.41479540513E+02 -0.46747209339E+02 -0.90624116705E+03  0.90839358579E+03  0.00000000000E+00 0. -1.
        -12    1    3    3    0    0  0.97707750294E+02  0.17036225396E+02 -0.10327278339E+04  0.10374795498E+04  0.00000000000E+00 0.  1.
          5    1    4    4  501    0 -0.12314942716E+02 -0.34286188317E+02 -0.34495402969E+02  0.50344868154E+02  0.41800000000E+01 0.  1.
         -5    1    4    4    0  501 -0.89748413929E+02  0.80631245252E+02 -0.31749468495E+03  0.33967119820E+03  0.41800000000E+01 0.  1.
</event>
<event>
11    1  0.5813833E-009  0.1367613E+03  0.7561462E-02  0.1111230E+00
         22   -1    0    0    0    0  0.00000000000E+00  0.00000000000E+00  0.19491395986E+03  0.19491395986E+03  0.00000000000E+00 0. -1.
         22   -1    0    0    0    0 -0.00000000000E+00 -0.00000000000E+00 -0.42200015426E+03  0.42200015426E+03  0.00000000000E+00 0.  1.
         24    2    1    2    0    0 -0.49453780739E+02 -0.18101228595E+02 -0.32446578339E+03  0.33993597170E+03  0.86631918827E+02 0.  0.
         25    2    1    2    0    0  0.69746637514E+02  0.43154986527E+02  0.40715690475E+01  0.14966204107E+03  0.12512075190E+03 0.  0.
        -24    2    1    2    0    0 -0.20292856776E+02 -0.25053757932E+02  0.93308019945E+02  0.12731610135E+03  0.80395971622E+02 0.  0.
        -11    1    3    3    0    0  0.20020875366E+02  0.14419625537E+02 -0.78820305851E+02  0.82591777226E+02  0.00000000000E+00 0.  1.
         12    1    3    3    0    0 -0.69474656104E+02 -0.32520854132E+02 -0.24564547754E+03  0.25734419447E+03  0.00000000000E+00 0. -1.
         11    1    5    5    0    0 -0.22103193463E+02 -0.57263047349E+00  0.99559057854E+02  0.10198472958E+03  0.00000000000E+00 0. -1.
        -12    1    5    5    0    0  0.18103366875E+01 -0.24481127458E+02 -0.62510379085E+01  0.25331371765E+02  0.00000000000E+00 0.  1.
          5    1    4    4  501    0  0.75938161047E+01 -0.41473079613E+02 -0.10294502972E+02  0.43601967468E+02  0.41800000000E+01 0. -1.
         -5    1    4    4    0  501  0.62152821410E+02  0.84628066139E+02  0.14366072020E+02  0.10606007360E+03  0.41800000000E+01 0. -1.
</event>
<event>
11    1  0.5813833E-009  0.1963198E+03  0.7561462E-02  0.1057157E+00
         22   -1    0    0    0    0  0.00000000000E+00  0.00000000000E+00  0.31510308257E+04  0.31510308257E+04  0.00000000000E+00 0.  1.
         22   -1    0    0    0    0 -0.00000000000E+00 -0.00000000000E+00 -0.41958737984E+03  0.41958737984E+03  0.00000000000E+00 0. -1.
        -24    2    1    2    0    0  0.49481860949E+02  0.14776438529E+03 -0.37988540208E+03  0.41862146625E+03  0.81536771891E+02 0.  0.
         25    2    1    2    0    0 -0.38448183219E+01 -0.84815487698E+02  0.27856762570E+03  0.31694876901E+03  0.12509256774E+03 0.  0.
         24    2    1    2    0    0 -0.45637042627E+02 -0.62948897589E+02  0.28327612222E+04  0.28350479702E+04  0.83159774947E+02 0.  0.
        -13    1    5    5    0    0 -0.13303463347E+01 -0.41342392455E+02  0.21931474290E+04  0.21935374646E+04  0.00000000000E+00 0.  1.
         14    1    5    5    0    0 -0.44306696292E+02 -0.21606505134E+02  0.63961379317E+03  0.64151050561E+03  0.00000000000E+00 0. -1.
         11    1    3    3    0    0  0.31258872474E+01  0.10292462757E+03 -0.29190077331E+03  0.30953079263E+03  0.00000000000E+00 0. -1.
        -12    1    3    3    0    0  0.46355973701E+02  0.44839757716E+02 -0.87984628775E+02  0.10909067362E+03  0.00000000000E+00 0.  1.
          5    1    4    4  501    0  0.30976228353E+02 -0.29375814595E+02  0.15159345959E+02  0.45494432363E+02  0.41800000000E+01 0. -1.
         -5    1    4    4    0  501 -0.34821046675E+02 -0.55439673103E+02  0.26340827974E+03  0.27145433664E+03  0.41800000000E+01 0. -1.
</event>
<event>
11    1  0.5813833E-009  0.1514470E+03  0.7561462E-02  0.1095409E+00
         22   -1    0    0    0    0  0.00000000000E+00  0.00000000000E+00  0.26460994904E+04  0.26460994904E+04  0.00000000000E+00 0.  1.
         22   -1    0    0    0    0 -0.00000000000E+00 -0.00000000000E+00 -0.13374823877E+04  0.13374823877E+04  0.00000000000E+00 0.  1.
         24    2    1    2    0    0  0.33559291016E+02  0.30502669185E+02 -0.12618207188E+04  0.12653590990E+04  0.82978818084E+02 0.  0.
         25    2    1    2    0    0 -0.11828915051E+03 -0.31340245240E+02  0.33081282982E+02  0.17809219863E+03  0.12509166971E+03 0.  0.
        -24    2    1    2    0    0  0.84729859489E+02  0.83757605445E+00  0.25373565385E+04  0.25401305805E+04  0.83098206889E+02 0.  0.
        -11    1    3    3    0    0  0.25675646686E+02  0.29677246432E+02 -0.12525374466E+04  0.12531520391E+04  0.00000000000E+00 0.  1.
         12    1    3    3    0    0  0.78836443301E+01  0.82542275266E+00 -0.92832721412E+01  0.12207059936E+02  0.00000000000E+00 0. -1.
         11    1    5    5    0    0  0.28440299847E+02  0.31317938112E+02  0.50588251950E+03  0.50764829109E+03  0.00000000000E+00 0. -1.
        -12    1    5    5    0    0  0.56289559642E+02 -0.30480362057E+02  0.20314740190E+04  0.20324822894E+04  0.00000000000E+00 0.  1.
          5    1    4    4  501    0 -0.58600153034E+02  0.14044744057E+02 -0.40681073030E+02  0.72826196345E+02  0.41800000000E+01 0.  1.
         -5    1    4    4    0  501 -0.59688997472E+02 -0.45384989296E+02  0.73762356012E+02  0.10526600228E+03  0.41800000000E+01 0.  1.
</event>
<event>
11    1  0.5813833E-009  0.3570375E+03  0.7561462E-02  0.9785784E-01
         22   -1    0    0    0    0  0.00000000000E+00  0.00000000000E+00  0.36183385147E+04  0.36183385147E+04  0.00000000000E+00 0. -1.
         22   -1    0    0    0    0 -0.00000000000E+00 -0.00000000000E+00 -0.75892425721E+03  0.75892425721E+03  0.00000000000E+00 0. -1.
         24    2    1    2    0    0 -0.29040721437E+03  0.16518285259E+03 -0.63803446789E+03  0.72488351334E+03  0.82136476312E+02 0.  0.
         25    2    1    2    0    0  0.30456416464E+03 -0.14684966768E+03  0.34563783386E+03  0.49943688463E+03  0.12509010452E+03 0.  0.
        -24    2    1    2    0    0 -0.14156950269E+02 -0.18333184903E+02  0.31518108915E+04  0.31529423739E+04  0.81223103917E+02 0.  0.
        -13    1    3    3    0    0 -0.53439075423E+02  0.65695576207E+02 -0.19697804013E+03  0.21441080152E+03  0.00000000000E+00 0.  1.
         14    1    3    3    0    0 -0.23696813895E+03  0.99487276379E+02 -0.44105642776E+03  0.51047271182E+03  0.00000000000E+00 0. -1.
         11    1    5    5    0    0 -0.35549050726E+02 -0.36360034415E+02  0.25193056710E+04  0.25198188132E+04  0.00000000000E+00 0. -1.
        -12    1    5    5    0    0  0.21392100457E+02  0.18026849512E+02  0.63250522046E+03  0.63312356075E+03  0.00000000000E+00 0.  1.
          5    1    4    4  501    0  0.19721446047E+03 -0.15414929491E+03  0.26765016884E+03  0.36648278789E+03  0.41800000000E+01 0.  1.
         -5    1    4    4    0  501  0.10734970418E+03  0.72996272312E+01  0.77987665017E+02  0.13295409674E+03  0.41800000000E+01 0.  1.
</event>
<event>
11    1  0.5813833E-009  0.1286219E+03  0.7561462E-02  0.1120974E+00
         22   -1    0    0    0    0  0.00000000000E+00  0.00000000000E+00  0.21360273445E+03  0.21360273445E+03  0.00000000000E+00 0. -1.
         22   -1    0    0    0    0 -0.00000000000E+00 -0.00000000000E+00 -0.49974981339E+03  0.49974981339E+03  0.00000000000E+00 0. -1.
        -24    2    1    2    0    0 -0.93690351453E+01  0.28520108627E+02 -0.39778893596E+03  0.40668431344E+03  0.79088038359E+02 0.  0.
         25    2    1    2    0    0 -0.52958360694E+01 -0.33642282227E+02 -0.39231867104E+02  0.13541861895E+03  0.12505684279E+03 0.  0.
         24    2    1    2    0    0  0.14664871215E+02  0.51221736000E+01  0.15087372413E+03  0.17124961545E+03  0.79512609362E+02 0.  0.
        -13    1    5    5    0    0 -0.31205098804E+02  0.29393813963E+01  0.37159779923E+02  0.48613243034E+02  0.00000000000E+00 0.  1.
         14    1    5    5    0    0  0.45869970019E+02  0.21827922038E+01  0.11371394421E+03  0.12263637241E+03  0.00000000000E+00 0. -1.
         13    1    3    3    0    0  0.17850077463E+02  0.47926361412E+02 -0.24510344916E+03  0.25038223215E+03  0.00000000000E+00 0. -1.
        -14    1    3    3    0    0 -0.27219112608E+02 -0.19406252786E+02 -0.15268548680E+03  0.15630208129E+03  0.00000000000E+00 0.  1.
          5    1    4    4  501    0  0.27518446926E+02 -0.13158566828E+02 -0.75929848213E+02  0.81934284959E+02  0.41800000000E+01 0. -1.
         -5    1    4    4    0  501 -0.32814282995E+02 -0.20483715398E+02  0.36697981109E+02  0.53484333991E+02  0.41800000000E+01 0. -1.
</event>
<event>
11    1  0.5813833E-009  0.1680861E+03  0.7561462E-02  0.1079709E+00
         22   -1    0    0    0    0  0.00000000000E+00  0.00000000000E+00  0.60765042992E+03  0.60765042992E+03  0.00000000000E+00 0. -1.
         22   -1    0    0    0    0 -0.00000000000E+00 -0.00000000000E+00 -0.32466341904E+03  0.32466341904E+03  0.00000000000E+00 0.  1.
        -24    2    1    2    0    0 -0.79068566608E+02  0.53574380938E+02 -0.26489020971E+03  0.29283787608E+03  0.80406131266E+02 0.  0.
         25    2    1    2    0    0  0.98280415038E+02  0.66903963143E+02  0.21312289207E+03  0.27422717787E+03  0.12507596770E+03 0.  0.
         24    2    1    2    0    0 -0.19211848429E+02 -0.12047834408E+03  0.33475432853E+03  0.36524879501E+03  0.80387158628E+02 0.  0.
        -11    1    5    5    0    0 -0.36590047271E+02 -0.44948909740E+02  0.78811679529E+02  0.97829018580E+02  0.00000000000E+00 0.  1.
         12    1    5    5    0    0  0.17378198842E+02 -0.75529434342E+02  0.25594264900E+03  0.26741977643E+03  0.00000000000E+00 0. -1.
         13    1    3    3    0    0 -0.43823274307E+02  0.72007248398E+02 -0.16411105965E+03  0.18449380231E+03  0.00000000000E+00 0. -1.
        -14    1    3    3    0    0 -0.35245292301E+02 -0.18432867459E+02 -0.10077915007E+03  0.10834407377E+03  0.00000000000E+00 0.  1.
          5    1    4    4  501    0 -0.28262202197E+02  0.26065106155E+02  0.37146800347E+02  0.53623679545E+02  0.41800000000E+01 0. -1.
         -5    1    4    4    0  501  0.12654261723E+03  0.40838856988E+02  0.17597609172E+03  0.22060349833E+03  0.41800000000E+01 0. -1.
</event>
<event>
11    1  0.5813833E-009  0.1772683E+03  0.7561462E-02  0.1071874E+00
         22   -1    0    0    0    0  0.00000000000E+00  0.00000000000E+00  0.62915664945E+03  0.62915664945E+03  0.00000000000E+00 0. -1.
         22   -1    0    0    0    0 -0.00000000000E+00 -0.00000000000E+00 -0.22480855153E+03  0.22480855153E+03  0.00000000000E+00 0. -1.
         24    2    1    2    0    0 -0.79435994270E+02  0.67187607407E+02 -0.68167897113E+02  0.14768336002E+03  0.79619475344E+02 0.  0.
         25    2    1    2    0    0  0.15390093909E+03  0.34325601596E+02 -0.97193251453E+01  0.20150990541E+03  0.12509208896E+03 0.  0.
        -24    2    1    2    0    0 -0.74464944818E+02 -0.10151320900E+03  0.48223532018E+03  0.50477193556E+03  0.79961511298E+02 0.  0.
        -11    1    3    3    0    0  0.38232235689E+01 -0.14113308128E+02 -0.68501631756E+01  0.16147050514E+02  0.00000000000E+00 0.  1.
         12    1    3    3    0    0 -0.83259217839E+02  0.81300915535E+02 -0.61317733938E+02  0.13153630950E+03  0.00000000000E+00 0. -1.
         11    1    5    5    0    0 -0.42676416502E+02 -0.10790209434E+03  0.39566709033E+03  0.41233067417E+03  0.00000000000E+00 0. -1.
        -12    1    5    5    0    0 -0.31788528315E+02  0.63888853365E+01  0.86568229849E+02  0.92441261391E+02  0.00000000000E+00 0.  1.
          5    1    4    4  501    0  0.16787179372E+03  0.38073960426E+02 -0.31487869750E+02  0.17504149202E+03  0.41800000000E+01 0.  1.
         -5    1    4    4    0  501 -0.13970854628E+02 -0.37483588299E+01  0.21768544605E+02  0.26468413386E+02  0.41800000000E+01 0.  1.
</event>
<event>
11    1  0.5813833E-009  0.1329227E+03  0.7561462E-02  0.1115729E+00
         22   -1    0    0    0    0  0.00000000000E+00  0.00000000000E+00  0.14194814441E+04  0.14194814441E+04  0.00000000000E+00 0. -1.
         22   -1    0    0    0    0 -0.00000000000E+00 -0.00000000000E+00 -0.23038755274E+03  0.23038755274E+03  0.00000000000E+00 0. -1.
        -24    2    1    2    0    0  0.16754985559E+01 -0.59984416655E+02 -0.17156643645E+03  0.19904049890E+03  0.81124229117E+02 0.  0.
         25    2    1    2    0    0  0.27167713468E+02  0.22596098362E+02  0.55350450447E+02  0.14127506114E+03  0.12508517985E+03 0.  0.
         24    2    1    2    0    0 -0.28843212024E+02  0.37388318292E+02  0.13053098773E+04  0.13095534368E+04  0.94162150867E+02 0.  0.
        -11    1    5    5    0    0 -0.44120883205E+02  0.77775881863E+01  0.26878483684E+03  0.27249299391E+03  0.00000000000E+00 0.  1.
         12    1    5    5    0    0  0.15277671181E+02  0.29610730106E+02  0.10365250405E+04  0.10370604429E+04  0.00000000000E+00 0. -1.
         11    1    3    3    0    0 -0.17899406926E+02 -0.58483571757E+02 -0.16838938814E+03  0.17915273643E+03  0.00000000000E+00 0. -1.
        -12    1    3    3    0    0  0.19574905482E+02 -0.15008448981E+01 -0.31770483122E+01  0.19887762469E+02  0.00000000000E+00 0.  1.
          5    1    4    4  501    0 -0.20523694398E+02 -0.82102088249E+01 -0.30722503526E+02  0.38078526542E+02  0.41800000000E+01 0. -1.
         -5    1    4    4    0  501  0.47691407866E+02  0.30806307187E+02  0.86072953974E+02  0.10319653460E+03  0.41800000000E+01 0. -1.
</event>
<event>
11    1  0.5813833E-009  0.1418680E+03  0.7561462E-02  0.1105490E+00
         22   -1    0    0    0    0  0.00000000000E+00  0.00000000000E+00  0.29884164636E+03  0.29884164636E+03  0.00000000000E+00 0.  1.
         22   -1    0    0    0    0 -0.00000000000E+00 -0.00000000000E+00 -0.16430799697E+03  0.16430799697E+03  0.00000000000E+00 0. -1.
        -24    2    1    2    0    0  0.45145097244E+02 -0.54319379039E+02 -0.79431516330E+02  0.13299691862E+03  0.79938350185E+02 0.  0.
         25    2    1    2    0    0  0.32213913056E+01  0.65730621499E+02  0.68340794100E+02  0.15699918676E+03  0.12508952210E+03 0.  0.
         24    2    1    2    0    0 -0.48366488550E+02 -0.11411242461E+02  0.14562437163E+03  0.17315353796E+03  0.79411311706E+02 0.  0.
        -13    1    5    5    0    0 -0.41709064798E+02 -0.41332797337E+02  0.11837774772E+03  0.13214135378E+03  0.00000000000E+00 0.  1.
         14    1    5    5    0    0 -0.66574237521E+01  0.29921554876E+02  0.27246623905E+02  0.41012184183E+02  0.00000000000E+00 0. -1.
         13    1    3    3    0    0  0.53196355800E+02 -0.13021789192E+02 -0.16321727609E+02  0.57147336389E+02  0.00000000000E+00 0. -1.
        -14    1    3    3    0    0 -0.80512585560E+01 -0.41297589847E+02 -0.63109788721E+02  0.75849582227E+02  0.00000000000E+00 0.  1.
          5    1    4    4  501    0  0.20427782746E+02  0.91429170944E+02  0.80417792578E+02  0.12353574936E+03  0.41800000000E+01 0. -1.
         -5    1    4    4    0  501 -0.17206391440E+02 -0.25698549444E+02 -0.12076998478E+02  0.33463437393E+02  0.41800000000E+01 0. -1.
</event>
<event>
11    1  0.5813833E-009  0.1314935E+03  0.7561462E-02  0.1117447E+00
         22   -1    0    0    0    0  0.00000000000E+00  0.00000000000E+00  0.19821543604E+03  0.19821543604E+03  0.00000000000E+00 0. -1.
         22   -1    0    0    0    0 -0.00000000000E+00 -0.00000000000E+00 -0.55942437772E+03  0.55942437772E+03  0.00000000000E+00 0.  1.
        -24    2    1    2    0    0  0.20737495914E+02  0.26699080204E+02 -0.35076225985E+03  0.36122887946E+03  0.79430824003E+02 0.  0.
         25    2    1    2    0    0 -0.22836938912E+02 -0.65492083952E+02 -0.16443333767E+03  0.21793631116E+03  0.12508866593E+03 0.  0.
         24    2    1    2    0    0  0.20994429984E+01  0.38793003748E+02  0.15398665584E+03  0.17847462314E+03  0.81437068499E+02 0.  0.
        -13    1    5    5    0    0 -0.18588679370E+02 -0.19438342487E+02  0.32598777523E+02  0.42261903121E+02  0.00000000000E+00 0.  1.
         14    1    5    5    0    0  0.20688122369E+02  0.58231346235E+02  0.12138787832E+03  0.13621272002E+03  0.00000000000E+00 0. -1.
         13    1    3    3    0    0 -0.10530400577E+02  0.41862353837E+02 -0.11343063181E+03  0.12136661088E+03  0.00000000000E+00 0. -1.
        -14    1    3    3    0    0  0.31267896491E+02 -0.15163273634E+02 -0.23733162804E+03  0.23986226858E+03  0.00000000000E+00 0.  1.
          5    1    4    4  501    0 -0.63769683174E+02 -0.14019890678E+02 -0.38789770071E+02  0.76060820985E+02  0.41800000000E+01 0. -1.
         -5    1    4    4    0  501  0.40932744262E+02 -0.51472193274E+02 -0.12564356760E+03  0.14187549018E+03  0.41800000000E+01 0. -1.
</event>
<event>
11    1  0.5813833E-009  0.1374617E+03  0.7561462E-02  0.1110426E+00
         22   -1    0    0    0    0  0.00000000000E+00  0.00000000000E+00  0.55116154392E+02  0.55116154392E+02  0.00000000000E+00 0. -1.
         22   -1    0    0    0    0 -0.00000000000E+00 -0.00000000000E+00 -0.15330363229E+04  0.15330363229E+04  0.00000000000E+00 0.  1.
        -24    2    1    2    0    0 -0.40889776913E+02 -0.46752785661E+02 -0.89203580065E+03  0.89883746716E+03  0.91231167389E+02 0.  0.
         25    2    1    2    0    0  0.70683796968E+01  0.51275842713E+02 -0.58622701623E+03  0.60165364771E+03  0.12508326512E+03 0.  0.
         24    2    1    2    0    0  0.33821397216E+02 -0.45230570519E+01  0.34264839552E+00  0.87661362397E+02  0.80746839533E+02 0.  0.
        -13    1    5    5    0    0  0.15496676489E+02  0.52180290800E+01 -0.39492895220E+02  0.42744164310E+02  0.00000000000E+00 0.  1.
         14    1    5    5    0    0  0.18324720727E+02 -0.97410861318E+01  0.39835543616E+02  0.44917198086E+02  0.00000000000E+00 0. -1.
         13    1    3    3    0    0 -0.38139901135E+02 -0.25370646115E+02 -0.15854214604E+03  0.16502706994E+03  0.00000000000E+00 0. -1.
        -14    1    3    3    0    0 -0.27498757771E+01 -0.21382139546E+02 -0.73349365461E+03  0.73381039722E+03  0.00000000000E+00 0.  1.
          5    1    4    4  501    0  0.34795948629E+02  0.83281852900E+02 -0.44817582855E+03  0.45719325318E+03  0.41800000000E+01 0.  1.
         -5    1    4    4    0  501 -0.27727568932E+02 -0.32006010187E+02 -0.13805118768E+03  0.14446039453E+03  0.41800000000E+01 0.  1.
</event>
<event>
11    1  0.5813833E-009  0.1459280E+03  0.7561462E-02  0.1101114E+00
         22   -1    0    0    0    0  0.00000000000E+00  0.00000000000E+00  0.55874905826E+03  0.55874905826E+03  0.00000000000E+00 0.  1.
         22   -1    0    0    0    0 -0.00000000000E+00 -0.00000000000E+00 -0.39885945766E+03  0.39885945766E+03  0.00000000000E+00 0.  1.
        -24    2    1    2    0    0 -0.71099900763E+02  0.34811350532E+02 -0.31413056599E+03  0.33385034430E+03  0.80690853814E+02 0.  0.
         25    2    1    2    0    0  0.25443462641E+02 -0.53249354492E+02 -0.22814544214E+01  0.13833489154E+03  0.12509385932E+03 0.  0.
         24    2    1    2    0    0  0.45656438122E+02  0.18438003961E+02  0.47630162101E+03  0.48542328007E+03  0.79674690653E+02 0.  0.
        -13    1    5    5    0    0  0.65828826589E+02  0.27532343158E+02  0.35029603445E+03  0.35748954681E+03  0.00000000000E+00 0.  1.
         14    1    5    5    0    0 -0.20172388467E+02 -0.90943391977E+01  0.12600558656E+03  0.12793373326E+03  0.00000000000E+00 0. -1.
         13    1    3    3    0    0  0.85605980997E+00  0.81258710019E+01 -0.17308319537E+03  0.17327595084E+03  0.00000000000E+00 0. -1.
        -14    1    3    3    0    0 -0.71955960573E+02  0.26685479530E+02 -0.14104737061E+03  0.16057439347E+03  0.00000000000E+00 0.  1.
          5    1    4    4  501    0  0.63283793375E+02 -0.43532413593E+02 -0.37492614162E+02  0.85574984977E+02  0.41800000000E+01 0. -1.
         -5    1    4    4    0  501 -0.37840330734E+02 -0.97169408992E+01  0.35211159740E+02  0.52759906565E+02  0.41800000000E+01 0. -1.
</event>
<event>
11    1  0.5813833E-009  0.1590779E+03  0.7561462E-02  0.1087948E+00
         22   -1    0    0    0    0  0.00000000000E+00  0.00000000000E+00  0.58087891505E+03  0.58087891505E+03  0.00000000000E+00 0. -1.
         22   -1    0    0    0    0 -0.00000000000E+00 -0.00000000000E+00 -0.15064881462E+04  0.15064881462E+04  0.00000000000E+00 0. -1.
         24    2    1    2    0    0 -0.34948376156E+02 -0.11562557014E+02 -0.14528195050E+04  0.14552209945E+04  0.75023642255E+02 0.  0.
         25    2    1    2    0    0  0.89569629663E+02  0.86558557896E+02  0.13836352941E+03  0.22429307872E+03  0.12509123226E+03 0.  0.
        -24    2    1    2    0    0 -0.54621253507E+02 -0.74996000882E+02  0.38884674440E+03  0.40785298810E+03  0.80835560147E+02 0.  0.
        -11    1    3    3    0    0 -0.11710514027E+02  0.27734259905E+02 -0.90564811976E+03  0.90614835547E+03  0.00000000000E+00 0.  1.
         12    1    3    3    0    0 -0.23237862129E+02 -0.39296816919E+02 -0.54717138525E+03  0.54907263899E+03  0.00000000000E+00 0. -1.
         11    1    5    5    0    0 -0.47404665617E+02 -0.92175857695E+02  0.34436272321E+03  0.35962379816E+03  0.00000000000E+00 0. -1.
        -12    1    5    5    0    0 -0.72165878900E+01  0.17179856812E+02  0.44484021193E+02  0.48229189941E+02  0.00000000000E+00 0.  1.
          5    1    4    4  501    0  0.94520936352E+02  0.98125533118E+01  0.10082391902E+03  0.13861251263E+03  0.41800000000E+01 0. -1.
         -5    1    4    4    0  501 -0.49513066883E+01  0.76746004584E+02  0.37539610392E+02  0.85680566092E+02  0.41800000000E+01 0. -1.
</event>
<event>
11    1  0.5813833E-009  0.2085467E+03  0.7561462E-02  0.1048639E+00
         22   -1    0    0    0    0  0.00000000000E+00  0.00000000000E+00  0.89014880695E+03  0.89014880695E+03  0.00000000000E+00 0.  1.
         22   -1    0    0    0    0 -0.00000000000E+00 -0.00000000000E+00 -0.11706789174E+04  0.11706789174E+04  0.00000000000E+00 0. -1.
         24    2    1    2    0    0  0.10968780713E+03 -0.46134160533E+02 -0.11125414498E+04  0.11217860456E+04  0.80595775288E+02 0.  0.
         25    2    1    2    0    0 -0.20546142189E+03 -0.74079989623E+02  0.38425854514E+03  0.45935197912E+03  0.12508944982E+03 0.  0.
        -24    2    1    2    0    0  0.95773614754E+02  0.12021415016E+03  0.44775279417E+03  0.47968969958E+03  0.77431363214E+02 0.  0.
        -13    1    3    3    0    0  0.38095240060E+01 -0.30903277414E+02 -0.40610803265E+03  0.40729996220E+03  0.00000000000E+00 0.  1.
         14    1    3    3    0    0  0.10587828313E+03 -0.15230883119E+02 -0.70643341710E+03  0.71448608345E+03  0.00000000000E+00 0. -1.
         13    1    5    5    0    0  0.98655298420E+00 -0.10264369794E+02  0.37022864989E+02  0.38432058312E+02  0.00000000000E+00 0. -1.
        -14    1    5    5    0    0  0.94787061770E+02  0.13047851995E+03  0.41072992918E+03  0.44125764127E+03  0.00000000000E+00 0.  1.
          5    1    4    4  501    0 -0.14231348671E+03 -0.84476465707E+02  0.17681142727E+03  0.24221716490E+03  0.41800000000E+01 0. -1.
         -5    1    4    4    0  501 -0.63147935177E+02  0.10396476084E+02  0.20744711787E+03  0.21713481422E+03  0.41800000000E+01 0. -1.
</event>
<event>
11    1  0.5813833E-009  0.1762416E+03  0.7561462E-02  0.1072724E+00
         22   -1    0    0    0    0  0.00000000000E+00  0.00000000000E+00  0.31438670074E+03  0.31438670074E+03  0.00000000000E+00 0.  1.
         22   -1    0    0    0    0 -0.00000000000E+00 -0.00000000000E+00 -0.33933556879E+03  0.33933556879E+03  0.00000000000E+00 0.  1.
         24    2    1    2    0    0 -0.27399234060E+01 -0.57337429845E+00 -0.24637423002E+03  0.25947791950E+03  0.81367644405E+02 0.  0.
         25    2    1    2    0    0 -0.73933654993E+02 -0.98455454619E+02  0.14106837784E+03  0.22518301784E+03  0.12508973744E+03 0.  0.
        -24    2    1    2    0    0  0.76673578399E+02  0.99028828918E+02  0.80356984124E+02  0.16906133219E+03  0.80243021900E+02 0.  0.
        -11    1    3    3    0    0  0.19892362261E+02 -0.68049644818E+01 -0.22975742624E+03  0.23071733469E+03  0.00000000000E+00 0.  1.
         12    1    3    3    0    0 -0.22632285667E+02  0.62315901834E+01 -0.16616803780E+02  0.28760584810E+02  0.00000000000E+00 0. -1.
         11    1    5    5    0    0  0.20314793515E+02 -0.11513291136E+02  0.21453532173E+02  0.31709631833E+02  0.00000000000E+00 0. -1.
        -12    1    5    5    0    0  0.56358784884E+02  0.11054212005E+03  0.58903451951E+02  0.13735170036E+03  0.00000000000E+00 0.  1.
          5    1    4    4  501    0  0.25460332795E+02 -0.62100123829E+01  0.63694373825E+02  0.69001727926E+02  0.41800000000E+01 0.  1.
         -5    1    4    4    0  501 -0.99393987788E+02 -0.92245442236E+02  0.77374004018E+02  0.15618128992E+03  0.41800000000E+01 0.  1.
</event>
<event>
11    1  0.5813833E-009  0.1260156E+03  0.7561462E-02  0.1124264E+00
         22   -1    0    0    0    0  0.00000000000E+00  0.00000000000E+00  0.21615710456E+04  0.21615710456E+04  0.00000000000E+00 0.  1.
         22   -1    0    0    0    0 -0.00000000000E+00 -0.00000000000E+00 -0.48502629800E+02  0.48502629800E+02  0.00000000000E+00 0. -1.
         24    2    1    2    0    0 -0.23689931219E+02 -0.89618171914E+01  0.52024350066E+02  0.10181387889E+03  0.83773539531E+02 0.  0.
         25    2    1    2    0    0 -0.44614183885E+01 -0.76111992515E+01  0.14946756121E+03  0.19508590738E+03  0.12506048455E+03 0.  0.
        -24    2    1    2    0    0  0.28151349608E+02  0.16573016443E+02  0.19115765045E+04  0.19131738891E+04  0.71010098325E+02 0.  0.
        -11    1    3    3    0    0 -0.21322497177E+02  0.33763931616E+02  0.41818260843E+02  0.57822304554E+02  0.00000000000E+00 0.  1.
         12    1    3    3    0    0 -0.23674340420E+01 -0.42725748807E+02  0.10206089224E+02  0.43991574333E+02  0.00000000000E+00 0. -1.
         11    1    5    5    0    0 -0.99314035114E+01  0.31413374767E+02  0.55135361713E+03  0.55233707463E+03  0.00000000000E+00 0. -1.
        -12    1    5    5    0    0  0.38082753119E+02 -0.14840358324E+02  0.13602228873E+04  0.13608368145E+04  0.00000000000E+00 0.  1.
          5    1    4    4  501    0  0.52685794145E+02 -0.30966737717E+02  0.56017308797E+02  0.83006885463E+02  0.41800000000E+01 0.  1.
         -5    1    4    4    0  501 -0.57147212533E+02  0.23355538466E+02  0.93450252417E+02  0.11207902192E+03  0.41800000000E+01 0.  1.
</event>
<event>
11    1  0.5813833E-009  0.1549622E+03  0.7561462E-02  0.1091914E+00
         22   -1    0    0    0    0  0.00000000000E+00  0.00000000000E+00  0.23032732420E+04  0.23032732420E+04  0.00000000000E+00 0. -1.
         22   -1    0    0    0    0 -0.00000000000E+00 -0.00000000000E+00 -0.43865729361E+02  0.43865729361E+02  0.00000000000E+00 0. -1.
         24    2    1    2    0    0 -0.73412269021E+02  0.53401164011E+02  0.11086671992E+03  0.15360645150E+03  0.55339559044E+02 0.  0.
         25    2    1    2    0    0  0.63415263932E+02  0.42777159683E+02  0.24212509332E+03  0.28306956811E+03  0.12510970580E+03 0.  0.
        -24    2    1    2    0    0  0.99970050888E+01 -0.96178323695E+02  0.19064156994E+04  0.19104629517E+04  0.78087521679E+02 0.  0.
        -11    1    3    3    0    0 -0.22650998334E+02 -0.46171558766E+01  0.67985458179E+01  0.24095768905E+02  0.00000000000E+00 0.  1.
         12    1    3    3    0    0 -0.50761270687E+02  0.58018319888E+02  0.10406817411E+03  0.12951068259E+03  0.00000000000E+00 0. -1.
         11    1    5    5    0    0 -0.25149781826E+02 -0.76890151134E+02  0.10513514827E+04  0.10544593624E+04  0.00000000000E+00 0. -1.
        -12    1    5    5    0    0  0.35146786915E+02 -0.19288172560E+02  0.85506421670E+03  0.85600358931E+03  0.00000000000E+00 0.  1.
          5    1    4    4  501    0  0.78834726600E+02  0.28370808684E+00  0.21758431112E+03  0.23146360287E+03  0.41800000000E+01 0. -1.
         -5    1    4    4    0  501 -0.15419462668E+02  0.42493451597E+02  0.24540782199E+02  0.51605965241E+02  0.41800000000E+01 0. -1.
</event>
<event>
11    1  0.5813833E-009  0.2017632E+03  0.7561462E-02  0.1053284E+00
         22   -1    0    0    0    0  0.00000000000E+00  0.00000000000E+00  0.17123625532E+03  0.17123625532E+03  0.00000000000E+00 0. -1.
         22   -1    0    0    0    0 -0.00000000000E+00 -0.00000000000E+00 -0.25340078473E+04  0.25340078473E+04  0.00000000000E+00 0. -1.
        -24    2    1    2    0    0  0.12201642624E+03 -0.68819362238E+02 -0.16834373750E+04  0.16910250424E+04  0.77331660017E+02 0.  0.
         25    2    1    2    0    0 -0.11369263545E+03  0.22285191659E+03 -0.76959760657E+03  0.81885118639E+03  0.12509115604E+03 0.  0.
         24    2    1    2    0    0 -0.83237907882E+01 -0.15403255435E+03  0.90263389583E+02  0.19536787382E+03  0.78903823285E+02 0.  0.
        -11    1    5    5    0    0 -0.16355735542E+02 -0.10011842195E+02  0.36869169580E+02  0.41558184931E+02  0.00000000000E+00 0.  1.
         12    1    5    5    0    0  0.80319447537E+01 -0.14402071216E+03  0.53394220003E+02  0.15380968889E+03  0.00000000000E+00 0. -1.
         11    1    3    3    0    0  0.52018490262E+02 -0.29247907135E+02 -0.11514202661E+04  0.11529657378E+04  0.00000000000E+00 0. -1.
        -12    1    3    3    0    0  0.69997935975E+02 -0.39571455103E+02 -0.53201710885E+03  0.53805930455E+03  0.00000000000E+00 0.  1.
          5    1    4    4  501    0 -0.98663316498E+02  0.70606636987E+02 -0.26349679361E+03  0.29011683828E+03  0.41800000000E+01 0.  1.
         -5    1    4    4    0  501 -0.15029318951E+02  0.15224527960E+03 -0.50610081296E+03  0.52873434811E+03  0.41800000000E+01 0.  1.
</event>
<event>
11    1  0.5813833E-009  0.1986488E+03  0.7561462E-02  0.1055483E+00
         22   -1    0    0    0    0  0.00000000000E+00  0.00000000000E+00  0.18056482571E+03  0.18056482571E+03  0.00000000000E+00 0.  1.
         22   -1    0    0    0    0 -0.00000000000E+00 -0.00000000000E+00 -0.96957479380E+03  0.96957479380E+03  0.00000000000E+00 0. -1.
        -24    2    1    2    0    0 -0.13404019730E+03 -0.21297625647E+01 -0.46061852412E+03  0.48613124794E+03  0.78631132997E+02 0.  0.
         25    2    1    2    0    0  0.20295359610E+03  0.10218463394E+03 -0.42031712230E+03  0.49390738717E+03  0.12508462021E+03 0.  0.
         24    2    1    2    0    0 -0.68913398803E+02 -0.10005487137E+03  0.91925678331E+02  0.17010098441E+03  0.75656993985E+02 0.  0.
        -13    1    5    5    0    0 -0.50145029089E+02 -0.87454754024E+02  0.10368915963E+03  0.14461777128E+03  0.00000000000E+00 0.  1.
         14    1    5    5    0    0 -0.18768369714E+02 -0.12600117350E+02 -0.11763481303E+02  0.25483213128E+02  0.00000000000E+00 0. -1.
         13    1    3    3    0    0 -0.52962012214E+02  0.53976186740E+01 -0.31344538854E+03  0.31793414511E+03  0.00000000000E+00 0. -1.
        -14    1    3    3    0    0 -0.81078185084E+02 -0.75273812388E+01 -0.14717313558E+03  0.16819710283E+03  0.00000000000E+00 0.  1.
          5    1    4    4  501    0  0.18874457579E+03  0.36921696403E+02 -0.31746383907E+03  0.37119871777E+03  0.41800000000E+01 0. -1.
         -5    1    4    4    0  501  0.14209020313E+02  0.65262937536E+02 -0.10285328323E+03  0.12270866940E+03  0.41800000000E+01 0. -1.
</event>
<event>
11    1  0.5813833E-009  0.1708117E+03  0.7561462E-02  0.1077327E+00
         22   -1    0    0    0    0  0.00000000000E+00  0.00000000000E+00  0.31475057445E+03  0.31475057445E+03  0.00000000000E+00 0. -1.
         22   -1    0    0    0    0 -0.00000000000E+00 -0.00000000000E+00 -0.13814532422E+04  0.13814532422E+04  0.00000000000E+00 0. -1.
        -24    2    1    2    0    0 -0.23994218873E+02  0.10449725847E+03 -0.86827371961E+03  0.87870569137E+03  0.82030727903E+02 0.  0.
         25    2    1    2    0    0  0.87745871251E+02 -0.13336574543E+03 -0.47700639040E+03  0.51833442052E+03  0.12509882108E+03 0.  0.
         24    2    1    2    0    0 -0.63751652378E+02  0.28868486959E+02  0.27857744231E+03  0.29916370472E+03  0.83641306405E+02 0.  0.
        -13    1    5    5    0    0  0.20187658238E+02  0.31956992427E+01  0.68529819605E+02  0.71512867470E+02  0.00000000000E+00 0.  1.
         14    1    5    5    0    0 -0.83939310616E+02  0.25672787716E+02  0.21004762270E+03  0.22765083725E+03  0.00000000000E+00 0. -1.
         13    1    3    3    0    0 -0.53924521542E+02  0.64257310209E+02 -0.49117239829E+03  0.49828423693E+03  0.00000000000E+00 0. -1.
        -14    1    3    3    0    0  0.29930302669E+02  0.40239948262E+02 -0.37710132132E+03  0.38042145444E+03  0.00000000000E+00 0.  1.
          5    1    4    4  501    0 -0.17663198331E+02 -0.82869519009E+02 -0.22667988453E+03  0.24203427073E+03  0.41800000000E+01 0. -1.
         -5    1    4    4    0  501  0.10540906958E+03 -0.50496226422E+02 -0.25032650587E+03  0.27630014979E+03  0.41800000000E+01 0. -1.
</event>
<event>
11    1  0.5813833E-009  0.1892243E+03  0.7561462E-02  0.1062416E+00
         22   -1    0    0    0    0  0.00000000000E+00  0.00000000000E+00  0.43588785913E+03  0.43588785913E+03  0.00000000000E+00 0. -1.
         22   -1    0    0    0    0 -0.00000000000E+00 -0.00000000000E+00 -0.20860473183E+03  0.20860473183E+03  0.00000000000E+00 0. -1.
         24    2    1    2    0    0  0.37478216877E+02  0.24342600320E+02 -0.46430499732E+02  0.10264248840E+03  0.79890613897E+02 0.  0.
         25    2    1    2    0    0  0.95783960963E+02 -0.82945976845E+02 -0.44128600590E+02  0.18343556158E+03  0.12508664840E+03 0.  0.
        -24    2    1    2    0    0 -0.13326217784E+03  0.58603376525E+02  0.31784222762E+03  0.35841454099E+03  0.79019856666E+02 0.  0.
        -11    1    3    3    0    0  0.55616919994E+02  0.20041888107E+02 -0.76455709692E+01  0.59610182217E+02  0.00000000000E+00 0.  1.
         12    1    3    3    0    0 -0.18138703117E+02  0.43007122133E+01 -0.38784928763E+02  0.43032306183E+02  0.00000000000E+00 0. -1.
         11    1    5    5    0    0 -0.77992701621E+02  0.49470616899E+02  0.26787119208E+03  0.28334639399E+03  0.00000000000E+00 0. -1.
        -12    1    5    5    0    0 -0.55269476218E+02  0.91327596260E+01  0.49971035545E+02  0.75068146995E+02  0.00000000000E+00 0.  1.
          5    1    4    4  501    0  0.60326259891E+02 -0.99879300085E+02 -0.70065721285E+02  0.13616831466E+03  0.41800000000E+01 0. -1.
         -5    1    4    4    0  501  0.35457701071E+02  0.16933323240E+02  0.25937120695E+02  0.47267246917E+02  0.41800000000E+01 0. -1.
</event>
<event>
11    1  0.5813833E-009  0.1488012E+03  0.7561462E-02  0.1098110E+00
         22   -1    0    0    0    0  0.00000000000E+00  0.00000000000E+00  0.22133787772E+04  0.22133787772E+04  0.00000000000E+00 0. -1.
         22   -1    0    0    0    0 -0.00000000000E+00 -0.00000000000E+00 -0.50307551110E+03  0.50307551110E+03  0.00000000000E+00 0. -1.
        -24    2    1    2    0    0  0.78341981575E+02  0.27574310599E+01 -0.41845600675E+03  0.43438318288E+03  0.86245292515E+02 0.  0.
         25    2    1    2    0    0 -0.10428593614E+03 -0.23099802070E+02  0.13497835428E+02  0.16504142899E+03  0.12508926569E+03 0.  0.
         24    2    1    2    0    0  0.25943954560E+02  0.20342371011E+02  0.21152614374E+04  0.21170296764E+04  0.79980005969E+02 0.  0.
        -11    1    5    5    0    0  0.41226642483E+02  0.25347511197E+02  0.69745480417E+03  0.69913184468E+03  0.00000000000E+00 0.  1.
         12    1    5    5    0    0 -0.15282687923E+02 -0.50051401865E+01  0.14178066332E+04  0.14178978317E+04  0.00000000000E+00 0. -1.
         13    1    3    3    0    0  0.53967400674E+02 -0.37453219326E+02 -0.29618799302E+03  0.30338515320E+03  0.00000000000E+00 0. -1.
        -14    1    3    3    0    0  0.24374580901E+02  0.40210650385E+02 -0.12226801373E+03  0.13099802968E+03  0.00000000000E+00 0.  1.
          5    1    4    4  501    0 -0.32005500454E+02  0.14854498947E+02 -0.50134184771E+02  0.61448491283E+02  0.41800000000E+01 0. -1.
         -5    1    4    4    0  501 -0.72280435681E+02 -0.37954301017E+02  0.63632020199E+02  0.10359293771E+03  0.41800000000E+01 0. -1.
</event>
<event>
11    1  0.5813833E-009  0.1433565E+03  0.7561462E-02  0.1103867E+00
         22   -1    0    0    0    0  0.00000000000E+00  0.00000000000E+00  0.19503534582E+04  0.19503534582E+04  0.00000000000E+00 0.  1.
         22   -1    0    0    0    0 -0.00000000000E+00 -0.00000000000E+00 -0.14096715101E+03  0.14096715101E+03  0.00000000000E+00 0.  1.
         24    2    1    2    0    0 -0.68811174842E+02  0.95671783314E+01 -0.10170366794E+03  0.14809934280E+03  0.82239106145E+02 0.  0.
         25    2    1    2    0    0  0.70250319403E+02 -0.72939630092E+02  0.44530246809E+03  0.47349454063E+03  0.12508994725E+03 0.  0.
        -24    2    1    2    0    0 -0.14391445612E+01  0.63372451760E+02  0.14657875071E+04  0.14697267258E+04  0.86864802289E+02 0.  0.
        -13    1    3    3    0    0 -0.20732097991E+02  0.18213316188E+02 -0.94834968155E+02  0.98768496792E+02  0.00000000000E+00 0.  1.
         14    1    3    3    0    0 -0.48079076852E+02 -0.86461378569E+01 -0.68686997878E+01  0.49330846004E+02  0.00000000000E+00 0. -1.
         11    1    5    5    0    0  0.24908668478E+02 -0.11499877361E+02  0.30665191647E+03  0.30787673966E+03  0.00000000000E+00 0. -1.
        -12    1    5    5    0    0 -0.26347813039E+02  0.74872329121E+02  0.11591355906E+04  0.11618499862E+04  0.00000000000E+00 0.  1.
          5    1    4    4  501    0  0.13008052888E+02  0.34849341836E+02  0.13295335043E+03  0.13812223520E+03  0.41800000000E+01 0. -1.
         -5    1    4    4    0  501  0.57242266516E+02 -0.10778897193E+03  0.31234911766E+03  0.33537230543E+03  0.41800000000E+01 0. -1.
</event>
